 Entering Gaussian System, Link 0=g16
 Input=neoxanthin-s1-geom-freq.com
 Output=neoxanthin-s1-geom-freq.log
 Initial command:
 /usr/local/g16/l1.exe "/home/padawan/israel-mol/neoxanthin/geometria/s1/Gau-79004.inp" -scrdir="/home/padawan/israel-mol/neoxanthin/geometria/s1/"
 Entering Link 1 = /usr/local/g16/l1.exe PID=     79006.
  
 Copyright (c) 1988,1990,1992,1993,1995,1998,2003,2009,2016,
            Gaussian, Inc.  All Rights Reserved.
  
 This is part of the Gaussian(R) 16 program.  It is based on
 the Gaussian(R) 09 system (copyright 2009, Gaussian, Inc.),
 the Gaussian(R) 03 system (copyright 2003, Gaussian, Inc.),
 the Gaussian(R) 98 system (copyright 1998, Gaussian, Inc.),
 the Gaussian(R) 94 system (copyright 1995, Gaussian, Inc.),
 the Gaussian 92(TM) system (copyright 1992, Gaussian, Inc.),
 the Gaussian 90(TM) system (copyright 1990, Gaussian, Inc.),
 the Gaussian 88(TM) system (copyright 1988, Gaussian, Inc.),
 the Gaussian 86(TM) system (copyright 1986, Carnegie Mellon
 University), and the Gaussian 82(TM) system (copyright 1983,
 Carnegie Mellon University). Gaussian is a federally registered
 trademark of Gaussian, Inc.
  
 This software contains proprietary and confidential information,
 including trade secrets, belonging to Gaussian, Inc.
  
 This software is provided under written license and may be
 used, copied, transmitted, or stored only in accord with that
 written license.
  
 The following legend is applicable only to US Government
 contracts under FAR:
  
                    RESTRICTED RIGHTS LEGEND
  
 Use, reproduction and disclosure by the US Government is
 subject to restrictions as set forth in subparagraphs (a)
 and (c) of the Commercial Computer Software - Restricted
 Rights clause in FAR 52.227-19.
  
 Gaussian, Inc.
 340 Quinnipiac St., Bldg. 40, Wallingford CT 06492
  
  
 ---------------------------------------------------------------
 Warning -- This program may not be used in any manner that
 competes with the business of Gaussian, Inc. or will provide
 assistance to any competitor of Gaussian, Inc.  The licensee
 of this program is prohibited from giving any competitor of
 Gaussian, Inc. access to this program.  By using this program,
 the user acknowledges that Gaussian, Inc. is engaged in the
 business of creating and licensing software in the field of
 computational chemistry and represents and warrants to the
 licensee that it is not a competitor of Gaussian, Inc. and that
 it will not use this program in any manner prohibited above.
 ---------------------------------------------------------------
  

 Cite this work as:
 Gaussian 16, Revision A.03,
 M. J. Frisch, G. W. Trucks, H. B. Schlegel, G. E. Scuseria, 
 M. A. Robb, J. R. Cheeseman, G. Scalmani, V. Barone, 
 G. A. Petersson, H. Nakatsuji, X. Li, M. Caricato, A. V. Marenich, 
 J. Bloino, B. G. Janesko, R. Gomperts, B. Mennucci, H. P. Hratchian, 
 J. V. Ortiz, A. F. Izmaylov, J. L. Sonnenberg, D. Williams-Young, 
 F. Ding, F. Lipparini, F. Egidi, J. Goings, B. Peng, A. Petrone, 
 T. Henderson, D. Ranasinghe, V. G. Zakrzewski, J. Gao, N. Rega, 
 G. Zheng, W. Liang, M. Hada, M. Ehara, K. Toyota, R. Fukuda, 
 J. Hasegawa, M. Ishida, T. Nakajima, Y. Honda, O. Kitao, H. Nakai, 
 T. Vreven, K. Throssell, J. A. Montgomery, Jr., J. E. Peralta, 
 F. Ogliaro, M. J. Bearpark, J. J. Heyd, E. N. Brothers, K. N. Kudin, 
 V. N. Staroverov, T. A. Keith, R. Kobayashi, J. Normand, 
 K. Raghavachari, A. P. Rendell, J. C. Burant, S. S. Iyengar, 
 J. Tomasi, M. Cossi, J. M. Millam, M. Klene, C. Adamo, R. Cammi, 
 J. W. Ochterski, R. L. Martin, K. Morokuma, O. Farkas, 
 J. B. Foresman, and D. J. Fox, Gaussian, Inc., Wallingford CT, 2016.
 
 ******************************************
 Gaussian 16:  ES64L-G16RevA.03 25-Dec-2016
                 5-Jul-2019 
 ******************************************
 %NProcShared=4
 Will use up to    4 processors via shared memory.
 %Chk=neoxanthin-s1-geom-freq.chk
 %Mem=4GB
 ---------------------------------------------------
 #n CAM-B3LYP/6-31G(d,p) Opt Freq=savenormalmodes td
 ---------------------------------------------------
 1/18=20,19=15,26=3,38=1/1,3;
 2/9=110,12=2,17=6,18=5,40=1/2;
 3/5=1,6=6,7=101,11=9,25=1,30=1,71=1,74=-40/1,2,3,8;
 4//1;
 5/5=2,38=5/2;
 8/6=1,10=2/1;
 9/15=2,42=1,70=2/14;
 10/5=4/2;
 6/7=2,8=2,9=2,10=2/1;
 7/12=6,13=5,92=1/1,2,3,16;
 1/18=20,19=15,26=3/3(2);
 2/9=110/2;
 99//99;
 2/9=110/2;
 3/5=1,6=6,7=101,11=9,25=1,30=1,71=1,74=-40/1,2,3,8;
 4/5=5,16=3,69=1/1;
 5/5=2,38=5/2;
 8/6=1,10=2/1;
 9/15=2,42=1,49=4,70=2/14;
 10/5=4/2;
 7/12=6,13=5,92=1/1,2,3,16;
 1/18=20,19=15,26=3/3(-8);
 2/9=110/2;
 6/7=2,8=2,9=2,10=2/1;
 99//99;
 -----------------------
 neoxanthin-s1-geom-freq
 -----------------------
 Symbolic Z-matrix:
 Charge =  0 Multiplicity = 1
 O                     11.62072   0.84103  -0.86143 
 O                     13.08799  -2.47421   1.24667 
 O                    -10.43627  -0.72734   2.23354 
 O                    -14.38581  -1.20328   0.44453 
 C                     10.8942  -0.30099  -0.38723 
 C                     11.86344   0.423     0.48776 
 C                     11.28256  -1.59716  -1.12929 
 C                     13.27204  -0.10789   0.71115 
 C                     12.81388  -1.7906   -1.10226 
 C                     13.48802  -1.54385   0.24404 
 C                     11.39986   1.40727   1.53448 
 C                     9.42622  -0.04084  -0.25439 
 C                     10.55988  -2.82459  -0.55154 
 C                     10.8503  -1.43974  -2.59647 
 C                     8.67855  -0.37578   0.79946 
 C                     7.23469  -0.13464   0.95226 
 C                     6.50475  -1.17194   1.76328 
 C                     6.65246   0.95005   0.40131 
 C                     5.24767   1.29604   0.41951 
 C                    -11.90723  -0.31118  -1.28258 
 C                    -11.54353  -0.49021   1.36728 
 C                    -12.59765  -1.68704  -1.17973 
 C                    -13.24612  -2.01207   0.1644 
 C                    -12.25365  -1.84648   1.30332 
 C                    -11.04021  -0.08067  -0.03519 
 C                    -11.03511  -0.31008  -2.54399 
 C                    -12.94415   0.8195   -1.43099 
 C                    -12.4169   0.59852   1.9975 
 C                     4.76307   2.41811  -0.14371 
 C                    -9.85965   0.47194  -0.10506 
 C                     3.35985   2.82896  -0.20105 
 C                    -8.64747   0.9825   -0.08659 
 C                     3.13867   4.31657  -0.28713 
 C                     2.36067   1.91724  -0.19214 
 C                    -7.40778   0.19718  -0.13734 
 C                    -7.56082  -1.29703  -0.13691 
 C                    -6.22891   0.85509  -0.15327 
 C                     0.94124   2.17117  -0.1922 
 C                    -4.90218   0.28331  -0.18187 
 C                     0.01218   1.19182  -0.20755 
 C                    -3.78304   1.03401  -0.18517 
 C                    -1.40589   1.44568  -0.19748 
 C                    -2.41537   0.54166  -0.20483 
 C                    -2.20321  -0.947    -0.22859 
 H                     13.53349  -0.05124   1.77249 
 H                     13.95028   0.5677    0.17872 
 H                     13.04344  -2.80693  -1.43702 
 H                     13.26759  -1.10324  -1.82412 
 H                     14.5623  -1.71756   0.12712 
 H                     11.26461   0.91594   2.50316 
 H                     12.15824   2.18644   1.65977 
 H                     10.46106   1.87808   1.24885 
 H                     8.96547   0.43926  -1.11493 
 H                     9.47724  -2.72288  -0.64452 
 H                     10.86447  -3.71736  -1.10463 
 H                     10.7948  -3.01015   0.49714 
 H                     11.27294  -0.52877  -3.02703 
 H                     11.19969  -2.29308  -3.18552 
 H                     9.76161  -1.39595  -2.69171 
 H                     12.24443  -2.17952   1.60728 
 H                     9.15598  -0.90398   1.6258 
 H                     5.46591  -0.90949   1.95945 
 H                     6.51952  -2.14404   1.25812 
 H                     6.99959  -1.31346   2.73041 
 H                     7.29871   1.65875  -0.1127 
 H                     4.55677   0.62139   0.91605 
 H                    -13.34347  -1.77253  -1.98147 
 H                    -11.85238  -2.46773  -1.37423 
 H                    -13.55497  -3.06817   0.14369 
 H                    -12.75332  -2.03382   2.25777 
 H                    -11.47386  -2.60553   1.18979 
 H                    -11.65155  -0.50733  -3.42647 
 H                    -10.54399   0.65575  -2.68397 
 H                    -10.25784  -1.07705  -2.49115 
 H                    -13.65616   0.83668  -0.60845 
 H                    -12.44167   1.78897  -1.48396 
 H                    -13.50806   0.68212  -2.36029 
 H                    -12.63942   0.31216   3.02854 
 H                    -11.87859   1.55134   2.00917 
 H                    -13.35953   0.72795   1.46881 
 H                     5.47761   3.11527  -0.58183 
 H                    -9.88206   0.06455   2.22182 
 H                    -15.01398  -1.31185  -0.27915 
 H                    -8.53567   2.0649   -0.0239 
 H                     2.0993    4.5861   -0.47067 
 H                     3.46007   4.8128    0.63504 
 H                     3.73987   4.74066  -1.09851 
 H                     2.64188   0.86618  -0.19921 
 H                    -6.61224  -1.81833  -0.01382 
 H                    -8.23574  -1.60017   0.66922 
 H                    -8.01621  -1.63721  -1.07329 
 H                    -6.26567   1.94375  -0.14102 
 H                     0.59801   3.20238  -0.16978 
 H                    -4.81483  -0.79816  -0.20081 
 H                     0.35637   0.16087  -0.22463 
 H                    -3.89364   2.11751  -0.16871 
 H                    -1.68619   2.49808  -0.17981 
 H                    -1.14976  -1.22193  -0.24263 
 H                    -2.65964  -1.41627   0.64894 
 H                    -2.67581  -1.39029  -1.11102 
 

 GradGradGradGradGradGradGradGradGradGradGradGradGradGradGradGradGradGrad
 Berny optimization.
 Initialization pass.
                           ----------------------------
                           !    Initial Parameters    !
                           ! (Angstroms and Degrees)  !
 --------------------------                            --------------------------
 ! Name  Definition              Value          Derivative Info.                !
 --------------------------------------------------------------------------------
 ! R1    R(1,5)                  1.4342         estimate D2E/DX2                !
 ! R2    R(1,6)                  1.4332         estimate D2E/DX2                !
 ! R3    R(2,10)                 1.4251         estimate D2E/DX2                !
 ! R4    R(2,60)                 0.9636         estimate D2E/DX2                !
 ! R5    R(3,21)                 1.4257         estimate D2E/DX2                !
 ! R6    R(3,82)                 0.9666         estimate D2E/DX2                !
 ! R7    R(4,23)                 1.4253         estimate D2E/DX2                !
 ! R8    R(4,83)                 0.9644         estimate D2E/DX2                !
 ! R9    R(5,6)                  1.493          estimate D2E/DX2                !
 ! R10   R(5,7)                  1.5432         estimate D2E/DX2                !
 ! R11   R(5,12)                 1.4968         estimate D2E/DX2                !
 ! R12   R(6,8)                  1.5218         estimate D2E/DX2                !
 ! R13   R(6,11)                 1.5097         estimate D2E/DX2                !
 ! R14   R(7,9)                  1.5437         estimate D2E/DX2                !
 ! R15   R(7,13)                 1.5371         estimate D2E/DX2                !
 ! R16   R(7,14)                 1.5376         estimate D2E/DX2                !
 ! R17   R(8,10)                 1.5254         estimate D2E/DX2                !
 ! R18   R(8,45)                 1.0945         estimate D2E/DX2                !
 ! R19   R(8,46)                 1.0954         estimate D2E/DX2                !
 ! R20   R(9,10)                 1.5257         estimate D2E/DX2                !
 ! R21   R(9,47)                 1.0944         estimate D2E/DX2                !
 ! R22   R(9,48)                 1.0952         estimate D2E/DX2                !
 ! R23   R(10,49)                1.0945         estimate D2E/DX2                !
 ! R24   R(11,50)                1.0945         estimate D2E/DX2                !
 ! R25   R(11,51)                1.0945         estimate D2E/DX2                !
 ! R26   R(11,52)                1.0884         estimate D2E/DX2                !
 ! R27   R(12,15)                1.3348         estimate D2E/DX2                !
 ! R28   R(12,53)                1.0878         estimate D2E/DX2                !
 ! R29   R(13,54)                1.0914         estimate D2E/DX2                !
 ! R30   R(13,55)                1.0935         estimate D2E/DX2                !
 ! R31   R(13,56)                1.0906         estimate D2E/DX2                !
 ! R32   R(14,57)                1.0926         estimate D2E/DX2                !
 ! R33   R(14,58)                1.0942         estimate D2E/DX2                !
 ! R34   R(14,59)                1.0937         estimate D2E/DX2                !
 ! R35   R(15,16)                1.4718         estimate D2E/DX2                !
 ! R36   R(15,61)                1.0908         estimate D2E/DX2                !
 ! R37   R(16,17)                1.5055         estimate D2E/DX2                !
 ! R38   R(16,18)                1.3487         estimate D2E/DX2                !
 ! R39   R(17,62)                1.0893         estimate D2E/DX2                !
 ! R40   R(17,63)                1.0956         estimate D2E/DX2                !
 ! R41   R(17,64)                1.0956         estimate D2E/DX2                !
 ! R42   R(18,19)                1.4469         estimate D2E/DX2                !
 ! R43   R(18,65)                1.0882         estimate D2E/DX2                !
 ! R44   R(19,29)                1.3458         estimate D2E/DX2                !
 ! R45   R(19,66)                1.0858         estimate D2E/DX2                !
 ! R46   R(20,22)                1.5428         estimate D2E/DX2                !
 ! R47   R(20,25)                1.5365         estimate D2E/DX2                !
 ! R48   R(20,26)                1.5335         estimate D2E/DX2                !
 ! R49   R(20,27)                1.5413         estimate D2E/DX2                !
 ! R50   R(21,24)                1.5323         estimate D2E/DX2                !
 ! R51   R(21,25)                1.5453         estimate D2E/DX2                !
 ! R52   R(21,28)                1.5314         estimate D2E/DX2                !
 ! R53   R(22,23)                1.5274         estimate D2E/DX2                !
 ! R54   R(22,67)                1.0983         estimate D2E/DX2                !
 ! R55   R(22,68)                1.0967         estimate D2E/DX2                !
 ! R56   R(23,24)                1.5197         estimate D2E/DX2                !
 ! R57   R(23,69)                1.1005         estimate D2E/DX2                !
 ! R58   R(24,70)                1.0935         estimate D2E/DX2                !
 ! R59   R(24,71)                1.0941         estimate D2E/DX2                !
 ! R60   R(25,30)                1.3054         estimate D2E/DX2                !
 ! R61   R(26,72)                1.0944         estimate D2E/DX2                !
 ! R62   R(26,73)                1.0925         estimate D2E/DX2                !
 ! R63   R(26,74)                1.0932         estimate D2E/DX2                !
 ! R64   R(27,75)                1.088          estimate D2E/DX2                !
 ! R65   R(27,76)                1.0932         estimate D2E/DX2                !
 ! R66   R(27,77)                1.0957         estimate D2E/DX2                !
 ! R67   R(28,78)                1.093          estimate D2E/DX2                !
 ! R68   R(28,79)                1.0944         estimate D2E/DX2                !
 ! R69   R(28,80)                1.0885         estimate D2E/DX2                !
 ! R70   R(29,31)                1.4633         estimate D2E/DX2                !
 ! R71   R(29,81)                1.0902         estimate D2E/DX2                !
 ! R72   R(30,32)                1.3154         estimate D2E/DX2                !
 ! R73   R(31,33)                1.5064         estimate D2E/DX2                !
 ! R74   R(31,34)                1.3527         estimate D2E/DX2                !
 ! R75   R(32,35)                1.4684         estimate D2E/DX2                !
 ! R76   R(32,84)                1.09           estimate D2E/DX2                !
 ! R77   R(33,85)                1.0893         estimate D2E/DX2                !
 ! R78   R(33,86)                1.0954         estimate D2E/DX2                !
 ! R79   R(33,87)                1.0953         estimate D2E/DX2                !
 ! R80   R(34,38)                1.442          estimate D2E/DX2                !
 ! R81   R(34,88)                1.0881         estimate D2E/DX2                !
 ! R82   R(35,36)                1.502          estimate D2E/DX2                !
 ! R83   R(35,37)                1.3501         estimate D2E/DX2                !
 ! R84   R(36,89)                1.0894         estimate D2E/DX2                !
 ! R85   R(36,90)                1.0942         estimate D2E/DX2                !
 ! R86   R(36,91)                1.0954         estimate D2E/DX2                !
 ! R87   R(37,39)                1.445          estimate D2E/DX2                !
 ! R88   R(37,92)                1.0893         estimate D2E/DX2                !
 ! R89   R(38,40)                1.35           estimate D2E/DX2                !
 ! R90   R(38,93)                1.0871         estimate D2E/DX2                !
 ! R91   R(39,41)                1.3476         estimate D2E/DX2                !
 ! R92   R(39,94)                1.0852         estimate D2E/DX2                !
 ! R93   R(40,42)                1.4406         estimate D2E/DX2                !
 ! R94   R(40,95)                1.087          estimate D2E/DX2                !
 ! R95   R(41,43)                1.4537         estimate D2E/DX2                !
 ! R96   R(41,96)                1.0893         estimate D2E/DX2                !
 ! R97   R(42,43)                1.3551         estimate D2E/DX2                !
 ! R98   R(42,97)                1.0892         estimate D2E/DX2                !
 ! R99   R(43,44)                1.5039         estimate D2E/DX2                !
 ! R100  R(44,98)                1.0888         estimate D2E/DX2                !
 ! R101  R(44,99)                1.0948         estimate D2E/DX2                !
 ! R102  R(44,100)               1.0948         estimate D2E/DX2                !
 ! A1    A(10,2,60)            108.0222         estimate D2E/DX2                !
 ! A2    A(21,3,82)            107.557          estimate D2E/DX2                !
 ! A3    A(23,4,83)            108.0268         estimate D2E/DX2                !
 ! A4    A(1,5,7)              112.4785         estimate D2E/DX2                !
 ! A5    A(1,5,12)             112.8161         estimate D2E/DX2                !
 ! A6    A(6,5,7)              121.7162         estimate D2E/DX2                !
 ! A7    A(6,5,12)             120.026          estimate D2E/DX2                !
 ! A8    A(7,5,12)             115.8156         estimate D2E/DX2                !
 ! A9    A(1,6,8)              113.3724         estimate D2E/DX2                !
 ! A10   A(1,6,11)             114.2375         estimate D2E/DX2                !
 ! A11   A(5,6,8)              121.1808         estimate D2E/DX2                !
 ! A12   A(5,6,11)             121.5411         estimate D2E/DX2                !
 ! A13   A(8,6,11)             114.1972         estimate D2E/DX2                !
 ! A14   A(5,7,9)              110.271          estimate D2E/DX2                !
 ! A15   A(5,7,13)             111.8172         estimate D2E/DX2                !
 ! A16   A(5,7,14)             107.5831         estimate D2E/DX2                !
 ! A17   A(9,7,13)             111.0841         estimate D2E/DX2                !
 ! A18   A(9,7,14)             107.9629         estimate D2E/DX2                !
 ! A19   A(13,7,14)            107.953          estimate D2E/DX2                !
 ! A20   A(6,8,10)             114.4883         estimate D2E/DX2                !
 ! A21   A(6,8,45)             110.2052         estimate D2E/DX2                !
 ! A22   A(6,8,46)             106.6547         estimate D2E/DX2                !
 ! A23   A(10,8,45)            108.17           estimate D2E/DX2                !
 ! A24   A(10,8,46)            110.1256         estimate D2E/DX2                !
 ! A25   A(45,8,46)            106.9475         estimate D2E/DX2                !
 ! A26   A(7,9,10)             115.6886         estimate D2E/DX2                !
 ! A27   A(7,9,47)             108.6078         estimate D2E/DX2                !
 ! A28   A(7,9,48)             108.7092         estimate D2E/DX2                !
 ! A29   A(10,9,47)            109.1123         estimate D2E/DX2                !
 ! A30   A(10,9,48)            107.2811         estimate D2E/DX2                !
 ! A31   A(47,9,48)            107.1181         estimate D2E/DX2                !
 ! A32   A(2,10,8)             111.0621         estimate D2E/DX2                !
 ! A33   A(2,10,9)             113.0295         estimate D2E/DX2                !
 ! A34   A(2,10,49)            104.3039         estimate D2E/DX2                !
 ! A35   A(8,10,9)             111.0935         estimate D2E/DX2                !
 ! A36   A(8,10,49)            108.7291         estimate D2E/DX2                !
 ! A37   A(9,10,49)            108.2856         estimate D2E/DX2                !
 ! A38   A(6,11,50)            111.0311         estimate D2E/DX2                !
 ! A39   A(6,11,51)            109.3124         estimate D2E/DX2                !
 ! A40   A(6,11,52)            111.4029         estimate D2E/DX2                !
 ! A41   A(50,11,51)           107.6902         estimate D2E/DX2                !
 ! A42   A(50,11,52)           108.6538         estimate D2E/DX2                !
 ! A43   A(51,11,52)           108.6484         estimate D2E/DX2                !
 ! A44   A(5,12,15)            125.1561         estimate D2E/DX2                !
 ! A45   A(5,12,53)            114.9556         estimate D2E/DX2                !
 ! A46   A(15,12,53)           119.8714         estimate D2E/DX2                !
 ! A47   A(7,13,54)            111.0975         estimate D2E/DX2                !
 ! A48   A(7,13,55)            109.3223         estimate D2E/DX2                !
 ! A49   A(7,13,56)            113.3301         estimate D2E/DX2                !
 ! A50   A(54,13,55)           108.0179         estimate D2E/DX2                !
 ! A51   A(54,13,56)           108.1475         estimate D2E/DX2                !
 ! A52   A(55,13,56)           106.7056         estimate D2E/DX2                !
 ! A53   A(7,14,57)            110.6476         estimate D2E/DX2                !
 ! A54   A(7,14,58)            110.1253         estimate D2E/DX2                !
 ! A55   A(7,14,59)            111.5319         estimate D2E/DX2                !
 ! A56   A(57,14,58)           108.3345         estimate D2E/DX2                !
 ! A57   A(57,14,59)           108.5015         estimate D2E/DX2                !
 ! A58   A(58,14,59)           107.5893         estimate D2E/DX2                !
 ! A59   A(12,15,16)           126.1808         estimate D2E/DX2                !
 ! A60   A(12,15,61)           118.3233         estimate D2E/DX2                !
 ! A61   A(16,15,61)           115.4725         estimate D2E/DX2                !
 ! A62   A(15,16,17)           114.7512         estimate D2E/DX2                !
 ! A63   A(15,16,18)           120.8533         estimate D2E/DX2                !
 ! A64   A(17,16,18)           124.3932         estimate D2E/DX2                !
 ! A65   A(16,17,62)           113.1662         estimate D2E/DX2                !
 ! A66   A(16,17,63)           110.8798         estimate D2E/DX2                !
 ! A67   A(16,17,64)           110.2161         estimate D2E/DX2                !
 ! A68   A(62,17,63)           108.039          estimate D2E/DX2                !
 ! A69   A(62,17,64)           107.6322         estimate D2E/DX2                !
 ! A70   A(63,17,64)           106.6379         estimate D2E/DX2                !
 ! A71   A(16,18,19)           127.3225         estimate D2E/DX2                !
 ! A72   A(16,18,65)           117.4104         estimate D2E/DX2                !
 ! A73   A(19,18,65)           115.2656         estimate D2E/DX2                !
 ! A74   A(18,19,29)           122.9379         estimate D2E/DX2                !
 ! A75   A(18,19,66)           118.356          estimate D2E/DX2                !
 ! A76   A(29,19,66)           118.7049         estimate D2E/DX2                !
 ! A77   A(22,20,25)           109.4017         estimate D2E/DX2                !
 ! A78   A(22,20,26)           108.0575         estimate D2E/DX2                !
 ! A79   A(22,20,27)           111.073          estimate D2E/DX2                !
 ! A80   A(25,20,26)           110.2894         estimate D2E/DX2                !
 ! A81   A(25,20,27)           110.3489         estimate D2E/DX2                !
 ! A82   A(26,20,27)           107.6296         estimate D2E/DX2                !
 ! A83   A(3,21,24)            103.7727         estimate D2E/DX2                !
 ! A84   A(3,21,25)            110.0328         estimate D2E/DX2                !
 ! A85   A(3,21,28)            108.1264         estimate D2E/DX2                !
 ! A86   A(24,21,25)           110.3434         estimate D2E/DX2                !
 ! A87   A(24,21,28)           112.4666         estimate D2E/DX2                !
 ! A88   A(25,21,28)           111.7665         estimate D2E/DX2                !
 ! A89   A(20,22,23)           116.0045         estimate D2E/DX2                !
 ! A90   A(20,22,67)           108.9432         estimate D2E/DX2                !
 ! A91   A(20,22,68)           108.5962         estimate D2E/DX2                !
 ! A92   A(23,22,67)           109.726          estimate D2E/DX2                !
 ! A93   A(23,22,68)           107.0441         estimate D2E/DX2                !
 ! A94   A(67,22,68)           106.0565         estimate D2E/DX2                !
 ! A95   A(4,23,22)            113.0599         estimate D2E/DX2                !
 ! A96   A(4,23,24)            108.2444         estimate D2E/DX2                !
 ! A97   A(4,23,69)            108.8952         estimate D2E/DX2                !
 ! A98   A(22,23,24)           111.0427         estimate D2E/DX2                !
 ! A99   A(22,23,69)           107.8666         estimate D2E/DX2                !
 ! A100  A(24,23,69)           107.574          estimate D2E/DX2                !
 ! A101  A(21,24,23)           115.4921         estimate D2E/DX2                !
 ! A102  A(21,24,70)           109.0855         estimate D2E/DX2                !
 ! A103  A(21,24,71)           106.7441         estimate D2E/DX2                !
 ! A104  A(23,24,70)           109.6972         estimate D2E/DX2                !
 ! A105  A(23,24,71)           108.1849         estimate D2E/DX2                !
 ! A106  A(70,24,71)           107.3004         estimate D2E/DX2                !
 ! A107  A(20,25,21)           120.8803         estimate D2E/DX2                !
 ! A108  A(20,25,30)           122.0316         estimate D2E/DX2                !
 ! A109  A(21,25,30)           117.0867         estimate D2E/DX2                !
 ! A110  A(20,26,72)           110.0485         estimate D2E/DX2                !
 ! A111  A(20,26,73)           111.2026         estimate D2E/DX2                !
 ! A112  A(20,26,74)           111.3503         estimate D2E/DX2                !
 ! A113  A(72,26,73)           108.0127         estimate D2E/DX2                !
 ! A114  A(72,26,74)           108.2403         estimate D2E/DX2                !
 ! A115  A(73,26,74)           107.8657         estimate D2E/DX2                !
 ! A116  A(20,27,75)           112.274          estimate D2E/DX2                !
 ! A117  A(20,27,76)           110.2418         estimate D2E/DX2                !
 ! A118  A(20,27,77)           109.6294         estimate D2E/DX2                !
 ! A119  A(75,27,76)           108.869          estimate D2E/DX2                !
 ! A120  A(75,27,77)           107.841          estimate D2E/DX2                !
 ! A121  A(76,27,77)           107.8577         estimate D2E/DX2                !
 ! A122  A(21,28,78)           108.5452         estimate D2E/DX2                !
 ! A123  A(21,28,79)           110.0485         estimate D2E/DX2                !
 ! A124  A(21,28,80)           112.2425         estimate D2E/DX2                !
 ! A125  A(78,28,79)           108.5531         estimate D2E/DX2                !
 ! A126  A(78,28,80)           108.2422         estimate D2E/DX2                !
 ! A127  A(79,28,80)           109.1237         estimate D2E/DX2                !
 ! A128  A(19,29,31)           126.5714         estimate D2E/DX2                !
 ! A129  A(19,29,81)           117.7333         estimate D2E/DX2                !
 ! A130  A(31,29,81)           115.6726         estimate D2E/DX2                !
 ! A131  A(29,31,33)           114.8543         estimate D2E/DX2                !
 ! A132  A(29,31,34)           121.2562         estimate D2E/DX2                !
 ! A133  A(33,31,34)           123.8848         estimate D2E/DX2                !
 ! A134  A(30,32,35)           124.7445         estimate D2E/DX2                !
 ! A135  A(30,32,84)           118.7352         estimate D2E/DX2                !
 ! A136  A(35,32,84)           116.5194         estimate D2E/DX2                !
 ! A137  A(31,33,85)           113.2073         estimate D2E/DX2                !
 ! A138  A(31,33,86)           110.8648         estimate D2E/DX2                !
 ! A139  A(31,33,87)           110.127          estimate D2E/DX2                !
 ! A140  A(85,33,86)           108.0415         estimate D2E/DX2                !
 ! A141  A(85,33,87)           107.6445         estimate D2E/DX2                !
 ! A142  A(86,33,87)           106.6894         estimate D2E/DX2                !
 ! A143  A(31,34,38)           127.4769         estimate D2E/DX2                !
 ! A144  A(31,34,88)           117.3968         estimate D2E/DX2                !
 ! A145  A(38,34,88)           115.1207         estimate D2E/DX2                !
 ! A146  A(32,35,36)           116.4878         estimate D2E/DX2                !
 ! A147  A(32,35,37)           118.4871         estimate D2E/DX2                !
 ! A148  A(36,35,37)           125.0106         estimate D2E/DX2                !
 ! A149  A(35,36,89)           112.7902         estimate D2E/DX2                !
 ! A150  A(35,36,90)           109.7953         estimate D2E/DX2                !
 ! A151  A(35,36,91)           110.5515         estimate D2E/DX2                !
 ! A152  A(89,36,90)           108.7406         estimate D2E/DX2                !
 ! A153  A(89,36,91)           108.0581         estimate D2E/DX2                !
 ! A154  A(90,36,91)           106.6972         estimate D2E/DX2                !
 ! A155  A(35,37,39)           127.5254         estimate D2E/DX2                !
 ! A156  A(35,37,92)           117.2188         estimate D2E/DX2                !
 ! A157  A(39,37,92)           115.2556         estimate D2E/DX2                !
 ! A158  A(34,38,40)           123.3454         estimate D2E/DX2                !
 ! A159  A(34,38,93)           118.5456         estimate D2E/DX2                !
 ! A160  A(40,38,93)           118.1066         estimate D2E/DX2                !
 ! A161  A(37,39,41)           122.8284         estimate D2E/DX2                !
 ! A162  A(37,39,94)           117.9441         estimate D2E/DX2                !
 ! A163  A(41,39,94)           119.2275         estimate D2E/DX2                !
 ! A164  A(38,40,42)           123.3322         estimate D2E/DX2                !
 ! A165  A(38,40,95)           118.0534         estimate D2E/DX2                !
 ! A166  A(42,40,95)           118.614          estimate D2E/DX2                !
 ! A167  A(39,41,43)           126.3469         estimate D2E/DX2                !
 ! A168  A(39,41,96)           118.0187         estimate D2E/DX2                !
 ! A169  A(43,41,96)           115.6342         estimate D2E/DX2                !
 ! A170  A(40,42,43)           128.0006         estimate D2E/DX2                !
 ! A171  A(40,42,97)           115.0666         estimate D2E/DX2                !
 ! A172  A(43,42,97)           116.9327         estimate D2E/DX2                !
 ! A173  A(41,43,42)           118.3481         estimate D2E/DX2                !
 ! A174  A(41,43,44)           117.9168         estimate D2E/DX2                !
 ! A175  A(42,43,44)           123.7349         estimate D2E/DX2                !
 ! A176  A(43,44,98)           112.7455         estimate D2E/DX2                !
 ! A177  A(43,44,99)           110.6595         estimate D2E/DX2                !
 ! A178  A(43,44,100)          110.6493         estimate D2E/DX2                !
 ! A179  A(98,44,99)           107.7861         estimate D2E/DX2                !
 ! A180  A(98,44,100)          107.7597         estimate D2E/DX2                !
 ! A181  A(99,44,100)          107.01           estimate D2E/DX2                !
 ! A182  L(25,30,32,73,-1)     184.1972         estimate D2E/DX2                !
 ! A183  L(25,30,32,73,-2)     181.581          estimate D2E/DX2                !
 ! D1    D(60,2,10,8)           44.0654         estimate D2E/DX2                !
 ! D2    D(60,2,10,9)          -81.5793         estimate D2E/DX2                !
 ! D3    D(60,2,10,49)         161.0197         estimate D2E/DX2                !
 ! D4    D(82,3,21,24)         172.7119         estimate D2E/DX2                !
 ! D5    D(82,3,21,25)          54.654          estimate D2E/DX2                !
 ! D6    D(82,3,21,28)         -67.6682         estimate D2E/DX2                !
 ! D7    D(83,4,23,22)          56.6435         estimate D2E/DX2                !
 ! D8    D(83,4,23,24)        -179.9047         estimate D2E/DX2                !
 ! D9    D(83,4,23,69)         -63.2342         estimate D2E/DX2                !
 ! D10   D(7,5,6,8)             -1.4575         estimate D2E/DX2                !
 ! D11   D(7,5,6,11)          -160.4572         estimate D2E/DX2                !
 ! D12   D(12,5,6,8)           160.0661         estimate D2E/DX2                !
 ! D13   D(12,5,6,11)            1.0664         estimate D2E/DX2                !
 ! D14   D(1,5,7,9)             52.3562         estimate D2E/DX2                !
 ! D15   D(1,5,7,13)           176.4762         estimate D2E/DX2                !
 ! D16   D(1,5,7,14)           -65.1547         estimate D2E/DX2                !
 ! D17   D(6,5,7,9)            -13.6042         estimate D2E/DX2                !
 ! D18   D(6,5,7,13)           110.5159         estimate D2E/DX2                !
 ! D19   D(6,5,7,14)          -131.1151         estimate D2E/DX2                !
 ! D20   D(12,5,7,9)          -175.8579         estimate D2E/DX2                !
 ! D21   D(12,5,7,13)          -51.7378         estimate D2E/DX2                !
 ! D22   D(12,5,7,14)           66.6312         estimate D2E/DX2                !
 ! D23   D(1,5,12,15)         -133.7675         estimate D2E/DX2                !
 ! D24   D(1,5,12,53)           47.736          estimate D2E/DX2                !
 ! D25   D(6,5,12,15)          -67.9694         estimate D2E/DX2                !
 ! D26   D(6,5,12,53)          113.5341         estimate D2E/DX2                !
 ! D27   D(7,5,12,15)           94.6046         estimate D2E/DX2                !
 ! D28   D(7,5,12,53)          -83.8919         estimate D2E/DX2                !
 ! D29   D(1,6,8,10)           -79.366          estimate D2E/DX2                !
 ! D30   D(1,6,8,45)           158.4418         estimate D2E/DX2                !
 ! D31   D(1,6,8,46)            42.7006         estimate D2E/DX2                !
 ! D32   D(5,6,8,10)           -12.9983         estimate D2E/DX2                !
 ! D33   D(5,6,8,45)          -135.1905         estimate D2E/DX2                !
 ! D34   D(5,6,8,46)           109.0683         estimate D2E/DX2                !
 ! D35   D(11,6,8,10)          147.4384         estimate D2E/DX2                !
 ! D36   D(11,6,8,45)           25.2462         estimate D2E/DX2                !
 ! D37   D(11,6,8,46)          -90.4951         estimate D2E/DX2                !
 ! D38   D(1,6,11,50)          159.2353         estimate D2E/DX2                !
 ! D39   D(1,6,11,51)          -82.0984         estimate D2E/DX2                !
 ! D40   D(1,6,11,52)           37.9862         estimate D2E/DX2                !
 ! D41   D(5,6,11,50)           92.38           estimate D2E/DX2                !
 ! D42   D(5,6,11,51)         -148.9537         estimate D2E/DX2                !
 ! D43   D(5,6,11,52)          -28.8691         estimate D2E/DX2                !
 ! D44   D(8,6,11,50)          -67.9785         estimate D2E/DX2                !
 ! D45   D(8,6,11,51)           50.6879         estimate D2E/DX2                !
 ! D46   D(8,6,11,52)          170.7725         estimate D2E/DX2                !
 ! D47   D(5,7,9,10)            44.8682         estimate D2E/DX2                !
 ! D48   D(5,7,9,47)           167.9152         estimate D2E/DX2                !
 ! D49   D(5,7,9,48)           -75.8578         estimate D2E/DX2                !
 ! D50   D(13,7,9,10)          -79.6736         estimate D2E/DX2                !
 ! D51   D(13,7,9,47)           43.3734         estimate D2E/DX2                !
 ! D52   D(13,7,9,48)          159.6003         estimate D2E/DX2                !
 ! D53   D(14,7,9,10)          162.1442         estimate D2E/DX2                !
 ! D54   D(14,7,9,47)          -74.8088         estimate D2E/DX2                !
 ! D55   D(14,7,9,48)           41.4181         estimate D2E/DX2                !
 ! D56   D(5,7,13,54)           60.9386         estimate D2E/DX2                !
 ! D57   D(5,7,13,55)         -179.9435         estimate D2E/DX2                !
 ! D58   D(5,7,13,56)          -61.0647         estimate D2E/DX2                !
 ! D59   D(9,7,13,54)         -175.3982         estimate D2E/DX2                !
 ! D60   D(9,7,13,55)          -56.2803         estimate D2E/DX2                !
 ! D61   D(9,7,13,56)           62.5985         estimate D2E/DX2                !
 ! D62   D(14,7,13,54)         -57.2099         estimate D2E/DX2                !
 ! D63   D(14,7,13,55)          61.9079         estimate D2E/DX2                !
 ! D64   D(14,7,13,56)        -179.2132         estimate D2E/DX2                !
 ! D65   D(5,7,14,57)           54.3464         estimate D2E/DX2                !
 ! D66   D(5,7,14,58)          174.089          estimate D2E/DX2                !
 ! D67   D(5,7,14,59)          -66.5329         estimate D2E/DX2                !
 ! D68   D(9,7,14,57)          -64.6531         estimate D2E/DX2                !
 ! D69   D(9,7,14,58)           55.0894         estimate D2E/DX2                !
 ! D70   D(9,7,14,59)          174.4676         estimate D2E/DX2                !
 ! D71   D(13,7,14,57)         175.1765         estimate D2E/DX2                !
 ! D72   D(13,7,14,58)         -65.081          estimate D2E/DX2                !
 ! D73   D(13,7,14,59)          54.2972         estimate D2E/DX2                !
 ! D74   D(6,8,10,2)           -84.7461         estimate D2E/DX2                !
 ! D75   D(6,8,10,9)            41.9714         estimate D2E/DX2                !
 ! D76   D(6,8,10,49)          161.0411         estimate D2E/DX2                !
 ! D77   D(45,8,10,2)           38.5475         estimate D2E/DX2                !
 ! D78   D(45,8,10,9)          165.2651         estimate D2E/DX2                !
 ! D79   D(45,8,10,49)         -75.6652         estimate D2E/DX2                !
 ! D80   D(46,8,10,2)          155.0999         estimate D2E/DX2                !
 ! D81   D(46,8,10,9)          -78.1826         estimate D2E/DX2                !
 ! D82   D(46,8,10,49)          40.8872         estimate D2E/DX2                !
 ! D83   D(7,9,10,2)            64.7399         estimate D2E/DX2                !
 ! D84   D(7,9,10,8)           -60.8879         estimate D2E/DX2                !
 ! D85   D(7,9,10,49)          179.7768         estimate D2E/DX2                !
 ! D86   D(47,9,10,2)          -58.0409         estimate D2E/DX2                !
 ! D87   D(47,9,10,8)          176.3314         estimate D2E/DX2                !
 ! D88   D(47,9,10,49)          56.996          estimate D2E/DX2                !
 ! D89   D(48,9,10,2)         -173.7653         estimate D2E/DX2                !
 ! D90   D(48,9,10,8)           60.6069         estimate D2E/DX2                !
 ! D91   D(48,9,10,49)         -58.7284         estimate D2E/DX2                !
 ! D92   D(5,12,15,16)        -179.8188         estimate D2E/DX2                !
 ! D93   D(5,12,15,61)          -1.663          estimate D2E/DX2                !
 ! D94   D(53,12,15,16)         -1.3907         estimate D2E/DX2                !
 ! D95   D(53,12,15,61)        176.765          estimate D2E/DX2                !
 ! D96   D(12,15,16,17)        148.1439         estimate D2E/DX2                !
 ! D97   D(12,15,16,18)        -32.37           estimate D2E/DX2                !
 ! D98   D(61,15,16,17)        -30.0578         estimate D2E/DX2                !
 ! D99   D(61,15,16,18)        149.4283         estimate D2E/DX2                !
 ! D100  D(15,16,17,62)        173.201          estimate D2E/DX2                !
 ! D101  D(15,16,17,63)        -65.2166         estimate D2E/DX2                !
 ! D102  D(15,16,17,64)         52.6254         estimate D2E/DX2                !
 ! D103  D(18,16,17,62)         -6.2643         estimate D2E/DX2                !
 ! D104  D(18,16,17,63)        115.3181         estimate D2E/DX2                !
 ! D105  D(18,16,17,64)       -126.8399         estimate D2E/DX2                !
 ! D106  D(15,16,18,19)        177.4423         estimate D2E/DX2                !
 ! D107  D(15,16,18,65)         -3.0273         estimate D2E/DX2                !
 ! D108  D(17,16,18,19)         -3.1233         estimate D2E/DX2                !
 ! D109  D(17,16,18,65)        176.4072         estimate D2E/DX2                !
 ! D110  D(16,18,19,29)        178.9003         estimate D2E/DX2                !
 ! D111  D(16,18,19,66)         -0.698          estimate D2E/DX2                !
 ! D112  D(65,18,19,29)         -0.6388         estimate D2E/DX2                !
 ! D113  D(65,18,19,66)        179.7629         estimate D2E/DX2                !
 ! D114  D(18,19,29,31)        178.3834         estimate D2E/DX2                !
 ! D115  D(18,19,29,81)         -3.4334         estimate D2E/DX2                !
 ! D116  D(66,19,29,31)         -2.0197         estimate D2E/DX2                !
 ! D117  D(66,19,29,81)        176.1635         estimate D2E/DX2                !
 ! D118  D(25,20,22,23)         46.0272         estimate D2E/DX2                !
 ! D119  D(25,20,22,67)        170.3933         estimate D2E/DX2                !
 ! D120  D(25,20,22,68)        -74.5186         estimate D2E/DX2                !
 ! D121  D(26,20,22,23)        166.1271         estimate D2E/DX2                !
 ! D122  D(26,20,22,67)        -69.5069         estimate D2E/DX2                !
 ! D123  D(26,20,22,68)         45.5813         estimate D2E/DX2                !
 ! D124  D(27,20,22,23)        -76.0325         estimate D2E/DX2                !
 ! D125  D(27,20,22,67)         48.3336         estimate D2E/DX2                !
 ! D126  D(27,20,22,68)        163.4217         estimate D2E/DX2                !
 ! D127  D(22,20,25,21)        -40.7666         estimate D2E/DX2                !
 ! D128  D(22,20,25,30)        139.6768         estimate D2E/DX2                !
 ! D129  D(26,20,25,21)       -159.4898         estimate D2E/DX2                !
 ! D130  D(26,20,25,30)         20.9536         estimate D2E/DX2                !
 ! D131  D(27,20,25,21)         81.7265         estimate D2E/DX2                !
 ! D132  D(27,20,25,30)        -97.8301         estimate D2E/DX2                !
 ! D133  D(22,20,26,72)         58.6013         estimate D2E/DX2                !
 ! D134  D(22,20,26,73)        178.2474         estimate D2E/DX2                !
 ! D135  D(22,20,26,74)        -61.4248         estimate D2E/DX2                !
 ! D136  D(25,20,26,72)        178.1423         estimate D2E/DX2                !
 ! D137  D(25,20,26,73)        -62.2117         estimate D2E/DX2                !
 ! D138  D(25,20,26,74)         58.1162         estimate D2E/DX2                !
 ! D139  D(27,20,26,72)        -61.4271         estimate D2E/DX2                !
 ! D140  D(27,20,26,73)         58.219          estimate D2E/DX2                !
 ! D141  D(27,20,26,74)        178.5468         estimate D2E/DX2                !
 ! D142  D(22,20,27,75)         57.3823         estimate D2E/DX2                !
 ! D143  D(22,20,27,76)        178.9517         estimate D2E/DX2                !
 ! D144  D(22,20,27,77)        -62.459          estimate D2E/DX2                !
 ! D145  D(25,20,27,75)        -64.1248         estimate D2E/DX2                !
 ! D146  D(25,20,27,76)         57.4447         estimate D2E/DX2                !
 ! D147  D(25,20,27,77)        176.034          estimate D2E/DX2                !
 ! D148  D(26,20,27,75)        175.4821         estimate D2E/DX2                !
 ! D149  D(26,20,27,76)        -62.9485         estimate D2E/DX2                !
 ! D150  D(26,20,27,77)         55.6408         estimate D2E/DX2                !
 ! D151  D(3,21,24,23)        -163.8169         estimate D2E/DX2                !
 ! D152  D(3,21,24,70)          72.1208         estimate D2E/DX2                !
 ! D153  D(3,21,24,71)         -43.5187         estimate D2E/DX2                !
 ! D154  D(25,21,24,23)        -45.9743         estimate D2E/DX2                !
 ! D155  D(25,21,24,70)       -170.0366         estimate D2E/DX2                !
 ! D156  D(25,21,24,71)         74.3239         estimate D2E/DX2                !
 ! D157  D(28,21,24,23)         79.5678         estimate D2E/DX2                !
 ! D158  D(28,21,24,70)        -44.4945         estimate D2E/DX2                !
 ! D159  D(28,21,24,71)       -160.1339         estimate D2E/DX2                !
 ! D160  D(3,21,25,20)         154.9954         estimate D2E/DX2                !
 ! D161  D(3,21,25,30)         -25.4268         estimate D2E/DX2                !
 ! D162  D(24,21,25,20)         41.0761         estimate D2E/DX2                !
 ! D163  D(24,21,25,30)       -139.3461         estimate D2E/DX2                !
 ! D164  D(28,21,25,20)        -84.8614         estimate D2E/DX2                !
 ! D165  D(28,21,25,30)         94.7164         estimate D2E/DX2                !
 ! D166  D(3,21,28,78)         -51.7688         estimate D2E/DX2                !
 ! D167  D(3,21,28,79)          66.896          estimate D2E/DX2                !
 ! D168  D(3,21,28,80)        -171.3672         estimate D2E/DX2                !
 ! D169  D(24,21,28,78)         62.2132         estimate D2E/DX2                !
 ! D170  D(24,21,28,79)       -179.122          estimate D2E/DX2                !
 ! D171  D(24,21,28,80)        -57.3852         estimate D2E/DX2                !
 ! D172  D(25,21,28,78)       -173.0226         estimate D2E/DX2                !
 ! D173  D(25,21,28,79)        -54.3579         estimate D2E/DX2                !
 ! D174  D(25,21,28,80)         67.3789         estimate D2E/DX2                !
 ! D175  D(20,22,23,4)          68.219          estimate D2E/DX2                !
 ! D176  D(20,22,23,24)        -53.675          estimate D2E/DX2                !
 ! D177  D(20,22,23,69)       -171.3153         estimate D2E/DX2                !
 ! D178  D(67,22,23,4)         -55.7424         estimate D2E/DX2                !
 ! D179  D(67,22,23,24)       -177.6364         estimate D2E/DX2                !
 ! D180  D(67,22,23,69)         64.7234         estimate D2E/DX2                !
 ! D181  D(68,22,23,4)        -170.4036         estimate D2E/DX2                !
 ! D182  D(68,22,23,24)         67.7024         estimate D2E/DX2                !
 ! D183  D(68,22,23,69)        -49.9379         estimate D2E/DX2                !
 ! D184  D(4,23,24,21)         -71.3147         estimate D2E/DX2                !
 ! D185  D(4,23,24,70)          52.4272         estimate D2E/DX2                !
 ! D186  D(4,23,24,71)         169.1752         estimate D2E/DX2                !
 ! D187  D(22,23,24,21)         53.346          estimate D2E/DX2                !
 ! D188  D(22,23,24,70)        177.0879         estimate D2E/DX2                !
 ! D189  D(22,23,24,71)        -66.1641         estimate D2E/DX2                !
 ! D190  D(69,23,24,21)        171.164          estimate D2E/DX2                !
 ! D191  D(69,23,24,70)        -65.094          estimate D2E/DX2                !
 ! D192  D(69,23,24,71)         51.654          estimate D2E/DX2                !
 ! D193  D(20,25,32,35)        -94.7497         estimate D2E/DX2                !
 ! D194  D(20,25,32,84)         88.0613         estimate D2E/DX2                !
 ! D195  D(21,25,32,35)         84.6623         estimate D2E/DX2                !
 ! D196  D(21,25,32,84)        -92.5268         estimate D2E/DX2                !
 ! D197  D(19,29,31,33)        153.0715         estimate D2E/DX2                !
 ! D198  D(19,29,31,34)        -27.6936         estimate D2E/DX2                !
 ! D199  D(81,29,31,33)        -25.1443         estimate D2E/DX2                !
 ! D200  D(81,29,31,34)        154.0906         estimate D2E/DX2                !
 ! D201  D(29,31,33,85)        171.8057         estimate D2E/DX2                !
 ! D202  D(29,31,33,86)        -66.5905         estimate D2E/DX2                !
 ! D203  D(29,31,33,87)         51.2501         estimate D2E/DX2                !
 ! D204  D(34,31,33,85)         -7.4065         estimate D2E/DX2                !
 ! D205  D(34,31,33,86)        114.1973         estimate D2E/DX2                !
 ! D206  D(34,31,33,87)       -127.9621         estimate D2E/DX2                !
 ! D207  D(29,31,34,38)        177.4356         estimate D2E/DX2                !
 ! D208  D(29,31,34,88)         -3.4717         estimate D2E/DX2                !
 ! D209  D(33,31,34,38)         -3.4006         estimate D2E/DX2                !
 ! D210  D(33,31,34,88)        175.6921         estimate D2E/DX2                !
 ! D211  D(30,32,35,36)         -3.3604         estimate D2E/DX2                !
 ! D212  D(30,32,35,37)        177.9511         estimate D2E/DX2                !
 ! D213  D(84,32,35,36)        176.2969         estimate D2E/DX2                !
 ! D214  D(84,32,35,37)         -2.3917         estimate D2E/DX2                !
 ! D215  D(31,34,38,40)        178.7443         estimate D2E/DX2                !
 ! D216  D(31,34,38,93)         -1.824          estimate D2E/DX2                !
 ! D217  D(88,34,38,40)         -0.366          estimate D2E/DX2                !
 ! D218  D(88,34,38,93)        179.0657         estimate D2E/DX2                !
 ! D219  D(32,35,36,89)       -170.7458         estimate D2E/DX2                !
 ! D220  D(32,35,36,90)        -49.3057         estimate D2E/DX2                !
 ! D221  D(32,35,36,91)         68.1494         estimate D2E/DX2                !
 ! D222  D(37,35,36,89)          7.8469         estimate D2E/DX2                !
 ! D223  D(37,35,36,90)        129.2869         estimate D2E/DX2                !
 ! D224  D(37,35,36,91)       -113.2579         estimate D2E/DX2                !
 ! D225  D(32,35,37,39)        179.0241         estimate D2E/DX2                !
 ! D226  D(32,35,37,92)         -0.8143         estimate D2E/DX2                !
 ! D227  D(36,35,37,39)          0.4572         estimate D2E/DX2                !
 ! D228  D(36,35,37,92)       -179.3812         estimate D2E/DX2                !
 ! D229  D(35,37,39,41)       -179.4538         estimate D2E/DX2                !
 ! D230  D(35,37,39,94)          0.512          estimate D2E/DX2                !
 ! D231  D(92,37,39,41)          0.3873         estimate D2E/DX2                !
 ! D232  D(92,37,39,94)       -179.6469         estimate D2E/DX2                !
 ! D233  D(34,38,40,42)        179.518          estimate D2E/DX2                !
 ! D234  D(34,38,40,95)         -0.2472         estimate D2E/DX2                !
 ! D235  D(93,38,40,42)          0.0839         estimate D2E/DX2                !
 ! D236  D(93,38,40,95)       -179.6812         estimate D2E/DX2                !
 ! D237  D(37,39,41,43)        179.5997         estimate D2E/DX2                !
 ! D238  D(37,39,41,96)         -0.2037         estimate D2E/DX2                !
 ! D239  D(94,39,41,43)         -0.3657         estimate D2E/DX2                !
 ! D240  D(94,39,41,96)        179.831          estimate D2E/DX2                !
 ! D241  D(38,40,42,43)       -179.6641         estimate D2E/DX2                !
 ! D242  D(38,40,42,97)          0.2044         estimate D2E/DX2                !
 ! D243  D(95,40,42,43)          0.0998         estimate D2E/DX2                !
 ! D244  D(95,40,42,97)        179.9682         estimate D2E/DX2                !
 ! D245  D(39,41,43,42)       -179.6247         estimate D2E/DX2                !
 ! D246  D(39,41,43,44)          0.2179         estimate D2E/DX2                !
 ! D247  D(96,41,43,42)          0.1827         estimate D2E/DX2                !
 ! D248  D(96,41,43,44)       -179.9746         estimate D2E/DX2                !
 ! D249  D(40,42,43,41)        179.7029         estimate D2E/DX2                !
 ! D250  D(40,42,43,44)         -0.13           estimate D2E/DX2                !
 ! D251  D(97,42,43,41)         -0.1635         estimate D2E/DX2                !
 ! D252  D(97,42,43,44)       -179.9963         estimate D2E/DX2                !
 ! D253  D(41,43,44,98)        179.9757         estimate D2E/DX2                !
 ! D254  D(41,43,44,99)        -59.2227         estimate D2E/DX2                !
 ! D255  D(41,43,44,100)        59.2152         estimate D2E/DX2                !
 ! D256  D(42,43,44,98)         -0.1908         estimate D2E/DX2                !
 ! D257  D(42,43,44,99)        120.6108         estimate D2E/DX2                !
 ! D258  D(42,43,44,100)      -120.9513         estimate D2E/DX2                !
 --------------------------------------------------------------------------------
 Trust Radius=3.00D-01 FncErr=1.00D-07 GrdErr=1.00D-06 EigMax=2.50D+02 EigMin=1.00D-04
 Number of steps in this run=    553 maximum allowed number of steps=    600.
 GradGradGradGradGradGradGradGradGradGradGradGradGradGradGradGradGradGrad

 Stoichiometry    C40H56O4
 Framework group  C1[X(C40H56O4)]
 Deg. of freedom   294
 Full point group                 C1      NOp   1
 Largest Abelian subgroup         C1      NOp   1
 Largest concise Abelian subgroup C1      NOp   1
                         Standard orientation:                         
 ---------------------------------------------------------------------
 Center     Atomic      Atomic             Coordinates (Angstroms)
 Number     Number       Type             X           Y           Z
 ---------------------------------------------------------------------
      1          8           0      -11.620720    0.841029    0.861430
      2          8           0      -13.087990   -2.474211   -1.246670
      3          8           0       10.436270   -0.727341   -2.233540
      4          8           0       14.385810   -1.203281   -0.444530
      5          6           0      -10.894200   -0.300991    0.387230
      6          6           0      -11.863440    0.422999   -0.487760
      7          6           0      -11.282560   -1.597161    1.129290
      8          6           0      -13.272040   -0.107891   -0.711150
      9          6           0      -12.813880   -1.790601    1.102260
     10          6           0      -13.488020   -1.543851   -0.244040
     11          6           0      -11.399860    1.407269   -1.534480
     12          6           0       -9.426220   -0.040841    0.254390
     13          6           0      -10.559880   -2.824591    0.551540
     14          6           0      -10.850300   -1.439741    2.596470
     15          6           0       -8.678550   -0.375781   -0.799460
     16          6           0       -7.234690   -0.134641   -0.952260
     17          6           0       -6.504750   -1.171941   -1.763280
     18          6           0       -6.652460    0.950049   -0.401310
     19          6           0       -5.247670    1.296039   -0.419510
     20          6           0       11.907230   -0.311181    1.282580
     21          6           0       11.543530   -0.490211   -1.367280
     22          6           0       12.597650   -1.687041    1.179730
     23          6           0       13.246120   -2.012071   -0.164400
     24          6           0       12.253650   -1.846481   -1.303320
     25          6           0       11.040210   -0.080671    0.035190
     26          6           0       11.035110   -0.310081    2.543990
     27          6           0       12.944150    0.819499    1.430990
     28          6           0       12.416900    0.598519   -1.997500
     29          6           0       -4.763070    2.418109    0.143710
     30          6           0        9.859650    0.471939    0.105060
     31          6           0       -3.359850    2.828959    0.201050
     32          6           0        8.647470    0.982499    0.086590
     33          6           0       -3.138670    4.316569    0.287130
     34          6           0       -2.360670    1.917239    0.192140
     35          6           0        7.407780    0.197179    0.137340
     36          6           0        7.560820   -1.297031    0.136910
     37          6           0        6.228910    0.855089    0.153270
     38          6           0       -0.941240    2.171169    0.192200
     39          6           0        4.902180    0.283309    0.181870
     40          6           0       -0.012180    1.191819    0.207550
     41          6           0        3.783040    1.034009    0.185170
     42          6           0        1.405890    1.445679    0.197480
     43          6           0        2.415370    0.541659    0.204830
     44          6           0        2.203210   -0.947001    0.228590
     45          1           0      -13.533490   -0.051241   -1.772490
     46          1           0      -13.950280    0.567699   -0.178720
     47          1           0      -13.043440   -2.806931    1.437020
     48          1           0      -13.267590   -1.103241    1.824120
     49          1           0      -14.562300   -1.717561   -0.127120
     50          1           0      -11.264610    0.915939   -2.503160
     51          1           0      -12.158240    2.186439   -1.659770
     52          1           0      -10.461060    1.878079   -1.248850
     53          1           0       -8.965470    0.439259    1.114930
     54          1           0       -9.477240   -2.722881    0.644520
     55          1           0      -10.864470   -3.717361    1.104630
     56          1           0      -10.794800   -3.010151   -0.497140
     57          1           0      -11.272940   -0.528771    3.027030
     58          1           0      -11.199690   -2.293081    3.185520
     59          1           0       -9.761610   -1.395951    2.691710
     60          1           0      -12.244430   -2.179521   -1.607280
     61          1           0       -9.155980   -0.903981   -1.625800
     62          1           0       -5.465910   -0.909491   -1.959450
     63          1           0       -6.519520   -2.144041   -1.258120
     64          1           0       -6.999590   -1.313461   -2.730410
     65          1           0       -7.298710    1.658749    0.112700
     66          1           0       -4.556770    0.621389   -0.916050
     67          1           0       13.343470   -1.772531    1.981470
     68          1           0       11.852380   -2.467731    1.374230
     69          1           0       13.554970   -3.068171   -0.143690
     70          1           0       12.753320   -2.033821   -2.257770
     71          1           0       11.473860   -2.605531   -1.189790
     72          1           0       11.651550   -0.507331    3.426470
     73          1           0       10.543990    0.655749    2.683970
     74          1           0       10.257840   -1.077051    2.491150
     75          1           0       13.656160    0.836679    0.608450
     76          1           0       12.441670    1.788969    1.483960
     77          1           0       13.508060    0.682119    2.360290
     78          1           0       12.639420    0.312159   -3.028540
     79          1           0       11.878590    1.551339   -2.009170
     80          1           0       13.359530    0.727949   -1.468810
     81          1           0       -5.477610    3.115269    0.581830
     82          1           0        9.882060    0.064549   -2.221820
     83          1           0       15.013980   -1.311851    0.279150
     84          1           0        8.535670    2.064899    0.023900
     85          1           0       -2.099300    4.586099    0.470670
     86          1           0       -3.460070    4.812799   -0.635040
     87          1           0       -3.739870    4.740659    1.098510
     88          1           0       -2.641880    0.866179    0.199210
     89          1           0        6.612240   -1.818331    0.013820
     90          1           0        8.235740   -1.600171   -0.669220
     91          1           0        8.016210   -1.637211    1.073290
     92          1           0        6.265670    1.943749    0.141020
     93          1           0       -0.598010    3.202379    0.169780
     94          1           0        4.814830   -0.798161    0.200810
     95          1           0       -0.356370    0.160869    0.224630
     96          1           0        3.893640    2.117509    0.168710
     97          1           0        1.686190    2.498079    0.179810
     98          1           0        1.149760   -1.221931    0.242630
     99          1           0        2.659640   -1.416271   -0.648940
    100          1           0        2.675810   -1.390291    1.111020
 ---------------------------------------------------------------------
 Rotational constants (GHZ):           0.2371544           0.0089819           0.0088701
 Standard basis: 6-31G(d,p) (6D, 7F)
 There are   940 symmetry adapted cartesian basis functions of A   symmetry.
 There are   940 symmetry adapted basis functions of A   symmetry.
   940 basis functions,  1624 primitive gaussians,   940 cartesian basis functions
   164 alpha electrons      164 beta electrons
       nuclear repulsion energy      4461.9047465833 Hartrees.
 NAtoms=  100 NActive=  100 NUniq=  100 SFac= 1.00D+00 NAtFMM=   60 NAOKFM=T Big=T
 Integral buffers will be    131072 words long.
 Raffenetti 1 integral format.
 Two-electron integral symmetry is turned on.
 One-electron integrals computed using PRISM.
 NBasis=   940 RedAO= T EigKep=  3.67D-04  NBF=   940
 NBsUse=   940 1.00D-06 EigRej= -1.00D+00 NBFU=   940
 ExpMin= 1.61D-01 ExpMax= 5.48D+03 ExpMxC= 8.25D+02 IAcc=3 IRadAn=         5 AccDes= 0.00D+00
 Harris functional with IExCor=20419 and IRadAn=       5 diagonalized for initial guess.
 HarFok:  IExCor=20419 AccDes= 0.00D+00 IRadAn=         5 IDoV= 1 UseB2=F ITyADJ=14
 ICtDFT=  3500011 ScaDFX=  1.000000  1.000000  1.000000  1.000000
 FoFCou: FMM=F IPFlag=           0 FMFlag=      100000 FMFlg1=        2001
         NFxFlg=           0 DoJE=T BraDBF=F KetDBF=T FulRan=T
         wScrn=  0.000000 ICntrl=       500 IOpCl=  0 I1Cent=   200000004 NGrid=           0
         NMat0=    1 NMatS0=      1 NMatT0=    0 NMatD0=    1 NMtDS0=    0 NMtDT0=    0
 Petite list used in FoFCou.
 Requested convergence on RMS density matrix=1.00D-08 within 128 cycles.
 Requested convergence on MAX density matrix=1.00D-06.
 Requested convergence on             energy=1.00D-06.
 No special actions if energy rises.
 Integral accuracy reduced to 1.0D-05 until final iterations.
 Initial convergence to 1.0D-05 achieved.  Increase integral accuracy.
 SCF Done:  E(RCAM-B3LYP) =  -1857.74087351     A.U. after   14 cycles
            NFock= 14  Conv=0.35D-08     -V/T= 2.0091
 DoSCS=F DFT=T ScalE2(SS,OS)=  1.000000  1.000000
 ExpMin= 1.61D-01 ExpMax= 5.48D+03 ExpMxC= 8.25D+02 IAcc=3 IRadAn=         5 AccDes= 0.00D+00
 HarFok:  IExCor=  205 AccDes= 0.00D+00 IRadAn=         5 IDoV=-2 UseB2=F ITyADJ=14
 ICtDFT= 12500011 ScaDFX=  1.000000  1.000000  1.000000  1.000000
 GSVD:  LWork=       -2288 too small for GESVD, short by       10340 words or       10340 for optimal perf.
 Range of M.O.s used for correlation:    45   940
 NBasis=   940 NAE=   164 NBE=   164 NFC=    44 NFV=     0
 NROrb=    896 NOA=   120 NOB=   120 NVA=   776 NVB=   776
 Orbital symmetries:
       Occupied  (A) (A) (A) (A) (A) (A) (A) (A) (A) (A) (A) (A)
                 (A) (A) (A) (A) (A) (A) (A) (A) (A) (A) (A) (A)
                 (A) (A) (A) (A) (A) (A) (A) (A) (A) (A) (A) (A)
                 (A) (A) (A) (A) (A) (A) (A) (A) (A) (A) (A) (A)
                 (A) (A) (A) (A) (A) (A) (A) (A) (A) (A) (A) (A)
                 (A) (A) (A) (A) (A) (A) (A) (A) (A) (A) (A) (A)
                 (A) (A) (A) (A) (A) (A) (A) (A) (A) (A) (A) (A)
                 (A) (A) (A) (A) (A) (A) (A) (A) (A) (A) (A) (A)
                 (A) (A) (A) (A) (A) (A) (A) (A) (A) (A) (A) (A)
                 (A) (A) (A) (A) (A) (A) (A) (A) (A) (A) (A) (A)
                 (A) (A) (A) (A) (A) (A) (A) (A) (A) (A) (A) (A)
                 (A) (A) (A) (A) (A) (A) (A) (A) (A) (A) (A) (A)
                 (A) (A) (A) (A) (A) (A) (A) (A) (A) (A) (A) (A)
                 (A) (A) (A) (A) (A) (A) (A) (A)
       Virtual   (A) (A) (A) (A) (A) (A) (A) (A) (A) (A) (A) (A)
                 (A) (A) (A) (A) (A) (A) (A) (A) (A) (A) (A) (A)
                 (A) (A) (A) (A) (A) (A) (A) (A) (A) (A) (A) (A)
                 (A) (A) (A) (A) (A) (A) (A) (A) (A) (A) (A) (A)
                 (A) (A) (A) (A) (A) (A) (A) (A) (A) (A) (A) (A)
                 (A) (A) (A) (A) (A) (A) (A) (A) (A) (A) (A) (A)
                 (A) (A) (A) (A) (A) (A) (A) (A) (A) (A) (A) (A)
                 (A) (A) (A) (A) (A) (A) (A) (A) (A) (A) (A) (A)
                 (A) (A) (A) (A) (A) (A) (A) (A) (A) (A) (A) (A)
                 (A) (A) (A) (A) (A) (A) (A) (A) (A) (A) (A) (A)
                 (A) (A) (A) (A) (A) (A) (A) (A) (A) (A) (A) (A)
                 (A) (A) (A) (A) (A) (A) (A) (A) (A) (A) (A) (A)
                 (A) (A) (A) (A) (A) (A) (A) (A) (A) (A) (A) (A)
                 (A) (A) (A) (A) (A) (A) (A) (A) (A) (A) (A) (A)
                 (A) (A) (A) (A) (A) (A) (A) (A) (A) (A) (A) (A)
                 (A) (A) (A) (A) (A) (A) (A) (A) (A) (A) (A) (A)
                 (A) (A) (A) (A) (A) (A) (A) (A) (A) (A) (A) (A)
                 (A) (A) (A) (A) (A) (A) (A) (A) (A) (A) (A) (A)
                 (A) (A) (A) (A) (A) (A) (A) (A) (A) (A) (A) (A)
                 (A) (A) (A) (A) (A) (A) (A) (A) (A) (A) (A) (A)
                 (A) (A) (A) (A) (A) (A) (A) (A) (A) (A) (A) (A)
                 (A) (A) (A) (A) (A) (A) (A) (A) (A) (A) (A) (A)
                 (A) (A) (A) (A) (A) (A) (A) (A) (A) (A) (A) (A)
                 (A) (A) (A) (A) (A) (A) (A) (A) (A) (A) (A) (A)
                 (A) (A) (A) (A) (A) (A) (A) (A) (A) (A) (A) (A)
                 (A) (A) (A) (A) (A) (A) (A) (A) (A) (A) (A) (A)
                 (A) (A) (A) (A) (A) (A) (A) (A) (A) (A) (A) (A)
                 (A) (A) (A) (A) (A) (A) (A) (A) (A) (A) (A) (A)
                 (A) (A) (A) (A) (A) (A) (A) (A) (A) (A) (A) (A)
                 (A) (A) (A) (A) (A) (A) (A) (A) (A) (A) (A) (A)
                 (A) (A) (A) (A) (A) (A) (A) (A) (A) (A) (A) (A)
                 (A) (A) (A) (A) (A) (A) (A) (A) (A) (A) (A) (A)
                 (A) (A) (A) (A) (A) (A) (A) (A) (A) (A) (A) (A)
                 (A) (A) (A) (A) (A) (A) (A) (A) (A) (A) (A) (A)
                 (A) (A) (A) (A) (A) (A) (A) (A) (A) (A) (A) (A)
                 (A) (A) (A) (A) (A) (A) (A) (A) (A) (A) (A) (A)
                 (A) (A) (A) (A) (A) (A) (A) (A) (A) (A) (A) (A)
                 (A) (A) (A) (A) (A) (A) (A) (A) (A) (A) (A) (A)
                 (A) (A) (A) (A) (A) (A) (A) (A) (A) (A) (A) (A)
                 (A) (A) (A) (A) (A) (A) (A) (A) (A) (A) (A) (A)
                 (A) (A) (A) (A) (A) (A) (A) (A) (A) (A) (A) (A)
                 (A) (A) (A) (A) (A) (A) (A) (A) (A) (A) (A) (A)
                 (A) (A) (A) (A) (A) (A) (A) (A) (A) (A) (A) (A)
                 (A) (A) (A) (A) (A) (A) (A) (A) (A) (A) (A) (A)
                 (A) (A) (A) (A) (A) (A) (A) (A) (A) (A) (A) (A)
                 (A) (A) (A) (A) (A) (A) (A) (A) (A) (A) (A) (A)
                 (A) (A) (A) (A) (A) (A) (A) (A) (A) (A) (A) (A)
                 (A) (A) (A) (A) (A) (A) (A) (A) (A) (A) (A) (A)
                 (A) (A) (A) (A) (A) (A) (A) (A) (A) (A) (A) (A)
                 (A) (A) (A) (A) (A) (A) (A) (A) (A) (A) (A) (A)
                 (A) (A) (A) (A) (A) (A) (A) (A) (A) (A) (A) (A)
                 (A) (A) (A) (A) (A) (A) (A) (A) (A) (A) (A) (A)
                 (A) (A) (A) (A) (A) (A) (A) (A) (A) (A) (A) (A)
                 (A) (A) (A) (A) (A) (A) (A) (A) (A) (A) (A) (A)
                 (A) (A) (A) (A) (A) (A) (A) (A) (A) (A) (A) (A)
                 (A) (A) (A) (A) (A) (A) (A) (A) (A) (A) (A) (A)
                 (A) (A) (A) (A) (A) (A) (A) (A) (A) (A) (A) (A)
                 (A) (A) (A) (A) (A) (A) (A) (A) (A) (A) (A) (A)
                 (A) (A) (A) (A) (A) (A) (A) (A) (A) (A) (A) (A)
                 (A) (A) (A) (A) (A) (A) (A) (A) (A) (A) (A) (A)
                 (A) (A) (A) (A) (A) (A) (A) (A) (A) (A) (A) (A)
                 (A) (A) (A) (A) (A) (A) (A) (A) (A) (A) (A) (A)
                 (A) (A) (A) (A) (A) (A) (A) (A) (A) (A) (A) (A)
                 (A) (A) (A) (A) (A) (A) (A) (A) (A) (A) (A) (A)
                 (A) (A) (A) (A) (A) (A) (A) (A)
    12 initial guesses have been made.
 Convergence on wavefunction:    0.000001000000000
 Iteration     1 Dimension    12 NMult     0 NNew     12
 CISAX will form    12 AO SS matrices at one time.
 Iteration     2 Dimension    18 NMult    12 NNew      6
 New state      2 was old state      3
 New state      3 was old state      2
 Iteration     3 Dimension    24 NMult    18 NNew      6
 Iteration     4 Dimension    30 NMult    24 NNew      6
 Iteration     5 Dimension    36 NMult    30 NNew      6
 Iteration     6 Dimension    42 NMult    36 NNew      6
 Iteration     7 Dimension    48 NMult    42 NNew      6
 Iteration     8 Dimension    54 NMult    48 NNew      6
 Iteration     9 Dimension    60 NMult    54 NNew      6
 Iteration    10 Dimension    66 NMult    60 NNew      6
 Iteration    11 Dimension    72 NMult    66 NNew      6
 Iteration    12 Dimension    76 NMult    72 NNew      4
 Iteration    13 Dimension    80 NMult    76 NNew      4
 Iteration    14 Dimension    82 NMult    80 NNew      2
 ***********************************************************************
 Excited states from <AA,BB:AA,BB> singles matrix:
 ***********************************************************************
 
 Ground to excited state transition densities written to RWF  633
 Ground to excited state transition electric dipole moments (Au):
       state          X           Y           Z        Dip. S.      Osc.
         1         6.5825     -0.5680      0.2382     43.7090      3.2170
         2         0.8435     -1.5230     -0.2349      3.0861      0.3117
         3        -0.5484      0.3502      0.0234      0.4240      0.0446
 Ground to excited state transition velocity dipole moments (Au):
       state          X           Y           Z        Dip. S.      Osc.
         1        -0.7024      0.0600     -0.0267      0.4977      3.0053
         2        -0.1160      0.2256      0.0337      0.0655      0.2881
         3         0.0793     -0.0543     -0.0028      0.0093      0.0391
 Ground to excited state transition magnetic dipole moments (Au):
       state          X           Y           Z
         1        -0.3059     -0.3382      3.2722
         2         0.3652     -0.1321     -0.7991
         3        -0.0488      0.0488     -0.2085
 Ground to excited state transition velocity quadrupole moments (Au):
       state          XX          YY          ZZ          XY          XZ          YZ
         1        -1.1337      0.4198      0.0136      0.2950      0.1079      0.0151
         2       -16.2941      0.7012     -0.3434     -0.6060     -0.2937      0.1012
         3         3.4536     -0.2104      0.0841      0.0863      0.0424     -0.0224
 <0|del|b> * <b|rxdel|0> + <0|del|b> * <b|delr+rdel|0>
 Rotatory Strengths (R) in cgs (10**-40 erg-esu-cm/Gauss)
       state          XX          YY          ZZ    R(velocity)    E-M Angle
         1      -390.4063    399.7541    677.9466    229.0981       87.36
         2       -25.5549   -141.4730   -295.5993   -154.2091      115.85
         3        -0.0025    -10.7840    -15.8028     -8.8631      106.30
 1/2[<0|r|b>*<b|rxdel|0> + (<0|rxdel|b>*<b|r|0>)*]
 Rotatory Strengths (R) in cgs (10**-40 erg-esu-cm/Gauss)
       state          XX          YY          ZZ     R(length)
         1      1423.8971   -135.8750   -551.0931    245.6430
         2      -217.8391   -142.2400   -132.7432   -164.2741
         3       -18.9103    -12.0918      3.4535     -9.1829
  1/2[<0|del|b>*<b|r|0> + (<0|r|b>*<b|del|0>)*] (Au)
       state          X           Y           Z        Dip. S.   Osc.(frdel)
         1        -4.6236     -0.0341     -0.0064      4.6640      3.1093
         2        -0.0979     -0.3435     -0.0079      0.4493      0.2995
         3        -0.0435     -0.0190     -0.0001      0.0626      0.0417

 Excitation energies and oscillator strengths:
 
 Excited State   1:      Singlet-A      3.0041 eV  412.71 nm  f=3.2170  <S**2>=0.000
     163 ->166        -0.17157
     164 ->165         0.67814
 This state for optimization and/or second-order correction.
 Total Energy, E(TD-HF/TD-DFT) =  -1857.63047324    
 Copying the excited state density for this state as the 1-particle RhoCI density.
 
 Excited State   2:      Singlet-A      4.1229 eV  300.72 nm  f=0.3117  <S**2>=0.000
     162 ->166        -0.13352
     163 ->165         0.56923
     164 ->166        -0.37804
 
 Excited State   3:      Singlet-A      4.2897 eV  289.03 nm  f=0.0446  <S**2>=0.000
     162 ->166        -0.11856
     163 ->165         0.35593
     163 ->167        -0.15593
     164 ->166         0.55628
 SavETr:  write IOETrn=   770 NScale= 10 NData=  16 NLR=1 NState=    3 LETran=      64.
          IDoAtm=11111111111111111111111111111111111111111111111111
          IDoAtm=11111111111111111111111111111111111111111111111111
          Differentiating once with respect to electric field.
                with respect to dipole field.
          Differentiating once with respect to nuclear coordinates.
          There are     1 degrees of freedom in the 1st order CPHF.  IDoFFX=0 NUNeed=     1.
 LinEq1:  Iter=  0 NonCon=     1 RMS=6.14D-04 Max=1.28D-01 NDo=     1
 AX will form     1 AO Fock derivatives at one time.
 LinEq1:  Iter=  1 NonCon=     1 RMS=1.92D-04 Max=2.07D-02 NDo=     1
 LinEq1:  Iter=  2 NonCon=     1 RMS=7.65D-05 Max=4.89D-03 NDo=     1
 LinEq1:  Iter=  3 NonCon=     1 RMS=4.59D-05 Max=6.07D-03 NDo=     1
 LinEq1:  Iter=  4 NonCon=     1 RMS=2.22D-05 Max=2.86D-03 NDo=     1
 LinEq1:  Iter=  5 NonCon=     1 RMS=1.09D-05 Max=1.15D-03 NDo=     1
 LinEq1:  Iter=  6 NonCon=     1 RMS=5.50D-06 Max=8.08D-04 NDo=     1
 LinEq1:  Iter=  7 NonCon=     1 RMS=2.88D-06 Max=2.61D-04 NDo=     1
 LinEq1:  Iter=  8 NonCon=     1 RMS=1.11D-06 Max=6.52D-05 NDo=     1
 LinEq1:  Iter=  9 NonCon=     1 RMS=6.44D-07 Max=6.04D-05 NDo=     1
 LinEq1:  Iter= 10 NonCon=     1 RMS=3.04D-07 Max=1.58D-05 NDo=     1
 LinEq1:  Iter= 11 NonCon=     1 RMS=1.18D-07 Max=7.88D-06 NDo=     1
 LinEq1:  Iter= 12 NonCon=     1 RMS=5.70D-08 Max=4.06D-06 NDo=     1
 LinEq1:  Iter= 13 NonCon=     1 RMS=3.03D-08 Max=2.93D-06 NDo=     1
 LinEq1:  Iter= 14 NonCon=     1 RMS=1.63D-08 Max=1.30D-06 NDo=     1
 LinEq1:  Iter= 15 NonCon=     1 RMS=1.04D-08 Max=1.60D-06 NDo=     1
 LinEq1:  Iter= 16 NonCon=     1 RMS=4.08D-09 Max=2.79D-07 NDo=     1
 LinEq1:  Iter= 17 NonCon=     1 RMS=1.90D-09 Max=2.02D-07 NDo=     1
 LinEq1:  Iter= 18 NonCon=     1 RMS=1.08D-09 Max=6.64D-08 NDo=     1
 LinEq1:  Iter= 19 NonCon=     1 RMS=5.22D-10 Max=2.33D-08 NDo=     1
 LinEq1:  Iter= 20 NonCon=     1 RMS=2.29D-10 Max=1.32D-08 NDo=     1
 LinEq1:  Iter= 21 NonCon=     1 RMS=1.15D-10 Max=6.25D-09 NDo=     1
 LinEq1:  Iter= 22 NonCon=     1 RMS=5.26D-11 Max=2.56D-09 NDo=     1
 LinEq1:  Iter= 23 NonCon=     1 RMS=2.68D-11 Max=2.62D-09 NDo=     1
 LinEq1:  Iter= 24 NonCon=     0 RMS=1.42D-11 Max=9.47D-10 NDo=     1
 Linear equations converged to 1.000D-10 1.000D-09 after    24 iterations.
 End of Minotr F.D. properties file   721 does not exist.
 End of Minotr F.D. properties file   722 does not exist.
 End of Minotr F.D. properties file   788 does not exist.

 **********************************************************************

            Population analysis using the SCF density.

 **********************************************************************

 Orbital symmetries:
       Occupied  (A) (A) (A) (A) (A) (A) (A) (A) (A) (A) (A) (A)
                 (A) (A) (A) (A) (A) (A) (A) (A) (A) (A) (A) (A)
                 (A) (A) (A) (A) (A) (A) (A) (A) (A) (A) (A) (A)
                 (A) (A) (A) (A) (A) (A) (A) (A) (A) (A) (A) (A)
                 (A) (A) (A) (A) (A) (A) (A) (A) (A) (A) (A) (A)
                 (A) (A) (A) (A) (A) (A) (A) (A) (A) (A) (A) (A)
                 (A) (A) (A) (A) (A) (A) (A) (A) (A) (A) (A) (A)
                 (A) (A) (A) (A) (A) (A) (A) (A) (A) (A) (A) (A)
                 (A) (A) (A) (A) (A) (A) (A) (A) (A) (A) (A) (A)
                 (A) (A) (A) (A) (A) (A) (A) (A) (A) (A) (A) (A)
                 (A) (A) (A) (A) (A) (A) (A) (A) (A) (A) (A) (A)
                 (A) (A) (A) (A) (A) (A) (A) (A) (A) (A) (A) (A)
                 (A) (A) (A) (A) (A) (A) (A) (A) (A) (A) (A) (A)
                 (A) (A) (A) (A) (A) (A) (A) (A)
       Virtual   (A) (A) (A) (A) (A) (A) (A) (A) (A) (A) (A) (A)
                 (A) (A) (A) (A) (A) (A) (A) (A) (A) (A) (A) (A)
                 (A) (A) (A) (A) (A) (A) (A) (A) (A) (A) (A) (A)
                 (A) (A) (A) (A) (A) (A) (A) (A) (A) (A) (A) (A)
                 (A) (A) (A) (A) (A) (A) (A) (A) (A) (A) (A) (A)
                 (A) (A) (A) (A) (A) (A) (A) (A) (A) (A) (A) (A)
                 (A) (A) (A) (A) (A) (A) (A) (A) (A) (A) (A) (A)
                 (A) (A) (A) (A) (A) (A) (A) (A) (A) (A) (A) (A)
                 (A) (A) (A) (A) (A) (A) (A) (A) (A) (A) (A) (A)
                 (A) (A) (A) (A) (A) (A) (A) (A) (A) (A) (A) (A)
                 (A) (A) (A) (A) (A) (A) (A) (A) (A) (A) (A) (A)
                 (A) (A) (A) (A) (A) (A) (A) (A) (A) (A) (A) (A)
                 (A) (A) (A) (A) (A) (A) (A) (A) (A) (A) (A) (A)
                 (A) (A) (A) (A) (A) (A) (A) (A) (A) (A) (A) (A)
[...]
      9          6           0      -13.158734   -0.956581    1.152224
     10          6           0      -13.532557   -1.588841   -0.185579
     11          6           0      -11.065779    0.203939   -2.514163
     12          6           0       -9.578565    0.219684    0.110888
     13          6           0      -10.900631   -1.944194    1.767734
     14          6           0      -11.519148    0.347759    2.504802
     15          6           0       -8.652851   -0.661603   -0.315973
     16          6           0       -7.214546   -0.497470   -0.341027
     17          6           0       -6.385468   -1.734111   -0.563824
     18          6           0       -6.620895    0.733331   -0.172853
     19          6           0       -5.236691    0.986452   -0.128646
     20          6           0       11.880324   -0.355985    1.383620
     21          6           0       11.689725   -0.270611   -1.290653
     22          6           0       12.620866   -1.694827    1.186740
     23          6           0       13.363831   -1.860651   -0.137410
     24          6           0       12.439884   -1.606317   -1.316895
     25          6           0       11.084816   -0.020621    0.110865
     26          6           0       10.931074   -0.508595    2.578325
     27          6           0       12.866791    0.781325    1.713218
     28          6           0       12.562396    0.901278   -1.748647
     29          6           0       -4.708032    2.261867    0.014134
     30          6           0        9.884643    0.487492    0.160499
     31          6           0       -3.350386    2.628537    0.072819
     32          6           0        8.652115    0.960969    0.124048
     33          6           0       -3.013588    4.086587    0.233523
     34          6           0       -2.315844    1.683157   -0.012748
     35          6           0        7.451534    0.144111    0.020015
     36          6           0        7.644548   -1.335288   -0.139430
     37          6           0        6.236152    0.765250    0.055024
     38          6           0       -0.952749    1.956275    0.040560
     39          6           0        4.951465    0.162910   -0.031530
     40          6           0        0.036917    0.977392   -0.044982
     41          6           0        3.786508    0.886038    0.017238
     42          6           0        1.403189    1.259176    0.010315
     43          6           0        2.469827    0.366989   -0.060759
     44          6           0        2.274521   -1.115533   -0.215342
     45          1           0      -13.191915   -1.267908   -2.270343
     46          1           0      -13.884801    0.128211   -1.452270
     47          1           0      -13.506293   -1.604059    1.963360
     48          1           0      -13.711061   -0.014302    1.232415
     49          1           0      -14.615763   -1.745150   -0.201386
     50          1           0      -10.773044   -0.749173   -2.965841
     51          1           0      -11.731435    0.715117   -3.216866
     52          1           0      -10.172824    0.810675   -2.373821
     53          1           0       -9.281829    1.181622    0.521566
     54          1           0       -9.856058   -1.725132    1.995622
     55          1           0      -11.361661   -2.366638    2.664951
     56          1           0      -10.926281   -2.724081    1.005666
     57          1           0      -11.977131    1.300917    2.229839
     58          1           0      -12.016572   -0.026772    3.404695
     59          1           0      -10.469446    0.526586    2.754879
     60          1           0      -12.069004   -2.796470   -0.637512
     61          1           0       -9.013165   -1.624704   -0.677921
     62          1           0       -5.608593   -1.576285   -1.318913
     63          1           0       -5.877285   -2.049975    0.356109
     64          1           0       -7.005129   -2.571514   -0.892414
     65          1           0       -7.270253    1.600947   -0.077290
     66          1           0       -4.562530    0.139242   -0.203244
     67          1           0       13.316573   -1.843436    2.023568
     68          1           0       11.891053   -2.510931    1.250582
     69          1           0       13.707259   -2.904110   -0.203475
     70          1           0       13.004950   -1.680273   -2.250218
     71          1           0       11.680847   -2.394204   -1.332935
     72          1           0       11.497013   -0.779469    3.475014
     73          1           0       10.400359    0.424274    2.782751
     74          1           0       10.184641   -1.286547    2.397078
     75          1           0       13.627672    0.903713    0.945103
     76          1           0       12.329198    1.725798    1.832100
     77          1           0       13.376302    0.563811    2.658525
     78          1           0       12.857976    0.729439   -2.786806
     79          1           0       11.993447    1.834871   -1.698371
     80          1           0       13.465506    1.001537   -1.149475
     81          1           0       -5.428748    3.074222    0.090167
     82          1           0       10.074757    0.329983   -2.201315
     83          1           0       15.076277   -1.162124    0.488721
     84          1           0        8.507027    2.040084    0.174822
     85          1           0       -2.442394    4.267470    1.151220
     86          1           0       -2.400987    4.451503   -0.598515
     87          1           0       -3.916139    4.698459    0.276334
     88          1           0       -2.591891    0.638783   -0.130388
     89          1           0        6.726055   -1.852095   -0.415794
     90          1           0        8.400956   -1.530934   -0.905690
     91          1           0        8.016467   -1.780185    0.790782
     92          1           0        6.242069    1.849193    0.166017
     93          1           0       -0.626550    2.987254    0.157558
     94          1           0        4.893288   -0.915655   -0.135345
     95          1           0       -0.292886   -0.051923   -0.159224
     96          1           0        3.872669    1.966315    0.127260
     97          1           0        1.667508    2.309962    0.124113
     98          1           0        1.223910   -1.397079   -0.267378
     99          1           0        2.760924   -1.480430   -1.126214
    100          1           0        2.721447   -1.657442    0.624941
 ---------------------------------------------------------------------
 Rotational constants (GHZ):           0.2602235           0.0088568           0.0087871
 Standard basis: 6-31G(d,p) (6D, 7F)
 There are   940 symmetry adapted cartesian basis functions of A   symmetry.
 There are   940 symmetry adapted basis functions of A   symmetry.
   940 basis functions,  1624 primitive gaussians,   940 cartesian basis functions
   164 alpha electrons      164 beta electrons
       nuclear repulsion energy      4460.8196703787 Hartrees.
 NAtoms=  100 NActive=  100 NUniq=  100 SFac= 1.00D+00 NAtFMM=   60 NAOKFM=T Big=T
 Integral buffers will be    131072 words long.
 Raffenetti 1 integral format.
 Two-electron integral symmetry is turned on.
 One-electron integrals computed using PRISM.
 NBasis=   940 RedAO= T EigKep=  3.68D-04  NBF=   940
 NBsUse=   940 1.00D-06 EigRej= -1.00D+00 NBFU=   940
 Initial guess from the checkpoint file:  "neoxanthin-s1-geom-freq.chk"
 B after Tr=     0.000000   -0.000000    0.000000
         Rot=    0.999985   -0.005484   -0.000038   -0.000022 Ang=  -0.63 deg.
 ExpMin= 1.61D-01 ExpMax= 5.48D+03 ExpMxC= 8.25D+02 IAcc=2 IRadAn=         4 AccDes= 0.00D+00
 Harris functional with IExCor=20419 and IRadAn=       4 diagonalized for initial guess.
 HarFok:  IExCor=20419 AccDes= 0.00D+00 IRadAn=         4 IDoV= 1 UseB2=F ITyADJ=14
 ICtDFT=  3500011 ScaDFX=  1.000000  1.000000  1.000000  1.000000
 FoFCou: FMM=F IPFlag=           0 FMFlag=      100000 FMFlg1=        2001
         NFxFlg=           0 DoJE=T BraDBF=F KetDBF=T FulRan=T
         wScrn=  0.000000 ICntrl=       500 IOpCl=  0 I1Cent=   200000004 NGrid=           0
         NMat0=    1 NMatS0=      1 NMatT0=    0 NMatD0=    1 NMtDS0=    0 NMtDT0=    0
 Petite list used in FoFCou.
 Requested convergence on RMS density matrix=1.00D-08 within 128 cycles.
 Requested convergence on MAX density matrix=1.00D-06.
 Requested convergence on             energy=1.00D-06.
 No special actions if energy rises.
 Integral accuracy reduced to 1.0D-05 until final iterations.
 Initial convergence to 1.0D-05 achieved.  Increase integral accuracy.
 SCF Done:  E(RCAM-B3LYP) =  -1857.72748890     A.U. after   10 cycles
            NFock= 10  Conv=0.63D-08     -V/T= 2.0091
 DoSCS=F DFT=T ScalE2(SS,OS)=  1.000000  1.000000
 ExpMin= 1.61D-01 ExpMax= 5.48D+03 ExpMxC= 8.25D+02 IAcc=3 IRadAn=         5 AccDes= 0.00D+00
 HarFok:  IExCor=  205 AccDes= 0.00D+00 IRadAn=         5 IDoV=-2 UseB2=F ITyADJ=14
 ICtDFT= 12500011 ScaDFX=  1.000000  1.000000  1.000000  1.000000
 GSVD:  LWork=       -2288 too small for GESVD, short by       10340 words or       10340 for optimal perf.
 Range of M.O.s used for correlation:    45   940
 NBasis=   940 NAE=   164 NBE=   164 NFC=    44 NFV=     0
 NROrb=    896 NOA=   120 NOB=   120 NVA=   776 NVB=   776
 Orbital symmetries:
       Occupied  (A) (A) (A) (A) (A) (A) (A) (A) (A) (A) (A) (A)
                 (A) (A) (A) (A) (A) (A) (A) (A) (A) (A) (A) (A)
                 (A) (A) (A) (A) (A) (A) (A) (A) (A) (A) (A) (A)
                 (A) (A) (A) (A) (A) (A) (A) (A) (A) (A) (A) (A)
                 (A) (A) (A) (A) (A) (A) (A) (A) (A) (A) (A) (A)
                 (A) (A) (A) (A) (A) (A) (A) (A) (A) (A) (A) (A)
                 (A) (A) (A) (A) (A) (A) (A) (A) (A) (A) (A) (A)
                 (A) (A) (A) (A) (A) (A) (A) (A) (A) (A) (A) (A)
                 (A) (A) (A) (A) (A) (A) (A) (A) (A) (A) (A) (A)
                 (A) (A) (A) (A) (A) (A) (A) (A) (A) (A) (A) (A)
                 (A) (A) (A) (A) (A) (A) (A) (A) (A) (A) (A) (A)
                 (A) (A) (A) (A) (A) (A) (A) (A) (A) (A) (A) (A)
                 (A) (A) (A) (A) (A) (A) (A) (A) (A) (A) (A) (A)
                 (A) (A) (A) (A) (A) (A) (A) (A)
       Virtual   (A) (A) (A) (A) (A) (A) (A) (A) (A) (A) (A) (A)
                 (A) (A) (A) (A) (A) (A) (A) (A) (A) (A) (A) (A)
                 (A) (A) (A) (A) (A) (A) (A) (A) (A) (A) (A) (A)
                 (A) (A) (A) (A) (A) (A) (A) (A) (A) (A) (A) (A)
                 (A) (A) (A) (A) (A) (A) (A) (A) (A) (A) (A) (A)
                 (A) (A) (A) (A) (A) (A) (A) (A) (A) (A) (A) (A)
                 (A) (A) (A) (A) (A) (A) (A) (A) (A) (A) (A) (A)
                 (A) (A) (A) (A) (A) (A) (A) (A) (A) (A) (A) (A)
                 (A) (A) (A) (A) (A) (A) (A) (A) (A) (A) (A) (A)
                 (A) (A) (A) (A) (A) (A) (A) (A) (A) (A) (A) (A)
                 (A) (A) (A) (A) (A) (A) (A) (A) (A) (A) (A) (A)
                 (A) (A) (A) (A) (A) (A) (A) (A) (A) (A) (A) (A)
                 (A) (A) (A) (A) (A) (A) (A) (A) (A) (A) (A) (A)
                 (A) (A) (A) (A) (A) (A) (A) (A) (A) (A) (A) (A)
                 (A) (A) (A) (A) (A) (A) (A) (A) (A) (A) (A) (A)
                 (A) (A) (A) (A) (A) (A) (A) (A) (A) (A) (A) (A)
                 (A) (A) (A) (A) (A) (A) (A) (A) (A) (A) (A) (A)
                 (A) (A) (A) (A) (A) (A) (A) (A) (A) (A) (A) (A)
                 (A) (A) (A) (A) (A) (A) (A) (A) (A) (A) (A) (A)
                 (A) (A) (A) (A) (A) (A) (A) (A) (A) (A) (A) (A)
                 (A) (A) (A) (A) (A) (A) (A) (A) (A) (A) (A) (A)
                 (A) (A) (A) (A) (A) (A) (A) (A) (A) (A) (A) (A)
                 (A) (A) (A) (A) (A) (A) (A) (A) (A) (A) (A) (A)
                 (A) (A) (A) (A) (A) (A) (A) (A) (A) (A) (A) (A)
                 (A) (A) (A) (A) (A) (A) (A) (A) (A) (A) (A) (A)
                 (A) (A) (A) (A) (A) (A) (A) (A) (A) (A) (A) (A)
                 (A) (A) (A) (A) (A) (A) (A) (A) (A) (A) (A) (A)
                 (A) (A) (A) (A) (A) (A) (A) (A) (A) (A) (A) (A)
                 (A) (A) (A) (A) (A) (A) (A) (A) (A) (A) (A) (A)
                 (A) (A) (A) (A) (A) (A) (A) (A) (A) (A) (A) (A)
                 (A) (A) (A) (A) (A) (A) (A) (A) (A) (A) (A) (A)
                 (A) (A) (A) (A) (A) (A) (A) (A) (A) (A) (A) (A)
                 (A) (A) (A) (A) (A) (A) (A) (A) (A) (A) (A) (A)
                 (A) (A) (A) (A) (A) (A) (A) (A) (A) (A) (A) (A)
                 (A) (A) (A) (A) (A) (A) (A) (A) (A) (A) (A) (A)
                 (A) (A) (A) (A) (A) (A) (A) (A) (A) (A) (A) (A)
                 (A) (A) (A) (A) (A) (A) (A) (A) (A) (A) (A) (A)
                 (A) (A) (A) (A) (A) (A) (A) (A) (A) (A) (A) (A)
                 (A) (A) (A) (A) (A) (A) (A) (A) (A) (A) (A) (A)
                 (A) (A) (A) (A) (A) (A) (A) (A) (A) (A) (A) (A)
                 (A) (A) (A) (A) (A) (A) (A) (A) (A) (A) (A) (A)
                 (A) (A) (A) (A) (A) (A) (A) (A) (A) (A) (A) (A)
                 (A) (A) (A) (A) (A) (A) (A) (A) (A) (A) (A) (A)
                 (A) (A) (A) (A) (A) (A) (A) (A) (A) (A) (A) (A)
                 (A) (A) (A) (A) (A) (A) (A) (A) (A) (A) (A) (A)
                 (A) (A) (A) (A) (A) (A) (A) (A) (A) (A) (A) (A)
                 (A) (A) (A) (A) (A) (A) (A) (A) (A) (A) (A) (A)
                 (A) (A) (A) (A) (A) (A) (A) (A) (A) (A) (A) (A)
                 (A) (A) (A) (A) (A) (A) (A) (A) (A) (A) (A) (A)
                 (A) (A) (A) (A) (A) (A) (A) (A) (A) (A) (A) (A)
                 (A) (A) (A) (A) (A) (A) (A) (A) (A) (A) (A) (A)
                 (A) (A) (A) (A) (A) (A) (A) (A) (A) (A) (A) (A)
                 (A) (A) (A) (A) (A) (A) (A) (A) (A) (A) (A) (A)
                 (A) (A) (A) (A) (A) (A) (A) (A) (A) (A) (A) (A)
                 (A) (A) (A) (A) (A) (A) (A) (A) (A) (A) (A) (A)
                 (A) (A) (A) (A) (A) (A) (A) (A) (A) (A) (A) (A)
                 (A) (A) (A) (A) (A) (A) (A) (A) (A) (A) (A) (A)
                 (A) (A) (A) (A) (A) (A) (A) (A) (A) (A) (A) (A)
                 (A) (A) (A) (A) (A) (A) (A) (A) (A) (A) (A) (A)
                 (A) (A) (A) (A) (A) (A) (A) (A) (A) (A) (A) (A)
                 (A) (A) (A) (A) (A) (A) (A) (A) (A) (A) (A) (A)
                 (A) (A) (A) (A) (A) (A) (A) (A) (A) (A) (A) (A)
                 (A) (A) (A) (A) (A) (A) (A) (A) (A) (A) (A) (A)
                 (A) (A) (A) (A) (A) (A) (A) (A) (A) (A) (A) (A)
                 (A) (A) (A) (A) (A) (A) (A) (A)
 Generating guess from densities on rwf.
 Convergence on wavefunction:    0.000001000000000
 Iteration     1 Dimension     6 NMult     0 NNew      6
 CISAX will form     6 AO SS matrices at one time.
 Iteration     2 Dimension    12 NMult     6 NNew      6
 Iteration     3 Dimension    18 NMult    12 NNew      6
 Iteration     4 Dimension    24 NMult    18 NNew      6
 Iteration     5 Dimension    30 NMult    24 NNew      6
 Iteration     6 Dimension    36 NMult    30 NNew      6
 Iteration     7 Dimension    42 NMult    36 NNew      6
 Iteration     8 Dimension    46 NMult    42 NNew      4
 Iteration     9 Dimension    50 NMult    46 NNew      4
 Iteration    10 Dimension    52 NMult    50 NNew      2
 ***********************************************************************
 Excited states from <AA,BB:AA,BB> singles matrix:
 ***********************************************************************
 
 Ground to excited state transition densities written to RWF  633
 Ground to excited state transition electric dipole moments (Au):
       state          X           Y           Z        Dip. S.      Osc.
         1         7.6736     -0.2572      0.0547     58.9535      3.0968
         2         0.0522     -0.3132     -0.0044      0.1008      0.0081
         3         1.5892     -1.5677     -0.0069      4.9836      0.4443
 Ground to excited state transition velocity dipole moments (Au):
       state          X           Y           Z        Dip. S.      Osc.
         1        -0.5863      0.0191     -0.0038      0.3441      2.9117
         2        -0.0070      0.0363      0.0002      0.0014      0.0075
         3        -0.1955      0.2045     -0.0005      0.0800      0.3990
 Ground to excited state transition magnetic dipole moments (Au):
       state          X           Y           Z
         1        -0.0593      0.0260      2.5187
         2         0.0193      0.0108     -0.3049
         3         0.1014     -0.0189     -0.3415
 Ground to excited state transition velocity quadrupole moments (Au):
       state          XX          YY          ZZ          XY          XZ          YZ
         1         0.8238      0.2456      0.0191      0.2839     -0.0018      0.0196
         2        -2.9265      0.0959     -0.0477     -0.1837     -0.0274      0.0033
         3       -15.4743      0.6342     -0.3097     -0.6469     -0.1249      0.0329
 <0|del|b> * <b|rxdel|0> + <0|del|b> * <b|delr+rdel|0>
 Rotatory Strengths (R) in cgs (10**-40 erg-esu-cm/Gauss)
       state          XX          YY          ZZ    R(velocity)    E-M Angle
         1       -45.7076     66.0132    209.8088     76.7048       89.01
         2         3.8211     -0.5200     -2.0902      0.4036       88.95
         3        58.6849    -69.8152   -113.1461    -41.4255      103.47
 1/2[<0|r|b>*<b|rxdel|0> + (<0|rxdel|b>*<b|r|0>)*]
 Rotatory Strengths (R) in cgs (10**-40 erg-esu-cm/Gauss)
       state          XX          YY          ZZ     R(length)
         1       321.8543      4.7332    -97.3572     76.4101
         2        -0.7137      2.3920     -0.9385      0.2466
         3      -113.9136    -20.9843     -1.6664    -45.5214
  1/2[<0|del|b>*<b|r|0> + (<0|r|b>*<b|del|0>)*] (Au)
       state          X           Y           Z        Dip. S.   Osc.(frdel)
         1        -4.4991     -0.0049     -0.0002      4.5042      3.0028
         2        -0.0004     -0.0114     -0.0000      0.0117      0.0078
         3        -0.3107     -0.3206      0.0000      0.6313      0.4209

 Excitation energies and oscillator strengths:
 
 Excited State   1:      Singlet-A      2.1441 eV  578.27 nm  f=3.0968  <S**2>=0.000
     163 ->166         0.13243
     164 ->165        -0.69697
 This state for optimization and/or second-order correction.
 Total Energy, E(TD-HF/TD-DFT) =  -1857.64869582    
 Copying the excited state density for this state as the 1-particle RhoCI density.
 
 Excited State   2:      Singlet-A      3.2947 eV  376.32 nm  f=0.0081  <S**2>=0.000
     162 ->166        -0.13124
     163 ->165         0.56838
     164 ->166         0.36187
 
 Excited State   3:      Singlet-A      3.6389 eV  340.72 nm  f=0.4443  <S**2>=0.000
     163 ->165         0.38493
     163 ->167         0.11237
     164 ->166        -0.58238
 SavETr:  write IOETrn=   770 NScale= 10 NData=  16 NLR=1 NState=    3 LETran=      64.
          IDoAtm=11111111111111111111111111111111111111111111111111
          IDoAtm=11111111111111111111111111111111111111111111111111
          Differentiating once with respect to electric field.
                with respect to dipole field.
          Differentiating once with respect to nuclear coordinates.
          There are     1 degrees of freedom in the 1st order CPHF.  IDoFFX=0 NUNeed=     1.
 LinEq1:  Iter=  0 NonCon=     1 RMS=7.68D-04 Max=1.54D-01 NDo=     1
 AX will form     1 AO Fock derivatives at one time.
 LinEq1:  Iter=  1 NonCon=     1 RMS=2.49D-04 Max=4.59D-02 NDo=     1
 LinEq1:  Iter=  2 NonCon=     1 RMS=1.01D-04 Max=1.38D-02 NDo=     1
 LinEq1:  Iter=  3 NonCon=     1 RMS=6.88D-05 Max=8.01D-03 NDo=     1
 LinEq1:  Iter=  4 NonCon=     1 RMS=3.81D-05 Max=3.28D-03 NDo=     1
 LinEq1:  Iter=  5 NonCon=     1 RMS=2.00D-05 Max=1.67D-03 NDo=     1
 LinEq1:  Iter=  6 NonCon=     1 RMS=1.04D-05 Max=8.71D-04 NDo=     1
 LinEq1:  Iter=  7 NonCon=     1 RMS=4.85D-06 Max=3.50D-04 NDo=     1
 LinEq1:  Iter=  8 NonCon=     1 RMS=2.71D-06 Max=3.03D-04 NDo=     1
 LinEq1:  Iter=  9 NonCon=     1 RMS=1.64D-06 Max=2.01D-04 NDo=     1
