 Entering Gaussian System, Link 0=/usr/local/g09/g09
 Input=gaussian.com
 Output=gaussian.log
 Initial command:
 /usr/local/g09/l1.exe "/home/padawan/israel-mol/NXModule/NX/chlorophyll-a-abs/IC/TEMP/Gau-127773.inp" -scrdir="/home/padawan/israel-mol/NXModule/NX/chlorophyll-a-abs/IC/TEMP/"
 Entering Link 1 = /usr/local/g09/l1.exe PID=    127775.
  
 Copyright (c) 1988,1990,1992,1993,1995,1998,2003,2009,2013,
            Gaussian, Inc.  All Rights Reserved.
  
 This is part of the Gaussian(R) 09 program.  It is based on
 the Gaussian(R) 03 system (copyright 2003, Gaussian, Inc.),
 the Gaussian(R) 98 system (copyright 1998, Gaussian, Inc.),
 the Gaussian(R) 94 system (copyright 1995, Gaussian, Inc.),
 the Gaussian 92(TM) system (copyright 1992, Gaussian, Inc.),
 the Gaussian 90(TM) system (copyright 1990, Gaussian, Inc.),
 the Gaussian 88(TM) system (copyright 1988, Gaussian, Inc.),
 the Gaussian 86(TM) system (copyright 1986, Carnegie Mellon
 University), and the Gaussian 82(TM) system (copyright 1983,
 Carnegie Mellon University). Gaussian is a federally registered
 trademark of Gaussian, Inc.
  
 This software contains proprietary and confidential information,
 including trade secrets, belonging to Gaussian, Inc.
  
 This software is provided under written license and may be
 used, copied, transmitted, or stored only in accord with that
 written license.
  
 The following legend is applicable only to US Government
 contracts under FAR:
  
                    RESTRICTED RIGHTS LEGEND
  
 Use, reproduction and disclosure by the US Government is
 subject to restrictions as set forth in subparagraphs (a)
 and (c) of the Commercial Computer Software - Restricted
 Rights clause in FAR 52.227-19.
  
 Gaussian, Inc.
 340 Quinnipiac St., Bldg. 40, Wallingford CT 06492
  
  
 ---------------------------------------------------------------
 Warning -- This program may not be used in any manner that
 competes with the business of Gaussian, Inc. or will provide
 assistance to any competitor of Gaussian, Inc.  The licensee
 of this program is prohibited from giving any competitor of
 Gaussian, Inc. access to this program.  By using this program,
 the user acknowledges that Gaussian, Inc. is engaged in the
 business of creating and licensing software in the field of
 computational chemistry and represents and warrants to the
 licensee that it is not a competitor of Gaussian, Inc. and that
 it will not use this program in any manner prohibited above.
 ---------------------------------------------------------------
  

 Cite this work as:
 Gaussian 09, Revision D.01,
 M. J. Frisch, G. W. Trucks, H. B. Schlegel, G. E. Scuseria, 
 M. A. Robb, J. R. Cheeseman, G. Scalmani, V. Barone, B. Mennucci, 
 G. A. Petersson, H. Nakatsuji, M. Caricato, X. Li, H. P. Hratchian, 
 A. F. Izmaylov, J. Bloino, G. Zheng, J. L. Sonnenberg, M. Hada, 
 M. Ehara, K. Toyota, R. Fukuda, J. Hasegawa, M. Ishida, T. Nakajima, 
 Y. Honda, O. Kitao, H. Nakai, T. Vreven, J. A. Montgomery, Jr., 
 J. E. Peralta, F. Ogliaro, M. Bearpark, J. J. Heyd, E. Brothers, 
 K. N. Kudin, V. N. Staroverov, T. Keith, R. Kobayashi, J. Normand, 
 K. Raghavachari, A. Rendell, J. C. Burant, S. S. Iyengar, J. Tomasi, 
 M. Cossi, N. Rega, J. M. Millam, M. Klene, J. E. Knox, J. B. Cross, 
 V. Bakken, C. Adamo, J. Jaramillo, R. Gomperts, R. E. Stratmann, 
 O. Yazyev, A. J. Austin, R. Cammi, C. Pomelli, J. W. Ochterski, 
 R. L. Martin, K. Morokuma, V. G. Zakrzewski, G. A. Voth, 
 P. Salvador, J. J. Dannenberg, S. Dapprich, A. D. Daniels, 
 O. Farkas, J. B. Foresman, J. V. Ortiz, J. Cioslowski, 
 and D. J. Fox, Gaussian, Inc., Wallingford CT, 2013.
 
 ******************************************
 Gaussian 09:  ES64L-G09RevD.01 24-Apr-2013
                18-Apr-2019 
 ******************************************
 %nproc=4
 Will use up to    4 processors via shared memory.
 %Mem=2GB
 --------------------------------
 # td(NStates=1) B3LYP/SVP nosymm
 --------------------------------
 1/38=1/1;
 2/12=2,15=1,17=6,18=5,40=1/2;
 3/5=18,7=101,11=9,16=1,25=1,30=1,74=-5/1,2,8,3;
 4//1;
 5/5=2,38=5/2;
 8/6=1,10=1,108=1/1;
 9/41=1,42=1,70=2/14;
 6/7=2,8=2,9=2,10=2/1;
 99/5=1,9=1/99;
 ------------------------------
 chlorophyll-a-abs Single Point
 ------------------------------
 Symbolic Z-matrix:
 Charge =  0 Multiplicity = 1
 Mg                   -7.0886    0.68991   0.13458 
 C                    -4.97277  -2.03346   0.51824 
 C                    -4.63085   2.7209    1.33787 
 C                    -9.16247   3.3482   -0.31614 
 C                    -9.59678  -1.46066  -0.96522 
 N                    -5.06727   0.36497   0.80857 
 C                    -4.38373  -0.82558   0.85223 
 C                    -2.94098  -0.61372   1.28786 
 C                    -2.97326   0.83657   1.83552 
 C                    -4.29502   1.36965   1.28883 
 C                    -2.92377   0.9033    3.37066 
 C                    -1.95387  -0.81547   0.11932 
 C                    -0.48916  -0.76564   0.55011 
 C                     0.47639  -1.01247  -0.59329 
 O                     0.16723  -1.38159  -1.70074 
 O                     1.74473  -0.77691  -0.21539 
 N                    -6.91882   2.69367   0.44258 
 C                    -5.83318   3.3476    0.93926 
 C                    -6.09755   4.77689   1.01062 
 C                    -7.38531   4.96097   0.53134 
 C                    -7.89355   3.63111   0.18946 
 C                    -5.15104   5.80665   1.54352 
 C                    -8.1598    6.19072   0.39413 
 C                    -7.69374   7.44499   0.25462 
 N                    -9.04294   0.90315  -0.53341 
 C                    -9.70718   2.08703  -0.64871 
 C                    -11.05167   1.86225  -1.15412 
 C                    -11.17792   0.49903  -1.33353 
 C                    -9.90425  -0.08784  -0.94099 
 C                    -12.06748   2.93337  -1.41405 
 C                    -12.36202  -0.25536  -1.87199 
 C                    -12.30578  -0.5028   -3.38945 
 N                    -7.2924   -1.29591  -0.16911 
 C                    -8.37689  -2.04896  -0.60599 
 C                    -8.03116  -3.46188  -0.62452 
 C                    -6.7093   -3.50588  -0.18823 
 C                    -6.31022  -2.16481   0.07339 
 C                    -8.91093  -4.60305  -1.0254 
 C                    -5.58982  -4.39948   0.10244 
 O                    -5.5126   -5.60501   0.0512 
 C                    -4.38193  -3.44091   0.52961 
 C                    -3.80367  -3.90024   1.85598 
 O                    -4.04946  -3.42015   2.93741 
 O                    -2.98188  -4.94616   1.67797 
 C                    -2.46825  -5.56039   2.85889 
 C                     2.76931  -1.01678  -1.2063 
 C                     4.09438  -0.7176   -0.58384 
 C                     5.07405   0.06598  -1.07188 
 C                     4.98831   0.82697  -2.37236 
 C                     6.37519   0.21402  -0.30995 
 C                     7.60529  -0.386    -1.01615 
 C                     8.88736  -0.25128  -0.18735 
 C                     10.1806  -0.74072  -0.86927 
 C                     10.14023  -2.24624  -1.16762 
 C                     11.40645  -0.34989  -0.01957 
 C                     12.77363  -0.5749   -0.67596 
 C                     13.94008  -0.08178   0.18832 
 C                     15.34092  -0.19302  -0.44621 
 C                     15.74067  -1.65152  -0.71124 
 C                     16.37757   0.54173   0.42699 
 C                     17.77649   0.69499  -0.18146 
 C                     18.722    1.52518   0.69439 
 C                     20.17262   1.64216   0.18885 
 C                     20.27367   2.36676  -1.16035 
 C                     21.05728   2.32749   1.23857 
 H                    -3.85913   3.38017   1.73938 
 H                    -9.82101   4.20331  -0.47412 
 H                    -10.38735  -2.13508  -1.30058 
 H                    -2.69133  -1.32514   2.09128 
 H                    -2.13908   1.43432   1.43191 
 H                    -1.96696   0.50542   3.74575 
 H                    -3.02739   1.93826   3.73188 
 H                    -3.73508   0.30461   3.81448 
 H                    -2.14054  -1.78335  -0.36963 
 H                    -2.14098  -0.05382  -0.65637 
 H                    -0.21969   0.19642   1.01605 
 H                    -0.28147  -1.52905   1.32171 
 H                    -4.53102   6.2541    0.74587 
 H                    -5.69695   6.63101   2.02749 
 H                    -4.46122   5.37888   2.28634 
 H                    -9.24813   6.06131   0.39959 
 H                    -8.38483   8.28774   0.17051 
 H                    -6.62851   7.67607   0.1941 
 H                    -11.74597   3.61512  -2.22033 
 H                    -13.03603   2.50796  -1.71396 
 H                    -12.24333   3.55576  -0.52045 
 H                    -12.45499  -1.22281  -1.35012 
 H                    -13.28526   0.29757  -1.632 
 H                    -13.19199  -1.06111  -3.73267 
 H                    -12.26685   0.44792  -3.94444 
 H                    -11.41072  -1.08187  -3.66679 
 H                    -9.24989  -4.50679  -2.07095 
 H                    -8.37035  -5.5544   -0.92681 
 H                    -9.81686  -4.65618  -0.39806 
 H                    -3.60349  -3.59519  -0.23688 
 H                    -1.88187  -4.84271   3.45303 
 H                    -3.28723  -5.94398   3.48593 
 H                    -1.83138  -6.38705   2.52097 
 H                     2.699    -2.07387  -1.51919 
 H                     2.55539  -0.41088  -2.09819 
 H                     4.26409  -1.22362   0.37406 
 H                     3.97558   0.84739  -2.79674 
 H                     5.31956   1.86989  -2.22988 
 H                     5.6551    0.38954  -3.1353 
 H                     6.56284   1.29001  -0.12983 
 H                     6.27039  -0.25325   0.68331 
 H                     7.39837  -1.44677  -1.23707 
 H                     7.75577   0.10756  -1.99285 
 H                     9.01722   0.81235   0.08358 
 H                     8.76158  -0.78934   0.77163 
 H                     10.26593  -0.20604  -1.83603 
 H                     9.28553  -2.5154   -1.80679 
 H                     11.04894  -2.58482  -1.688 
 H                     10.05454  -2.82814  -0.23309 
 H                     11.31859   0.71907   0.24725 
 H                     11.36674  -0.89966   0.94033 
 H                     12.90553  -1.64533  -0.9026 
 H                     12.79831  -0.05257  -1.65108 
 H                     13.7592   0.97705   0.44857 
 H                     13.93831  -0.62846   1.15083 
 H                     15.30273   0.32992  -1.42236 
 H                     15.795   -2.22021   0.23378 
 H                     15.01829  -2.16246  -1.36592 
 H                     16.724   -1.72437  -1.20025 
 H                     15.98604   1.54927   0.6576 
 H                     16.45646   0.02371   1.40206 
 H                     18.22894  -0.29828  -0.34955 
 H                     17.68142   1.158    -1.17974 
 H                     18.30519   2.54278   0.82274 
 H                     18.7407   1.08232   1.70709 
 H                     20.55702   0.61336   0.04745 
 H                     19.8776   3.39477  -1.08513 
 H                     21.32189   2.4397   -1.49327 
 H                     19.71242   1.8503   -1.95433 
 H                     21.03274   1.7906    2.20096 
 H                     22.10786   2.37859   0.90907 
 H                     20.71799   3.36107   1.42646 
 
 Symmetry turned off by external request.
 Stoichiometry    C55H72MgN4O5
 Framework group  C1[X(C55H72MgN4O5)]
 Deg. of freedom   405
 Full point group                 C1      NOp   1
                          Input orientation:                          
 ---------------------------------------------------------------------
 Center     Atomic      Atomic             Coordinates (Angstroms)
 Number     Number       Type             X           Y           Z
 ---------------------------------------------------------------------
      1         12           0       -7.088600    0.689911    0.134580
      2          6           0       -4.972770   -2.033459    0.518240
      3          6           0       -4.630850    2.720901    1.337870
      4          6           0       -9.162470    3.348201   -0.316140
      5          6           0       -9.596780   -1.460659   -0.965220
      6          7           0       -5.067270    0.364971    0.808570
      7          6           0       -4.383730   -0.825579    0.852230
      8          6           0       -2.940980   -0.613720    1.287860
      9          6           0       -2.973260    0.836570    1.835520
     10          6           0       -4.295020    1.369651    1.288830
     11          6           0       -2.923770    0.903300    3.370660
     12          6           0       -1.953870   -0.815470    0.119320
     13          6           0       -0.489160   -0.765640    0.550110
     14          6           0        0.476390   -1.012470   -0.593290
     15          8           0        0.167230   -1.381590   -1.700740
     16          8           0        1.744730   -0.776910   -0.215390
     17          7           0       -6.918820    2.693671    0.442580
     18          6           0       -5.833180    3.347601    0.939260
     19          6           0       -6.097550    4.776891    1.010620
     20          6           0       -7.385310    4.960971    0.531340
     21          6           0       -7.893550    3.631111    0.189460
     22          6           0       -5.151040    5.806651    1.543520
     23          6           0       -8.159800    6.190721    0.394130
     24          6           0       -7.693740    7.444991    0.254620
     25          7           0       -9.042940    0.903151   -0.533410
     26          6           0       -9.707180    2.087031   -0.648710
     27          6           0      -11.051670    1.862251   -1.154120
     28          6           0      -11.177920    0.499031   -1.333530
     29          6           0       -9.904250   -0.087839   -0.940990
     30          6           0      -12.067480    2.933371   -1.414050
     31          6           0      -12.362020   -0.255359   -1.871990
     32          6           0      -12.305780   -0.502799   -3.389450
     33          7           0       -7.292400   -1.295909   -0.169110
     34          6           0       -8.376890   -2.048959   -0.605990
     35          6           0       -8.031160   -3.461879   -0.624520
     36          6           0       -6.709300   -3.505879   -0.188230
     37          6           0       -6.310220   -2.164809    0.073390
     38          6           0       -8.910930   -4.603049   -1.025400
     39          6           0       -5.589820   -4.399479    0.102440
     40          8           0       -5.512600   -5.605009    0.051200
     41          6           0       -4.381930   -3.440909    0.529610
     42          6           0       -3.803670   -3.900240    1.855980
     43          8           0       -4.049460   -3.420149    2.937410
     44          8           0       -2.981880   -4.946160    1.677970
     45          6           0       -2.468250   -5.560390    2.858890
     46          6           0        2.769310   -1.016780   -1.206300
     47          6           0        4.094380   -0.717600   -0.583840
     48          6           0        5.074050    0.065980   -1.071880
     49          6           0        4.988310    0.826970   -2.372360
     50          6           0        6.375190    0.214020   -0.309950
     51          6           0        7.605290   -0.386000   -1.016150
     52          6           0        8.887360   -0.251280   -0.187350
     53          6           0       10.180600   -0.740720   -0.869270
     54          6           0       10.140230   -2.246240   -1.167620
     55          6           0       11.406450   -0.349890   -0.019570
     56          6           0       12.773630   -0.574900   -0.675960
     57          6           0       13.940080   -0.081780    0.188320
     58          6           0       15.340920   -0.193020   -0.446210
     59          6           0       15.740670   -1.651520   -0.711240
     60          6           0       16.377570    0.541730    0.426990
     61          6           0       17.776490    0.694990   -0.181460
     62          6           0       18.722000    1.525180    0.694390
     63          6           0       20.172620    1.642160    0.188850
     64          6           0       20.273670    2.366760   -1.160350
     65          6           0       21.057280    2.327490    1.238570
     66          1           0       -3.859130    3.380170    1.739380
     67          1           0       -9.821010    4.203311   -0.474120
     68          1           0      -10.387350   -2.135079   -1.300580
     69          1           0       -2.691330   -1.325140    2.091280
     70          1           0       -2.139080    1.434320    1.431910
     71          1           0       -1.966960    0.505420    3.745750
     72          1           0       -3.027390    1.938260    3.731880
     73          1           0       -3.735080    0.304610    3.814480
     74          1           0       -2.140540   -1.783350   -0.369630
     75          1           0       -2.140980   -0.053820   -0.656370
     76          1           0       -0.219690    0.196420    1.016050
     77          1           0       -0.281470   -1.529050    1.321710
     78          1           0       -4.531020    6.254101    0.745870
     79          1           0       -5.696950    6.631011    2.027490
     80          1           0       -4.461220    5.378881    2.286340
     81          1           0       -9.248130    6.061311    0.399590
     82          1           0       -8.384830    8.287741    0.170510
     83          1           0       -6.628510    7.676071    0.194100
     84          1           0      -11.745970    3.615121   -2.220330
     85          1           0      -13.036030    2.507961   -1.713960
     86          1           0      -12.243330    3.555761   -0.520450
     87          1           0      -12.454990   -1.222809   -1.350120
     88          1           0      -13.285260    0.297571   -1.632000
     89          1           0      -13.191990   -1.061109   -3.732670
     90          1           0      -12.266850    0.447921   -3.944440
     91          1           0      -11.410720   -1.081869   -3.666790
     92          1           0       -9.249890   -4.506789   -2.070950
     93          1           0       -8.370350   -5.554399   -0.926810
     94          1           0       -9.816860   -4.656179   -0.398060
     95          1           0       -3.603490   -3.595190   -0.236880
     96          1           0       -1.881870   -4.842710    3.453030
     97          1           0       -3.287230   -5.943980    3.485930
     98          1           0       -1.831380   -6.387050    2.520970
     99          1           0        2.699000   -2.073870   -1.519190
    100          1           0        2.555390   -0.410880   -2.098190
    101          1           0        4.264090   -1.223620    0.374060
    102          1           0        3.975580    0.847390   -2.796740
    103          1           0        5.319560    1.869890   -2.229880
    104          1           0        5.655100    0.389540   -3.135300
    105          1           0        6.562840    1.290010   -0.129830
    106          1           0        6.270390   -0.253250    0.683310
    107          1           0        7.398370   -1.446770   -1.237070
    108          1           0        7.755770    0.107560   -1.992850
    109          1           0        9.017220    0.812350    0.083580
    110          1           0        8.761580   -0.789340    0.771630
    111          1           0       10.265930   -0.206040   -1.836030
    112          1           0        9.285530   -2.515400   -1.806790
    113          1           0       11.048940   -2.584820   -1.688000
    114          1           0       10.054540   -2.828140   -0.233090
    115          1           0       11.318590    0.719070    0.247250
    116          1           0       11.366740   -0.899660    0.940330
    117          1           0       12.905530   -1.645330   -0.902600
    118          1           0       12.798310   -0.052570   -1.651080
    119          1           0       13.759200    0.977050    0.448570
    120          1           0       13.938310   -0.628460    1.150830
    121          1           0       15.302730    0.329920   -1.422360
    122          1           0       15.795000   -2.220210    0.233780
    123          1           0       15.018290   -2.162460   -1.365920
    124          1           0       16.724000   -1.724370   -1.200250
    125          1           0       15.986040    1.549270    0.657600
    126          1           0       16.456460    0.023710    1.402060
    127          1           0       18.228940   -0.298280   -0.349550
    128          1           0       17.681420    1.158000   -1.179740
    129          1           0       18.305190    2.542780    0.822740
    130          1           0       18.740700    1.082320    1.707090
    131          1           0       20.557020    0.613360    0.047450
    132          1           0       19.877600    3.394770   -1.085130
    133          1           0       21.321890    2.439700   -1.493270
    134          1           0       19.712420    1.850300   -1.954330
    135          1           0       21.032740    1.790600    2.200960
    136          1           0       22.107860    2.378590    0.909070
    137          1           0       20.717990    3.361070    1.426460
 ---------------------------------------------------------------------
 Rotational constants (GHZ):      0.0612039      0.0061286      0.0057530
 Standard basis: SVP (5D, 7F)
  1266 basis functions,  2132 primitive gaussians,  1330 cartesian basis functions
   241 alpha electrons      241 beta electrons
       nuclear repulsion energy      8731.9247507117 Hartrees.
 NAtoms=  137 NActive=  137 NUniq=  137 SFac= 1.00D+00 NAtFMM=   60 NAOKFM=T Big=T
 Integral buffers will be    131072 words long.
 Regular integral format.
 Two-electron integral symmetry is turned off.
 One-electron integrals computed using PRISM.
 NBasis=  1266 RedAO= T EigKep=  2.79D-04  NBF=  1266
 NBsUse=  1266 1.00D-06 EigRej= -1.00D+00 NBFU=  1266
 ExpMin= 3.36D-02 ExpMax= 4.95D+03 ExpMxC= 7.45D+02 IAcc=3 IRadAn=         5 AccDes= 0.00D+00
 Harris functional with IExCor=  402 and IRadAn=       5 diagonalized for initial guess.
 HarFok:  IExCor=  402 AccDes= 0.00D+00 IRadAn=         5 IDoV= 1 UseB2=F ITyADJ=14
 ICtDFT=  3500011 ScaDFX=  1.000000  1.000000  1.000000  1.000000
 FoFCou: FMM=F IPFlag=           0 FMFlag=      100000 FMFlg1=        2001
         NFxFlg=           0 DoJE=T BraDBF=F KetDBF=T FulRan=T
         wScrn=  0.000000 ICntrl=     500 IOpCl=  0 I1Cent=   200000004 NGrid=           0
         NMat0=    1 NMatS0=      1 NMatT0=    0 NMatD0=    1 NMtDS0=    0 NMtDT0=    0
 Symmetry not used in FoFCou.
 Requested convergence on RMS density matrix=1.00D-08 within 128 cycles.
 Requested convergence on MAX density matrix=1.00D-06.
 Requested convergence on             energy=1.00D-06.
 No special actions if energy rises.
