 Entering Gaussian System, Link 0=g16
 Input=Geometria-93-.com
 Output=Geometria-93-.log
 Initial command:
 /usr/local/g16/l1.exe "/home/padawan/israel-mol/phycocyanobilin/spectra/emi/Gau-24470.inp" -scrdir="/home/padawan/israel-mol/phycocyanobilin/spectra/emi/"
 Entering Link 1 = /usr/local/g16/l1.exe PID=     24472.
  
 Copyright (c) 1988,1990,1992,1993,1995,1998,2003,2009,2016,
            Gaussian, Inc.  All Rights Reserved.
  
 This is part of the Gaussian(R) 16 program.  It is based on
 the Gaussian(R) 09 system (copyright 2009, Gaussian, Inc.),
 the Gaussian(R) 03 system (copyright 2003, Gaussian, Inc.),
 the Gaussian(R) 98 system (copyright 1998, Gaussian, Inc.),
 the Gaussian(R) 94 system (copyright 1995, Gaussian, Inc.),
 the Gaussian 92(TM) system (copyright 1992, Gaussian, Inc.),
 the Gaussian 90(TM) system (copyright 1990, Gaussian, Inc.),
 the Gaussian 88(TM) system (copyright 1988, Gaussian, Inc.),
 the Gaussian 86(TM) system (copyright 1986, Carnegie Mellon
 University), and the Gaussian 82(TM) system (copyright 1983,
 Carnegie Mellon University). Gaussian is a federally registered
 trademark of Gaussian, Inc.
  
 This software contains proprietary and confidential information,
 including trade secrets, belonging to Gaussian, Inc.
  
 This software is provided under written license and may be
 used, copied, transmitted, or stored only in accord with that
 written license.
  
 The following legend is applicable only to US Government
 contracts under FAR:
  
                    RESTRICTED RIGHTS LEGEND
  
 Use, reproduction and disclosure by the US Government is
 subject to restrictions as set forth in subparagraphs (a)
 and (c) of the Commercial Computer Software - Restricted
 Rights clause in FAR 52.227-19.
  
 Gaussian, Inc.
 340 Quinnipiac St., Bldg. 40, Wallingford CT 06492
  
  
 ---------------------------------------------------------------
 Warning -- This program may not be used in any manner that
 competes with the business of Gaussian, Inc. or will provide
 assistance to any competitor of Gaussian, Inc.  The licensee
 of this program is prohibited from giving any competitor of
 Gaussian, Inc. access to this program.  By using this program,
 the user acknowledges that Gaussian, Inc. is engaged in the
 business of creating and licensing software in the field of
 computational chemistry and represents and warrants to the
 licensee that it is not a competitor of Gaussian, Inc. and that
 it will not use this program in any manner prohibited above.
 ---------------------------------------------------------------
  

 Cite this work as:
 Gaussian 16, Revision A.03,
 M. J. Frisch, G. W. Trucks, H. B. Schlegel, G. E. Scuseria, 
 M. A. Robb, J. R. Cheeseman, G. Scalmani, V. Barone, 
 G. A. Petersson, H. Nakatsuji, X. Li, M. Caricato, A. V. Marenich, 
 J. Bloino, B. G. Janesko, R. Gomperts, B. Mennucci, H. P. Hratchian, 
 J. V. Ortiz, A. F. Izmaylov, J. L. Sonnenberg, D. Williams-Young, 
 F. Ding, F. Lipparini, F. Egidi, J. Goings, B. Peng, A. Petrone, 
 T. Henderson, D. Ranasinghe, V. G. Zakrzewski, J. Gao, N. Rega, 
 G. Zheng, W. Liang, M. Hada, M. Ehara, K. Toyota, R. Fukuda, 
 J. Hasegawa, M. Ishida, T. Nakajima, Y. Honda, O. Kitao, H. Nakai, 
 T. Vreven, K. Throssell, J. A. Montgomery, Jr., J. E. Peralta, 
 F. Ogliaro, M. J. Bearpark, J. J. Heyd, E. N. Brothers, K. N. Kudin, 
 V. N. Staroverov, T. A. Keith, R. Kobayashi, J. Normand, 
 K. Raghavachari, A. P. Rendell, J. C. Burant, S. S. Iyengar, 
 J. Tomasi, M. Cossi, J. M. Millam, M. Klene, C. Adamo, R. Cammi, 
 J. W. Ochterski, R. L. Martin, K. Morokuma, O. Farkas, 
 J. B. Foresman, and D. J. Fox, Gaussian, Inc., Wallingford CT, 2016.
 
 ******************************************
 Gaussian 16:  ES64L-G16RevA.03 25-Dec-2016
                28-Jun-2019 
 ******************************************
 %nproc=4
 Will use up to    4 processors via shared memory.
 %Mem=2GB
 --------------------------
 # td=(NStates=1) B3LYP/SVP
 --------------------------
 1/38=1,172=1/1;
 2/12=2,17=6,18=5,40=1/2;
 3/5=18,7=101,11=9,25=1,30=1,74=-5/1,2,3,8;
 4//1;
 5/5=2,38=5/2;
 8/6=1,10=1,108=1/1;
 9/41=1,42=1,70=2/14;
 6/7=2,8=2,9=2,10=2/1;
 99/5=1,9=1/99;
 --
 TD
 --
 Symbolic Z-matrix:
 Charge =  0 Multiplicity = 1
 8                    -4.13302  -4.77557   1.8729 
 8                     3.32136  -4.9592    0.94103 
 8                     6.65229  -1.68354   2.02507 
 8                     3.81623  -3.0074   -0.06588 
 8                     7.58313  -0.4494    0.32884 
 8                    -2.94701   2.47798  -0.48881 
 7                    -0.38106  -0.55084  -0.70946 
 7                     1.52729   1.82758  -0.43244 
 7                    -3.27464  -3.03519   0.63598 
 7                    -0.75793   2.86495  -0.10568 
 6                     0.57183  -2.40308  -1.46364 
 6                     0.8172   -1.08104  -0.97987 
 6                    -0.87304  -2.54375  -1.3006 
 6                    -1.41694  -1.36817  -0.81305 
 6                     3.71422   1.50583  -0.33103 
 6                     2.54444   0.88808  -0.67496 
 6                     2.16655  -0.44106  -0.90578 
 6                     3.52429   2.87566   0.00448 
 6                     1.59874  -3.43797  -2.00992 
 6                    -5.3487   -2.85329   1.41571 
 6                    -3.62042  -1.8259    0.22273 
 6                     2.05881   2.98912  -0.05842 
 6                    -4.96916  -1.5544    0.52596 
 6                     5.11933   0.74753  -0.33449 
 6                    -2.71336  -0.98744  -0.47298 
 6                    -1.61946  -3.84449  -1.84517 
 6                    -4.1437   -3.74405   1.37763 
 6                     2.08512  -4.42265  -1.07702 
 6                     5.26369  -0.12406   0.9007 
 6                     4.52612   3.91421   0.29524 
 6                     1.27943   4.13415   0.15476 
 6                    -6.66418  -3.54613   0.95745 
 6                    -5.83956  -0.55282   0.18285 
 6                    -0.1322    4.03193   0.25936 
 6                    -1.06963   5.16796   0.59077 
 6                    -2.27512   4.62159   0.3188 
 6                     3.16641  -4.01806  -0.0406 
 6                    -5.57375   0.62796  -0.70172 
 6                     6.60286  -0.73372   1.04067 
 6                    -3.67802   5.17205   0.40068 
 6                    -2.05984   3.16586  -0.06334 
 6                    -0.52325   6.55707   0.82225 
 6                    -4.31538   5.46806  -0.99609 
 1                    -0.42695   0.41728  -0.32349 
 1                     2.84709  -1.30943  -1.26481 
 1                     2.52555  -3.05387  -2.29626 
 1                     1.15263  -3.9944   -2.78561 
 1                    -5.45688  -2.3776    2.4094 
 1                     5.26853   0.1563   -1.16286 
 1                     6.10314   1.56634  -0.34523 
 1                    -3.07262   0.04952  -1.05216 
 1                     0.56484   1.7313   -0.46758 
 1                    -1.53429  -4.55772  -1.08916 
 1                    -2.6972   -3.68177  -1.9248 
 1                    -1.02488  -4.00279  -2.77203 
 1                    -2.39458  -3.48662   0.4767 
 1                     1.25139  -4.98439  -0.44144 
 1                     2.42657  -5.35335  -1.59221 
 1                     4.59728  -0.98195   0.93142 
 1                     5.28377   0.54059   1.81605 
 1                     4.1716    4.89146  -0.28375 
 1                     5.64515   3.8957    0.14266 
 1                     4.36941   4.27232   1.34849 
 1                     1.69945   5.26742   0.49982 
 1                    -7.43076  -2.7425    0.73279 
 1                    -6.85319  -4.39727   1.73048 
 1                    -6.33646  -3.92581  -0.03814 
 1                    -6.73697  -0.49908   0.701 
 1                    -4.68241   1.33282  -0.20887 
 1                    -6.34416   1.38014  -0.81819 
 1                    -5.4669    0.22115  -1.83962 
 1                    -3.58493   6.16411   1.05064 
 1                    -4.26033   4.26817   0.85632 
 1                    -0.16327   6.50442   1.93439 
 1                    -1.44266   7.062     0.78525 
 1                     0.28579   6.96      0.22175 
 1                    -3.81555   6.31801  -1.38603 
 1                    -5.44919   5.55676  -0.84421 
 1                    -4.19206   4.64062  -1.68535 
 1                     4.08957  -4.80077   1.45937 
 1                     7.51532  -1.8401    1.99893 
 
 Stoichiometry    C33H38N4O6
 Framework group  C1[X(C33H38N4O6)]
 Deg. of freedom   237
 Full point group                 C1      NOp   1
 Largest Abelian subgroup         C1      NOp   1
 Largest concise Abelian subgroup C1      NOp   1
                         Standard orientation:                         
 ---------------------------------------------------------------------
 Center     Atomic      Atomic             Coordinates (Angstroms)
 Number     Number       Type             X           Y           Z
 ---------------------------------------------------------------------
      1          8           0        4.084183   -4.808156   -1.897319
      2          8           0       -3.366913   -4.931518   -0.929928
      3          8           0       -6.676107   -1.628011   -1.995901
      4          8           0       -3.841001   -2.976434    0.080599
      5          8           0       -7.588714   -0.387483   -0.294442
      6          8           0        2.968782    2.453215    0.474736
      7          7           0        0.379243   -0.554688    0.705689
      8          7           0       -1.510904    1.839434    0.439346
      9          7           0        3.245968   -3.061674   -0.655180
     10          7           0        0.781136    2.858320    0.102333
     11          6           0       -0.585134   -2.399599    1.463218
     12          6           0       -0.822005   -1.075263    0.981482
     13          6           0        0.857744   -2.551960    1.293183
     14          6           0        1.408899   -1.380522    0.803798
     15          6           0       -3.700848    1.535631    0.348180
     16          6           0       -2.534523    0.908106    0.686116
     17          6           0       -2.166415   -0.424237    0.914263
     18          6           0       -3.501338    2.904088    0.012657
     19          6           0       -1.617848   -3.426437    2.013732
     20          6           0        5.317701   -2.896185   -1.444700
     21          6           0        3.603585   -1.855526   -0.242803
     22          6           0       -2.034693    3.005530    0.068618
     23          6           0        4.953039   -1.594852   -0.552302
     24          6           0       -5.112073    0.788829    0.357873
     25          6           0        2.706742   -1.010162    0.457782
     26          6           0        1.596102   -3.859129    1.833337
     27          6           0        4.105658   -3.777095   -1.401439
     28          6           0       -2.116708   -4.406476    1.082529
     29          6           0       -5.269448   -0.080704   -0.877182
     30          6           0       -4.496020    3.950993   -0.272639
     31          6           0       -1.247005    4.144300   -0.147540
     32          6           0        6.629646   -3.600061   -0.993191
     33          6           0        5.833228   -0.600649   -0.212708
     34          6           0        0.163225    4.030627   -0.258956
     35          6           0        1.108315    5.159191   -0.594109
     36          6           0        2.310580    4.602804   -0.328261
     37          6           0       -3.199597   -3.992357    0.051554
     38          6           0        5.581303    0.581654    0.673885
     39          6           0       -6.614214   -0.679306   -1.011144
     40          6           0        3.717523    5.141836   -0.416499
     41          6           0        2.085236    3.148617    0.053961
     42          6           0        0.572207    6.552874   -0.822077
     43          6           0        4.363951    5.431674    0.977402
     44          1           0        0.431208    0.413287    0.320136
     45          1           0       -2.852307   -1.287262    1.275977
     46          1           0       -2.540111   -3.034977    2.304747
     47          1           0       -1.172595   -3.987034    2.786918
     48          1           0        5.425011   -2.420707   -2.438590
     49          1           0       -5.262144    0.198264    1.186558
     50          1           0       -6.089098    1.615637    0.373843
     51          1           0        3.077234    0.023430    1.035901
     52          1           0       -0.549118    1.735271    0.469820
     53          1           0        1.501492   -4.571116    1.077275
     54          1           0        2.675502   -3.705268    1.907914
     55          1           0        1.004678   -4.013196    2.762925
     56          1           0        2.363021   -3.506003   -0.491986
     57          1           0       -1.290638   -4.974571    0.442609
     58          1           0       -2.463287   -5.334707    1.598751
     59          1           0       -4.610235   -0.943987   -0.911645
     60          1           0       -5.288475    0.584717   -1.791992
     61          1           0       -4.130763    4.924912    0.305283
     62          1           0       -5.614421    3.941514   -0.114720
     63          1           0       -4.341427    4.308533   -1.326393
     64          1           0       -1.659397    5.281198   -0.489857
     65          1           0        7.403836   -2.802875   -0.771678
     66          1           0        6.807998   -4.452182   -1.767661
     67          1           0        6.303592   -3.977736    0.003715
     68          1           0        6.728557   -0.553886   -0.735111
     69          1           0        4.693405    1.294111    0.185756
     70          1           0        6.358383    1.327435    0.787151
     71          1           0        5.476563    0.174954    1.812018
     72          1           0        3.629445    6.135072   -1.065361
     73          1           0        4.290245    4.233543   -0.875501
     74          1           0        0.206493    6.503930   -1.932519
     75          1           0        1.495876    7.050249   -0.789144
     76          1           0       -0.230636    6.961984   -0.217456
     77          1           0        3.872950    6.285408    1.370282
     78          1           0        5.497706    5.511209    0.820164
     79          1           0        4.237168    4.604798    1.666707
     80          1           0       -4.136271   -4.766461   -1.444484
     81          1           0       -7.540252   -1.777541   -1.965738
 ---------------------------------------------------------------------
 Rotational constants (GHZ):           0.0758572           0.0559365           0.0345657
 Standard basis: SVP (5D, 7F)
 There are   835 symmetry adapted cartesian basis functions of A   symmetry.
 There are   792 symmetry adapted basis functions of A   symmetry.
   792 basis functions,  1341 primitive gaussians,   835 cartesian basis functions
   156 alpha electrons      156 beta electrons
       nuclear repulsion energy      5065.1571845447 Hartrees.
 NAtoms=   81 NActive=   81 NUniq=   81 SFac= 1.00D+00 NAtFMM=   60 NAOKFM=T Big=T
 Integral buffers will be    131072 words long.
 Regular integral format.
 Two-electron integral symmetry is turned on.
 One-electron integrals computed using PRISM.
 NBasis=   792 RedAO= T EigKep=  3.52D-04  NBF=   792
 NBsUse=   792 1.00D-06 EigRej= -1.00D+00 NBFU=   792
 ExpMin= 1.22D-01 ExpMax= 2.27D+03 ExpMxC= 3.41D+02 IAcc=3 IRadAn=         5 AccDes= 0.00D+00
 Harris functional with IExCor=  402 and IRadAn=       5 diagonalized for initial guess.
 HarFok:  IExCor=  402 AccDes= 0.00D+00 IRadAn=         5 IDoV= 1 UseB2=F ITyADJ=14
 ICtDFT=  3500011 ScaDFX=  1.000000  1.000000  1.000000  1.000000
 FoFCou: FMM=F IPFlag=           0 FMFlag=      100000 FMFlg1=        2001
         NFxFlg=           0 DoJE=T BraDBF=F KetDBF=T FulRan=T
         wScrn=  0.000000 ICntrl=       500 IOpCl=  0 I1Cent=   200000004 NGrid=           0
         NMat0=    1 NMatS0=      1 NMatT0=    0 NMatD0=    1 NMtDS0=    0 NMtDT0=    0
 Petite list used in FoFCou.
 Requested convergence on RMS density matrix=1.00D-08 within 128 cycles.
 Requested convergence on MAX density matrix=1.00D-06.
 Requested convergence on             energy=1.00D-06.
 No special actions if energy rises.
 Integral accuracy reduced to 1.0D-05 until final iterations.
 Initial convergence to 1.0D-05 achieved.  Increase integral accuracy.
 SCF Done:  E(RB3LYP) =  -1949.10775530     A.U. after   16 cycles
            NFock= 16  Conv=0.99D-08     -V/T= 2.0103
 DoSCS=F DFT=T ScalE2(SS,OS)=  1.000000  1.000000
 ExpMin= 1.22D-01 ExpMax= 2.27D+03 ExpMxC= 3.41D+02 IAcc=3 IRadAn=         5 AccDes= 0.00D+00
 HarFok:  IExCor=  205 AccDes= 0.00D+00 IRadAn=         5 IDoV=-2 UseB2=F ITyADJ=14
 ICtDFT= 12500011 ScaDFX=  1.000000  1.000000  1.000000  1.000000
 GSVD:  LWork=       -2193 too small for GESVD, short by        9890 words or        9890 for optimal perf.
 Range of M.O.s used for correlation:    44   792
 NBasis=   792 NAE=   156 NBE=   156 NFC=    43 NFV=     0
 NROrb=    749 NOA=   113 NOB=   113 NVA=   636 NVB=   636

 **** Warning!!: The smallest alpha delta epsilon is  0.76096568D-01

 Orbital symmetries:
       Occupied  (A) (A) (A) (A) (A) (A) (A) (A) (A) (A) (A) (A)
                 (A) (A) (A) (A) (A) (A) (A) (A) (A) (A) (A) (A)
                 (A) (A) (A) (A) (A) (A) (A) (A) (A) (A) (A) (A)
                 (A) (A) (A) (A) (A) (A) (A) (A) (A) (A) (A) (A)
                 (A) (A) (A) (A) (A) (A) (A) (A) (A) (A) (A) (A)
                 (A) (A) (A) (A) (A) (A) (A) (A) (A) (A) (A) (A)
                 (A) (A) (A) (A) (A) (A) (A) (A) (A) (A) (A) (A)
                 (A) (A) (A) (A) (A) (A) (A) (A) (A) (A) (A) (A)
                 (A) (A) (A) (A) (A) (A) (A) (A) (A) (A) (A) (A)
                 (A) (A) (A) (A) (A) (A) (A) (A) (A) (A) (A) (A)
                 (A) (A) (A) (A) (A) (A) (A) (A) (A) (A) (A) (A)
                 (A) (A) (A) (A) (A) (A) (A) (A) (A) (A) (A) (A)
                 (A) (A) (A) (A) (A) (A) (A) (A) (A) (A) (A) (A)
       Virtual   (A) (A) (A) (A) (A) (A) (A) (A) (A) (A) (A) (A)
                 (A) (A) (A) (A) (A) (A) (A) (A) (A) (A) (A) (A)
                 (A) (A) (A) (A) (A) (A) (A) (A) (A) (A) (A) (A)
                 (A) (A) (A) (A) (A) (A) (A) (A) (A) (A) (A) (A)
                 (A) (A) (A) (A) (A) (A) (A) (A) (A) (A) (A) (A)
                 (A) (A) (A) (A) (A) (A) (A) (A) (A) (A) (A) (A)
                 (A) (A) (A) (A) (A) (A) (A) (A) (A) (A) (A) (A)
                 (A) (A) (A) (A) (A) (A) (A) (A) (A) (A) (A) (A)
                 (A) (A) (A) (A) (A) (A) (A) (A) (A) (A) (A) (A)
                 (A) (A) (A) (A) (A) (A) (A) (A) (A) (A) (A) (A)
                 (A) (A) (A) (A) (A) (A) (A) (A) (A) (A) (A) (A)
                 (A) (A) (A) (A) (A) (A) (A) (A) (A) (A) (A) (A)
                 (A) (A) (A) (A) (A) (A) (A) (A) (A) (A) (A) (A)
                 (A) (A) (A) (A) (A) (A) (A) (A) (A) (A) (A) (A)
                 (A) (A) (A) (A) (A) (A) (A) (A) (A) (A) (A) (A)
                 (A) (A) (A) (A) (A) (A) (A) (A) (A) (A) (A) (A)
                 (A) (A) (A) (A) (A) (A) (A) (A) (A) (A) (A) (A)
                 (A) (A) (A) (A) (A) (A) (A) (A) (A) (A) (A) (A)
                 (A) (A) (A) (A) (A) (A) (A) (A) (A) (A) (A) (A)
                 (A) (A) (A) (A) (A) (A) (A) (A) (A) (A) (A) (A)
                 (A) (A) (A) (A) (A) (A) (A) (A) (A) (A) (A) (A)
                 (A) (A) (A) (A) (A) (A) (A) (A) (A) (A) (A) (A)
                 (A) (A) (A) (A) (A) (A) (A) (A) (A) (A) (A) (A)
                 (A) (A) (A) (A) (A) (A) (A) (A) (A) (A) (A) (A)
                 (A) (A) (A) (A) (A) (A) (A) (A) (A) (A) (A) (A)
                 (A) (A) (A) (A) (A) (A) (A) (A) (A) (A) (A) (A)
                 (A) (A) (A) (A) (A) (A) (A) (A) (A) (A) (A) (A)
                 (A) (A) (A) (A) (A) (A) (A) (A) (A) (A) (A) (A)
                 (A) (A) (A) (A) (A) (A) (A) (A) (A) (A) (A) (A)
                 (A) (A) (A) (A) (A) (A) (A) (A) (A) (A) (A) (A)
                 (A) (A) (A) (A) (A) (A) (A) (A) (A) (A) (A) (A)
                 (A) (A) (A) (A) (A) (A) (A) (A) (A) (A) (A) (A)
                 (A) (A) (A) (A) (A) (A) (A) (A) (A) (A) (A) (A)
                 (A) (A) (A) (A) (A) (A) (A) (A) (A) (A) (A) (A)
                 (A) (A) (A) (A) (A) (A) (A) (A) (A) (A) (A) (A)
                 (A) (A) (A) (A) (A) (A) (A) (A) (A) (A) (A) (A)
                 (A) (A) (A) (A) (A) (A) (A) (A) (A) (A) (A) (A)
                 (A) (A) (A) (A) (A) (A) (A) (A) (A) (A) (A) (A)
                 (A) (A) (A) (A) (A) (A) (A) (A) (A) (A) (A) (A)
                 (A) (A) (A) (A) (A) (A) (A) (A) (A) (A) (A) (A)
                 (A) (A) (A) (A) (A) (A) (A) (A) (A) (A) (A) (A)
                 (A) (A) (A) (A) (A) (A) (A) (A) (A) (A) (A) (A)
                 (A) (A) (A) (A) (A) (A) (A) (A) (A) (A) (A) (A)
                 (A) (A) (A) (A) (A) (A) (A) (A) (A) (A) (A) (A)
                 (A) (A) (A) (A) (A) (A) (A) (A) (A) (A) (A) (A)
                 (A) (A) (A) (A) (A) (A) (A) (A) (A) (A) (A) (A)
                 (A) (A) (A) (A) (A) (A) (A) (A) (A) (A) (A) (A)
                 (A) (A) (A) (A) (A) (A) (A) (A) (A) (A) (A) (A)
                 (A) (A) (A) (A) (A) (A) (A) (A) (A) (A) (A) (A)
                 (A) (A) (A) (A) (A) (A) (A) (A) (A) (A) (A) (A)
                 (A) (A) (A) (A) (A) (A) (A) (A) (A) (A) (A) (A)
                 (A) (A) (A) (A) (A) (A) (A) (A) (A) (A) (A) (A)
                 (A) (A) (A) (A) (A) (A) (A) (A) (A) (A) (A) (A)
     4 initial guesses have been made.
 Convergence on wavefunction:    0.001000000000000
 Iteration     1 Dimension     4 NMult     0 NNew      4
 CISAX will form     4 AO SS matrices at one time.
 Iteration     2 Dimension     6 NMult     4 NNew      2
 Iteration     3 Dimension     8 NMult     6 NNew      2
 Iteration     4 Dimension    10 NMult     8 NNew      2
 Iteration     5 Dimension    12 NMult    10 NNew      2
 Iteration     6 Dimension    14 NMult    12 NNew      2
 ***********************************************************************
 Excited states from <AA,BB:AA,BB> singles matrix:
 ***********************************************************************
 
 Ground to excited state transition densities written to RWF  633
 Ground to excited state transition electric dipole moments (Au):
       state          X           Y           Z        Dip. S.      Osc.
         1        -1.0087      2.3204     -0.1488      6.4240      0.2869
 Ground to excited state transition velocity dipole moments (Au):
       state          X           Y           Z        Dip. S.      Osc.
         1         0.0674     -0.1492      0.0102      0.0269      0.2678
 Ground to excited state transition magnetic dipole moments (Au):
       state          X           Y           Z
         1         0.3480      0.5652      2.4058
 Ground to excited state transition velocity quadrupole moments (Au):
       state          XX          YY          ZZ          XY          XZ          YZ
         1         0.4254     -0.5033      0.0629     -0.3214     -0.0736      0.0178
 <0|del|b> * <b|rxdel|0> + <0|del|b> * <b|delr+rdel|0>
 Rotatory Strengths (R) in cgs (10**-40 erg-esu-cm/Gauss)
       state          XX          YY          ZZ    R(velocity)    E-M Angle
         1      -391.2841    276.5066   -269.7031   -128.1602       95.10
 1/2[<0|r|b>*<b|rxdel|0> + (<0|rxdel|b>*<b|r|0>)*]
 Rotatory Strengths (R) in cgs (10**-40 erg-esu-cm/Gauss)
       state          XX          YY          ZZ     R(length)
         1       248.2270   -927.4759    253.1880   -142.0203
  1/2[<0|del|b>*<b|r|0> + (<0|r|b>*<b|del|0>)*] (Au)
       state          X           Y           Z        Dip. S.   Osc.(frdel)
         1        -0.0680     -0.3462     -0.0015      0.4157      0.2771

 Excitation energies and oscillator strengths:
 
 Excited State   1:      Singlet-A      1.8227 eV  680.22 nm  f=0.2869  <S**2>=0.000
     156 ->157         0.70258
 This state for optimization and/or second-order correction.
 Total Energy, E(TD-HF/TD-DFT) =  -1949.04077248    
 Copying the excited state density for this state as the 1-particle RhoCI density.
 SavETr:  write IOETrn=   770 NScale= 10 NData=  16 NLR=1 NState=    1 LETran=      28.

 **********************************************************************

            Population analysis using the SCF density.

 **********************************************************************

 Orbital symmetries:
       Occupied  (A) (A) (A) (A) (A) (A) (A) (A) (A) (A) (A) (A)
                 (A) (A) (A) (A) (A) (A) (A) (A) (A) (A) (A) (A)
                 (A) (A) (A) (A) (A) (A) (A) (A) (A) (A) (A) (A)
                 (A) (A) (A) (A) (A) (A) (A) (A) (A) (A) (A) (A)
                 (A) (A) (A) (A) (A) (A) (A) (A) (A) (A) (A) (A)
                 (A) (A) (A) (A) (A) (A) (A) (A) (A) (A) (A) (A)
                 (A) (A) (A) (A) (A) (A) (A) (A) (A) (A) (A) (A)
                 (A) (A) (A) (A) (A) (A) (A) (A) (A) (A) (A) (A)
                 (A) (A) (A) (A) (A) (A) (A) (A) (A) (A) (A) (A)
                 (A) (A) (A) (A) (A) (A) (A) (A) (A) (A) (A) (A)
                 (A) (A) (A) (A) (A) (A) (A) (A) (A) (A) (A) (A)
                 (A) (A) (A) (A) (A) (A) (A) (A) (A) (A) (A) (A)
                 (A) (A) (A) (A) (A) (A) (A) (A) (A) (A) (A) (A)
       Virtual   (A) (A) (A) (A) (A) (A) (A) (A) (A) (A) (A) (A)
                 (A) (A) (A) (A) (A) (A) (A) (A) (A) (A) (A) (A)
                 (A) (A) (A) (A) (A) (A) (A) (A) (A) (A) (A) (A)
                 (A) (A) (A) (A) (A) (A) (A) (A) (A) (A) (A) (A)
                 (A) (A) (A) (A) (A) (A) (A) (A) (A) (A) (A) (A)
                 (A) (A) (A) (A) (A) (A) (A) (A) (A) (A) (A) (A)
                 (A) (A) (A) (A) (A) (A) (A) (A) (A) (A) (A) (A)
                 (A) (A) (A) (A) (A) (A) (A) (A) (A) (A) (A) (A)
                 (A) (A) (A) (A) (A) (A) (A) (A) (A) (A) (A) (A)
                 (A) (A) (A) (A) (A) (A) (A) (A) (A) (A) (A) (A)
                 (A) (A) (A) (A) (A) (A) (A) (A) (A) (A) (A) (A)
                 (A) (A) (A) (A) (A) (A) (A) (A) (A) (A) (A) (A)
                 (A) (A) (A) (A) (A) (A) (A) (A) (A) (A) (A) (A)
                 (A) (A) (A) (A) (A) (A) (A) (A) (A) (A) (A) (A)
                 (A) (A) (A) (A) (A) (A) (A) (A) (A) (A) (A) (A)
                 (A) (A) (A) (A) (A) (A) (A) (A) (A) (A) (A) (A)
                 (A) (A) (A) (A) (A) (A) (A) (A) (A) (A) (A) (A)
                 (A) (A) (A) (A) (A) (A) (A) (A) (A) (A) (A) (A)
                 (A) (A) (A) (A) (A) (A) (A) (A) (A) (A) (A) (A)
                 (A) (A) (A) (A) (A) (A) (A) (A) (A) (A) (A) (A)
                 (A) (A) (A) (A) (A) (A) (A) (A) (A) (A) (A) (A)
                 (A) (A) (A) (A) (A) (A) (A) (A) (A) (A) (A) (A)
                 (A) (A) (A) (A) (A) (A) (A) (A) (A) (A) (A) (A)
                 (A) (A) (A) (A) (A) (A) (A) (A) (A) (A) (A) (A)
                 (A) (A) (A) (A) (A) (A) (A) (A) (A) (A) (A) (A)
                 (A) (A) (A) (A) (A) (A) (A) (A) (A) (A) (A) (A)
                 (A) (A) (A) (A) (A) (A) (A) (A) (A) (A) (A) (A)
                 (A) (A) (A) (A) (A) (A) (A) (A) (A) (A) (A) (A)
                 (A) (A) (A) (A) (A) (A) (A) (A) (A) (A) (A) (A)
                 (A) (A) (A) (A) (A) (A) (A) (A) (A) (A) (A) (A)
                 (A) (A) (A) (A) (A) (A) (A) (A) (A) (A) (A) (A)
                 (A) (A) (A) (A) (A) (A) (A) (A) (A) (A) (A) (A)
                 (A) (A) (A) (A) (A) (A) (A) (A) (A) (A) (A) (A)
                 (A) (A) (A) (A) (A) (A) (A) (A) (A) (A) (A) (A)
                 (A) (A) (A) (A) (A) (A) (A) (A) (A) (A) (A) (A)
                 (A) (A) (A) (A) (A) (A) (A) (A) (A) (A) (A) (A)
                 (A) (A) (A) (A) (A) (A) (A) (A) (A) (A) (A) (A)
                 (A) (A) (A) (A) (A) (A) (A) (A) (A) (A) (A) (A)
                 (A) (A) (A) (A) (A) (A) (A) (A) (A) (A) (A) (A)
                 (A) (A) (A) (A) (A) (A) (A) (A) (A) (A) (A) (A)
                 (A) (A) (A) (A) (A) (A) (A) (A) (A) (A) (A) (A)
                 (A) (A) (A) (A) (A) (A) (A) (A) (A) (A) (A) (A)
                 (A) (A) (A) (A) (A) (A) (A) (A) (A) (A) (A) (A)
                 (A) (A) (A) (A) (A) (A) (A) (A) (A) (A) (A) (A)
                 (A) (A) (A) (A) (A) (A) (A) (A) (A) (A) (A) (A)
                 (A) (A) (A) (A) (A) (A) (A) (A) (A) (A) (A) (A)
                 (A) (A) (A) (A) (A) (A) (A) (A) (A) (A) (A) (A)
                 (A) (A) (A) (A) (A) (A) (A) (A) (A) (A) (A) (A)
                 (A) (A) (A) (A) (A) (A) (A) (A) (A) (A) (A) (A)
                 (A) (A) (A) (A) (A) (A) (A) (A) (A) (A) (A) (A)
                 (A) (A) (A) (A) (A) (A) (A) (A) (A) (A) (A) (A)
                 (A) (A) (A) (A) (A) (A) (A) (A) (A) (A) (A) (A)
                 (A) (A) (A) (A) (A) (A) (A) (A) (A) (A) (A) (A)
 The electronic state is 1-A.
 Alpha  occ. eigenvalues --  -19.19214 -19.18233 -19.15207 -19.12714 -19.11507
 Alpha  occ. eigenvalues --  -19.09313 -14.37520 -14.37228 -14.35621 -14.28166
 Alpha  occ. eigenvalues --  -10.34302 -10.32042 -10.28349 -10.25144 -10.24483
 Alpha  occ. eigenvalues --  -10.24168 -10.23435 -10.23296 -10.23031 -10.22667
 Alpha  occ. eigenvalues --  -10.22590 -10.22336 -10.21280 -10.21080 -10.21034
 Alpha  occ. eigenvalues --  -10.20821 -10.20783 -10.20420 -10.20207 -10.20097
 Alpha  occ. eigenvalues --  -10.19931 -10.19887 -10.19612 -10.19600 -10.19597
 Alpha  occ. eigenvalues --  -10.19583 -10.19511 -10.19494 -10.19199 -10.19071
 Alpha  occ. eigenvalues --  -10.18953 -10.18538 -10.17699  -1.11235  -1.11112
 Alpha  occ. eigenvalues --   -1.07774  -1.02948  -1.02143  -1.00340  -1.00045
 Alpha  occ. eigenvalues --   -0.99156  -0.98937  -0.91548  -0.83248  -0.82017
 Alpha  occ. eigenvalues --   -0.81001  -0.80809  -0.79530  -0.79083  -0.78276
 Alpha  occ. eigenvalues --   -0.77733  -0.75929  -0.75010  -0.73832  -0.72382
 Alpha  occ. eigenvalues --   -0.71445  -0.70275  -0.69536  -0.69105  -0.68124
 Alpha  occ. eigenvalues --   -0.67920  -0.65615  -0.63989  -0.62858  -0.61689
 Alpha  occ. eigenvalues --   -0.60910  -0.59383  -0.58421  -0.57925  -0.57540
 Alpha  occ. eigenvalues --   -0.56528  -0.55329  -0.54998  -0.54790  -0.53571
 Alpha  occ. eigenvalues --   -0.53094  -0.52181  -0.51039  -0.50757  -0.49610
 Alpha  occ. eigenvalues --   -0.49281  -0.49047  -0.49006  -0.48549  -0.48211
 Alpha  occ. eigenvalues --   -0.47564  -0.46459  -0.45853  -0.45460  -0.45251
 Alpha  occ. eigenvalues --   -0.45016  -0.44889  -0.44476  -0.44423  -0.43642
 Alpha  occ. eigenvalues --   -0.43535  -0.43476  -0.43344  -0.42987  -0.42417
 Alpha  occ. eigenvalues --   -0.42348  -0.42135  -0.41577  -0.41371  -0.41169
 Alpha  occ. eigenvalues --   -0.40789  -0.40679  -0.40052  -0.39948  -0.39649
 Alpha  occ. eigenvalues --   -0.39370  -0.39052  -0.38810  -0.38382  -0.38171
 Alpha  occ. eigenvalues --   -0.37789  -0.37429  -0.37053  -0.36782  -0.36461
 Alpha  occ. eigenvalues --   -0.36407  -0.35483  -0.35329  -0.34971  -0.34845
 Alpha  occ. eigenvalues --   -0.34579  -0.34488  -0.34084  -0.33011  -0.32650
 Alpha  occ. eigenvalues --   -0.32403  -0.32365  -0.30971  -0.30306  -0.29543
 Alpha  occ. eigenvalues --   -0.27928  -0.27719  -0.26566  -0.26095  -0.25498
 Alpha  occ. eigenvalues --   -0.24930  -0.24589  -0.23772  -0.23187  -0.21084
 Alpha  occ. eigenvalues --   -0.17939
 Alpha virt. eigenvalues --   -0.10329  -0.05420  -0.04515  -0.01852  -0.00050
 Alpha virt. eigenvalues --    0.01842   0.02735   0.03255   0.03621   0.04167
 Alpha virt. eigenvalues --    0.04657   0.04872   0.05576   0.06210   0.06809
 Alpha virt. eigenvalues --    0.06983   0.07583   0.07857   0.08165   0.08497
 Alpha virt. eigenvalues --    0.08790   0.08961   0.09209   0.09444   0.09790
 Alpha virt. eigenvalues --    0.09837   0.10236   0.10472   0.10706   0.11031
 Alpha virt. eigenvalues --    0.11401   0.11419   0.11645   0.11922   0.12305
 Alpha virt. eigenvalues --    0.13195   0.13238   0.13380   0.13774   0.14347
 Alpha virt. eigenvalues --    0.14438   0.14556   0.15289   0.15776   0.16346
 Alpha virt. eigenvalues --    0.16506   0.17203   0.17397   0.17671   0.17902
 Alpha virt. eigenvalues --    0.18474   0.18678   0.19082   0.19696   0.20020
 Alpha virt. eigenvalues --    0.20232   0.20552   0.21683   0.22124   0.22361
 Alpha virt. eigenvalues --    0.22584   0.22805   0.23018   0.23556   0.23877
 Alpha virt. eigenvalues --    0.24344   0.24684   0.24981   0.25394   0.26243
 Alpha virt. eigenvalues --    0.26456   0.26911   0.27424   0.27709   0.28336
 Alpha virt. eigenvalues --    0.29366   0.29778   0.30396   0.30838   0.31185
 Alpha virt. eigenvalues --    0.31334   0.31861   0.32205   0.33092   0.33589
 Alpha virt. eigenvalues --    0.34245   0.34592   0.35048   0.35697   0.36681
 Alpha virt. eigenvalues --    0.36850   0.37617   0.38208   0.38695   0.39044
 Alpha virt. eigenvalues --    0.39796   0.40444   0.40671   0.41248   0.41412
 Alpha virt. eigenvalues --    0.41723   0.42180   0.42944   0.43310   0.43518
 Alpha virt. eigenvalues --    0.43792   0.43928   0.44224   0.44814   0.45114
 Alpha virt. eigenvalues --    0.45478   0.45774   0.46543   0.46556   0.46781
 Alpha virt. eigenvalues --    0.47301   0.47757   0.47907   0.48171   0.48226
 Alpha virt. eigenvalues --    0.48491   0.48922   0.49298   0.49592   0.50224
 Alpha virt. eigenvalues --    0.50448   0.50897   0.51295   0.51733   0.52110
 Alpha virt. eigenvalues --    0.52436   0.52941   0.53229   0.53287   0.53897
 Alpha virt. eigenvalues --    0.54576   0.54675   0.55541   0.55807   0.55863
 Alpha virt. eigenvalues --    0.56478   0.56974   0.57345   0.57688   0.57731
 Alpha virt. eigenvalues --    0.58264   0.58547   0.58731   0.59064   0.59326
 Alpha virt. eigenvalues --    0.59560   0.60068   0.60226   0.60555   0.60663
 Alpha virt. eigenvalues --    0.60954   0.61057   0.61238   0.61778   0.62014
 Alpha virt. eigenvalues --    0.62179   0.62715   0.62912   0.62953   0.63424
 Alpha virt. eigenvalues --    0.63556   0.63792   0.64034   0.64328   0.64750
 Alpha virt. eigenvalues --    0.64990   0.65209   0.65554   0.65762   0.65874
 Alpha virt. eigenvalues --    0.66024   0.66147   0.66363   0.66534   0.66848
 Alpha virt. eigenvalues --    0.67120   0.67296   0.67485   0.67797   0.67954
 Alpha virt. eigenvalues --    0.68273   0.68504   0.68714   0.69023   0.69425
 Alpha virt. eigenvalues --    0.69991   0.70191   0.70328   0.70703   0.70981
 Alpha virt. eigenvalues --    0.71050   0.71233   0.71733   0.72028   0.72215
 Alpha virt. eigenvalues --    0.72312   0.72672   0.72729   0.73159   0.73402
 Alpha virt. eigenvalues --    0.73604   0.73909   0.74353   0.74885   0.75184
 Alpha virt. eigenvalues --    0.75574   0.75713   0.76107   0.76801   0.77179
 Alpha virt. eigenvalues --    0.77247   0.77865   0.78215   0.78659   0.79129
 Alpha virt. eigenvalues --    0.79337   0.79901   0.80652   0.81404   0.81699
 Alpha virt. eigenvalues --    0.81750   0.82561   0.83827   0.84053   0.84807
 Alpha virt. eigenvalues --    0.85144   0.85980   0.86660   0.87896   0.88196
 Alpha virt. eigenvalues --    0.88842   0.89588   0.90450   0.91261   0.92077
 Alpha virt. eigenvalues --    0.92636   0.93510   0.94112   0.94500   0.94527
 Alpha virt. eigenvalues --    0.96126   0.96178   0.96486   0.97384   0.97697
 Alpha virt. eigenvalues --    0.98183   0.98490   0.98953   0.99841   1.00200
 Alpha virt. eigenvalues --    1.01019   1.01469   1.02033   1.02518   1.03186
 Alpha virt. eigenvalues --    1.04005   1.04860   1.05416   1.06501   1.07024
 Alpha virt. eigenvalues --    1.07551   1.08137   1.08416   1.09536   1.10284
 Alpha virt. eigenvalues --    1.11022   1.11782   1.12030   1.12845   1.13804
 Alpha virt. eigenvalues --    1.14495   1.14669   1.15412   1.15760   1.16662
 Alpha virt. eigenvalues --    1.17134   1.17858   1.19025   1.19340   1.19723
 Alpha virt. eigenvalues --    1.20112   1.20478   1.21971   1.22770   1.23460
 Alpha virt. eigenvalues --    1.23984   1.24952   1.25833   1.26250   1.26734
 Alpha virt. eigenvalues --    1.27308   1.28460   1.29197   1.29788   1.30897
 Alpha virt. eigenvalues --    1.31159   1.31606   1.32897   1.33083   1.33412
 Alpha virt. eigenvalues --    1.34189   1.34938   1.35244   1.35852   1.36762
 Alpha virt. eigenvalues --    1.37080   1.37652   1.38189   1.38791   1.39093
 Alpha virt. eigenvalues --    1.40113   1.40636   1.40966   1.41217   1.41872
 Alpha virt. eigenvalues --    1.42539   1.43266   1.43394   1.44662   1.44891
 Alpha virt. eigenvalues --    1.45903   1.47505   1.47630   1.47845   1.48595
 Alpha virt. eigenvalues --    1.49294   1.49940   1.50238   1.50327   1.50985
 Alpha virt. eigenvalues --    1.51348   1.51970   1.52195   1.52577   1.52590
 Alpha virt. eigenvalues --    1.52950   1.53349   1.53516   1.55250   1.56565
 Alpha virt. eigenvalues --    1.56924   1.57458   1.58262   1.58453   1.59452
 Alpha virt. eigenvalues --    1.59569   1.60267   1.62201   1.63145   1.63211
 Alpha virt. eigenvalues --    1.63538   1.64169   1.64683   1.64741   1.65948
 Alpha virt. eigenvalues --    1.66084   1.66145   1.66646   1.67649   1.68092
 Alpha virt. eigenvalues --    1.68403   1.68520   1.68858   1.69468   1.69742
 Alpha virt. eigenvalues --    1.70034   1.70370   1.71166   1.71641   1.71865
 Alpha virt. eigenvalues --    1.72022   1.72317   1.72832   1.73299   1.73675
 Alpha virt. eigenvalues --    1.74124   1.74607   1.74860   1.75044   1.75184
 Alpha virt. eigenvalues --    1.75621   1.76216   1.76567   1.77013   1.77374
 Alpha virt. eigenvalues --    1.77849   1.78215   1.78678   1.79015   1.79115
 Alpha virt. eigenvalues --    1.79488   1.79801   1.80320   1.80483   1.80923
 Alpha virt. eigenvalues --    1.81408   1.81526   1.81972   1.82392   1.82796
 Alpha virt. eigenvalues --    1.83155   1.83972   1.84137   1.84839   1.84930
 Alpha virt. eigenvalues --    1.85343   1.85611   1.85874   1.86288   1.86671
 Alpha virt. eigenvalues --    1.86856   1.87191   1.87387   1.87999   1.88236
 Alpha virt. eigenvalues --    1.88592   1.89823   1.90479   1.90712   1.91222
 Alpha virt. eigenvalues --    1.91345   1.91562   1.92765   1.93693   1.93953
 Alpha virt. eigenvalues --    1.94465   1.95460   1.95866   1.96423   1.96912
 Alpha virt. eigenvalues --    1.97459   1.97757   1.98659   1.98758   1.99295
 Alpha virt. eigenvalues --    2.00097   2.00198   2.01290   2.01562   2.01881
 Alpha virt. eigenvalues --    2.02386   2.02865   2.03159   2.03627   2.04407
 Alpha virt. eigenvalues --    2.04895   2.05450   2.06161   2.06489   2.06825
 Alpha virt. eigenvalues --    2.07171   2.08020   2.09301   2.10153   2.10275
 Alpha virt. eigenvalues --    2.10602   2.11641   2.12002   2.12612   2.13164
 Alpha virt. eigenvalues --    2.14328   2.14670   2.14834   2.15579   2.16801
 Alpha virt. eigenvalues --    2.17009   2.17492   2.17735   2.18655   2.19603
 Alpha virt. eigenvalues --    2.20214   2.20326   2.20827   2.21605   2.21946
 Alpha virt. eigenvalues --    2.23196   2.23842   2.24390   2.24650   2.25004
 Alpha virt. eigenvalues --    2.25984   2.26493   2.27216   2.27414   2.28635
 Alpha virt. eigenvalues --    2.28969   2.29343   2.30029   2.30718   2.30961
 Alpha virt. eigenvalues --    2.31503   2.31842   2.33483   2.33723   2.34325
 Alpha virt. eigenvalues --    2.34746   2.35229   2.36076   2.37277   2.37696
 Alpha virt. eigenvalues --    2.38614   2.39867   2.40349   2.40502   2.41322
 Alpha virt. eigenvalues --    2.41697   2.42933   2.43446   2.44170   2.44462
 Alpha virt. eigenvalues --    2.45169   2.45942   2.46463   2.46808   2.48283
 Alpha virt. eigenvalues --    2.48778   2.49466   2.51040   2.51576   2.51895
 Alpha virt. eigenvalues --    2.52374   2.53376   2.54829   2.55218   2.56360
 Alpha virt. eigenvalues --    2.56776   2.57708   2.58110   2.58574   2.58850
 Alpha virt. eigenvalues --    2.59779   2.62200   2.63010   2.63424   2.63642
 Alpha virt. eigenvalues --    2.63940   2.64217   2.64600   2.65413   2.66225
 Alpha virt. eigenvalues --    2.66519   2.67282   2.68046   2.68722   2.68960
 Alpha virt. eigenvalues --    2.69619   2.70290   2.70822   2.71534   2.72651
 Alpha virt. eigenvalues --    2.72974   2.74391   2.74863   2.76422   2.77389
 Alpha virt. eigenvalues --    2.77720   2.77903   2.78350   2.79267   2.79711
 Alpha virt. eigenvalues --    2.80314   2.80849   2.81371   2.81686   2.83042
 Alpha virt. eigenvalues --    2.83601   2.84082   2.84541   2.85980   2.86550
 Alpha virt. eigenvalues --    2.87125   2.87202   2.87505   2.88341   2.88520
 Alpha virt. eigenvalues --    2.88714   2.89565   2.90779   2.91268   2.91525
 Alpha virt. eigenvalues --    2.92059   2.93666   2.94320   2.94342   2.94823
 Alpha virt. eigenvalues --    2.96495   2.97786   2.99268   2.99801   3.01569
 Alpha virt. eigenvalues --    3.01717   3.01866   3.02319   3.04736   3.05539
 Alpha virt. eigenvalues --    3.06155   3.06313   3.07830   3.09273   3.10392
 Alpha virt. eigenvalues --    3.11395   3.12030   3.13934   3.14662   3.15841
 Alpha virt. eigenvalues --    3.17013   3.18382   3.19270   3.21412   3.22659
 Alpha virt. eigenvalues --    3.23534   3.24334   3.26524   3.29050   3.30188
 Alpha virt. eigenvalues --    3.35191   3.43490   3.44986   3.50566   3.52401
 Alpha virt. eigenvalues --    3.53943   3.57706   3.58394   3.59210   3.64199
 Alpha virt. eigenvalues --    3.64418   3.68727   3.74355   3.76473   3.76559
 Alpha virt. eigenvalues --    3.87259
          Condensed to atoms (all electrons):
 Mulliken charges:
               1
     1  O   -0.127572
     2  O   -0.179191
     3  O   -0.127548
     4  O   -0.204577
     5  O   -0.264447
     6  O   -0.207691
     7  N    0.014973
     8  N   -0.019409
     9  N   -0.033168
    10  N   -0.288199
    11  C   -0.114033
    12  C   -0.095440
    13  C   -0.246151
    14  C    0.067353
    15  C   -0.090406
    16  C    0.139695
    17  C   -0.020526
    18  C   -0.089604
    19  C    0.248130
    20  C   -0.129646
    21  C    0.061726
    22  C    0.098609
    23  C   -0.012886
    24  C    0.072657
    25  C   -0.184565
    26  C    0.119240
    27  C    0.077533
    28  C   -0.082124
    29  C    0.038388
    30  C    0.039271
    31  C   -0.170469
    32  C    0.036877
    33  C   -0.115756
    34  C    0.028825
    35  C   -0.098182
    36  C   -0.206154
    37  C    0.146625
    38  C   -0.031976
    39  C    0.105842
    40  C    0.001940
    41  C    0.131830
    42  C    0.121034
    43  C    0.025394
    44  H    0.131988
    45  H    0.036733
    46  H   -0.010321
    47  H   -0.022873
    48  H    0.037073
    49  H   -0.007693
    50  H    0.042665
    51  H    0.104294
    52  H    0.079726
    53  H    0.003913
    54  H    0.022793
    55  H    0.042990
    56  H    0.112778
    57  H    0.041448
    58  H    0.041688
    59  H    0.055063
    60  H    0.041405
    61  H    0.030235
    62  H    0.045170
    63  H    0.023014
    64  H    0.017727
    65  H    0.028096
    66  H    0.058245
    67  H    0.010092
    68  H   -0.025905
    69  H    0.117473
    70  H   -0.003549
    71  H    0.044356
    72  H    0.021313
    73  H    0.032284
    74  H    0.032630
    75  H   -0.001916
    76  H    0.044727
    77  H    0.003290
    78  H    0.021721
    79  H    0.022491
    80  H    0.173445
    81  H    0.115168
 Sum of Mulliken charges =  -0.00000
 Mulliken charges with hydrogens summed into heavy atoms:
               1
     1  O   -0.127572
     2  O   -0.005746
     3  O   -0.012381
     4  O   -0.204577
     5  O   -0.264447
     6  O   -0.207691
     7  N    0.146961
     8  N    0.060318
     9  N    0.079610
    10  N   -0.288199
    11  C   -0.114033
    12  C   -0.095440
    13  C   -0.246151
    14  C    0.067353
    15  C   -0.090406
    16  C    0.139695
    17  C    0.016207
    18  C   -0.089604
    19  C    0.214937
    20  C   -0.092573
    21  C    0.061726
    22  C    0.098609
    23  C   -0.012886
    24  C    0.107630
    25  C   -0.080271
    26  C    0.188936
    27  C    0.077533
    28  C    0.001011
    29  C    0.134856
    30  C    0.137690
    31  C   -0.152742
    32  C    0.133310
    33  C   -0.141661
    34  C    0.028825
    35  C   -0.098182
    36  C   -0.206154
    37  C    0.146625
    38  C    0.126304
    39  C    0.105842
    40  C    0.055537
    41  C    0.131830
    42  C    0.196475
    43  C    0.072895
 Electronic spatial extent (au):  <R**2>=          30083.8154
 Charge=             -0.0000 electrons
 Dipole moment (field-independent basis, Debye):
    X=             -2.5014    Y=             -0.1814    Z=             -0.3394  Tot=              2.5308
 Quadrupole moment (field-independent basis, Debye-Ang):
   XX=           -258.0728   YY=           -235.9679   ZZ=           -254.4860
   XY=             15.2343   XZ=             12.0691   YZ=            -15.2503
 Traceless Quadrupole moment (field-independent basis, Debye-Ang):
   XX=             -8.5639   YY=             13.5410   ZZ=             -4.9771
   XY=             15.2343   XZ=             12.0691   YZ=            -15.2503
 Octapole moment (field-independent basis, Debye-Ang**2):
  XXX=             58.5500  YYY=             78.9776  ZZZ=            -19.2970  XYY=           -193.5106
  XXY=            -23.4153  XXZ=            -92.6346  XZZ=            -57.0023  YZZ=            -31.9394
  YYZ=             36.8456  XYZ=            -39.3126
 Hexadecapole moment (field-independent basis, Debye-Ang**3):
 XXXX=         -22746.7525 YYYY=         -16180.5601 ZZZZ=          -1692.2993 XXXY=            706.4479
 XXXZ=            759.5018 YYYX=            791.5445 YYYZ=           -352.1027 ZZZX=            109.9545
 ZZZY=             41.8222 XXYY=          -6247.9798 XXZZ=          -3828.0303 YYZZ=          -3086.9664
 XXYZ=             52.5495 YYXZ=            259.3850 ZZXY=            192.1941
 N-N= 5.065157184545D+03 E-N=-1.466185758640D+04  KE= 1.929180694900D+03
 1\1\GINC-PADAWAN\SP\RB3LYP TD-FC\SVP\C33H38N4O6\PADAWAN\28-Jun-2019\0\
 \# td=(NStates=1) B3LYP/SVP\\TD\\0,1\O,0,-4.1330248133,-4.7755719284,1
 .8729013185\O,0,3.3213561643,-4.9591972265,0.9410282401\O,0,6.65229153
 35,-1.6835356233,2.025065186\O,0,3.8162266802,-3.0073987649,-0.0658799
 274\O,0,7.5831278494,-0.4494048356,0.328836851\O,0,-2.9470102871,2.477
 9758484,-0.4888104424\N,0,-0.3810551002,-0.550839277,-0.7094579587\N,0
 ,1.5272912218,1.8275831908,-0.4324448221\N,0,-3.2746394529,-3.03519463
 25,0.6359799166\N,0,-0.7579342891,2.8649476442,-0.1056844142\C,0,0.571
 8294472,-2.4030782662,-1.463638659\C,0,0.8172046228,-1.0810353352,-0.9
 798668356\C,0,-0.8730414328,-2.5437527375,-1.3006021229\C,0,-1.4169421
 162,-1.3681671281,-0.813050435\C,0,3.7142198828,1.5058337499,-0.331027
 3695\C,0,2.5444365495,0.8880806336,-0.6749616812\C,0,2.1665519054,-0.4
 41061364,-0.9057800526\C,0,3.5242930694,2.8756573679,0.0044784381\C,0,
 1.5987412792,-3.4379654978,-2.0099183374\C,0,-5.3487037771,-2.85329094
 4,1.4157088352\C,0,-3.6204159009,-1.8258975657,0.2227282046\C,0,2.0588
 101931,2.9891189061,-0.0584182184\C,0,-4.9691596123,-1.5544044043,0.52
 59566396\C,0,5.1193271946,0.7475296699,-0.3344924079\C,0,-2.7133561513
 ,-0.9874372991,-0.4729837722\C,0,-1.6194616083,-3.8444942025,-1.845174
 8343\C,0,-4.1437040388,-3.7440486367,1.3776328889\C,0,2.0851196457,-4.
 4226512888,-1.0770169285\C,0,5.2636851709,-0.1240605296,0.9007026175\C
 ,0,4.5261186732,3.9142142707,0.2952417245\C,0,1.2794266211,4.134147965
 1,0.1547571963\C,0,-6.6641810687,-3.5461293927,0.9574548076\C,0,-5.839
 563537,-0.5528210661,0.1828454514\C,0,-0.1322011394,4.0319314429,0.259
 3577477\C,0,-1.0696320618,5.1679643301,0.5907675423\C,0,-2.2751169854,
 4.6215936608,0.3187977858\C,0,3.1664132233,-4.0180644766,-0.0405963704
 \C,0,-5.5737510846,0.6279580844,-0.701721637\C,0,6.602860165,-0.733718
 8415,1.0406749657\C,0,-3.6780153444,5.1720482633,0.4006845792\C,0,-2.0
 598355352,3.1658615472,-0.063342104\C,0,-0.5232529164,6.5570713771,0.8
 222512767\C,0,-4.3153811007,5.468062763,-0.9960887004\H,0,-0.426954280
 3,0.4172785937,-0.3234920889\H,0,2.8470920702,-1.3094290841,-1.2648065
 681\H,0,2.5255524365,-3.0538669833,-2.2962561727\H,0,1.1526262688,-3.9
 944035513,-2.7856069208\H,0,-5.456877415,-2.3775963843,2.40940148\H,0,
 5.2685293654,0.1562950109,-1.162856633\H,0,6.1031388813,1.5663361617,-
 0.3452280974\H,0,-3.07262348,0.0495227426,-1.0521556131\H,0,0.56484371
 5,1.7313029742,-0.4675842039\H,0,-1.5342881646,-4.5577203425,-1.089158
 4256\H,0,-2.697199831,-3.6817687633,-1.9248006132\H,0,-1.0248776677,-4
 .0027873475,-2.7720327926\H,0,-2.3945818445,-3.4866183925,0.4767003352
 \H,0,1.2513859679,-4.9843911374,-0.4414395339\H,0,2.4265687613,-5.3533
 494418,-1.5922146034\H,0,4.5972849615,-0.9819493583,0.9314228784\H,0,5
 .2837727227,0.5405900977,1.816049408\H,0,4.1715976854,4.8914595624,-0.
 2837497468\H,0,5.6451476065,3.8956971029,0.1426600556\H,0,4.369413974,
 4.2723227044,1.348490566\H,0,1.6994507237,5.267415919,0.4998210573\H,0
 ,-7.4307646448,-2.7424993334,0.7327945491\H,0,-6.8531893828,-4.3972661
 087,1.7304788883\H,0,-6.3364593429,-3.9258099971,-0.0381417258\H,0,-6.
 7369682191,-0.4990808166,0.7009981009\H,0,-4.6824072128,1.3328181027,-
 0.2088681481\H,0,-6.3441627937,1.3801370887,-0.8181861347\H,0,-5.46689
 60016,0.2211522774,-1.8396207269\H,0,-3.5849304785,6.1641108162,1.0506
 419407\H,0,-4.2603274709,4.2681691488,0.8563216585\H,0,-0.163265471,6.
 5044210075,1.9343932809\H,0,-1.4426603763,7.0619996547,0.7852478765\H,
 0,0.2857877468,6.9599982855,0.2217531324\H,0,-3.8155494619,6.318009426
 6,-1.3860328058\H,0,-5.449187626,5.556758792,-0.8442142986\H,0,-4.1920
 626832,4.6406242327,-1.6853480428\H,0,4.0895673572,-4.8007662891,1.459
 3667191\H,0,7.5153195566,-1.8401033993,1.9989272757\\Version=ES64L-G16
 RevA.03\State=1-A\HF=-1949.1077553\RMSD=9.939e-09\PG=C01 [X(C33H38N4O6
 )]\\@


 DO NOT LET SELFISH MEN OR GREEDY INTERESTS SKIN YOUR COUNTRY OF ITS
 BEAUTY, ITS RICHES, OR ITS ROMANCE. -- THEODORE ROOSEVELT
 Job cpu time:       0 days  3 hours 47 minutes 34.5 seconds.
 Elapsed time:       0 days  2 hours 31 minutes 40.7 seconds.
 File lengths (MBytes):  RWF=   2591 Int=      0 D2E=      0 Chk=     65 Scr=      1
 Normal termination of Gaussian 16 at Fri Jun 28 03:13:51 2019.
