 Entering Gaussian System, Link 0=g16
 Input=Geometria-427-.com
 Output=Geometria-427-.log
 Initial command:
 /usr/local/g16/l1.exe "/home/padawan/israel-mol/phycocyanobilin/spectra/emi/Gau-1618.inp" -scrdir="/home/padawan/israel-mol/phycocyanobilin/spectra/emi/"
 Entering Link 1 = /usr/local/g16/l1.exe PID=      1620.
  
 Copyright (c) 1988,1990,1992,1993,1995,1998,2003,2009,2016,
            Gaussian, Inc.  All Rights Reserved.
  
 This is part of the Gaussian(R) 16 program.  It is based on
 the Gaussian(R) 09 system (copyright 2009, Gaussian, Inc.),
 the Gaussian(R) 03 system (copyright 2003, Gaussian, Inc.),
 the Gaussian(R) 98 system (copyright 1998, Gaussian, Inc.),
 the Gaussian(R) 94 system (copyright 1995, Gaussian, Inc.),
 the Gaussian 92(TM) system (copyright 1992, Gaussian, Inc.),
 the Gaussian 90(TM) system (copyright 1990, Gaussian, Inc.),
 the Gaussian 88(TM) system (copyright 1988, Gaussian, Inc.),
 the Gaussian 86(TM) system (copyright 1986, Carnegie Mellon
 University), and the Gaussian 82(TM) system (copyright 1983,
 Carnegie Mellon University). Gaussian is a federally registered
 trademark of Gaussian, Inc.
  
 This software contains proprietary and confidential information,
 including trade secrets, belonging to Gaussian, Inc.
  
 This software is provided under written license and may be
 used, copied, transmitted, or stored only in accord with that
 written license.
  
 The following legend is applicable only to US Government
 contracts under FAR:
  
                    RESTRICTED RIGHTS LEGEND
  
 Use, reproduction and disclosure by the US Government is
 subject to restrictions as set forth in subparagraphs (a)
 and (c) of the Commercial Computer Software - Restricted
 Rights clause in FAR 52.227-19.
  
 Gaussian, Inc.
 340 Quinnipiac St., Bldg. 40, Wallingford CT 06492
  
  
 ---------------------------------------------------------------
 Warning -- This program may not be used in any manner that
 competes with the business of Gaussian, Inc. or will provide
 assistance to any competitor of Gaussian, Inc.  The licensee
 of this program is prohibited from giving any competitor of
 Gaussian, Inc. access to this program.  By using this program,
 the user acknowledges that Gaussian, Inc. is engaged in the
 business of creating and licensing software in the field of
 computational chemistry and represents and warrants to the
 licensee that it is not a competitor of Gaussian, Inc. and that
 it will not use this program in any manner prohibited above.
 ---------------------------------------------------------------
  

 Cite this work as:
 Gaussian 16, Revision A.03,
 M. J. Frisch, G. W. Trucks, H. B. Schlegel, G. E. Scuseria, 
 M. A. Robb, J. R. Cheeseman, G. Scalmani, V. Barone, 
 G. A. Petersson, H. Nakatsuji, X. Li, M. Caricato, A. V. Marenich, 
 J. Bloino, B. G. Janesko, R. Gomperts, B. Mennucci, H. P. Hratchian, 
 J. V. Ortiz, A. F. Izmaylov, J. L. Sonnenberg, D. Williams-Young, 
 F. Ding, F. Lipparini, F. Egidi, J. Goings, B. Peng, A. Petrone, 
 T. Henderson, D. Ranasinghe, V. G. Zakrzewski, J. Gao, N. Rega, 
 G. Zheng, W. Liang, M. Hada, M. Ehara, K. Toyota, R. Fukuda, 
 J. Hasegawa, M. Ishida, T. Nakajima, Y. Honda, O. Kitao, H. Nakai, 
 T. Vreven, K. Throssell, J. A. Montgomery, Jr., J. E. Peralta, 
 F. Ogliaro, M. J. Bearpark, J. J. Heyd, E. N. Brothers, K. N. Kudin, 
 V. N. Staroverov, T. A. Keith, R. Kobayashi, J. Normand, 
 K. Raghavachari, A. P. Rendell, J. C. Burant, S. S. Iyengar, 
 J. Tomasi, M. Cossi, J. M. Millam, M. Klene, C. Adamo, R. Cammi, 
 J. W. Ochterski, R. L. Martin, K. Morokuma, O. Farkas, 
 J. B. Foresman, and D. J. Fox, Gaussian, Inc., Wallingford CT, 2016.
 
 ******************************************
 Gaussian 16:  ES64L-G16RevA.03 25-Dec-2016
                 2-Jul-2019 
 ******************************************
 %nproc=4
 Will use up to    4 processors via shared memory.
 %Mem=2GB
 --------------------------
 # td=(NStates=1) B3LYP/SVP
 --------------------------
 1/38=1,172=1/1;
 2/12=2,17=6,18=5,40=1/2;
 3/5=18,7=101,11=9,25=1,30=1,74=-5/1,2,3,8;
 4//1;
 5/5=2,38=5/2;
 8/6=1,10=1,108=1/1;
 9/41=1,42=1,70=2/14;
 6/7=2,8=2,9=2,10=2/1;
 99/5=1,9=1/99;
 --
 TD
 --
 Symbolic Z-matrix:
 Charge =  0 Multiplicity = 1
 8                    -4.36111  -4.86026   1.73271 
 8                     3.24306  -4.81532   1.11187 
 8                     6.97333  -1.39918   1.9367 
 8                     3.84853  -3.05407  -0.07637 
 8                     7.49463  -0.54055  -0.02532 
 8                    -3.00642   2.31621  -0.38753 
 7                    -0.28133  -0.4753   -0.57962 
 7                     1.60293   1.8828   -0.38558 
 7                    -3.2645   -3.16048   0.66624 
 7                    -0.85796   2.91213  -0.18576 
 6                     0.61232  -2.33525  -1.41753 
 6                     0.90982  -1.09732  -0.9566 
 6                    -0.75041  -2.67209  -1.14113 
 6                    -1.24875  -1.41393  -0.65068 
 6                     3.83438   1.51098  -0.31402 
 6                     2.44754   0.94366  -0.5924 
 6                     2.22778  -0.42259  -0.96147 
 6                     3.60232   2.81357   0.11505 
 6                     1.56636  -3.36079  -1.9263 
 6                    -5.50322  -2.72468   1.2987 
 6                    -3.61925  -1.74453   0.19705 
 6                     2.14281   3.03542  -0.01335 
 6                    -5.06495  -1.59196   0.42619 
 6                     5.08867   0.71953  -0.4026 
 6                    -2.75659  -1.00437  -0.51161 
 6                    -1.50016  -3.84104  -1.73005 
 6                    -4.32331  -3.79142   1.29195 
 6                     2.19532  -4.4237   -1.04412 
 6                     5.32845  -0.19754   0.77432 
 6                     4.64481   3.8188    0.52632 
 6                     1.2307    4.11475   0.26761 
 6                    -6.86258  -3.34336   1.16752 
 6                    -5.80641  -0.53429   0.02181 
 6                    -0.17077   3.99196   0.20942 
 6                    -1.14354   5.06179   0.49898 
 6                    -2.34899   4.57713   0.27989 
 6                     3.21399  -4.00344   0.05215 
 6                    -5.45552   0.57062  -0.88299 
 6                     6.65497  -0.77815   0.87856 
 6                    -3.68254   5.1948    0.3047 
 6                    -2.20441   3.14077  -0.03476 
 6                    -0.61039   6.44801   0.98313 
 6                    -4.32608   5.6541   -0.99151 
 1                    -0.42324   0.43939  -0.21017 
 1                     3.03001  -1.16655  -0.86123 
 1                     2.59981  -2.90207  -2.40089 
 1                     1.3388   -3.94121  -2.99981 
 1                    -5.49725  -2.26225   2.3045 
 1                     4.93254  -0.00124  -1.20704 
 1                     5.88008   1.58256  -0.69268 
 1                    -3.00825   0.00865  -0.78552 
 1                     0.58679   1.8568   -0.49019 
 1                    -1.5935   -4.73664  -1.15068 
 1                    -2.50306  -3.52715  -1.9774 
 1                    -0.96561  -4.34248  -2.63293 
 1                    -2.30485  -3.59127   0.59368 
 1                     1.26214  -5.01641  -0.62163 
 1                     2.73458  -5.19757  -1.6721 
 1                     4.59695  -0.91817   0.70204 
 1                     5.29496   0.38635   1.73212 
 1                     4.51681   4.72993  -0.24177 
 1                     5.65549   3.30018   0.04047 
 1                     4.6449    4.1406    1.47363 
 1                     1.64687   5.00321   0.63604 
 1                    -7.81894  -2.80219   1.47897 
 1                    -6.96704  -4.24424   1.74752 
 1                    -7.13972  -3.73358   0.05918 
 1                    -6.86203  -0.4418    0.37271 
 1                    -4.93857   1.37005  -0.52038 
 1                    -6.45414   0.75775  -1.43681 
 1                    -4.86605   0.18577  -1.65152 
 1                    -3.42948   6.04105   0.95303 
 1                    -4.38401   4.64326   0.88785 
 1                     0.0621    6.16492   1.93426 
 1                    -1.46019   6.88815   1.44833 
 1                     0.11201   6.75139   0.09174 
 1                    -3.71691   6.27663  -1.62381 
 1                    -5.34693   6.15532  -0.82515 
 1                    -4.58648   4.86127  -1.62549 
 1                     4.08825  -4.56839   1.57454 
 1                     7.91188  -1.72202   2.00158 
 
 Stoichiometry    C33H38N4O6
 Framework group  C1[X(C33H38N4O6)]
 Deg. of freedom   237
 Full point group                 C1      NOp   1
 Largest Abelian subgroup         C1      NOp   1
 Largest concise Abelian subgroup C1      NOp   1
                         Standard orientation:                         
 ---------------------------------------------------------------------
 Center     Atomic      Atomic             Coordinates (Angstroms)
 Number     Number       Type             X           Y           Z
 ---------------------------------------------------------------------
      1          8           0        4.318429   -4.894037   -1.745966
      2          8           0       -3.284678   -4.782925   -1.120484
      3          8           0       -6.984998   -1.332213   -1.936310
      4          8           0       -3.873820   -3.018742    0.071603
      5          8           0       -7.497520   -0.472903    0.027714
      6          8           0        3.028649    2.289933    0.389302
      7          7           0        0.279028   -0.477688    0.577495
      8          7           0       -1.584358    1.897405    0.389252
      9          7           0        3.237553   -3.186722   -0.675478
     10          7           0        0.885448    2.905278    0.190002
     11          6           0       -0.630589   -2.331304    1.412250
     12          6           0       -0.917370   -1.089867    0.953953
     13          6           0        0.728943   -2.679655    1.134360
     14          6           0        1.238129   -1.424996    0.646114
     15          6           0       -3.819061    1.545529    0.318286
     16          6           0       -2.437139    0.965377    0.594719
     17          6           0       -2.229287   -0.403494    0.960941
     18          6           0       -3.575709    2.846858   -0.108335
     19          6           0       -1.593383   -3.349351    1.919554
     20          6           0        5.479681   -2.769530   -1.308407
     21          6           0        3.605112   -1.774910   -0.203688
     22          6           0       -2.114213    3.055508    0.019634
     23          6           0        5.051978   -1.634705   -0.433391
     24          6           0       -5.080269    0.765048    0.406052
     25          6           0        2.749465   -1.028541    0.506947
     26          6           0        1.468642   -3.856382    1.720520
     27          6           0        4.290367   -3.825785   -1.303072
     28          6           0       -2.232257   -4.404892    1.035649
     29          6           0       -5.328852   -0.147515   -0.772539
     30          6           0       -4.609484    3.862109   -0.516994
     31          6           0       -1.192736    4.127258   -0.259735
     32          6           0        6.833580   -3.400497   -1.179266
     33          6           0        5.803022   -0.584457   -0.027362
     34          6           0        0.207630    3.991935   -0.202631
     35          6           0        1.189673    5.053679   -0.490648
     36          6           0        2.390911    4.557913   -0.273246
     37          6           0       -3.247795   -3.973442   -0.059183
     38          6           0        5.462467    0.521722    0.879835
     39          6           0       -6.660521   -0.716140   -0.877135
     40          6           0        3.729862    5.163787   -0.297631
     41          6           0        2.233780    3.122269    0.038646
     42          6           0        0.668556    6.445527   -0.971730
     43          6           0        4.378208    5.614788    0.999104
     44          1           0        0.428836    0.436443    0.209769
     45          1           0       -3.038142   -1.140117    0.859707
     46          1           0       -2.622451   -2.882436    2.395667
     47          1           0       -1.370361   -3.933898    2.991773
     48          1           0        5.477229   -2.305074   -2.313289
     49          1           0       -4.930060    0.041327    1.208970
     50          1           0       -5.863820    1.634482    0.698319
     51          1           0        3.010252   -0.018340    0.782715
     52          1           0       -0.568425    1.862187    0.493198
     53          1           0        1.553706   -4.751615    1.139322
     54          1           0        2.474430   -3.551886    1.967884
     55          1           0        0.930194   -4.354854    2.622720
     56          1           0        2.274168   -3.609133   -0.603197
     57          1           0       -1.304611   -5.005014    0.611421
     58          1           0       -2.777991   -5.175200    1.662416
     59          1           0       -4.603731   -0.874748   -0.702125
     60          1           0       -5.290745    0.437960   -1.729201
     61          1           0       -4.472967    4.770539    0.252824
     62          1           0       -5.624438    3.351497   -0.031563
     63          1           0       -4.607273    4.185774   -1.463662
     64          1           0       -1.601220    5.020106   -0.626160
     65          1           0        7.794522   -2.867204   -1.490219
     66          1           0        6.929712   -4.301115   -1.761118
     67          1           0        7.107892   -3.795361   -0.071870
     68          1           0        6.859217   -0.500627   -0.378706
     69          1           0        4.952418    1.326422    0.519119
     70          1           0        6.463033    0.698894    1.433425
     71          1           0        4.870051    0.140583    1.647955
     72          1           0        3.483947    6.013531   -0.944128
     73          1           0        4.426079    4.607206   -0.882293
     74          1           0       -0.006969    6.170297   -1.923022
     75          1           0        1.521955    6.879042   -1.436572
     76          1           0       -0.050610    6.753524   -0.079311
     77          1           0        3.774946    6.241430    1.633000
     78          1           0        5.403360    6.107265    0.833131
     79          1           0        4.631937    4.818417    1.631359
     80          1           0       -4.127913   -4.527594   -1.582161
     81          1           0       -7.926406   -1.646595   -2.001269
 ---------------------------------------------------------------------
 Rotational constants (GHZ):           0.0770739           0.0546901           0.0341960
 Standard basis: SVP (5D, 7F)
 There are   835 symmetry adapted cartesian basis functions of A   symmetry.
 There are   792 symmetry adapted basis functions of A   symmetry.
   792 basis functions,  1341 primitive gaussians,   835 cartesian basis functions
   156 alpha electrons      156 beta electrons
       nuclear repulsion energy      5058.6083798358 Hartrees.
 NAtoms=   81 NActive=   81 NUniq=   81 SFac= 1.00D+00 NAtFMM=   60 NAOKFM=T Big=T
 Integral buffers will be    131072 words long.
 Regular integral format.
 Two-electron integral symmetry is turned on.
 One-electron integrals computed using PRISM.
 NBasis=   792 RedAO= T EigKep=  3.78D-04  NBF=   792
 NBsUse=   792 1.00D-06 EigRej= -1.00D+00 NBFU=   792
 ExpMin= 1.22D-01 ExpMax= 2.27D+03 ExpMxC= 3.41D+02 IAcc=3 IRadAn=         5 AccDes= 0.00D+00
 Harris functional with IExCor=  402 and IRadAn=       5 diagonalized for initial guess.
 HarFok:  IExCor=  402 AccDes= 0.00D+00 IRadAn=         5 IDoV= 1 UseB2=F ITyADJ=14
 ICtDFT=  3500011 ScaDFX=  1.000000  1.000000  1.000000  1.000000
 FoFCou: FMM=F IPFlag=           0 FMFlag=      100000 FMFlg1=        2001
         NFxFlg=           0 DoJE=T BraDBF=F KetDBF=T FulRan=T
         wScrn=  0.000000 ICntrl=       500 IOpCl=  0 I1Cent=   200000004 NGrid=           0
         NMat0=    1 NMatS0=      1 NMatT0=    0 NMatD0=    1 NMtDS0=    0 NMtDT0=    0
 Petite list used in FoFCou.
 Requested convergence on RMS density matrix=1.00D-08 within 128 cycles.
 Requested convergence on MAX density matrix=1.00D-06.
 Requested convergence on             energy=1.00D-06.
 No special actions if energy rises.
 Integral accuracy reduced to 1.0D-05 until final iterations.
 Initial convergence to 1.0D-05 achieved.  Increase integral accuracy.
 SCF Done:  E(RB3LYP) =  -1949.12878381     A.U. after   16 cycles
            NFock= 16  Conv=0.69D-08     -V/T= 2.0102
 DoSCS=F DFT=T ScalE2(SS,OS)=  1.000000  1.000000
 ExpMin= 1.22D-01 ExpMax= 2.27D+03 ExpMxC= 3.41D+02 IAcc=3 IRadAn=         5 AccDes= 0.00D+00
 HarFok:  IExCor=  205 AccDes= 0.00D+00 IRadAn=         5 IDoV=-2 UseB2=F ITyADJ=14
 ICtDFT= 12500011 ScaDFX=  1.000000  1.000000  1.000000  1.000000
 GSVD:  LWork=       -2193 too small for GESVD, short by        9890 words or        9890 for optimal perf.
 Range of M.O.s used for correlation:    44   792
 NBasis=   792 NAE=   156 NBE=   156 NFC=    43 NFV=     0
 NROrb=    749 NOA=   113 NOB=   113 NVA=   636 NVB=   636

 **** Warning!!: The smallest alpha delta epsilon is  0.76207369D-01

 Orbital symmetries:
       Occupied  (A) (A) (A) (A) (A) (A) (A) (A) (A) (A) (A) (A)
                 (A) (A) (A) (A) (A) (A) (A) (A) (A) (A) (A) (A)
                 (A) (A) (A) (A) (A) (A) (A) (A) (A) (A) (A) (A)
                 (A) (A) (A) (A) (A) (A) (A) (A) (A) (A) (A) (A)
                 (A) (A) (A) (A) (A) (A) (A) (A) (A) (A) (A) (A)
                 (A) (A) (A) (A) (A) (A) (A) (A) (A) (A) (A) (A)
                 (A) (A) (A) (A) (A) (A) (A) (A) (A) (A) (A) (A)
                 (A) (A) (A) (A) (A) (A) (A) (A) (A) (A) (A) (A)
                 (A) (A) (A) (A) (A) (A) (A) (A) (A) (A) (A) (A)
                 (A) (A) (A) (A) (A) (A) (A) (A) (A) (A) (A) (A)
                 (A) (A) (A) (A) (A) (A) (A) (A) (A) (A) (A) (A)
                 (A) (A) (A) (A) (A) (A) (A) (A) (A) (A) (A) (A)
                 (A) (A) (A) (A) (A) (A) (A) (A) (A) (A) (A) (A)
       Virtual   (A) (A) (A) (A) (A) (A) (A) (A) (A) (A) (A) (A)
                 (A) (A) (A) (A) (A) (A) (A) (A) (A) (A) (A) (A)
                 (A) (A) (A) (A) (A) (A) (A) (A) (A) (A) (A) (A)
                 (A) (A) (A) (A) (A) (A) (A) (A) (A) (A) (A) (A)
                 (A) (A) (A) (A) (A) (A) (A) (A) (A) (A) (A) (A)
                 (A) (A) (A) (A) (A) (A) (A) (A) (A) (A) (A) (A)
                 (A) (A) (A) (A) (A) (A) (A) (A) (A) (A) (A) (A)
                 (A) (A) (A) (A) (A) (A) (A) (A) (A) (A) (A) (A)
                 (A) (A) (A) (A) (A) (A) (A) (A) (A) (A) (A) (A)
                 (A) (A) (A) (A) (A) (A) (A) (A) (A) (A) (A) (A)
                 (A) (A) (A) (A) (A) (A) (A) (A) (A) (A) (A) (A)
                 (A) (A) (A) (A) (A) (A) (A) (A) (A) (A) (A) (A)
                 (A) (A) (A) (A) (A) (A) (A) (A) (A) (A) (A) (A)
                 (A) (A) (A) (A) (A) (A) (A) (A) (A) (A) (A) (A)
                 (A) (A) (A) (A) (A) (A) (A) (A) (A) (A) (A) (A)
                 (A) (A) (A) (A) (A) (A) (A) (A) (A) (A) (A) (A)
                 (A) (A) (A) (A) (A) (A) (A) (A) (A) (A) (A) (A)
                 (A) (A) (A) (A) (A) (A) (A) (A) (A) (A) (A) (A)
                 (A) (A) (A) (A) (A) (A) (A) (A) (A) (A) (A) (A)
                 (A) (A) (A) (A) (A) (A) (A) (A) (A) (A) (A) (A)
                 (A) (A) (A) (A) (A) (A) (A) (A) (A) (A) (A) (A)
                 (A) (A) (A) (A) (A) (A) (A) (A) (A) (A) (A) (A)
                 (A) (A) (A) (A) (A) (A) (A) (A) (A) (A) (A) (A)
                 (A) (A) (A) (A) (A) (A) (A) (A) (A) (A) (A) (A)
                 (A) (A) (A) (A) (A) (A) (A) (A) (A) (A) (A) (A)
                 (A) (A) (A) (A) (A) (A) (A) (A) (A) (A) (A) (A)
                 (A) (A) (A) (A) (A) (A) (A) (A) (A) (A) (A) (A)
                 (A) (A) (A) (A) (A) (A) (A) (A) (A) (A) (A) (A)
                 (A) (A) (A) (A) (A) (A) (A) (A) (A) (A) (A) (A)
                 (A) (A) (A) (A) (A) (A) (A) (A) (A) (A) (A) (A)
                 (A) (A) (A) (A) (A) (A) (A) (A) (A) (A) (A) (A)
                 (A) (A) (A) (A) (A) (A) (A) (A) (A) (A) (A) (A)
                 (A) (A) (A) (A) (A) (A) (A) (A) (A) (A) (A) (A)
                 (A) (A) (A) (A) (A) (A) (A) (A) (A) (A) (A) (A)
                 (A) (A) (A) (A) (A) (A) (A) (A) (A) (A) (A) (A)
                 (A) (A) (A) (A) (A) (A) (A) (A) (A) (A) (A) (A)
                 (A) (A) (A) (A) (A) (A) (A) (A) (A) (A) (A) (A)
                 (A) (A) (A) (A) (A) (A) (A) (A) (A) (A) (A) (A)
                 (A) (A) (A) (A) (A) (A) (A) (A) (A) (A) (A) (A)
                 (A) (A) (A) (A) (A) (A) (A) (A) (A) (A) (A) (A)
                 (A) (A) (A) (A) (A) (A) (A) (A) (A) (A) (A) (A)
                 (A) (A) (A) (A) (A) (A) (A) (A) (A) (A) (A) (A)
                 (A) (A) (A) (A) (A) (A) (A) (A) (A) (A) (A) (A)
                 (A) (A) (A) (A) (A) (A) (A) (A) (A) (A) (A) (A)
                 (A) (A) (A) (A) (A) (A) (A) (A) (A) (A) (A) (A)
                 (A) (A) (A) (A) (A) (A) (A) (A) (A) (A) (A) (A)
                 (A) (A) (A) (A) (A) (A) (A) (A) (A) (A) (A) (A)
                 (A) (A) (A) (A) (A) (A) (A) (A) (A) (A) (A) (A)
                 (A) (A) (A) (A) (A) (A) (A) (A) (A) (A) (A) (A)
                 (A) (A) (A) (A) (A) (A) (A) (A) (A) (A) (A) (A)
                 (A) (A) (A) (A) (A) (A) (A) (A) (A) (A) (A) (A)
                 (A) (A) (A) (A) (A) (A) (A) (A) (A) (A) (A) (A)
                 (A) (A) (A) (A) (A) (A) (A) (A) (A) (A) (A) (A)
     4 initial guesses have been made.
 Convergence on wavefunction:    0.001000000000000
 Iteration     1 Dimension     4 NMult     0 NNew      4
 CISAX will form     4 AO SS matrices at one time.
 Iteration     2 Dimension     6 NMult     4 NNew      2
 Iteration     3 Dimension     8 NMult     6 NNew      2
 Iteration     4 Dimension    10 NMult     8 NNew      2
 Iteration     5 Dimension    12 NMult    10 NNew      2
 Iteration     6 Dimension    14 NMult    12 NNew      2
 Iteration     7 Dimension    16 NMult    14 NNew      2
 ***********************************************************************
 Excited states from <AA,BB:AA,BB> singles matrix:
 ***********************************************************************
 
 Ground to excited state transition densities written to RWF  633
 Ground to excited state transition electric dipole moments (Au):
       state          X           Y           Z        Dip. S.      Osc.
         1        -0.5530      2.4131     -0.2561      6.1946      0.2881
 Ground to excited state transition velocity dipole moments (Au):
       state          X           Y           Z        Dip. S.      Osc.
         1         0.0389     -0.1624      0.0173      0.0282      0.2693
 Ground to excited state transition magnetic dipole moments (Au):
       state          X           Y           Z
         1         0.3347      0.5072      2.1616
 Ground to excited state transition velocity quadrupole moments (Au):
       state          XX          YY          ZZ          XY          XZ          YZ
         1         0.2975     -0.5223      0.0742     -0.3475     -0.0668     -0.0186
 <0|del|b> * <b|rxdel|0> + <0|del|b> * <b|delr+rdel|0>
 Rotatory Strengths (R) in cgs (10**-40 erg-esu-cm/Gauss)
       state          XX          YY          ZZ    R(velocity)    E-M Angle
         1      -313.7627    281.7460   -292.7439   -108.2535       94.88
 1/2[<0|r|b>*<b|rxdel|0> + (<0|rxdel|b>*<b|r|0>)*]
 Rotatory Strengths (R) in cgs (10**-40 erg-esu-cm/Gauss)
       state          XX          YY          ZZ     R(length)
         1       130.9017   -865.5336    391.4892   -114.3809
  1/2[<0|del|b>*<b|r|0> + (<0|r|b>*<b|del|0>)*] (Au)
       state          X           Y           Z        Dip. S.   Osc.(frdel)
         1        -0.0215     -0.3919     -0.0044      0.4178      0.2785

 Excitation energies and oscillator strengths:
 
 Excited State   1:      Singlet-A      1.8987 eV  653.00 nm  f=0.2881  <S**2>=0.000
     156 ->157         0.70046
     156 <-157        -0.10871
 This state for optimization and/or second-order correction.
 Total Energy, E(TD-HF/TD-DFT) =  -1949.05900887    
 Copying the excited state density for this state as the 1-particle RhoCI density.
 SavETr:  write IOETrn=   770 NScale= 10 NData=  16 NLR=1 NState=    1 LETran=      28.

 **********************************************************************

            Population analysis using the SCF density.

 **********************************************************************

 Orbital symmetries:
       Occupied  (A) (A) (A) (A) (A) (A) (A) (A) (A) (A) (A) (A)
                 (A) (A) (A) (A) (A) (A) (A) (A) (A) (A) (A) (A)
                 (A) (A) (A) (A) (A) (A) (A) (A) (A) (A) (A) (A)
                 (A) (A) (A) (A) (A) (A) (A) (A) (A) (A) (A) (A)
                 (A) (A) (A) (A) (A) (A) (A) (A) (A) (A) (A) (A)
                 (A) (A) (A) (A) (A) (A) (A) (A) (A) (A) (A) (A)
                 (A) (A) (A) (A) (A) (A) (A) (A) (A) (A) (A) (A)
                 (A) (A) (A) (A) (A) (A) (A) (A) (A) (A) (A) (A)
                 (A) (A) (A) (A) (A) (A) (A) (A) (A) (A) (A) (A)
                 (A) (A) (A) (A) (A) (A) (A) (A) (A) (A) (A) (A)
                 (A) (A) (A) (A) (A) (A) (A) (A) (A) (A) (A) (A)
                 (A) (A) (A) (A) (A) (A) (A) (A) (A) (A) (A) (A)
                 (A) (A) (A) (A) (A) (A) (A) (A) (A) (A) (A) (A)
       Virtual   (A) (A) (A) (A) (A) (A) (A) (A) (A) (A) (A) (A)
                 (A) (A) (A) (A) (A) (A) (A) (A) (A) (A) (A) (A)
                 (A) (A) (A) (A) (A) (A) (A) (A) (A) (A) (A) (A)
                 (A) (A) (A) (A) (A) (A) (A) (A) (A) (A) (A) (A)
                 (A) (A) (A) (A) (A) (A) (A) (A) (A) (A) (A) (A)
                 (A) (A) (A) (A) (A) (A) (A) (A) (A) (A) (A) (A)
                 (A) (A) (A) (A) (A) (A) (A) (A) (A) (A) (A) (A)
                 (A) (A) (A) (A) (A) (A) (A) (A) (A) (A) (A) (A)
                 (A) (A) (A) (A) (A) (A) (A) (A) (A) (A) (A) (A)
                 (A) (A) (A) (A) (A) (A) (A) (A) (A) (A) (A) (A)
                 (A) (A) (A) (A) (A) (A) (A) (A) (A) (A) (A) (A)
                 (A) (A) (A) (A) (A) (A) (A) (A) (A) (A) (A) (A)
                 (A) (A) (A) (A) (A) (A) (A) (A) (A) (A) (A) (A)
                 (A) (A) (A) (A) (A) (A) (A) (A) (A) (A) (A) (A)
                 (A) (A) (A) (A) (A) (A) (A) (A) (A) (A) (A) (A)
                 (A) (A) (A) (A) (A) (A) (A) (A) (A) (A) (A) (A)
                 (A) (A) (A) (A) (A) (A) (A) (A) (A) (A) (A) (A)
                 (A) (A) (A) (A) (A) (A) (A) (A) (A) (A) (A) (A)
                 (A) (A) (A) (A) (A) (A) (A) (A) (A) (A) (A) (A)
                 (A) (A) (A) (A) (A) (A) (A) (A) (A) (A) (A) (A)
                 (A) (A) (A) (A) (A) (A) (A) (A) (A) (A) (A) (A)
                 (A) (A) (A) (A) (A) (A) (A) (A) (A) (A) (A) (A)
                 (A) (A) (A) (A) (A) (A) (A) (A) (A) (A) (A) (A)
                 (A) (A) (A) (A) (A) (A) (A) (A) (A) (A) (A) (A)
                 (A) (A) (A) (A) (A) (A) (A) (A) (A) (A) (A) (A)
                 (A) (A) (A) (A) (A) (A) (A) (A) (A) (A) (A) (A)
                 (A) (A) (A) (A) (A) (A) (A) (A) (A) (A) (A) (A)
                 (A) (A) (A) (A) (A) (A) (A) (A) (A) (A) (A) (A)
                 (A) (A) (A) (A) (A) (A) (A) (A) (A) (A) (A) (A)
                 (A) (A) (A) (A) (A) (A) (A) (A) (A) (A) (A) (A)
                 (A) (A) (A) (A) (A) (A) (A) (A) (A) (A) (A) (A)
                 (A) (A) (A) (A) (A) (A) (A) (A) (A) (A) (A) (A)
                 (A) (A) (A) (A) (A) (A) (A) (A) (A) (A) (A) (A)
                 (A) (A) (A) (A) (A) (A) (A) (A) (A) (A) (A) (A)
                 (A) (A) (A) (A) (A) (A) (A) (A) (A) (A) (A) (A)
                 (A) (A) (A) (A) (A) (A) (A) (A) (A) (A) (A) (A)
                 (A) (A) (A) (A) (A) (A) (A) (A) (A) (A) (A) (A)
                 (A) (A) (A) (A) (A) (A) (A) (A) (A) (A) (A) (A)
                 (A) (A) (A) (A) (A) (A) (A) (A) (A) (A) (A) (A)
                 (A) (A) (A) (A) (A) (A) (A) (A) (A) (A) (A) (A)
                 (A) (A) (A) (A) (A) (A) (A) (A) (A) (A) (A) (A)
                 (A) (A) (A) (A) (A) (A) (A) (A) (A) (A) (A) (A)
                 (A) (A) (A) (A) (A) (A) (A) (A) (A) (A) (A) (A)
                 (A) (A) (A) (A) (A) (A) (A) (A) (A) (A) (A) (A)
                 (A) (A) (A) (A) (A) (A) (A) (A) (A) (A) (A) (A)
                 (A) (A) (A) (A) (A) (A) (A) (A) (A) (A) (A) (A)
                 (A) (A) (A) (A) (A) (A) (A) (A) (A) (A) (A) (A)
                 (A) (A) (A) (A) (A) (A) (A) (A) (A) (A) (A) (A)
                 (A) (A) (A) (A) (A) (A) (A) (A) (A) (A) (A) (A)
                 (A) (A) (A) (A) (A) (A) (A) (A) (A) (A) (A) (A)
                 (A) (A) (A) (A) (A) (A) (A) (A) (A) (A) (A) (A)
                 (A) (A) (A) (A) (A) (A) (A) (A) (A) (A) (A) (A)
                 (A) (A) (A) (A) (A) (A) (A) (A) (A) (A) (A) (A)
 The electronic state is 1-A.
 Alpha  occ. eigenvalues --  -19.20248 -19.20127 -19.15273 -19.10598 -19.10417
 Alpha  occ. eigenvalues --  -19.10358 -14.38075 -14.37138 -14.35486 -14.28250
 Alpha  occ. eigenvalues --  -10.33613 -10.31568 -10.27922 -10.25900 -10.25093
 Alpha  occ. eigenvalues --  -10.24103 -10.24101 -10.23845 -10.22979 -10.22674
 Alpha  occ. eigenvalues --  -10.22469 -10.22402 -10.22122 -10.21556 -10.21525
 Alpha  occ. eigenvalues --  -10.21331 -10.21263 -10.20979 -10.20141 -10.19679
 Alpha  occ. eigenvalues --  -10.19666 -10.19606 -10.19520 -10.19476 -10.19268
 Alpha  occ. eigenvalues --  -10.19144 -10.18829 -10.18759 -10.18516 -10.18298
 Alpha  occ. eigenvalues --  -10.18138 -10.17607 -10.15846  -1.13769  -1.12377
 Alpha  occ. eigenvalues --   -1.05242  -1.04966  -1.02873  -1.01988  -0.98836
 Alpha  occ. eigenvalues --   -0.98047  -0.92601  -0.91571  -0.83153  -0.82149
 Alpha  occ. eigenvalues --   -0.81030  -0.80745  -0.80227  -0.78748  -0.78092
 Alpha  occ. eigenvalues --   -0.77133  -0.76143  -0.75199  -0.74071  -0.72801
 Alpha  occ. eigenvalues --   -0.71688  -0.69781  -0.69567  -0.68896  -0.67983
 Alpha  occ. eigenvalues --   -0.67427  -0.65124  -0.63816  -0.63216  -0.62795
 Alpha  occ. eigenvalues --   -0.61324  -0.60879  -0.59012  -0.58188  -0.56494
 Alpha  occ. eigenvalues --   -0.56368  -0.55277  -0.55034  -0.54446  -0.52748
 Alpha  occ. eigenvalues --   -0.52676  -0.52455  -0.51682  -0.50999  -0.50867
 Alpha  occ. eigenvalues --   -0.49991  -0.49600  -0.48808  -0.48102  -0.47943
 Alpha  occ. eigenvalues --   -0.47347  -0.46875  -0.46656  -0.46111  -0.45762
 Alpha  occ. eigenvalues --   -0.45556  -0.45123  -0.44700  -0.44094  -0.43652
 Alpha  occ. eigenvalues --   -0.43510  -0.43341  -0.43101  -0.42907  -0.42538
 Alpha  occ. eigenvalues --   -0.42253  -0.42128  -0.41618  -0.41241  -0.41085
 Alpha  occ. eigenvalues --   -0.40802  -0.40676  -0.40467  -0.40108  -0.39954
 Alpha  occ. eigenvalues --   -0.39725  -0.39161  -0.39039  -0.38716  -0.38305
 Alpha  occ. eigenvalues --   -0.38146  -0.37497  -0.37056  -0.36970  -0.36285
 Alpha  occ. eigenvalues --   -0.35824  -0.35324  -0.35302  -0.35152  -0.35011
 Alpha  occ. eigenvalues --   -0.34155  -0.34099  -0.33831  -0.32840  -0.32745
 Alpha  occ. eigenvalues --   -0.32418  -0.31571  -0.31054  -0.30121  -0.29486
 Alpha  occ. eigenvalues --   -0.26991  -0.26509  -0.26266  -0.26015  -0.25817
 Alpha  occ. eigenvalues --   -0.25452  -0.24717  -0.24312  -0.23268  -0.21558
 Alpha  occ. eigenvalues --   -0.18381
 Alpha virt. eigenvalues --   -0.10760  -0.05512  -0.03403  -0.00488   0.00813
 Alpha virt. eigenvalues --    0.02163   0.02464   0.02695   0.03359   0.03460
 Alpha virt. eigenvalues --    0.03719   0.03859   0.04251   0.04568   0.06542
 Alpha virt. eigenvalues --    0.06874   0.07317   0.07495   0.07609   0.08392
 Alpha virt. eigenvalues --    0.08603   0.09012   0.09132   0.09384   0.09699
 Alpha virt. eigenvalues --    0.10153   0.10242   0.10293   0.10683   0.11213
 Alpha virt. eigenvalues --    0.11686   0.11956   0.12322   0.12768   0.12960
 Alpha virt. eigenvalues --    0.13080   0.13376   0.13732   0.13835   0.14059
 Alpha virt. eigenvalues --    0.14727   0.15217   0.15662   0.15943   0.16255
 Alpha virt. eigenvalues --    0.16522   0.16905   0.17393   0.17941   0.18134
 Alpha virt. eigenvalues --    0.18835   0.19267   0.19449   0.20140   0.20756
 Alpha virt. eigenvalues --    0.21101   0.21499   0.21845   0.22183   0.22683
 Alpha virt. eigenvalues --    0.23116   0.23290   0.24064   0.24388   0.24737
 Alpha virt. eigenvalues --    0.24796   0.25006   0.25569   0.26204   0.26499
 Alpha virt. eigenvalues --    0.27045   0.27476   0.27714   0.28190   0.28773
 Alpha virt. eigenvalues --    0.29437   0.30458   0.30845   0.31103   0.31714
 Alpha virt. eigenvalues --    0.32176   0.32714   0.33547   0.33642   0.33905
 Alpha virt. eigenvalues --    0.35083   0.35474   0.35584   0.36250   0.36799
 Alpha virt. eigenvalues --    0.37198   0.37368   0.38023   0.38580   0.38753
 Alpha virt. eigenvalues --    0.39547   0.39689   0.40300   0.40327   0.41237
 Alpha virt. eigenvalues --    0.41718   0.42035   0.42140   0.42672   0.42897
 Alpha virt. eigenvalues --    0.43183   0.44092   0.44272   0.44543   0.44765
 Alpha virt. eigenvalues --    0.45328   0.45532   0.45648   0.46091   0.46287
 Alpha virt. eigenvalues --    0.46850   0.47053   0.47402   0.47957   0.48011
 Alpha virt. eigenvalues --    0.48456   0.48729   0.49370   0.49444   0.49791
 Alpha virt. eigenvalues --    0.49950   0.50606   0.50773   0.51235   0.51604
 Alpha virt. eigenvalues --    0.52295   0.52509   0.53012   0.53404   0.53514
 Alpha virt. eigenvalues --    0.53979   0.54600   0.54688   0.55284   0.55920
 Alpha virt. eigenvalues --    0.56093   0.56356   0.56740   0.56939   0.57536
 Alpha virt. eigenvalues --    0.57918   0.58136   0.58378   0.59082   0.59308
 Alpha virt. eigenvalues --    0.59526   0.59862   0.60172   0.60549   0.60875
 Alpha virt. eigenvalues --    0.61000   0.61543   0.61603   0.61939   0.62274
 Alpha virt. eigenvalues --    0.62397   0.62648   0.62982   0.63302   0.63683
 Alpha virt. eigenvalues --    0.63829   0.64101   0.64511   0.64521   0.64894
 Alpha virt. eigenvalues --    0.65053   0.65166   0.65298   0.65518   0.65829
 Alpha virt. eigenvalues --    0.66155   0.66451   0.66728   0.66812   0.67078
 Alpha virt. eigenvalues --    0.67710   0.67755   0.67928   0.68271   0.68499
 Alpha virt. eigenvalues --    0.68917   0.69008   0.69350   0.69601   0.69965
 Alpha virt. eigenvalues --    0.70124   0.70191   0.70548   0.70748   0.71034
 Alpha virt. eigenvalues --    0.71415   0.71578   0.72008   0.72182   0.72429
 Alpha virt. eigenvalues --    0.72943   0.73188   0.73417   0.73710   0.74053
 Alpha virt. eigenvalues --    0.74131   0.74599   0.75459   0.75937   0.76069
 Alpha virt. eigenvalues --    0.76469   0.76694   0.77434   0.77488   0.77927
 Alpha virt. eigenvalues --    0.78490   0.78714   0.79084   0.79288   0.80066
 Alpha virt. eigenvalues --    0.80604   0.81046   0.81917   0.82299   0.83251
 Alpha virt. eigenvalues --    0.83546   0.83599   0.84266   0.85390   0.85702
 Alpha virt. eigenvalues --    0.86133   0.86927   0.88041   0.88748   0.89481
 Alpha virt. eigenvalues --    0.89911   0.90328   0.90650   0.91687   0.91878
 Alpha virt. eigenvalues --    0.92340   0.93127   0.93796   0.94155   0.94300
 Alpha virt. eigenvalues --    0.95245   0.95546   0.95661   0.95957   0.96402
 Alpha virt. eigenvalues --    0.97475   0.98443   0.99287   0.99680   0.99730
 Alpha virt. eigenvalues --    1.00694   1.01251   1.01615   1.03099   1.03494
 Alpha virt. eigenvalues --    1.04041   1.04845   1.04931   1.06230   1.06407
 Alpha virt. eigenvalues --    1.07721   1.08102   1.09378   1.09823   1.10379
 Alpha virt. eigenvalues --    1.11067   1.11708   1.12280   1.12835   1.13544
 Alpha virt. eigenvalues --    1.14029   1.14320   1.15143   1.15760   1.16919
 Alpha virt. eigenvalues --    1.18140   1.18795   1.19179   1.19378   1.19871
 Alpha virt. eigenvalues --    1.20149   1.21831   1.21945   1.22529   1.22927
 Alpha virt. eigenvalues --    1.24051   1.25136   1.25756   1.26016   1.26639
 Alpha virt. eigenvalues --    1.26985   1.27452   1.28209   1.28853   1.29488
 Alpha virt. eigenvalues --    1.30422   1.31041   1.31217   1.31648   1.31970
 Alpha virt. eigenvalues --    1.33023   1.33308   1.35023   1.35112   1.36127
 Alpha virt. eigenvalues --    1.36557   1.37143   1.37671   1.37885   1.38840
 Alpha virt. eigenvalues --    1.40047   1.40586   1.40723   1.41498   1.41689
 Alpha virt. eigenvalues --    1.41983   1.42897   1.44449   1.44614   1.44762
 Alpha virt. eigenvalues --    1.45829   1.46672   1.47126   1.47469   1.48590
 Alpha virt. eigenvalues --    1.49726   1.50112   1.50729   1.50777   1.52128
 Alpha virt. eigenvalues --    1.52777   1.53292   1.53965   1.54814   1.55111
 Alpha virt. eigenvalues --    1.55701   1.56404   1.56446   1.56567   1.57119
 Alpha virt. eigenvalues --    1.57457   1.58843   1.59087   1.59524   1.61230
 Alpha virt. eigenvalues --    1.61312   1.61945   1.62128   1.63022   1.63205
 Alpha virt. eigenvalues --    1.63480   1.63929   1.64387   1.65004   1.65657
 Alpha virt. eigenvalues --    1.66002   1.66321   1.66756   1.67400   1.67798
 Alpha virt. eigenvalues --    1.68122   1.68485   1.69097   1.69129   1.69526
 Alpha virt. eigenvalues --    1.70343   1.70645   1.70883   1.71725   1.72342
 Alpha virt. eigenvalues --    1.72611   1.72895   1.72966   1.74054   1.74539
 Alpha virt. eigenvalues --    1.75035   1.75335   1.76207   1.76749   1.76823
 Alpha virt. eigenvalues --    1.77133   1.77669   1.78068   1.78352   1.79078
 Alpha virt. eigenvalues --    1.79271   1.79538   1.79891   1.80209   1.80531
 Alpha virt. eigenvalues --    1.81335   1.81505   1.81755   1.82262   1.82496
 Alpha virt. eigenvalues --    1.82662   1.83335   1.83401   1.83886   1.84202
 Alpha virt. eigenvalues --    1.84611   1.84856   1.85053   1.85927   1.86115
 Alpha virt. eigenvalues --    1.86375   1.87054   1.87413   1.87522   1.88275
 Alpha virt. eigenvalues --    1.89002   1.89578   1.89727   1.90049   1.90565
 Alpha virt. eigenvalues --    1.90830   1.91146   1.91921   1.92148   1.92414
 Alpha virt. eigenvalues --    1.92670   1.93056   1.93244   1.93708   1.94278
 Alpha virt. eigenvalues --    1.94608   1.94912   1.95636   1.96267   1.96549
 Alpha virt. eigenvalues --    1.97014   1.97898   1.98119   1.98724   1.99011
 Alpha virt. eigenvalues --    1.99246   1.99704   2.00492   2.00834   2.01371
 Alpha virt. eigenvalues --    2.01634   2.02389   2.02945   2.03001   2.05051
 Alpha virt. eigenvalues --    2.05129   2.05435   2.05661   2.06689   2.07317
 Alpha virt. eigenvalues --    2.08466   2.08741   2.09139   2.09266   2.09805
 Alpha virt. eigenvalues --    2.10595   2.10643   2.12023   2.12364   2.13150
 Alpha virt. eigenvalues --    2.13372   2.13964   2.14186   2.14635   2.15649
 Alpha virt. eigenvalues --    2.16044   2.16430   2.17077   2.17486   2.18830
 Alpha virt. eigenvalues --    2.19397   2.20752   2.20961   2.21405   2.22127
 Alpha virt. eigenvalues --    2.23510   2.23943   2.24641   2.25443   2.25955
 Alpha virt. eigenvalues --    2.26532   2.26950   2.27020   2.27552   2.28796
 Alpha virt. eigenvalues --    2.29596   2.30324   2.30641   2.31485   2.31786
 Alpha virt. eigenvalues --    2.32700   2.33345   2.34458   2.34846   2.35488
 Alpha virt. eigenvalues --    2.36370   2.36650   2.37075   2.37922   2.38654
 Alpha virt. eigenvalues --    2.38747   2.39968   2.40845   2.41422   2.41664
 Alpha virt. eigenvalues --    2.42059   2.43316   2.44100   2.45006   2.45360
 Alpha virt. eigenvalues --    2.46121   2.46773   2.47379   2.47838   2.48620
 Alpha virt. eigenvalues --    2.49866   2.50149   2.51108   2.51460   2.52106
 Alpha virt. eigenvalues --    2.52400   2.52824   2.53508   2.55491   2.56031
 Alpha virt. eigenvalues --    2.57048   2.57396   2.58865   2.59164   2.59437
 Alpha virt. eigenvalues --    2.60064   2.61048   2.61641   2.62264   2.62990
 Alpha virt. eigenvalues --    2.64662   2.64945   2.65361   2.65433   2.65725
 Alpha virt. eigenvalues --    2.66295   2.67059   2.67857   2.68131   2.70008
 Alpha virt. eigenvalues --    2.70542   2.70917   2.71017   2.71218   2.72576
 Alpha virt. eigenvalues --    2.73214   2.74018   2.74392   2.74780   2.75711
 Alpha virt. eigenvalues --    2.76071   2.76925   2.77327   2.77746   2.78781
 Alpha virt. eigenvalues --    2.80285   2.80852   2.81688   2.82095   2.82568
 Alpha virt. eigenvalues --    2.82698   2.83931   2.84696   2.85129   2.86293
 Alpha virt. eigenvalues --    2.86506   2.87446   2.88978   2.89893   2.90531
 Alpha virt. eigenvalues --    2.90800   2.91852   2.92358   2.94113   2.95821
 Alpha virt. eigenvalues --    2.96044   2.97020   2.98285   2.98767   2.99418
 Alpha virt. eigenvalues --    3.00157   3.00662   3.01565   3.02829   3.03054
 Alpha virt. eigenvalues --    3.03951   3.04777   3.05000   3.05144   3.06148
 Alpha virt. eigenvalues --    3.07194   3.08196   3.09051   3.09643   3.10981
 Alpha virt. eigenvalues --    3.11949   3.14508   3.15872   3.16444   3.17567
 Alpha virt. eigenvalues --    3.18516   3.19860   3.20453   3.21150   3.23981
 Alpha virt. eigenvalues --    3.25675   3.26828   3.27158   3.29464   3.30004
 Alpha virt. eigenvalues --    3.32438   3.37330   3.40834   3.50670   3.51815
 Alpha virt. eigenvalues --    3.52369   3.54696   3.57286   3.58121   3.62691
 Alpha virt. eigenvalues --    3.65144   3.72768   3.72823   3.74133   3.74766
 Alpha virt. eigenvalues --    3.76844
          Condensed to atoms (all electrons):
 Mulliken charges:
               1
     1  O   -0.146503
     2  O   -0.169009
     3  O   -0.123000
     4  O   -0.159755
     5  O   -0.292554
     6  O   -0.177521
     7  N   -0.040775
     8  N    0.068656
     9  N   -0.230828
    10  N   -0.300016
    11  C   -0.020916
    12  C    0.018820
    13  C   -0.151726
    14  C    0.000698
    15  C   -0.124331
    16  C    0.018033
    17  C   -0.044200
    18  C   -0.136041
    19  C   -0.062849
    20  C   -0.064353
    21  C    0.155923
    22  C    0.051511
    23  C    0.044384
    24  C    0.090472
    25  C   -0.099664
    26  C    0.086691
    27  C    0.124659
    28  C   -0.024172
    29  C    0.081497
    30  C    0.074525
    31  C   -0.106782
    32  C    0.006639
    33  C   -0.210785
    34  C    0.091481
    35  C   -0.116803
    36  C   -0.232179
    37  C    0.116750
    38  C    0.143115
    39  C    0.085807
    40  C    0.124777
    41  C    0.143298
    42  C    0.098422
    43  C    0.042588
    44  H    0.120517
    45  H    0.033998
    46  H    0.014868
    47  H    0.036203
    48  H    0.040759
    49  H    0.013135
    50  H    0.049427
    51  H    0.015110
    52  H    0.120093
    53  H    0.004763
    54  H    0.035198
    55  H    0.018038
    56  H    0.147584
    57  H    0.036602
    58  H    0.043604
    59  H    0.008394
    60  H    0.027579
    61  H    0.038172
    62  H    0.034398
    63  H    0.014977
    64  H   -0.058075
    65  H    0.014859
    66  H    0.014696
    67  H    0.014481
    68  H   -0.005428
    69  H    0.034594
    70  H    0.003903
    71  H   -0.002742
    72  H   -0.029998
    73  H   -0.004411
    74  H    0.034557
    75  H    0.012262
    76  H    0.071455
    77  H    0.000966
    78  H    0.013900
    79  H    0.000543
    80  H    0.188260
    81  H    0.208772
 Sum of Mulliken charges =  -0.00000
 Mulliken charges with hydrogens summed into heavy atoms:
               1
     1  O   -0.146503
     2  O    0.019251
     3  O    0.085773
     4  O   -0.159755
     5  O   -0.292554
     6  O   -0.177521
     7  N    0.079742
     8  N    0.188749
     9  N   -0.083244
    10  N   -0.300016
    11  C   -0.020916
    12  C    0.018820
    13  C   -0.151726
    14  C    0.000698
    15  C   -0.124331
    16  C    0.018033
    17  C   -0.010202
    18  C   -0.136041
    19  C   -0.011778
    20  C   -0.023594
    21  C    0.155923
    22  C    0.051511
    23  C    0.044384
    24  C    0.153034
    25  C   -0.084554
    26  C    0.144691
    27  C    0.124659
    28  C    0.056034
    29  C    0.117471
    30  C    0.162072
    31  C   -0.164858
    32  C    0.050674
    33  C   -0.216213
    34  C    0.091481
    35  C   -0.116803
    36  C   -0.232179
    37  C    0.116750
    38  C    0.178870
    39  C    0.085807
    40  C    0.090369
    41  C    0.143298
    42  C    0.216697
    43  C    0.057997
 Electronic spatial extent (au):  <R**2>=          30343.3377
 Charge=              0.0000 electrons
 Dipole moment (field-independent basis, Debye):
    X=             -4.6615    Y=              1.2715    Z=             -1.8920  Tot=              5.1890
 Quadrupole moment (field-independent basis, Debye-Ang):
   XX=           -250.6107   YY=           -242.0713   ZZ=           -252.3625
   XY=             25.5552   XZ=             20.9410   YZ=            -12.8453
 Traceless Quadrupole moment (field-independent basis, Debye-Ang):
   XX=             -2.2625   YY=              6.2769   ZZ=             -4.0143
   XY=             25.5552   XZ=             20.9410   YZ=            -12.8453
 Octapole moment (field-independent basis, Debye-Ang**2):
  XXX=            -43.5491  YYY=             80.5543  ZZZ=            -29.6605  XYY=           -203.9585
  XXY=            -43.9126  XXZ=           -163.4951  XZZ=            -59.3139  YZZ=            -19.5050
  YYZ=             34.3171  XYZ=            -60.7683
 Hexadecapole moment (field-independent basis, Debye-Ang**3):
 XXXX=         -22166.8592 YYYY=         -16480.2733 ZZZZ=          -1630.9882 XXXY=           1078.1606
 XXXZ=           1312.6362 YYYX=            985.5577 YYYZ=           -398.7372 ZZZX=            131.1569
 ZZZY=             52.7327 XXYY=          -6294.4871 XXZZ=          -3810.6466 YYZZ=          -2973.5823
 XXYZ=            183.0538 YYXZ=            284.9147 ZZXY=            218.1133
 N-N= 5.058608379836D+03 E-N=-1.464902049813D+04  KE= 1.929425239095D+03
 1\1\GINC-PADAWAN\SP\RB3LYP TD-FC\SVP\C33H38N4O6\PADAWAN\02-Jul-2019\0\
 \# td=(NStates=1) B3LYP/SVP\\TD\\0,1\O,0,-4.3611076216,-4.8602603972,1
 .7327072991\O,0,3.2430583345,-4.8153228391,1.1118653238\O,0,6.97333363
 77,-1.3991771874,1.9366963491\O,0,3.8485299105,-3.0540734323,-0.076370
 9765\O,0,7.4946289995,-0.5405539505,-0.0253185646\O,0,-3.0064162277,2.
 3162096718,-0.3875303144\N,0,-0.2813251272,-0.4753017233,-0.5796249754
 \N,0,1.6029287856,1.8827987124,-0.3855801356\N,0,-3.2644984388,-3.1604
 771607,0.6662429429\N,0,-0.8579642921,2.9121323626,-0.185762422\C,0,0.
 6123234966,-2.3352514835,-1.4175340485\C,0,0.9098238847,-1.0973169634,
 -0.9566045094\C,0,-0.7504091696,-2.6720855708,-1.1411261753\C,0,-1.248
 7452965,-1.4139317046,-0.6506841984\C,0,3.834381899,1.5109842649,-0.31
 40156684\C,0,2.4475368595,0.9436561911,-0.5924034253\C,0,2.227778028,-
 0.4225895169,-0.9614656212\C,0,3.6023208722,2.8135711593,0.1150494952\
 C,0,1.5663580409,-3.3607877801,-1.9262999756\C,0,-5.5032192286,-2.7246
 780827,1.298697134\C,0,-3.6192457839,-1.7445294288,0.1970456364\C,0,2.
 142808593,3.0354235366,-0.013353712\C,0,-5.0649491912,-1.5919581597,0.
 4261866626\C,0,5.0886741293,0.7195268696,-0.4025992186\C,0,-2.75659047
 47,-1.0043689923,-0.5116076346\C,0,-1.5001596781,-3.8410438575,-1.7300
 533221\C,0,-4.3233119996,-3.7914233741,1.291954321\C,0,2.1953206658,-4
 .4237013938,-1.0441236392\C,0,5.3284516476,-0.1975378773,0.7743199792\
 C,0,4.6448105424,3.8188047298,0.5263248328\C,0,1.2307017486,4.11474602
 49,0.2676084814\C,0,-6.8625809087,-3.3433591157,1.1675158137\C,0,-5.80
 64102216,-0.5342892129,0.0218093478\C,0,-0.1707749968,3.9919574455,0.2
 094227542\C,0,-1.1435394525,5.0617937131,0.4989783633\C,0,-2.348994373
 1,4.5771292143,0.2798938954\C,0,3.2139879808,-4.0034430145,0.052152904
 5\C,0,-5.4555192614,0.5706223508,-0.8829897638\C,0,6.6549653755,-0.778
 1532849,0.8785587541\C,0,-3.6825357965,5.1948005386,0.3047049812\C,0,-
 2.2044099926,3.1407690379,-0.0347592457\C,0,-0.6103916303,6.448010471,
 0.9831273643\C,0,-4.3260821708,5.6541013668,-0.9915082423\H,0,-0.42324
 39093,0.4393908049,-0.2101707568\H,0,3.030010362,-1.1665547967,-0.8612
 2621\H,0,2.5998098623,-2.9020718038,-2.4008866358\H,0,1.3388048867,-3.
 9412082317,-2.9998083409\H,0,-5.4972514524,-2.2622548502,2.30450099\H,
 0,4.9325357661,-0.0012407427,-1.2070410514\H,0,5.8800765751,1.58255778
 39,-0.6926828429\H,0,-3.0082470424,0.0086486552,-0.7855189494\H,0,0.58
 67859092,1.8567955235,-0.4901864641\H,0,-1.5935040862,-4.7366382343,-1
 .1506845783\H,0,-2.503060417,-3.5271533017,-1.9773958727\H,0,-0.965611
 7411,-4.3424813169,-2.6329288822\H,0,-2.3048528716,-3.5912688576,0.593
 6820334\H,0,1.262137043,-5.0164143397,-0.6216275527\H,0,2.7345795624,-
 5.1975738643,-1.6721025922\H,0,4.5969549285,-0.9181729807,0.7020399401
 \H,0,5.2949638418,0.3863546742,1.7321210152\H,0,4.5168122068,4.7299334
 097,-0.2417655484\H,0,5.6554886406,3.300177551,0.0404698366\H,0,4.6449
 015228,4.1405995321,1.4736330802\H,0,1.6468654651,5.0032094983,0.63604
 46797\H,0,-7.8189434626,-2.802185302,1.4789691665\H,0,-6.967040768,-4.
 2442408062,1.7475205925\H,0,-7.139719669,-3.7335807742,0.0591780062\H,
 0,-6.8620307254,-0.441795088,0.3727052716\H,0,-4.9385728294,1.37005182
 61,-0.5203792992\H,0,-6.4541437918,0.7577548505,-1.4368079969\H,0,-4.8
 660459166,0.1857687391,-1.651521917\H,0,-3.429484934,6.04104851,0.9530
 321797\H,0,-4.3840098392,4.6432566576,0.8878548118\H,0,0.0620970652,6.
 1649170571,1.9342632679\H,0,-1.4601921295,6.8881522699,1.4483341851\H,
 0,0.112010369,6.7513874244,0.0917401311\H,0,-3.716909598,6.2766252882,
 -1.6238065832\H,0,-5.3469273999,6.155318648,-0.8251523924\H,0,-4.58648
 21251,4.8612662969,-1.6254920572\H,0,4.0882472252,-4.5683930518,1.5745
 382362\H,0,7.9118792125,-1.7220215912,2.0015775408\\Version=ES64L-G16R
 evA.03\State=1-A\HF=-1949.1287838\RMSD=6.889e-09\PG=C01 [X(C33H38N4O6)
 ]\\@


 THE 2ND LAW OF THERMODYNAMICS HAS THE SAME
 DEGREE OF TRUTH AS THE STATEMENT THAT IF YOU THROW
 A TUMBLERFULL OF WATER INTO THE SEA, YOU CANNOT GET
 THE SAME TUMBLERFULL OF WATER OUT AGAIN.
          - J.C. MAXWELL, LETTER TO LORD RAYLEIGH, DECEMBER 6,1870
 Job cpu time:       0 days  4 hours  9 minutes 45.8 seconds.
 Elapsed time:       0 days  2 hours 47 minutes 35.2 seconds.
 File lengths (MBytes):  RWF=   2591 Int=      0 D2E=      0 Chk=     65 Scr=      1
 Normal termination of Gaussian 16 at Tue Jul  2 20:03:42 2019.
