 Entering Gaussian System, Link 0=g16
 Input=Geometria-351-.com
 Output=Geometria-351-.log
 Initial command:
 /usr/local/g16/l1.exe "/home/padawan/israel-mol/phycocyanobilin/spectra/emi/Gau-26840.inp" -scrdir="/home/padawan/israel-mol/phycocyanobilin/spectra/emi/"
 Entering Link 1 = /usr/local/g16/l1.exe PID=     26842.
  
 Copyright (c) 1988,1990,1992,1993,1995,1998,2003,2009,2016,
            Gaussian, Inc.  All Rights Reserved.
  
 This is part of the Gaussian(R) 16 program.  It is based on
 the Gaussian(R) 09 system (copyright 2009, Gaussian, Inc.),
 the Gaussian(R) 03 system (copyright 2003, Gaussian, Inc.),
 the Gaussian(R) 98 system (copyright 1998, Gaussian, Inc.),
 the Gaussian(R) 94 system (copyright 1995, Gaussian, Inc.),
 the Gaussian 92(TM) system (copyright 1992, Gaussian, Inc.),
 the Gaussian 90(TM) system (copyright 1990, Gaussian, Inc.),
 the Gaussian 88(TM) system (copyright 1988, Gaussian, Inc.),
 the Gaussian 86(TM) system (copyright 1986, Carnegie Mellon
 University), and the Gaussian 82(TM) system (copyright 1983,
 Carnegie Mellon University). Gaussian is a federally registered
 trademark of Gaussian, Inc.
  
 This software contains proprietary and confidential information,
 including trade secrets, belonging to Gaussian, Inc.
  
 This software is provided under written license and may be
 used, copied, transmitted, or stored only in accord with that
 written license.
  
 The following legend is applicable only to US Government
 contracts under FAR:
  
                    RESTRICTED RIGHTS LEGEND
  
 Use, reproduction and disclosure by the US Government is
 subject to restrictions as set forth in subparagraphs (a)
 and (c) of the Commercial Computer Software - Restricted
 Rights clause in FAR 52.227-19.
  
 Gaussian, Inc.
 340 Quinnipiac St., Bldg. 40, Wallingford CT 06492
  
  
 ---------------------------------------------------------------
 Warning -- This program may not be used in any manner that
 competes with the business of Gaussian, Inc. or will provide
 assistance to any competitor of Gaussian, Inc.  The licensee
 of this program is prohibited from giving any competitor of
 Gaussian, Inc. access to this program.  By using this program,
 the user acknowledges that Gaussian, Inc. is engaged in the
 business of creating and licensing software in the field of
 computational chemistry and represents and warrants to the
 licensee that it is not a competitor of Gaussian, Inc. and that
 it will not use this program in any manner prohibited above.
 ---------------------------------------------------------------
  

 Cite this work as:
 Gaussian 16, Revision A.03,
 M. J. Frisch, G. W. Trucks, H. B. Schlegel, G. E. Scuseria, 
 M. A. Robb, J. R. Cheeseman, G. Scalmani, V. Barone, 
 G. A. Petersson, H. Nakatsuji, X. Li, M. Caricato, A. V. Marenich, 
 J. Bloino, B. G. Janesko, R. Gomperts, B. Mennucci, H. P. Hratchian, 
 J. V. Ortiz, A. F. Izmaylov, J. L. Sonnenberg, D. Williams-Young, 
 F. Ding, F. Lipparini, F. Egidi, J. Goings, B. Peng, A. Petrone, 
 T. Henderson, D. Ranasinghe, V. G. Zakrzewski, J. Gao, N. Rega, 
 G. Zheng, W. Liang, M. Hada, M. Ehara, K. Toyota, R. Fukuda, 
 J. Hasegawa, M. Ishida, T. Nakajima, Y. Honda, O. Kitao, H. Nakai, 
 T. Vreven, K. Throssell, J. A. Montgomery, Jr., J. E. Peralta, 
 F. Ogliaro, M. J. Bearpark, J. J. Heyd, E. N. Brothers, K. N. Kudin, 
 V. N. Staroverov, T. A. Keith, R. Kobayashi, J. Normand, 
 K. Raghavachari, A. P. Rendell, J. C. Burant, S. S. Iyengar, 
 J. Tomasi, M. Cossi, J. M. Millam, M. Klene, C. Adamo, R. Cammi, 
 J. W. Ochterski, R. L. Martin, K. Morokuma, O. Farkas, 
 J. B. Foresman, and D. J. Fox, Gaussian, Inc., Wallingford CT, 2016.
 
 ******************************************
 Gaussian 16:  ES64L-G16RevA.03 25-Dec-2016
                 1-Jul-2019 
 ******************************************
 %nproc=4
 Will use up to    4 processors via shared memory.
 %Mem=2GB
 --------------------------
 # td=(NStates=1) B3LYP/SVP
 --------------------------
 1/38=1,172=1/1;
 2/12=2,17=6,18=5,40=1/2;
 3/5=18,7=101,11=9,25=1,30=1,74=-5/1,2,3,8;
 4//1;
 5/5=2,38=5/2;
 8/6=1,10=1,108=1/1;
 9/41=1,42=1,70=2/14;
 6/7=2,8=2,9=2,10=2/1;
 99/5=1,9=1/99;
 --
 TD
 --
 Symbolic Z-matrix:
 Charge =  0 Multiplicity = 1
 8                    -4.25362  -4.8812    1.83604 
 8                     2.7451   -4.87382   1.15577 
 8                     7.14016  -1.40983   1.98569 
 8                     3.83692  -3.24157  -0.00411 
 8                     7.6158   -0.62091  -0.0648 
 8                    -3.0628    2.42712  -0.37445 
 7                    -0.24114  -0.60502  -0.52482 
 7                     1.52053   1.80142  -0.40135 
 7                    -3.32987  -3.21391   0.59993 
 7                    -0.72287   2.93855  -0.06426 
 6                     0.66929  -2.30902  -1.49856 
 6                     0.88149  -1.08733  -0.99604 
 6                    -0.73885  -2.58544  -1.32046 
 6                    -1.28804  -1.46498  -0.72055 
 6                     3.72608   1.55402  -0.26826 
 6                     2.47173   0.78426  -0.52865 
 6                     2.21102  -0.51693  -0.82238 
 6                     3.53654   2.86214   0.04394 
 6                     1.71207  -3.35532  -2.06055 
 6                    -5.54049  -2.71967   1.37424 
 6                    -3.61962  -1.93735   0.18676 
 6                     2.07765   3.05331   0.02144 
 6                    -4.96457  -1.71767   0.55611 
 6                     5.00434   0.88286  -0.37443 
 6                    -2.64512  -1.11238  -0.32533 
 6                    -1.46219  -3.81857  -1.8994 
 6                    -4.34206  -3.81794   1.324 
 6                     2.12894  -4.47864  -1.13679 
 6                     5.36902  -0.0133    0.84997 
 6                     4.50469   3.93244   0.45846 
 6                     1.2554    4.20496   0.30103 
 6                    -6.80089  -3.4102    0.83061 
 6                    -5.71632  -0.55912   0.22459 
 6                    -0.15598   4.11983   0.23466 
 6                    -1.14872   5.16378   0.4234 
 6                    -2.35479   4.67604   0.23755 
 6                     3.0644   -4.15034  -0.04298 
 6                    -5.40557   0.56071  -0.66799 
 6                     6.758    -0.6818    0.8403 
 6                    -3.69158   5.27315   0.25644 
 6                    -2.0957    3.17245  -0.04142 
 6                    -0.67009   6.58123   0.88799 
 6                    -4.2759    5.64106  -1.09789 
 1                    -0.52487   0.16429  -0.03583 
 1                     2.98485  -1.28061  -0.94292 
 1                     2.48632  -2.58147  -2.45848 
 1                     1.10382  -3.81818  -2.91906 
 1                    -5.71132  -2.3065    2.31772 
 1                     4.98007   0.19055  -1.41705 
 1                     5.67997   1.60555  -0.5717 
 1                    -3.06861  -0.0084   -0.4483 
 1                     0.44327   1.86961  -0.68175 
 1                    -1.15492  -4.82606  -1.24207 
 1                    -2.57858  -3.73422  -1.7376 
 1                    -1.06648  -4.07778  -2.95227 
 1                    -2.45996  -3.70289   0.67954 
 1                     1.24043  -4.95065  -0.73955 
 1                     2.63731  -5.36245  -1.66748 
 1                     4.78847  -1.09668   0.98665 
 1                     5.26497   0.56932   1.97823 
 1                     4.06681   5.02817   0.11393 
 1                     5.59964   3.61065  -0.41077 
 1                     4.68289   3.80594   1.65569 
 1                     1.95552   4.88178   0.85148 
 1                    -7.77353  -2.79127   1.00737 
 1                    -7.00103  -4.26148   1.49023 
 1                    -6.6901   -3.68726  -0.12545 
 1                    -6.71813  -0.5221    1.00104 
 1                    -4.71364   1.42606  -0.31654 
 1                    -6.56589   0.96078  -0.7689 
 1                    -4.64098   0.42445  -1.43129 
 1                    -3.53299   6.19128   1.0034 
 1                    -4.24362   4.66668   0.79001 
 1                    -0.15639   6.55935   1.89947 
 1                    -1.60682   7.35214   1.06857 
 1                    -0.0555    7.11191  -0.0326 
 1                    -3.55265   6.55264  -1.60087 
 1                    -5.26907   5.82749  -0.95584 
 1                    -4.31483   4.66192  -1.65605 
 1                     3.19685  -4.55946   2.03135 
 1                     8.1799   -1.6911    1.54339 
 
 Stoichiometry    C33H38N4O6
 Framework group  C1[X(C33H38N4O6)]
 Deg. of freedom   237
 Full point group                 C1      NOp   1
 Largest Abelian subgroup         C1      NOp   1
 Largest concise Abelian subgroup C1      NOp   1
                         Standard orientation:                         
 ---------------------------------------------------------------------
 Center     Atomic      Atomic             Coordinates (Angstroms)
 Number     Number       Type             X           Y           Z
 ---------------------------------------------------------------------
      1          8           0        4.288306   -4.847505   -1.840623
      2          8           0       -2.711718   -4.889351   -1.175230
      3          8           0       -7.128287   -1.452555   -2.004034
      4          8           0       -3.816966   -3.268028   -0.012747
      5          8           0       -7.613559   -0.673090    0.047817
      6          8           0        3.043564    2.445885    0.389393
      7          7           0        0.242110   -0.605650    0.524598
      8          7           0       -1.535490    1.789232    0.404652
      9          7           0        3.350735   -3.190237   -0.601449
     10          7           0        0.700895    2.942467    0.075772
     11          6           0       -0.658855   -2.318689    1.491249
     12          6           0       -0.878234   -1.096934    0.991968
     13          6           0        0.751486   -2.585069    1.315314
     14          6           0        1.294370   -1.459118    0.719958
     15          6           0       -3.739037    1.527377    0.266122
     16          6           0       -2.480072    0.765303    0.526850
     17          6           0       -2.211208   -0.534985    0.817206
     18          6           0       -3.557671    2.837684   -0.041725
     19          6           0       -1.695739   -3.373692    2.047857
     20          6           0        5.559596   -2.678758   -1.369565
     21          6           0        3.630987   -1.913010   -0.183817
     22          6           0       -2.100152    3.038611   -0.015540
     23          6           0        4.975203   -1.683153   -0.549634
     24          6           0       -5.012956    0.847304    0.367539
     25          6           0        2.649871   -1.096185    0.328692
     26          6           0        1.481904   -3.815052    1.892060
     27          6           0        4.368500   -3.785225   -1.325186
     28          6           0       -2.103076   -4.496986    1.119822
     29          6           0       -5.369001   -0.047576   -0.860330
     30          6           0       -4.532135    3.902688   -0.455064
     31          6           0       -1.285104    4.196620   -0.289902
     32          6           0        6.823479   -3.362423   -0.825340
     33          6           0        5.718423   -0.520576   -0.213016
     34          6           0        0.126683    4.120807   -0.220779
     35          6           0        1.112751    5.171995   -0.404257
     36          6           0        2.321694    4.691828   -0.217314
     37          6           0       -3.038421   -4.171680    0.025014
     38          6           0        5.398249    0.594424    0.682277
     39          6           0       -6.753457   -0.725452   -0.855643
     40          6           0        3.654454    5.297987   -0.231556
     41          6           0        2.072159    3.185689    0.056560
     42          6           0        0.625548    6.587591   -0.865578
     43          6           0        4.233424    5.665716    1.125118
     44          1           0        0.521677    0.167043    0.038543
     45          1           0       -2.980121   -1.304223    0.933794
     46          1           0       -2.476025   -2.606291    2.446473
     47          1           0       -1.086190   -3.835044    2.906254
     48          1           0        5.729623   -2.261586   -2.311424
     49          1           0       -4.986218    0.152007    1.408117
     50          1           0       -5.693860    1.564819    0.565557
     51          1           0        3.065648    0.010242    0.455893
     52          1           0       -0.459309    1.863825    0.687542
     53          1           0        1.182828   -4.822586    1.231040
     54          1           0        2.598041   -3.722693    1.732893
     55          1           0        1.085740   -4.080121    2.943298
     56          1           0        2.484307   -3.684822   -0.684391
     57          1           0       -1.210568   -4.961791    0.723046
     58          1           0       -2.606586   -5.385812    1.646756
     59          1           0       -4.780878   -1.126600   -0.999048
     60          1           0       -5.266511    0.539156   -1.986599
     61          1           0       -4.102384    5.000301   -0.106297
     62          1           0       -5.626725    3.570892    0.410851
     63          1           0       -4.706953    3.778625   -1.653051
     64          1           0       -1.988604    4.870376   -0.839787
     65          1           0        7.792286   -2.736427   -0.998159
     66          1           0        7.030746   -4.210336   -1.487104
     67          1           0        6.712545   -3.643125    0.129643
     68          1           0        6.721590   -0.474450   -0.987216
     69          1           0        4.701236    1.456150    0.331972
     70          1           0        6.555629    1.001990    0.786867
     71          1           0        4.632987    0.450699    1.443535
     72          1           0        3.491248    6.217295   -0.976072
     73          1           0        4.211695    4.696874   -0.765775
     74          1           0        0.114147    6.565313   -1.878212
     75          1           0        1.557434    7.365336   -1.041833
     76          1           0        0.005452    7.111320    0.055302
     77          1           0        3.502989    6.570873    1.629315
     78          1           0        5.225613    5.859261    0.985742
     79          1           0        4.277789    4.685167    1.680396
     80          1           0       -3.163731   -4.575390   -2.050820
     81          1           0       -8.167032   -1.742167   -1.564800
 ---------------------------------------------------------------------
 Rotational constants (GHZ):           0.0746513           0.0551230           0.0339678
 Standard basis: SVP (5D, 7F)
 There are   835 symmetry adapted cartesian basis functions of A   symmetry.
 There are   792 symmetry adapted basis functions of A   symmetry.
   792 basis functions,  1341 primitive gaussians,   835 cartesian basis functions
   156 alpha electrons      156 beta electrons
       nuclear repulsion energy      5030.9761490826 Hartrees.
 NAtoms=   81 NActive=   81 NUniq=   81 SFac= 1.00D+00 NAtFMM=   60 NAOKFM=T Big=T
 Integral buffers will be    131072 words long.
 Regular integral format.
 Two-electron integral symmetry is turned on.
 One-electron integrals computed using PRISM.
 NBasis=   792 RedAO= T EigKep=  2.97D-04  NBF=   792
 NBsUse=   792 1.00D-06 EigRej= -1.00D+00 NBFU=   792
 ExpMin= 1.22D-01 ExpMax= 2.27D+03 ExpMxC= 3.41D+02 IAcc=3 IRadAn=         5 AccDes= 0.00D+00
 Harris functional with IExCor=  402 and IRadAn=       5 diagonalized for initial guess.
 HarFok:  IExCor=  402 AccDes= 0.00D+00 IRadAn=         5 IDoV= 1 UseB2=F ITyADJ=14
 ICtDFT=  3500011 ScaDFX=  1.000000  1.000000  1.000000  1.000000
 FoFCou: FMM=F IPFlag=           0 FMFlag=      100000 FMFlg1=        2001
         NFxFlg=           0 DoJE=T BraDBF=F KetDBF=T FulRan=T
         wScrn=  0.000000 ICntrl=       500 IOpCl=  0 I1Cent=   200000004 NGrid=           0
         NMat0=    1 NMatS0=      1 NMatT0=    0 NMatD0=    1 NMtDS0=    0 NMtDT0=    0
 Petite list used in FoFCou.
 Requested convergence on RMS density matrix=1.00D-08 within 128 cycles.
 Requested convergence on MAX density matrix=1.00D-06.
 Requested convergence on             energy=1.00D-06.
 No special actions if energy rises.
 Integral accuracy reduced to 1.0D-05 until final iterations.
 Initial convergence to 1.0D-05 achieved.  Increase integral accuracy.
 SCF Done:  E(RB3LYP) =  -1948.98289975     A.U. after   16 cycles
            NFock= 16  Conv=0.70D-08     -V/T= 2.0113
 DoSCS=F DFT=T ScalE2(SS,OS)=  1.000000  1.000000
 ExpMin= 1.22D-01 ExpMax= 2.27D+03 ExpMxC= 3.41D+02 IAcc=3 IRadAn=         5 AccDes= 0.00D+00
 HarFok:  IExCor=  205 AccDes= 0.00D+00 IRadAn=         5 IDoV=-2 UseB2=F ITyADJ=14
 ICtDFT= 12500011 ScaDFX=  1.000000  1.000000  1.000000  1.000000
 GSVD:  LWork=       -2193 too small for GESVD, short by        9890 words or        9890 for optimal perf.
 Range of M.O.s used for correlation:    44   792
 NBasis=   792 NAE=   156 NBE=   156 NFC=    43 NFV=     0
 NROrb=    749 NOA=   113 NOB=   113 NVA=   636 NVB=   636

 **** Warning!!: The smallest alpha delta epsilon is  0.69576267D-01

 Orbital symmetries:
       Occupied  (A) (A) (A) (A) (A) (A) (A) (A) (A) (A) (A) (A)
                 (A) (A) (A) (A) (A) (A) (A) (A) (A) (A) (A) (A)
                 (A) (A) (A) (A) (A) (A) (A) (A) (A) (A) (A) (A)
                 (A) (A) (A) (A) (A) (A) (A) (A) (A) (A) (A) (A)
                 (A) (A) (A) (A) (A) (A) (A) (A) (A) (A) (A) (A)
                 (A) (A) (A) (A) (A) (A) (A) (A) (A) (A) (A) (A)
                 (A) (A) (A) (A) (A) (A) (A) (A) (A) (A) (A) (A)
                 (A) (A) (A) (A) (A) (A) (A) (A) (A) (A) (A) (A)
                 (A) (A) (A) (A) (A) (A) (A) (A) (A) (A) (A) (A)
                 (A) (A) (A) (A) (A) (A) (A) (A) (A) (A) (A) (A)
                 (A) (A) (A) (A) (A) (A) (A) (A) (A) (A) (A) (A)
                 (A) (A) (A) (A) (A) (A) (A) (A) (A) (A) (A) (A)
                 (A) (A) (A) (A) (A) (A) (A) (A) (A) (A) (A) (A)
       Virtual   (A) (A) (A) (A) (A) (A) (A) (A) (A) (A) (A) (A)
                 (A) (A) (A) (A) (A) (A) (A) (A) (A) (A) (A) (A)
                 (A) (A) (A) (A) (A) (A) (A) (A) (A) (A) (A) (A)
                 (A) (A) (A) (A) (A) (A) (A) (A) (A) (A) (A) (A)
                 (A) (A) (A) (A) (A) (A) (A) (A) (A) (A) (A) (A)
                 (A) (A) (A) (A) (A) (A) (A) (A) (A) (A) (A) (A)
                 (A) (A) (A) (A) (A) (A) (A) (A) (A) (A) (A) (A)
                 (A) (A) (A) (A) (A) (A) (A) (A) (A) (A) (A) (A)
                 (A) (A) (A) (A) (A) (A) (A) (A) (A) (A) (A) (A)
                 (A) (A) (A) (A) (A) (A) (A) (A) (A) (A) (A) (A)
                 (A) (A) (A) (A) (A) (A) (A) (A) (A) (A) (A) (A)
                 (A) (A) (A) (A) (A) (A) (A) (A) (A) (A) (A) (A)
                 (A) (A) (A) (A) (A) (A) (A) (A) (A) (A) (A) (A)
                 (A) (A) (A) (A) (A) (A) (A) (A) (A) (A) (A) (A)
                 (A) (A) (A) (A) (A) (A) (A) (A) (A) (A) (A) (A)
                 (A) (A) (A) (A) (A) (A) (A) (A) (A) (A) (A) (A)
                 (A) (A) (A) (A) (A) (A) (A) (A) (A) (A) (A) (A)
                 (A) (A) (A) (A) (A) (A) (A) (A) (A) (A) (A) (A)
                 (A) (A) (A) (A) (A) (A) (A) (A) (A) (A) (A) (A)
                 (A) (A) (A) (A) (A) (A) (A) (A) (A) (A) (A) (A)
                 (A) (A) (A) (A) (A) (A) (A) (A) (A) (A) (A) (A)
                 (A) (A) (A) (A) (A) (A) (A) (A) (A) (A) (A) (A)
                 (A) (A) (A) (A) (A) (A) (A) (A) (A) (A) (A) (A)
                 (A) (A) (A) (A) (A) (A) (A) (A) (A) (A) (A) (A)
                 (A) (A) (A) (A) (A) (A) (A) (A) (A) (A) (A) (A)
                 (A) (A) (A) (A) (A) (A) (A) (A) (A) (A) (A) (A)
                 (A) (A) (A) (A) (A) (A) (A) (A) (A) (A) (A) (A)
                 (A) (A) (A) (A) (A) (A) (A) (A) (A) (A) (A) (A)
                 (A) (A) (A) (A) (A) (A) (A) (A) (A) (A) (A) (A)
                 (A) (A) (A) (A) (A) (A) (A) (A) (A) (A) (A) (A)
                 (A) (A) (A) (A) (A) (A) (A) (A) (A) (A) (A) (A)
                 (A) (A) (A) (A) (A) (A) (A) (A) (A) (A) (A) (A)
                 (A) (A) (A) (A) (A) (A) (A) (A) (A) (A) (A) (A)
                 (A) (A) (A) (A) (A) (A) (A) (A) (A) (A) (A) (A)
                 (A) (A) (A) (A) (A) (A) (A) (A) (A) (A) (A) (A)
                 (A) (A) (A) (A) (A) (A) (A) (A) (A) (A) (A) (A)
                 (A) (A) (A) (A) (A) (A) (A) (A) (A) (A) (A) (A)
                 (A) (A) (A) (A) (A) (A) (A) (A) (A) (A) (A) (A)
                 (A) (A) (A) (A) (A) (A) (A) (A) (A) (A) (A) (A)
                 (A) (A) (A) (A) (A) (A) (A) (A) (A) (A) (A) (A)
                 (A) (A) (A) (A) (A) (A) (A) (A) (A) (A) (A) (A)
                 (A) (A) (A) (A) (A) (A) (A) (A) (A) (A) (A) (A)
                 (A) (A) (A) (A) (A) (A) (A) (A) (A) (A) (A) (A)
                 (A) (A) (A) (A) (A) (A) (A) (A) (A) (A) (A) (A)
                 (A) (A) (A) (A) (A) (A) (A) (A) (A) (A) (A) (A)
                 (A) (A) (A) (A) (A) (A) (A) (A) (A) (A) (A) (A)
                 (A) (A) (A) (A) (A) (A) (A) (A) (A) (A) (A) (A)
                 (A) (A) (A) (A) (A) (A) (A) (A) (A) (A) (A) (A)
                 (A) (A) (A) (A) (A) (A) (A) (A) (A) (A) (A) (A)
                 (A) (A) (A) (A) (A) (A) (A) (A) (A) (A) (A) (A)
                 (A) (A) (A) (A) (A) (A) (A) (A) (A) (A) (A) (A)
                 (A) (A) (A) (A) (A) (A) (A) (A) (A) (A) (A) (A)
                 (A) (A) (A) (A) (A) (A) (A) (A) (A) (A) (A) (A)
     4 initial guesses have been made.
 Convergence on wavefunction:    0.001000000000000
 Iteration     1 Dimension     4 NMult     0 NNew      4
 CISAX will form     4 AO SS matrices at one time.
 Iteration     2 Dimension     6 NMult     4 NNew      2
 Iteration     3 Dimension     8 NMult     6 NNew      2
 Iteration     4 Dimension    10 NMult     8 NNew      2
 Iteration     5 Dimension    12 NMult    10 NNew      2
 Iteration     6 Dimension    14 NMult    12 NNew      2
 ***********************************************************************
 Excited states from <AA,BB:AA,BB> singles matrix:
 ***********************************************************************
 
 Ground to excited state transition densities written to RWF  633
 Ground to excited state transition electric dipole moments (Au):
       state          X           Y           Z        Dip. S.      Osc.
         1         1.0261     -1.9916      0.1177      5.0335      0.1983
 Ground to excited state transition velocity dipole moments (Au):
       state          X           Y           Z        Dip. S.      Osc.
         1        -0.0614      0.1130     -0.0078      0.0166      0.1873
 Ground to excited state transition magnetic dipole moments (Au):
       state          X           Y           Z
         1        -0.2361     -0.4204     -2.0628
 Ground to excited state transition velocity quadrupole moments (Au):
       state          XX          YY          ZZ          XY          XZ          YZ
         1        -0.3365      0.4001     -0.0459      0.2897      0.0434     -0.0056
 <0|del|b> * <b|rxdel|0> + <0|del|b> * <b|delr+rdel|0>
 Rotatory Strengths (R) in cgs (10**-40 erg-esu-cm/Gauss)
       state          XX          YY          ZZ    R(velocity)    E-M Angle
         1      -231.2056    198.1155   -170.2806    -67.7902       93.57
 1/2[<0|r|b>*<b|rxdel|0> + (<0|rxdel|b>*<b|r|0>)*]
 Rotatory Strengths (R) in cgs (10**-40 erg-esu-cm/Gauss)
       state          XX          YY          ZZ     R(length)
         1       171.3148   -592.0377    171.7488    -82.9914
  1/2[<0|del|b>*<b|r|0> + (<0|r|b>*<b|del|0>)*] (Au)
       state          X           Y           Z        Dip. S.   Osc.(frdel)
         1        -0.0630     -0.2251     -0.0009      0.2890      0.1927

 Excitation energies and oscillator strengths:
 
 Excited State   1:      Singlet-A      1.6078 eV  771.13 nm  f=0.1983  <S**2>=0.000
     156 ->157         0.70536
 This state for optimization and/or second-order correction.
 Total Energy, E(TD-HF/TD-DFT) =  -1948.92381334    
 Copying the excited state density for this state as the 1-particle RhoCI density.
 SavETr:  write IOETrn=   770 NScale= 10 NData=  16 NLR=1 NState=    1 LETran=      28.

 **********************************************************************

            Population analysis using the SCF density.

 **********************************************************************

 Orbital symmetries:
       Occupied  (A) (A) (A) (A) (A) (A) (A) (A) (A) (A) (A) (A)
                 (A) (A) (A) (A) (A) (A) (A) (A) (A) (A) (A) (A)
                 (A) (A) (A) (A) (A) (A) (A) (A) (A) (A) (A) (A)
                 (A) (A) (A) (A) (A) (A) (A) (A) (A) (A) (A) (A)
                 (A) (A) (A) (A) (A) (A) (A) (A) (A) (A) (A) (A)
                 (A) (A) (A) (A) (A) (A) (A) (A) (A) (A) (A) (A)
                 (A) (A) (A) (A) (A) (A) (A) (A) (A) (A) (A) (A)
                 (A) (A) (A) (A) (A) (A) (A) (A) (A) (A) (A) (A)
                 (A) (A) (A) (A) (A) (A) (A) (A) (A) (A) (A) (A)
                 (A) (A) (A) (A) (A) (A) (A) (A) (A) (A) (A) (A)
                 (A) (A) (A) (A) (A) (A) (A) (A) (A) (A) (A) (A)
                 (A) (A) (A) (A) (A) (A) (A) (A) (A) (A) (A) (A)
                 (A) (A) (A) (A) (A) (A) (A) (A) (A) (A) (A) (A)
       Virtual   (A) (A) (A) (A) (A) (A) (A) (A) (A) (A) (A) (A)
                 (A) (A) (A) (A) (A) (A) (A) (A) (A) (A) (A) (A)
                 (A) (A) (A) (A) (A) (A) (A) (A) (A) (A) (A) (A)
                 (A) (A) (A) (A) (A) (A) (A) (A) (A) (A) (A) (A)
                 (A) (A) (A) (A) (A) (A) (A) (A) (A) (A) (A) (A)
                 (A) (A) (A) (A) (A) (A) (A) (A) (A) (A) (A) (A)
                 (A) (A) (A) (A) (A) (A) (A) (A) (A) (A) (A) (A)
                 (A) (A) (A) (A) (A) (A) (A) (A) (A) (A) (A) (A)
                 (A) (A) (A) (A) (A) (A) (A) (A) (A) (A) (A) (A)
                 (A) (A) (A) (A) (A) (A) (A) (A) (A) (A) (A) (A)
                 (A) (A) (A) (A) (A) (A) (A) (A) (A) (A) (A) (A)
                 (A) (A) (A) (A) (A) (A) (A) (A) (A) (A) (A) (A)
                 (A) (A) (A) (A) (A) (A) (A) (A) (A) (A) (A) (A)
                 (A) (A) (A) (A) (A) (A) (A) (A) (A) (A) (A) (A)
                 (A) (A) (A) (A) (A) (A) (A) (A) (A) (A) (A) (A)
                 (A) (A) (A) (A) (A) (A) (A) (A) (A) (A) (A) (A)
                 (A) (A) (A) (A) (A) (A) (A) (A) (A) (A) (A) (A)
                 (A) (A) (A) (A) (A) (A) (A) (A) (A) (A) (A) (A)
                 (A) (A) (A) (A) (A) (A) (A) (A) (A) (A) (A) (A)
                 (A) (A) (A) (A) (A) (A) (A) (A) (A) (A) (A) (A)
                 (A) (A) (A) (A) (A) (A) (A) (A) (A) (A) (A) (A)
                 (A) (A) (A) (A) (A) (A) (A) (A) (A) (A) (A) (A)
                 (A) (A) (A) (A) (A) (A) (A) (A) (A) (A) (A) (A)
                 (A) (A) (A) (A) (A) (A) (A) (A) (A) (A) (A) (A)
                 (A) (A) (A) (A) (A) (A) (A) (A) (A) (A) (A) (A)
                 (A) (A) (A) (A) (A) (A) (A) (A) (A) (A) (A) (A)
                 (A) (A) (A) (A) (A) (A) (A) (A) (A) (A) (A) (A)
                 (A) (A) (A) (A) (A) (A) (A) (A) (A) (A) (A) (A)
                 (A) (A) (A) (A) (A) (A) (A) (A) (A) (A) (A) (A)
                 (A) (A) (A) (A) (A) (A) (A) (A) (A) (A) (A) (A)
                 (A) (A) (A) (A) (A) (A) (A) (A) (A) (A) (A) (A)
                 (A) (A) (A) (A) (A) (A) (A) (A) (A) (A) (A) (A)
                 (A) (A) (A) (A) (A) (A) (A) (A) (A) (A) (A) (A)
                 (A) (A) (A) (A) (A) (A) (A) (A) (A) (A) (A) (A)
                 (A) (A) (A) (A) (A) (A) (A) (A) (A) (A) (A) (A)
                 (A) (A) (A) (A) (A) (A) (A) (A) (A) (A) (A) (A)
                 (A) (A) (A) (A) (A) (A) (A) (A) (A) (A) (A) (A)
                 (A) (A) (A) (A) (A) (A) (A) (A) (A) (A) (A) (A)
                 (A) (A) (A) (A) (A) (A) (A) (A) (A) (A) (A) (A)
                 (A) (A) (A) (A) (A) (A) (A) (A) (A) (A) (A) (A)
                 (A) (A) (A) (A) (A) (A) (A) (A) (A) (A) (A) (A)
                 (A) (A) (A) (A) (A) (A) (A) (A) (A) (A) (A) (A)
                 (A) (A) (A) (A) (A) (A) (A) (A) (A) (A) (A) (A)
                 (A) (A) (A) (A) (A) (A) (A) (A) (A) (A) (A) (A)
                 (A) (A) (A) (A) (A) (A) (A) (A) (A) (A) (A) (A)
                 (A) (A) (A) (A) (A) (A) (A) (A) (A) (A) (A) (A)
                 (A) (A) (A) (A) (A) (A) (A) (A) (A) (A) (A) (A)
                 (A) (A) (A) (A) (A) (A) (A) (A) (A) (A) (A) (A)
                 (A) (A) (A) (A) (A) (A) (A) (A) (A) (A) (A) (A)
                 (A) (A) (A) (A) (A) (A) (A) (A) (A) (A) (A) (A)
                 (A) (A) (A) (A) (A) (A) (A) (A) (A) (A) (A) (A)
                 (A) (A) (A) (A) (A) (A) (A) (A) (A) (A) (A) (A)
                 (A) (A) (A) (A) (A) (A) (A) (A) (A) (A) (A) (A)
 The electronic state is 1-A.
 Alpha  occ. eigenvalues --  -19.17972 -19.17657 -19.15064 -19.12806 -19.11684
 Alpha  occ. eigenvalues --  -19.11465 -14.36869 -14.36255 -14.35847 -14.30293
 Alpha  occ. eigenvalues --  -10.33795 -10.32530 -10.28840 -10.27961 -10.25691
 Alpha  occ. eigenvalues --  -10.25456 -10.24796 -10.24108 -10.23913 -10.23692
 Alpha  occ. eigenvalues --  -10.22733 -10.22712 -10.22540 -10.22411 -10.22385
 Alpha  occ. eigenvalues --  -10.21794 -10.21698 -10.21491 -10.21356 -10.21319
 Alpha  occ. eigenvalues --  -10.21152 -10.20375 -10.19907 -10.19490 -10.19320
 Alpha  occ. eigenvalues --  -10.19138 -10.18990 -10.18958 -10.18920 -10.18889
 Alpha  occ. eigenvalues --  -10.18631 -10.18558 -10.18181  -1.08983  -1.06300
 Alpha  occ. eigenvalues --   -1.05235  -1.00788  -1.00507  -0.99851  -0.96596
 Alpha  occ. eigenvalues --   -0.96271  -0.95941  -0.93078  -0.82709  -0.82503
 Alpha  occ. eigenvalues --   -0.82309  -0.81407  -0.80695  -0.78774  -0.78571
 Alpha  occ. eigenvalues --   -0.76553  -0.76244  -0.75405  -0.74091  -0.72480
 Alpha  occ. eigenvalues --   -0.70762  -0.69703  -0.68921  -0.68350  -0.67830
 Alpha  occ. eigenvalues --   -0.66908  -0.65187  -0.63326  -0.63202  -0.62239
 Alpha  occ. eigenvalues --   -0.60468  -0.59722  -0.58340  -0.56297  -0.56015
 Alpha  occ. eigenvalues --   -0.55929  -0.55427  -0.53775  -0.53297  -0.52995
 Alpha  occ. eigenvalues --   -0.52396  -0.52309  -0.51911  -0.49891  -0.49083
 Alpha  occ. eigenvalues --   -0.48860  -0.48466  -0.48107  -0.47613  -0.47410
 Alpha  occ. eigenvalues --   -0.46899  -0.46239  -0.45746  -0.45670  -0.45274
 Alpha  occ. eigenvalues --   -0.45051  -0.44636  -0.44356  -0.44040  -0.43530
 Alpha  occ. eigenvalues --   -0.43450  -0.43190  -0.42736  -0.42469  -0.42195
 Alpha  occ. eigenvalues --   -0.42053  -0.41419  -0.41288  -0.40850  -0.40766
 Alpha  occ. eigenvalues --   -0.40135  -0.40020  -0.39823  -0.39512  -0.39134
 Alpha  occ. eigenvalues --   -0.38972  -0.38726  -0.38574  -0.38271  -0.38070
 Alpha  occ. eigenvalues --   -0.37857  -0.37602  -0.37128  -0.36797  -0.36632
 Alpha  occ. eigenvalues --   -0.36256  -0.35957  -0.35491  -0.35368  -0.34683
 Alpha  occ. eigenvalues --   -0.34273  -0.34027  -0.33902  -0.33500  -0.33059
 Alpha  occ. eigenvalues --   -0.32889  -0.32758  -0.30894  -0.30237  -0.29843
 Alpha  occ. eigenvalues --   -0.28755  -0.27673  -0.26484  -0.25865  -0.25774
 Alpha  occ. eigenvalues --   -0.25177  -0.24889  -0.24220  -0.23754  -0.21681
 Alpha  occ. eigenvalues --   -0.18178
 Alpha virt. eigenvalues --   -0.11220  -0.06072  -0.04706  -0.02454  -0.00943
 Alpha virt. eigenvalues --   -0.00012   0.00377   0.01460   0.02393   0.02872
 Alpha virt. eigenvalues --    0.03337   0.03403   0.03652   0.04571   0.04817
 Alpha virt. eigenvalues --    0.04990   0.05628   0.06379   0.06703   0.07087
 Alpha virt. eigenvalues --    0.07620   0.07877   0.08088   0.08327   0.08481
 Alpha virt. eigenvalues --    0.08956   0.09258   0.09693   0.10467   0.10498
 Alpha virt. eigenvalues --    0.10706   0.11041   0.11385   0.11635   0.11883
 Alpha virt. eigenvalues --    0.11945   0.12470   0.13288   0.13358   0.14021
 Alpha virt. eigenvalues --    0.14325   0.14592   0.14813   0.15218   0.15700
 Alpha virt. eigenvalues --    0.15962   0.16140   0.16447   0.16937   0.17125
 Alpha virt. eigenvalues --    0.18023   0.18141   0.18566   0.19136   0.19291
 Alpha virt. eigenvalues --    0.19580   0.19793   0.20411   0.20795   0.21408
 Alpha virt. eigenvalues --    0.22012   0.22199   0.22832   0.23077   0.23281
 Alpha virt. eigenvalues --    0.23582   0.23863   0.24925   0.25427   0.25676
 Alpha virt. eigenvalues --    0.25909   0.26311   0.26536   0.27278   0.28073
 Alpha virt. eigenvalues --    0.28570   0.29105   0.29696   0.30169   0.30516
 Alpha virt. eigenvalues --    0.30947   0.31421   0.31856   0.32025   0.32888
 Alpha virt. eigenvalues --    0.33211   0.33817   0.35071   0.35213   0.35872
 Alpha virt. eigenvalues --    0.36538   0.36743   0.37355   0.37683   0.38149
 Alpha virt. eigenvalues --    0.38607   0.38967   0.39744   0.39861   0.40848
 Alpha virt. eigenvalues --    0.41251   0.41505   0.42302   0.42375   0.42634
 Alpha virt. eigenvalues --    0.42963   0.43188   0.43729   0.43928   0.44122
 Alpha virt. eigenvalues --    0.44866   0.44894   0.45160   0.45641   0.46074
 Alpha virt. eigenvalues --    0.46502   0.46752   0.47204   0.47484   0.47665
 Alpha virt. eigenvalues --    0.47979   0.48208   0.48417   0.49093   0.49815
 Alpha virt. eigenvalues --    0.49906   0.50324   0.50667   0.50763   0.50930
 Alpha virt. eigenvalues --    0.51151   0.51563   0.51852   0.52108   0.52308
 Alpha virt. eigenvalues --    0.52597   0.53509   0.53883   0.54243   0.54621
 Alpha virt. eigenvalues --    0.55099   0.55337   0.55602   0.55832   0.56121
 Alpha virt. eigenvalues --    0.56422   0.56568   0.57398   0.57633   0.58175
 Alpha virt. eigenvalues --    0.58339   0.58517   0.59158   0.59452   0.59703
 Alpha virt. eigenvalues --    0.59914   0.60077   0.60353   0.60686   0.60778
 Alpha virt. eigenvalues --    0.61177   0.61474   0.61626   0.61955   0.62135
 Alpha virt. eigenvalues --    0.62624   0.62859   0.62896   0.63359   0.63516
 Alpha virt. eigenvalues --    0.63661   0.63910   0.64306   0.64598   0.64735
 Alpha virt. eigenvalues --    0.64840   0.64991   0.65307   0.65778   0.66059
 Alpha virt. eigenvalues --    0.66316   0.66332   0.66627   0.67012   0.67410
 Alpha virt. eigenvalues --    0.67572   0.68220   0.68448   0.68586   0.68850
 Alpha virt. eigenvalues --    0.69150   0.69556   0.69819   0.69965   0.70108
 Alpha virt. eigenvalues --    0.70270   0.70741   0.71145   0.71205   0.71500
 Alpha virt. eigenvalues --    0.72083   0.72194   0.72426   0.72908   0.73232
 Alpha virt. eigenvalues --    0.73494   0.73894   0.74248   0.74507   0.74834
 Alpha virt. eigenvalues --    0.75666   0.75990   0.76577   0.77197   0.77667
 Alpha virt. eigenvalues --    0.78206   0.78441   0.78868   0.79310   0.79778
 Alpha virt. eigenvalues --    0.80090   0.80684   0.81574   0.82112   0.82818
 Alpha virt. eigenvalues --    0.83033   0.83725   0.84098   0.84771   0.85207
 Alpha virt. eigenvalues --    0.85742   0.86131   0.86995   0.87968   0.88571
 Alpha virt. eigenvalues --    0.88843   0.90318   0.90455   0.91196   0.91282
 Alpha virt. eigenvalues --    0.92181   0.92524   0.92986   0.93952   0.94342
 Alpha virt. eigenvalues --    0.94980   0.95536   0.95921   0.96340   0.97108
 Alpha virt. eigenvalues --    0.97872   0.98102   0.98980   0.99413   0.99873
 Alpha virt. eigenvalues --    1.00775   1.00885   1.01526   1.01965   1.02405
 Alpha virt. eigenvalues --    1.03166   1.03957   1.05138   1.05663   1.05945
 Alpha virt. eigenvalues --    1.07492   1.08542   1.09312   1.09867   1.10324
 Alpha virt. eigenvalues --    1.10941   1.11163   1.12012   1.12257   1.13382
 Alpha virt. eigenvalues --    1.14132   1.15319   1.15517   1.16066   1.16394
 Alpha virt. eigenvalues --    1.17712   1.18171   1.19272   1.19680   1.20001
 Alpha virt. eigenvalues --    1.20160   1.21061   1.21752   1.23022   1.23198
 Alpha virt. eigenvalues --    1.23981   1.24385   1.25193   1.25963   1.26738
 Alpha virt. eigenvalues --    1.27192   1.28287   1.28539   1.29018   1.29403
 Alpha virt. eigenvalues --    1.30022   1.30827   1.31703   1.32282   1.32661
 Alpha virt. eigenvalues --    1.34361   1.34692   1.35127   1.35586   1.36587
 Alpha virt. eigenvalues --    1.36677   1.37724   1.38097   1.39100   1.39915
 Alpha virt. eigenvalues --    1.39981   1.40817   1.41462   1.41854   1.42292
 Alpha virt. eigenvalues --    1.42831   1.43080   1.43928   1.44607   1.44982
 Alpha virt. eigenvalues --    1.45370   1.46129   1.46659   1.47032   1.47423
 Alpha virt. eigenvalues --    1.47682   1.47844   1.48309   1.49258   1.49500
 Alpha virt. eigenvalues --    1.50184   1.50837   1.51201   1.51567   1.51907
 Alpha virt. eigenvalues --    1.52677   1.52703   1.53314   1.53562   1.54298
 Alpha virt. eigenvalues --    1.54624   1.55571   1.55879   1.56722   1.57570
 Alpha virt. eigenvalues --    1.58212   1.59264   1.59698   1.60204   1.60931
 Alpha virt. eigenvalues --    1.61235   1.61910   1.62513   1.62788   1.63184
 Alpha virt. eigenvalues --    1.63867   1.64699   1.65052   1.65593   1.65936
 Alpha virt. eigenvalues --    1.66443   1.66592   1.67066   1.67252   1.67498
 Alpha virt. eigenvalues --    1.68093   1.68277   1.68988   1.69109   1.69355
 Alpha virt. eigenvalues --    1.69898   1.70297   1.70802   1.71221   1.71400
 Alpha virt. eigenvalues --    1.72479   1.72780   1.73144   1.73500   1.73892
 Alpha virt. eigenvalues --    1.74145   1.74619   1.74851   1.75273   1.75372
 Alpha virt. eigenvalues --    1.75898   1.76297   1.77015   1.78019   1.78189
 Alpha virt. eigenvalues --    1.78356   1.78770   1.79129   1.79736   1.79835
 Alpha virt. eigenvalues --    1.79993   1.80783   1.81033   1.81500   1.81584
 Alpha virt. eigenvalues --    1.82127   1.82185   1.82737   1.82970   1.83966
 Alpha virt. eigenvalues --    1.84183   1.84814   1.85512   1.85890   1.86268
 Alpha virt. eigenvalues --    1.86702   1.86996   1.87299   1.87896   1.88116
 Alpha virt. eigenvalues --    1.88612   1.89239   1.89302   1.89529   1.89948
 Alpha virt. eigenvalues --    1.90078   1.90599   1.91519   1.91695   1.92316
 Alpha virt. eigenvalues --    1.92864   1.93249   1.93351   1.94024   1.94194
 Alpha virt. eigenvalues --    1.95251   1.95646   1.95823   1.96367   1.97103
 Alpha virt. eigenvalues --    1.97217   1.97416   1.97982   1.98149   1.99161
 Alpha virt. eigenvalues --    1.99647   1.99982   2.00242   2.00642   2.01400
 Alpha virt. eigenvalues --    2.02122   2.02422   2.02974   2.03205   2.03767
 Alpha virt. eigenvalues --    2.03920   2.04933   2.06311   2.06414   2.06609
 Alpha virt. eigenvalues --    2.07360   2.07957   2.08915   2.09468   2.09669
 Alpha virt. eigenvalues --    2.11227   2.12178   2.12314   2.12504   2.13407
 Alpha virt. eigenvalues --    2.13490   2.13694   2.14470   2.15327   2.15730
 Alpha virt. eigenvalues --    2.16276   2.16871   2.17812   2.18007   2.19176
 Alpha virt. eigenvalues --    2.19405   2.20411   2.21057   2.21428   2.22089
 Alpha virt. eigenvalues --    2.22249   2.23217   2.23911   2.24089   2.24388
 Alpha virt. eigenvalues --    2.24754   2.25535   2.26696   2.27861   2.28162
 Alpha virt. eigenvalues --    2.29334   2.30100   2.30412   2.30878   2.31574
 Alpha virt. eigenvalues --    2.32006   2.32418   2.32949   2.33011   2.33712
 Alpha virt. eigenvalues --    2.35423   2.35602   2.36676   2.37117   2.37844
 Alpha virt. eigenvalues --    2.38278   2.38725   2.39049   2.41166   2.42021
 Alpha virt. eigenvalues --    2.42660   2.43192   2.43270   2.43494   2.44820
 Alpha virt. eigenvalues --    2.45264   2.46459   2.46786   2.47616   2.49083
 Alpha virt. eigenvalues --    2.49411   2.50224   2.53148   2.53559   2.54053
 Alpha virt. eigenvalues --    2.55261   2.56777   2.57486   2.58092   2.59886
 Alpha virt. eigenvalues --    2.59998   2.60911   2.61842   2.62446   2.62956
 Alpha virt. eigenvalues --    2.63303   2.63708   2.64000   2.64498   2.64836
 Alpha virt. eigenvalues --    2.65759   2.66150   2.66673   2.66814   2.67458
 Alpha virt. eigenvalues --    2.67864   2.68178   2.69253   2.69893   2.70302
 Alpha virt. eigenvalues --    2.70620   2.71373   2.71741   2.72042   2.72562
 Alpha virt. eigenvalues --    2.73227   2.74139   2.74539   2.74759   2.75289
 Alpha virt. eigenvalues --    2.75760   2.76288   2.77018   2.77143   2.79129
 Alpha virt. eigenvalues --    2.79471   2.79814   2.80176   2.81067   2.81870
 Alpha virt. eigenvalues --    2.82203   2.82650   2.83104   2.84263   2.85674
 Alpha virt. eigenvalues --    2.86403   2.87204   2.87284   2.88210   2.88732
 Alpha virt. eigenvalues --    2.89567   2.89885   2.91280   2.91757   2.92111
 Alpha virt. eigenvalues --    2.92821   2.92964   2.95438   2.97585   2.98308
 Alpha virt. eigenvalues --    2.99540   3.00799   3.02811   3.04052   3.04191
 Alpha virt. eigenvalues --    3.05186   3.06166   3.07074   3.09106   3.09837
 Alpha virt. eigenvalues --    3.10823   3.11121   3.12044   3.13490   3.13654
 Alpha virt. eigenvalues --    3.15630   3.16412   3.17833   3.19108   3.20391
 Alpha virt. eigenvalues --    3.22488   3.22679   3.23501   3.26492   3.28382
 Alpha virt. eigenvalues --    3.31492   3.32388   3.37812   3.42294   3.48016
 Alpha virt. eigenvalues --    3.51521   3.52891   3.53616   3.55234   3.57182
 Alpha virt. eigenvalues --    3.59223   3.60950   3.64668   3.68807   3.69191
 Alpha virt. eigenvalues --    3.75017
          Condensed to atoms (all electrons):
 Mulliken charges:
               1
     1  O   -0.171111
     2  O   -0.300399
     3  O   -0.313087
     4  O   -0.186656
     5  O   -0.280112
     6  O   -0.267171
     7  N    0.052052
     8  N   -0.207281
     9  N   -0.109410
    10  N   -0.304598
    11  C   -0.164164
    12  C    0.044650
    13  C   -0.142881
    14  C    0.018781
    15  C   -0.096132
    16  C    0.176184
    17  C   -0.106208
    18  C   -0.060157
    19  C    0.072748
    20  C   -0.068320
    21  C    0.109069
    22  C    0.023332
    23  C   -0.059817
    24  C    0.147886
    25  C   -0.159272
    26  C   -0.006157
    27  C    0.091343
    28  C    0.075288
    29  C   -0.108205
    30  C   -0.086930
    31  C   -0.092813
    32  C    0.101645
    33  C   -0.129099
    34  C    0.124206
    35  C   -0.049402
    36  C   -0.197589
    37  C    0.151433
    38  C   -0.004164
    39  C    0.197975
    40  C    0.111266
    41  C    0.193641
    42  C   -0.014603
    43  C    0.038826
    44  H    0.092965
    45  H    0.013092
    46  H    0.042122
    47  H    0.017140
    48  H    0.016465
    49  H    0.048160
    50  H   -0.044161
    51  H    0.029214
    52  H    0.189607
    53  H    0.025677
    54  H    0.046846
    55  H    0.044886
    56  H    0.121823
    57  H    0.027168
    58  H    0.055335
    59  H    0.101303
    60  H    0.075294
    61  H    0.073500
    62  H    0.065124
    63  H    0.085186
    64  H   -0.000746
    65  H    0.015790
    66  H    0.018777
    67  H   -0.012831
    68  H    0.022638
    69  H    0.093833
    70  H    0.044221
    71  H    0.026304
    72  H   -0.002474
    73  H   -0.042377
    74  H    0.049408
    75  H    0.030947
    76  H    0.053172
    77  H    0.045773
    78  H   -0.007520
    79  H    0.027668
    80  H    0.218819
    81  H    0.247263
 Sum of Mulliken charges =  -0.00000
 Mulliken charges with hydrogens summed into heavy atoms:
               1
     1  O   -0.171111
     2  O   -0.081580
     3  O   -0.065824
     4  O   -0.186656
     5  O   -0.280112
     6  O   -0.267171
     7  N    0.145017
     8  N   -0.017674
     9  N    0.012413
    10  N   -0.304598
    11  C   -0.164164
    12  C    0.044650
    13  C   -0.142881
    14  C    0.018781
    15  C   -0.096132
    16  C    0.176184
    17  C   -0.093116
    18  C   -0.060157
    19  C    0.132010
    20  C   -0.051855
    21  C    0.109069
    22  C    0.023332
    23  C   -0.059817
    24  C    0.151885
    25  C   -0.130058
    26  C    0.111252
    27  C    0.091343
    28  C    0.157791
    29  C    0.068391
    30  C    0.136880
    31  C   -0.093559
    32  C    0.123380
    33  C   -0.106461
    34  C    0.124206
    35  C   -0.049402
    36  C   -0.197589
    37  C    0.151433
    38  C    0.160195
    39  C    0.197975
    40  C    0.066415
    41  C    0.193641
    42  C    0.118924
    43  C    0.104746
 Electronic spatial extent (au):  <R**2>=          30566.4261
 Charge=              0.0000 electrons
 Dipole moment (field-independent basis, Debye):
    X=             -1.5813    Y=              2.0889    Z=             -0.9247  Tot=              2.7783
 Quadrupole moment (field-independent basis, Debye-Ang):
   XX=           -264.5849   YY=           -244.1868   ZZ=           -255.1876
   XY=             11.0448   XZ=              7.0392   YZ=            -15.1396
 Traceless Quadrupole moment (field-independent basis, Debye-Ang):
   XX=             -9.9318   YY=             10.4663   ZZ=             -0.5345
   XY=             11.0448   XZ=              7.0392   YZ=            -15.1396
 Octapole moment (field-independent basis, Debye-Ang**2):
  XXX=            112.2049  YYY=             87.9726  ZZZ=            -29.1266  XYY=           -149.6338
  XXY=             25.1406  XXZ=            -85.8415  XZZ=            -40.0825  YZZ=            -26.7933
  YYZ=             34.7619  XYZ=            -38.6719
 Hexadecapole moment (field-independent basis, Debye-Ang**3):
 XXXX=         -22737.6364 YYYY=         -16874.8780 ZZZZ=          -1692.6860 XXXY=            493.1354
 XXXZ=            413.5367 YYYX=            864.9911 YYYZ=           -423.6340 ZZZX=             28.9178
 ZZZY=             54.9969 XXYY=          -6605.0169 XXZZ=          -4103.3870 YYZZ=          -3094.3466
 XXYZ=            -17.6786 YYXZ=            248.5213 ZZXY=            150.4603
 N-N= 5.030976149083D+03 E-N=-1.459198684494D+04  KE= 1.927233498497D+03
 1\1\GINC-PADAWAN\SP\RB3LYP TD-FC\SVP\C33H38N4O6\PADAWAN\01-Jul-2019\0\
 \# td=(NStates=1) B3LYP/SVP\\TD\\0,1\O,0,-4.2536168725,-4.8812024914,1
 .8360376322\O,0,2.7450985386,-4.8738186887,1.1557697143\O,0,7.14016032
 03,-1.4098282525,1.9856912486\O,0,3.8369187494,-3.2415721822,-0.004113
 7508\O,0,7.6158011167,-0.6209119863,-0.064802513\O,0,-3.0628018663,2.4
 271207629,-0.3744490063\N,0,-0.2411411088,-0.6050246956,-0.5248194948\
 N,0,1.5205305458,1.8014205746,-0.4013517128\N,0,-3.3298749765,-3.21391
 25043,0.5999263112\N,0,-0.7228707828,2.9385450039,-0.0642602718\C,0,0.
 6692891932,-2.3090188603,-1.4985621513\C,0,0.8814910514,-1.0873259643,
 -0.9960384527\C,0,-0.7388480135,-2.5854369059,-1.3204641091\C,0,-1.288
 0392259,-1.4649768091,-0.7205511851\C,0,3.7260810689,1.5540185684,-0.2
 682610929\C,0,2.4717292787,0.7842602515,-0.5286470497\C,0,2.2110163518
 ,-0.5169289508,-0.8223817128\C,0,3.5365442945,2.8621360158,0.043942384
 5\C,0,1.7120726124,-3.355317233,-2.0605534009\C,0,-5.540492956,-2.7196
 675817,1.3742446888\C,0,-3.6196158209,-1.9373487108,0.1867646083\C,0,2
 .0776520773,3.0533053247,0.0214397674\C,0,-4.9645691532,-1.717670731,0
 .5561096549\C,0,5.0043356955,0.8828632032,-0.3744264013\C,0,-2.6451193
 276,-1.1123797934,-0.3253290067\C,0,-1.4621858807,-3.8185716103,-1.899
 4002568\C,0,-4.3420638748,-3.8179360254,1.3239975254\C,0,2.1289440281,
 -4.4786368874,-1.1367929061\C,0,5.369015704,-0.0132994534,0.849967544\
 C,0,4.50468653,3.9324360929,0.4584580461\C,0,1.2554042188,4.2049550458
 ,0.3010318238\C,0,-6.8008947401,-3.4101957994,0.8306121233\C,0,-5.7163
 212127,-0.5591216962,0.2245896259\C,0,-0.1559835177,4.1198302328,0.234
 6552774\C,0,-1.1487199706,5.1637839121,0.4234008056\C,0,-2.3547949532,
 4.6760391053,0.237549661\C,0,3.0644030223,-4.150337704,-0.0429766085\C
 ,0,-5.4055742669,0.5607113597,-0.6679882636\C,0,6.7579956786,-0.681803
 65,0.8403049287\C,0,-3.6915767006,5.2731483733,0.2564401547\C,0,-2.095
 6991215,3.1724522062,-0.0414199118\C,0,-0.6700875999,6.5812337934,0.88
 79878504\C,0,-4.2758971523,5.6410600627,-1.0978888804\H,0,-0.524874072
 3,0.1642932951,-0.035833323\H,0,2.9848458456,-1.2806062018,-0.94292437
 98\H,0,2.4863185132,-2.5814697436,-2.4584823953\H,0,1.1038213883,-3.81
 81759285,-2.9190602661\H,0,-5.7113228596,-2.3064992746,2.3177223121\H,
 0,4.9800705196,0.1905484362,-1.4170520525\H,0,5.6799665641,1.605550083
 1,-0.5717007447\H,0,-3.068613079,-0.00840305,-0.448295227\H,0,0.443271
 5578,1.8696068046,-0.6817456201\H,0,-1.1549202278,-4.8260571762,-1.242
 0737172\H,0,-2.5785779688,-3.7342240088,-1.7376018933\H,0,-1.066481828
 1,-4.0777848473,-2.9522708164\H,0,-2.4599583821,-3.7028900197,0.679540
 6193\H,0,1.2404348728,-4.9506477631,-0.7395493448\H,0,2.6373098354,-5.
 3624503519,-1.6674821301\H,0,4.7884740804,-1.0966808315,0.9866484009\H
 ,0,5.2649708425,0.569322971,1.9782256257\H,0,4.0668072063,5.0281732337
 ,0.1139300212\H,0,5.599643056,3.6106485981,-0.4107652869\H,0,4.6828853
 211,3.8059360657,1.655691286\H,0,1.9555163302,4.8817773551,0.851476222
 8\H,0,-7.7735289212,-2.7912742109,1.0073720068\H,0,-7.0010341673,-4.26
 14825304,1.4902348639\H,0,-6.6901047075,-3.6872561417,-0.1254504566\H,
 0,-6.7181263349,-0.5221031188,1.0010381049\H,0,-4.7136403361,1.4260574
 266,-0.3165389152\H,0,-6.5658949669,0.9607751525,-0.7689012062\H,0,-4.
 6409834103,0.4244526075,-1.4312898938\H,0,-3.532985284,6.1912835335,1.
 0033972162\H,0,-4.2436157998,4.6666789998,0.7900050268\H,0,-0.15639478
 4,6.5593465,1.8994697886\H,0,-1.606816792,7.3521386686,1.0685662083\H,
 0,-0.0554963816,7.111913477,-0.0326023031\H,0,-3.5526531723,6.55264289
 ,-1.6008742899\H,0,-5.2690696142,5.8274858647,-0.9558354607\H,0,-4.314
 8349604,4.6619163619,-1.6560451125\H,0,3.1968480853,-4.5594621587,2.03
 13539178\H,0,8.1798960142,-1.6910984988,1.5433917222\\Version=ES64L-G1
 6RevA.03\State=1-A\HF=-1948.9828997\RMSD=7.005e-09\PG=C01 [X(C33H38N4O
 6)]\\@


 GOORD'S AXIOM:  A MEETING IS AN EVENT AT WHICH
 THE MINUTES ARE KEPT AND THE HOURS ARE LOST.
 Job cpu time:       0 days  3 hours 42 minutes  5.4 seconds.
 Elapsed time:       0 days  2 hours 27 minutes 47.5 seconds.
 File lengths (MBytes):  RWF=   2591 Int=      0 D2E=      0 Chk=     65 Scr=      1
 Normal termination of Gaussian 16 at Mon Jul  1 18:19:25 2019.
