 Entering Gaussian System, Link 0=g16
 Input=Geometria-164-.com
 Output=Geometria-164-.log
 Initial command:
 /usr/local/g16/l1.exe "/home/padawan/israel-mol/phycocyanobilin/spectra/emi/Gau-31639.inp" -scrdir="/home/padawan/israel-mol/phycocyanobilin/spectra/emi/"
 Entering Link 1 = /usr/local/g16/l1.exe PID=     31641.
  
 Copyright (c) 1988,1990,1992,1993,1995,1998,2003,2009,2016,
            Gaussian, Inc.  All Rights Reserved.
  
 This is part of the Gaussian(R) 16 program.  It is based on
 the Gaussian(R) 09 system (copyright 2009, Gaussian, Inc.),
 the Gaussian(R) 03 system (copyright 2003, Gaussian, Inc.),
 the Gaussian(R) 98 system (copyright 1998, Gaussian, Inc.),
 the Gaussian(R) 94 system (copyright 1995, Gaussian, Inc.),
 the Gaussian 92(TM) system (copyright 1992, Gaussian, Inc.),
 the Gaussian 90(TM) system (copyright 1990, Gaussian, Inc.),
 the Gaussian 88(TM) system (copyright 1988, Gaussian, Inc.),
 the Gaussian 86(TM) system (copyright 1986, Carnegie Mellon
 University), and the Gaussian 82(TM) system (copyright 1983,
 Carnegie Mellon University). Gaussian is a federally registered
 trademark of Gaussian, Inc.
  
 This software contains proprietary and confidential information,
 including trade secrets, belonging to Gaussian, Inc.
  
 This software is provided under written license and may be
 used, copied, transmitted, or stored only in accord with that
 written license.
  
 The following legend is applicable only to US Government
 contracts under FAR:
  
                    RESTRICTED RIGHTS LEGEND
  
 Use, reproduction and disclosure by the US Government is
 subject to restrictions as set forth in subparagraphs (a)
 and (c) of the Commercial Computer Software - Restricted
 Rights clause in FAR 52.227-19.
  
 Gaussian, Inc.
 340 Quinnipiac St., Bldg. 40, Wallingford CT 06492
  
  
 ---------------------------------------------------------------
 Warning -- This program may not be used in any manner that
 competes with the business of Gaussian, Inc. or will provide
 assistance to any competitor of Gaussian, Inc.  The licensee
 of this program is prohibited from giving any competitor of
 Gaussian, Inc. access to this program.  By using this program,
 the user acknowledges that Gaussian, Inc. is engaged in the
 business of creating and licensing software in the field of
 computational chemistry and represents and warrants to the
 licensee that it is not a competitor of Gaussian, Inc. and that
 it will not use this program in any manner prohibited above.
 ---------------------------------------------------------------
  

 Cite this work as:
 Gaussian 16, Revision A.03,
 M. J. Frisch, G. W. Trucks, H. B. Schlegel, G. E. Scuseria, 
 M. A. Robb, J. R. Cheeseman, G. Scalmani, V. Barone, 
 G. A. Petersson, H. Nakatsuji, X. Li, M. Caricato, A. V. Marenich, 
 J. Bloino, B. G. Janesko, R. Gomperts, B. Mennucci, H. P. Hratchian, 
 J. V. Ortiz, A. F. Izmaylov, J. L. Sonnenberg, D. Williams-Young, 
 F. Ding, F. Lipparini, F. Egidi, J. Goings, B. Peng, A. Petrone, 
 T. Henderson, D. Ranasinghe, V. G. Zakrzewski, J. Gao, N. Rega, 
 G. Zheng, W. Liang, M. Hada, M. Ehara, K. Toyota, R. Fukuda, 
 J. Hasegawa, M. Ishida, T. Nakajima, Y. Honda, O. Kitao, H. Nakai, 
 T. Vreven, K. Throssell, J. A. Montgomery, Jr., J. E. Peralta, 
 F. Ogliaro, M. J. Bearpark, J. J. Heyd, E. N. Brothers, K. N. Kudin, 
 V. N. Staroverov, T. A. Keith, R. Kobayashi, J. Normand, 
 K. Raghavachari, A. P. Rendell, J. C. Burant, S. S. Iyengar, 
 J. Tomasi, M. Cossi, J. M. Millam, M. Klene, C. Adamo, R. Cammi, 
 J. W. Ochterski, R. L. Martin, K. Morokuma, O. Farkas, 
 J. B. Foresman, and D. J. Fox, Gaussian, Inc., Wallingford CT, 2016.
 
 ******************************************
 Gaussian 16:  ES64L-G16RevA.03 25-Dec-2016
                29-Jun-2019 
 ******************************************
 %nproc=4
 Will use up to    4 processors via shared memory.
 %Mem=2GB
 --------------------------
 # td=(NStates=1) B3LYP/SVP
 --------------------------
 1/38=1,172=1/1;
 2/12=2,17=6,18=5,40=1/2;
 3/5=18,7=101,11=9,25=1,30=1,74=-5/1,2,3,8;
 4//1;
 5/5=2,38=5/2;
 8/6=1,10=1,108=1/1;
 9/41=1,42=1,70=2/14;
 6/7=2,8=2,9=2,10=2/1;
 99/5=1,9=1/99;
 --
 TD
 --
 Symbolic Z-matrix:
 Charge =  0 Multiplicity = 1
 8                    -4.0642   -4.81806   1.88255 
 8                     2.62413  -4.68461   1.32814 
 8                     6.97721  -1.59204   1.81769 
 8                     3.67657  -3.08818   0.08235 
 8                     7.54664  -0.7043   -0.27088 
 8                    -3.07727   2.35557  -0.43339 
 7                    -0.26993  -0.45982  -0.64551 
 7                     1.54735   1.87516  -0.46751 
 7                    -3.16761  -3.133     0.6553 
 7                    -0.82514   2.86131  -0.13063 
 6                     0.67869  -2.35959  -1.45326 
 6                     0.91207  -0.9816   -1.073 
 6                    -0.75081  -2.64178  -1.33881 
 6                    -1.2843   -1.40872  -0.66581 
 6                     3.77291   1.56047  -0.27842 
 6                     2.48017   0.90029  -0.69926 
 6                     2.21585  -0.43656  -0.85012 
 6                     3.55832   2.7714    0.21035 
 6                     1.67637  -3.3543   -2.03067 
 6                    -5.49059  -2.81985   1.2993 
 6                    -3.57199  -1.77459   0.16414 
 6                     2.05604   2.99462   0.00937 
 6                    -4.9861   -1.552     0.4672 
 6                     5.12635   0.89955  -0.23307 
 6                    -2.54418  -1.01686  -0.36404 
 6                    -1.41946  -3.74292  -1.81798 
 6                    -4.1878   -3.80611   1.33282 
 6                     2.03819  -4.44569  -1.00401 
 6                     5.49658  -0.10975   0.85297 
 6                     4.43757   3.82554   0.59745 
 6                     1.26873   4.15573   0.19133 
 6                    -6.64482  -3.61034   0.82614 
 6                    -5.85254  -0.5944    0.1179 
 6                    -0.16936   3.99766   0.24265 
 6                    -1.05264   5.11426   0.49215 
 6                    -2.35159   4.56326   0.28484 
 6                     2.83214  -4.01267   0.1533 
 6                    -5.38322   0.52153  -0.73455 
 6                     6.78908  -0.81748   0.71463 
 6                    -3.65294   5.27291   0.43067 
 6                    -2.21937   3.1113   -0.09921 
 6                    -0.71029   6.54846   0.87852 
 6                    -4.20958   5.58828  -1.01108 
 1                    -0.301     0.31928   0.06117 
 1                     2.96894  -1.22786  -0.87124 
 1                     2.54798  -2.77013  -2.37912 
 1                     1.20028  -3.92444  -2.86151 
 1                    -5.50235  -2.57071   2.32597 
 1                     5.17959   0.52838  -1.31386 
 1                     5.81296   1.65802  -0.15961 
 1                    -2.76052   0.10776  -0.31404 
 1                     0.67172   1.85128  -0.53254 
 1                    -1.34735  -4.58349  -1.14987 
 1                    -2.63975  -3.61345  -1.84958 
 1                    -1.27155  -4.09936  -2.90016 
 1                    -2.24376  -3.28039   0.75495 
 1                     1.22847  -5.10679  -0.66363 
 1                     2.90352  -5.05582  -1.76932 
 1                     4.92569  -0.98331   0.78485 
 1                     5.5071    0.46223   1.98599 
 1                     4.77271   4.41648  -0.52381 
 1                     5.56532   3.35474   0.8834 
 1                     3.8531    4.68123   1.35866 
 1                     1.71694   5.07132   0.86436 
 1                    -7.67772  -3.12189   0.92355 
 1                    -6.78688  -4.42278   1.31849 
 1                    -6.52019  -4.03373  -0.13621 
 1                    -6.84841  -0.81606   0.18492 
 1                    -4.79696   1.45703  -0.08323 
 1                    -6.31323   0.92698  -1.39148 
 1                    -4.61766   0.11408  -1.35461 
 1                    -3.62408   6.08221   0.98253 
 1                    -4.38091   4.56667   0.85482 
 1                    -0.06275   6.58225   1.66671 
 1                    -1.62807   7.27729   0.97235 
 1                    -0.26523   7.26237   0.10816 
 1                    -3.47548   5.96909  -1.5607 
 1                    -4.96237   6.37657  -1.01218 
 1                    -4.61015   4.58826  -1.38608 
 1                     3.54448  -4.23331   1.82406 
 1                     7.78995  -1.92238   1.69688 
 
 Stoichiometry    C33H38N4O6
 Framework group  C1[X(C33H38N4O6)]
 Deg. of freedom   237
 Full point group                 C1      NOp   1
 Largest Abelian subgroup         C1      NOp   1
 Largest concise Abelian subgroup C1      NOp   1
                         Standard orientation:                         
 ---------------------------------------------------------------------
 Center     Atomic      Atomic             Coordinates (Angstroms)
 Number     Number       Type             X           Y           Z
 ---------------------------------------------------------------------
      1          8           0        4.085636   -4.800119   -1.886864
      2          8           0       -2.602947   -4.692683   -1.329926
      3          8           0       -6.968031   -1.616478   -1.815780
      4          8           0       -3.661046   -3.101147   -0.082667
      5          8           0       -7.540094   -0.732360    0.273613
      6          8           0        3.072080    2.368089    0.434362
      7          7           0        0.275627   -0.458186    0.645568
      8          7           0       -1.550659    1.869932    0.469827
      9          7           0        3.183046   -3.119356   -0.658132
     10          7           0        0.817916    2.865396    0.132760
     11          6           0       -0.665416   -2.362134    1.452355
     12          6           0       -0.904217   -0.984779    1.073124
     13          6           0        0.765113   -2.638764    1.337191
     14          6           0        1.293627   -1.403207    0.664843
     15          6           0       -3.775059    1.546847    0.281334
     16          6           0       -2.479649    0.891341    0.701253
     17          6           0       -2.210150   -0.444592    0.851100
     18          6           0       -3.565290    2.758923   -0.206685
     19          6           0       -1.659064   -3.361047    2.029448
     20          6           0        5.504573   -2.796859   -1.302756
     21          6           0        3.582401   -1.759741   -0.166188
     22          6           0       -2.063806    2.987763   -0.006097
     23          6           0        4.995536   -1.531528   -0.469607
     24          6           0       -5.125975    0.880783    0.236022
     25          6           0        2.551886   -1.006315    0.362891
     26          6           0        1.438155   -3.737663    1.815368
     27          6           0        4.205560   -3.788088   -1.336481
     28          6           0       -2.017082   -4.453119    1.002171
     29          6           0       -5.492733   -0.129189   -0.850575
     30          6           0       -4.448717    3.809949   -0.592745
     31          6           0       -1.281013    4.152006   -0.187549
     32          6           0        6.661997   -3.583243   -0.830563
     33          6           0        5.858432   -0.570846   -0.119964
     34          6           0        0.157653    3.999481   -0.239495
     35          6           0        1.036553    5.119629   -0.488552
     36          6           0        2.337684    4.573467   -0.282099
     37          6           0       -2.813103   -4.022353   -0.154556
     38          6           0        5.385149    0.542687    0.733426
     39          6           0       -6.782461   -0.841959   -0.712255
     40          6           0        3.636251    5.288199   -0.427908
     41          6           0        2.211166    3.120747    0.101003
     42          6           0        0.688570    6.552772   -0.873813
     43          6           0        4.192203    5.604719    1.013853
     44          1           0        0.303450    0.321510   -0.060587
     45          1           0       -2.960202   -1.238787    0.871944
     46          1           0       -2.532784   -2.780462    2.378620
     47          1           0       -1.180491   -3.929927    2.859728
     48          1           0        5.515006   -2.546971   -2.329265
     49          1           0       -5.177399    0.508669    1.316576
     50          1           0       -5.815515    1.636657    0.163329
     51          1           0        2.763900    0.119159    0.313582
     52          1           0       -0.674922    1.849370    0.534525
     53          1           0        1.369019   -4.578044    1.146711
     54          1           0        2.657953   -3.603537    1.846615
     55          1           0        1.292008   -4.095401    2.897351
     56          1           0        2.259730   -3.270210   -0.757543
     57          1           0       -1.204958   -5.110878    0.661045
     58          1           0       -2.879779   -5.067081    1.767379
     59          1           0       -4.918475   -1.000602   -0.783262
     60          1           0       -5.505856    0.443524   -1.983197
     61          1           0       -4.785707    4.398839    0.529048
     62          1           0       -5.574760    3.335035   -0.878610
     63          1           0       -3.867812    4.668401   -1.353580
     64          1           0       -1.732981    5.066328   -0.859785
     65          1           0        7.692983   -3.090773   -0.928015
     66          1           0        6.806993   -4.394798   -1.323517
     67          1           0        6.539342   -4.007771    0.131545
     68          1           0        6.855114   -0.788649   -0.187495
     69          1           0        4.795067    1.476382    0.082952
     70          1           0        6.313837    0.951252    1.390295
     71          1           0        4.621382    0.131886    1.353482
     72          1           0        3.604089    6.097764   -0.979200
     73          1           0        4.366763    4.585045   -0.852811
     74          1           0        0.040610    6.584618   -1.661744
     75          1           0        1.603513    7.285178   -0.967476
     76          1           0        0.241055    7.264442   -0.102807
     77          1           0        3.456846    5.982337    1.564001
     78          1           0        4.941966    6.395883    1.015221
     79          1           0        4.596743    4.605979    1.388019
     80          1           0       -3.525207   -4.244573   -1.825208
     81          1           0       -7.779448   -1.950018   -1.694894
 ---------------------------------------------------------------------
 Rotational constants (GHZ):           0.0763853           0.0561438           0.0346759
 Standard basis: SVP (5D, 7F)
 There are   835 symmetry adapted cartesian basis functions of A   symmetry.
 There are   792 symmetry adapted basis functions of A   symmetry.
   792 basis functions,  1341 primitive gaussians,   835 cartesian basis functions
   156 alpha electrons      156 beta electrons
       nuclear repulsion energy      5068.1421258834 Hartrees.
 NAtoms=   81 NActive=   81 NUniq=   81 SFac= 1.00D+00 NAtFMM=   60 NAOKFM=T Big=T
 Integral buffers will be    131072 words long.
 Regular integral format.
 Two-electron integral symmetry is turned on.
 One-electron integrals computed using PRISM.
 NBasis=   792 RedAO= T EigKep=  4.27D-04  NBF=   792
 NBsUse=   792 1.00D-06 EigRej= -1.00D+00 NBFU=   792
 ExpMin= 1.22D-01 ExpMax= 2.27D+03 ExpMxC= 3.41D+02 IAcc=3 IRadAn=         5 AccDes= 0.00D+00
 Harris functional with IExCor=  402 and IRadAn=       5 diagonalized for initial guess.
 HarFok:  IExCor=  402 AccDes= 0.00D+00 IRadAn=         5 IDoV= 1 UseB2=F ITyADJ=14
 ICtDFT=  3500011 ScaDFX=  1.000000  1.000000  1.000000  1.000000
 FoFCou: FMM=F IPFlag=           0 FMFlag=      100000 FMFlg1=        2001
         NFxFlg=           0 DoJE=T BraDBF=F KetDBF=T FulRan=T
         wScrn=  0.000000 ICntrl=       500 IOpCl=  0 I1Cent=   200000004 NGrid=           0
         NMat0=    1 NMatS0=      1 NMatT0=    0 NMatD0=    1 NMtDS0=    0 NMtDT0=    0
 Petite list used in FoFCou.
 Requested convergence on RMS density matrix=1.00D-08 within 128 cycles.
 Requested convergence on MAX density matrix=1.00D-06.
 Requested convergence on             energy=1.00D-06.
 No special actions if energy rises.
 Integral accuracy reduced to 1.0D-05 until final iterations.
 Initial convergence to 1.0D-05 achieved.  Increase integral accuracy.
 SCF Done:  E(RB3LYP) =  -1948.99670509     A.U. after   17 cycles
            NFock= 17  Conv=0.35D-08     -V/T= 2.0104
 DoSCS=F DFT=T ScalE2(SS,OS)=  1.000000  1.000000
 ExpMin= 1.22D-01 ExpMax= 2.27D+03 ExpMxC= 3.41D+02 IAcc=3 IRadAn=         5 AccDes= 0.00D+00
 HarFok:  IExCor=  205 AccDes= 0.00D+00 IRadAn=         5 IDoV=-2 UseB2=F ITyADJ=14
 ICtDFT= 12500011 ScaDFX=  1.000000  1.000000  1.000000  1.000000
 GSVD:  LWork=       -2193 too small for GESVD, short by        9890 words or        9890 for optimal perf.
 Range of M.O.s used for correlation:    44   792
 NBasis=   792 NAE=   156 NBE=   156 NFC=    43 NFV=     0
 NROrb=    749 NOA=   113 NOB=   113 NVA=   636 NVB=   636

 **** Warning!!: The smallest alpha delta epsilon is  0.67581854D-01

 Orbital symmetries:
       Occupied  (A) (A) (A) (A) (A) (A) (A) (A) (A) (A) (A) (A)
                 (A) (A) (A) (A) (A) (A) (A) (A) (A) (A) (A) (A)
                 (A) (A) (A) (A) (A) (A) (A) (A) (A) (A) (A) (A)
                 (A) (A) (A) (A) (A) (A) (A) (A) (A) (A) (A) (A)
                 (A) (A) (A) (A) (A) (A) (A) (A) (A) (A) (A) (A)
                 (A) (A) (A) (A) (A) (A) (A) (A) (A) (A) (A) (A)
                 (A) (A) (A) (A) (A) (A) (A) (A) (A) (A) (A) (A)
                 (A) (A) (A) (A) (A) (A) (A) (A) (A) (A) (A) (A)
                 (A) (A) (A) (A) (A) (A) (A) (A) (A) (A) (A) (A)
                 (A) (A) (A) (A) (A) (A) (A) (A) (A) (A) (A) (A)
                 (A) (A) (A) (A) (A) (A) (A) (A) (A) (A) (A) (A)
                 (A) (A) (A) (A) (A) (A) (A) (A) (A) (A) (A) (A)
                 (A) (A) (A) (A) (A) (A) (A) (A) (A) (A) (A) (A)
       Virtual   (A) (A) (A) (A) (A) (A) (A) (A) (A) (A) (A) (A)
                 (A) (A) (A) (A) (A) (A) (A) (A) (A) (A) (A) (A)
                 (A) (A) (A) (A) (A) (A) (A) (A) (A) (A) (A) (A)
                 (A) (A) (A) (A) (A) (A) (A) (A) (A) (A) (A) (A)
                 (A) (A) (A) (A) (A) (A) (A) (A) (A) (A) (A) (A)
                 (A) (A) (A) (A) (A) (A) (A) (A) (A) (A) (A) (A)
                 (A) (A) (A) (A) (A) (A) (A) (A) (A) (A) (A) (A)
                 (A) (A) (A) (A) (A) (A) (A) (A) (A) (A) (A) (A)
                 (A) (A) (A) (A) (A) (A) (A) (A) (A) (A) (A) (A)
                 (A) (A) (A) (A) (A) (A) (A) (A) (A) (A) (A) (A)
                 (A) (A) (A) (A) (A) (A) (A) (A) (A) (A) (A) (A)
                 (A) (A) (A) (A) (A) (A) (A) (A) (A) (A) (A) (A)
                 (A) (A) (A) (A) (A) (A) (A) (A) (A) (A) (A) (A)
                 (A) (A) (A) (A) (A) (A) (A) (A) (A) (A) (A) (A)
                 (A) (A) (A) (A) (A) (A) (A) (A) (A) (A) (A) (A)
                 (A) (A) (A) (A) (A) (A) (A) (A) (A) (A) (A) (A)
                 (A) (A) (A) (A) (A) (A) (A) (A) (A) (A) (A) (A)
                 (A) (A) (A) (A) (A) (A) (A) (A) (A) (A) (A) (A)
                 (A) (A) (A) (A) (A) (A) (A) (A) (A) (A) (A) (A)
                 (A) (A) (A) (A) (A) (A) (A) (A) (A) (A) (A) (A)
                 (A) (A) (A) (A) (A) (A) (A) (A) (A) (A) (A) (A)
                 (A) (A) (A) (A) (A) (A) (A) (A) (A) (A) (A) (A)
                 (A) (A) (A) (A) (A) (A) (A) (A) (A) (A) (A) (A)
                 (A) (A) (A) (A) (A) (A) (A) (A) (A) (A) (A) (A)
                 (A) (A) (A) (A) (A) (A) (A) (A) (A) (A) (A) (A)
                 (A) (A) (A) (A) (A) (A) (A) (A) (A) (A) (A) (A)
                 (A) (A) (A) (A) (A) (A) (A) (A) (A) (A) (A) (A)
                 (A) (A) (A) (A) (A) (A) (A) (A) (A) (A) (A) (A)
                 (A) (A) (A) (A) (A) (A) (A) (A) (A) (A) (A) (A)
                 (A) (A) (A) (A) (A) (A) (A) (A) (A) (A) (A) (A)
                 (A) (A) (A) (A) (A) (A) (A) (A) (A) (A) (A) (A)
                 (A) (A) (A) (A) (A) (A) (A) (A) (A) (A) (A) (A)
                 (A) (A) (A) (A) (A) (A) (A) (A) (A) (A) (A) (A)
                 (A) (A) (A) (A) (A) (A) (A) (A) (A) (A) (A) (A)
                 (A) (A) (A) (A) (A) (A) (A) (A) (A) (A) (A) (A)
                 (A) (A) (A) (A) (A) (A) (A) (A) (A) (A) (A) (A)
                 (A) (A) (A) (A) (A) (A) (A) (A) (A) (A) (A) (A)
                 (A) (A) (A) (A) (A) (A) (A) (A) (A) (A) (A) (A)
                 (A) (A) (A) (A) (A) (A) (A) (A) (A) (A) (A) (A)
                 (A) (A) (A) (A) (A) (A) (A) (A) (A) (A) (A) (A)
                 (A) (A) (A) (A) (A) (A) (A) (A) (A) (A) (A) (A)
                 (A) (A) (A) (A) (A) (A) (A) (A) (A) (A) (A) (A)
                 (A) (A) (A) (A) (A) (A) (A) (A) (A) (A) (A) (A)
                 (A) (A) (A) (A) (A) (A) (A) (A) (A) (A) (A) (A)
                 (A) (A) (A) (A) (A) (A) (A) (A) (A) (A) (A) (A)
                 (A) (A) (A) (A) (A) (A) (A) (A) (A) (A) (A) (A)
                 (A) (A) (A) (A) (A) (A) (A) (A) (A) (A) (A) (A)
                 (A) (A) (A) (A) (A) (A) (A) (A) (A) (A) (A) (A)
                 (A) (A) (A) (A) (A) (A) (A) (A) (A) (A) (A) (A)
                 (A) (A) (A) (A) (A) (A) (A) (A) (A) (A) (A) (A)
                 (A) (A) (A) (A) (A) (A) (A) (A) (A) (A) (A) (A)
                 (A) (A) (A) (A) (A) (A) (A) (A) (A) (A) (A) (A)
                 (A) (A) (A) (A) (A) (A) (A) (A) (A) (A) (A) (A)
     4 initial guesses have been made.
 Convergence on wavefunction:    0.001000000000000
 Iteration     1 Dimension     4 NMult     0 NNew      4
 CISAX will form     4 AO SS matrices at one time.
 Iteration     2 Dimension     6 NMult     4 NNew      2
 Iteration     3 Dimension     8 NMult     6 NNew      2
 Iteration     4 Dimension    10 NMult     8 NNew      2
 Iteration     5 Dimension    12 NMult    10 NNew      2
 Iteration     6 Dimension    14 NMult    12 NNew      2
 ***********************************************************************
 Excited states from <AA,BB:AA,BB> singles matrix:
 ***********************************************************************
 
 Ground to excited state transition densities written to RWF  633
 Ground to excited state transition electric dipole moments (Au):
       state          X           Y           Z        Dip. S.      Osc.
         1         0.8839     -2.2241      0.0904      5.7361      0.2239
 Ground to excited state transition velocity dipole moments (Au):
       state          X           Y           Z        Dip. S.      Osc.
         1        -0.0537      0.1267     -0.0042      0.0190      0.2158
 Ground to excited state transition magnetic dipole moments (Au):
       state          X           Y           Z
         1        -0.2784     -0.4708     -2.2497
 Ground to excited state transition velocity quadrupole moments (Au):
       state          XX          YY          ZZ          XY          XZ          YZ
         1        -0.3936      0.4931     -0.0448      0.3621      0.0622     -0.0175
 <0|del|b> * <b|rxdel|0> + <0|del|b> * <b|delr+rdel|0>
 Rotatory Strengths (R) in cgs (10**-40 erg-esu-cm/Gauss)
       state          XX          YY          ZZ    R(velocity)    E-M Angle
         1      -359.8234    162.1856   -228.0168   -141.8849       96.35
 1/2[<0|r|b>*<b|rxdel|0> + (<0|rxdel|b>*<b|r|0>)*]
 Rotatory Strengths (R) in cgs (10**-40 erg-esu-cm/Gauss)
       state          XX          YY          ZZ     R(length)
         1       174.0056   -740.4990    143.8365   -140.8856
  1/2[<0|del|b>*<b|r|0> + (<0|r|b>*<b|del|0>)*] (Au)
       state          X           Y           Z        Dip. S.   Osc.(frdel)
         1        -0.0475     -0.2818     -0.0004      0.3296      0.2198

 Excitation energies and oscillator strengths:
 
 Excited State   1:      Singlet-A      1.5936 eV  778.04 nm  f=0.2239  <S**2>=0.000
     156 ->157         0.70741
     156 <-157        -0.10135
 This state for optimization and/or second-order correction.
 Total Energy, E(TD-HF/TD-DFT) =  -1948.93814313    
 Copying the excited state density for this state as the 1-particle RhoCI density.
 SavETr:  write IOETrn=   770 NScale= 10 NData=  16 NLR=1 NState=    1 LETran=      28.

 **********************************************************************

            Population analysis using the SCF density.

 **********************************************************************

 Orbital symmetries:
       Occupied  (A) (A) (A) (A) (A) (A) (A) (A) (A) (A) (A) (A)
                 (A) (A) (A) (A) (A) (A) (A) (A) (A) (A) (A) (A)
                 (A) (A) (A) (A) (A) (A) (A) (A) (A) (A) (A) (A)
                 (A) (A) (A) (A) (A) (A) (A) (A) (A) (A) (A) (A)
                 (A) (A) (A) (A) (A) (A) (A) (A) (A) (A) (A) (A)
                 (A) (A) (A) (A) (A) (A) (A) (A) (A) (A) (A) (A)
                 (A) (A) (A) (A) (A) (A) (A) (A) (A) (A) (A) (A)
                 (A) (A) (A) (A) (A) (A) (A) (A) (A) (A) (A) (A)
                 (A) (A) (A) (A) (A) (A) (A) (A) (A) (A) (A) (A)
                 (A) (A) (A) (A) (A) (A) (A) (A) (A) (A) (A) (A)
                 (A) (A) (A) (A) (A) (A) (A) (A) (A) (A) (A) (A)
                 (A) (A) (A) (A) (A) (A) (A) (A) (A) (A) (A) (A)
                 (A) (A) (A) (A) (A) (A) (A) (A) (A) (A) (A) (A)
       Virtual   (A) (A) (A) (A) (A) (A) (A) (A) (A) (A) (A) (A)
                 (A) (A) (A) (A) (A) (A) (A) (A) (A) (A) (A) (A)
                 (A) (A) (A) (A) (A) (A) (A) (A) (A) (A) (A) (A)
                 (A) (A) (A) (A) (A) (A) (A) (A) (A) (A) (A) (A)
                 (A) (A) (A) (A) (A) (A) (A) (A) (A) (A) (A) (A)
                 (A) (A) (A) (A) (A) (A) (A) (A) (A) (A) (A) (A)
                 (A) (A) (A) (A) (A) (A) (A) (A) (A) (A) (A) (A)
                 (A) (A) (A) (A) (A) (A) (A) (A) (A) (A) (A) (A)
                 (A) (A) (A) (A) (A) (A) (A) (A) (A) (A) (A) (A)
                 (A) (A) (A) (A) (A) (A) (A) (A) (A) (A) (A) (A)
                 (A) (A) (A) (A) (A) (A) (A) (A) (A) (A) (A) (A)
                 (A) (A) (A) (A) (A) (A) (A) (A) (A) (A) (A) (A)
                 (A) (A) (A) (A) (A) (A) (A) (A) (A) (A) (A) (A)
                 (A) (A) (A) (A) (A) (A) (A) (A) (A) (A) (A) (A)
                 (A) (A) (A) (A) (A) (A) (A) (A) (A) (A) (A) (A)
                 (A) (A) (A) (A) (A) (A) (A) (A) (A) (A) (A) (A)
                 (A) (A) (A) (A) (A) (A) (A) (A) (A) (A) (A) (A)
                 (A) (A) (A) (A) (A) (A) (A) (A) (A) (A) (A) (A)
                 (A) (A) (A) (A) (A) (A) (A) (A) (A) (A) (A) (A)
                 (A) (A) (A) (A) (A) (A) (A) (A) (A) (A) (A) (A)
                 (A) (A) (A) (A) (A) (A) (A) (A) (A) (A) (A) (A)
                 (A) (A) (A) (A) (A) (A) (A) (A) (A) (A) (A) (A)
                 (A) (A) (A) (A) (A) (A) (A) (A) (A) (A) (A) (A)
                 (A) (A) (A) (A) (A) (A) (A) (A) (A) (A) (A) (A)
                 (A) (A) (A) (A) (A) (A) (A) (A) (A) (A) (A) (A)
                 (A) (A) (A) (A) (A) (A) (A) (A) (A) (A) (A) (A)
                 (A) (A) (A) (A) (A) (A) (A) (A) (A) (A) (A) (A)
                 (A) (A) (A) (A) (A) (A) (A) (A) (A) (A) (A) (A)
                 (A) (A) (A) (A) (A) (A) (A) (A) (A) (A) (A) (A)
                 (A) (A) (A) (A) (A) (A) (A) (A) (A) (A) (A) (A)
                 (A) (A) (A) (A) (A) (A) (A) (A) (A) (A) (A) (A)
                 (A) (A) (A) (A) (A) (A) (A) (A) (A) (A) (A) (A)
                 (A) (A) (A) (A) (A) (A) (A) (A) (A) (A) (A) (A)
                 (A) (A) (A) (A) (A) (A) (A) (A) (A) (A) (A) (A)
                 (A) (A) (A) (A) (A) (A) (A) (A) (A) (A) (A) (A)
                 (A) (A) (A) (A) (A) (A) (A) (A) (A) (A) (A) (A)
                 (A) (A) (A) (A) (A) (A) (A) (A) (A) (A) (A) (A)
                 (A) (A) (A) (A) (A) (A) (A) (A) (A) (A) (A) (A)
                 (A) (A) (A) (A) (A) (A) (A) (A) (A) (A) (A) (A)
                 (A) (A) (A) (A) (A) (A) (A) (A) (A) (A) (A) (A)
                 (A) (A) (A) (A) (A) (A) (A) (A) (A) (A) (A) (A)
                 (A) (A) (A) (A) (A) (A) (A) (A) (A) (A) (A) (A)
                 (A) (A) (A) (A) (A) (A) (A) (A) (A) (A) (A) (A)
                 (A) (A) (A) (A) (A) (A) (A) (A) (A) (A) (A) (A)
                 (A) (A) (A) (A) (A) (A) (A) (A) (A) (A) (A) (A)
                 (A) (A) (A) (A) (A) (A) (A) (A) (A) (A) (A) (A)
                 (A) (A) (A) (A) (A) (A) (A) (A) (A) (A) (A) (A)
                 (A) (A) (A) (A) (A) (A) (A) (A) (A) (A) (A) (A)
                 (A) (A) (A) (A) (A) (A) (A) (A) (A) (A) (A) (A)
                 (A) (A) (A) (A) (A) (A) (A) (A) (A) (A) (A) (A)
                 (A) (A) (A) (A) (A) (A) (A) (A) (A) (A) (A) (A)
                 (A) (A) (A) (A) (A) (A) (A) (A) (A) (A) (A) (A)
                 (A) (A) (A) (A) (A) (A) (A) (A) (A) (A) (A) (A)
 The electronic state is 1-A.
 Alpha  occ. eigenvalues --  -19.21065 -19.19008 -19.14621 -19.13172 -19.11709
 Alpha  occ. eigenvalues --  -19.11022 -14.37869 -14.36261 -14.34873 -14.28251
 Alpha  occ. eigenvalues --  -10.34118 -10.32750 -10.28340 -10.27068 -10.24835
 Alpha  occ. eigenvalues --  -10.24372 -10.24372 -10.24012 -10.23929 -10.23412
 Alpha  occ. eigenvalues --  -10.23254 -10.23084 -10.21922 -10.21518 -10.21124
 Alpha  occ. eigenvalues --  -10.20554 -10.20251 -10.20222 -10.20219 -10.20215
 Alpha  occ. eigenvalues --  -10.20207 -10.20192 -10.20081 -10.19900 -10.19815
 Alpha  occ. eigenvalues --  -10.19650 -10.19390 -10.18562 -10.18349 -10.18096
 Alpha  occ. eigenvalues --  -10.17556 -10.16950 -10.16815  -1.11224  -1.09512
 Alpha  occ. eigenvalues --   -1.05758  -1.03907  -1.01042  -1.00460  -1.00039
 Alpha  occ. eigenvalues --   -0.97795  -0.92705  -0.90930  -0.83838  -0.82568
 Alpha  occ. eigenvalues --   -0.81722  -0.81170  -0.79449  -0.79190  -0.78571
 Alpha  occ. eigenvalues --   -0.77991  -0.76423  -0.75449  -0.74322  -0.72295
 Alpha  occ. eigenvalues --   -0.71621  -0.70469  -0.69656  -0.68413  -0.67929
 Alpha  occ. eigenvalues --   -0.67488  -0.65744  -0.63275  -0.62687  -0.62266
 Alpha  occ. eigenvalues --   -0.60650  -0.59077  -0.58398  -0.58080  -0.57507
 Alpha  occ. eigenvalues --   -0.55816  -0.55007  -0.54461  -0.54019  -0.53148
 Alpha  occ. eigenvalues --   -0.52292  -0.51781  -0.51203  -0.50558  -0.49971
 Alpha  occ. eigenvalues --   -0.49317  -0.48913  -0.48448  -0.48011  -0.47866
 Alpha  occ. eigenvalues --   -0.47180  -0.46856  -0.46678  -0.45994  -0.45761
 Alpha  occ. eigenvalues --   -0.45425  -0.44734  -0.44396  -0.44357  -0.43944
 Alpha  occ. eigenvalues --   -0.43856  -0.43639  -0.43388  -0.42986  -0.42549
 Alpha  occ. eigenvalues --   -0.42387  -0.42038  -0.41663  -0.41469  -0.41100
 Alpha  occ. eigenvalues --   -0.40825  -0.40413  -0.40284  -0.40220  -0.39879
 Alpha  occ. eigenvalues --   -0.39550  -0.39277  -0.38692  -0.38400  -0.38111
 Alpha  occ. eigenvalues --   -0.37965  -0.37343  -0.37151  -0.36818  -0.36273
 Alpha  occ. eigenvalues --   -0.36236  -0.35678  -0.35417  -0.35018  -0.34787
 Alpha  occ. eigenvalues --   -0.34587  -0.34240  -0.33731  -0.33146  -0.32971
 Alpha  occ. eigenvalues --   -0.32937  -0.32613  -0.32033  -0.30144  -0.29997
 Alpha  occ. eigenvalues --   -0.28267  -0.28000  -0.26492  -0.25929  -0.25667
 Alpha  occ. eigenvalues --   -0.24879  -0.24371  -0.24177  -0.22553  -0.21561
 Alpha  occ. eigenvalues --   -0.17365
 Alpha virt. eigenvalues --   -0.10607  -0.06641  -0.04535  -0.04023  -0.00846
 Alpha virt. eigenvalues --    0.00124   0.01545   0.01814   0.02263   0.02612
 Alpha virt. eigenvalues --    0.03467   0.04040   0.04515   0.05566   0.05937
 Alpha virt. eigenvalues --    0.06697   0.06850   0.07191   0.07592   0.07870
 Alpha virt. eigenvalues --    0.08062   0.08182   0.08521   0.08688   0.09138
 Alpha virt. eigenvalues --    0.09328   0.09701   0.10225   0.10457   0.11003
 Alpha virt. eigenvalues --    0.11394   0.11680   0.12024   0.12180   0.12892
 Alpha virt. eigenvalues --    0.13078   0.13691   0.13875   0.14205   0.14498
 Alpha virt. eigenvalues --    0.15424   0.15883   0.16027   0.16184   0.16547
 Alpha virt. eigenvalues --    0.16729   0.17273   0.17452   0.18043   0.18431
 Alpha virt. eigenvalues --    0.18680   0.19239   0.19251   0.19563   0.19876
 Alpha virt. eigenvalues --    0.20122   0.20454   0.21597   0.22086   0.22441
 Alpha virt. eigenvalues --    0.22621   0.22946   0.23737   0.24070   0.24374
 Alpha virt. eigenvalues --    0.24638   0.25542   0.25919   0.26157   0.26310
 Alpha virt. eigenvalues --    0.26478   0.26938   0.27666   0.27953   0.27989
 Alpha virt. eigenvalues --    0.28378   0.29034   0.29487   0.30386   0.30722
 Alpha virt. eigenvalues --    0.31272   0.31789   0.32188   0.32426   0.33066
 Alpha virt. eigenvalues --    0.33719   0.34085   0.34475   0.35322   0.36065
 Alpha virt. eigenvalues --    0.36847   0.37114   0.37271   0.37972   0.38142
 Alpha virt. eigenvalues --    0.38452   0.39553   0.39839   0.40418   0.40651
 Alpha virt. eigenvalues --    0.41537   0.41753   0.42255   0.42447   0.42693
 Alpha virt. eigenvalues --    0.43256   0.43709   0.44127   0.44265   0.44673
 Alpha virt. eigenvalues --    0.44965   0.45200   0.45608   0.45674   0.46186
 Alpha virt. eigenvalues --    0.46746   0.46894   0.47060   0.47506   0.47817
 Alpha virt. eigenvalues --    0.48038   0.48333   0.48545   0.48973   0.49094
 Alpha virt. eigenvalues --    0.49299   0.49838   0.50198   0.50398   0.50833
 Alpha virt. eigenvalues --    0.51146   0.51977   0.52151   0.52850   0.53076
 Alpha virt. eigenvalues --    0.53556   0.53822   0.54567   0.54972   0.55085
 Alpha virt. eigenvalues --    0.55282   0.56408   0.56510   0.56946   0.57183
 Alpha virt. eigenvalues --    0.57565   0.57862   0.58176   0.58376   0.58763
 Alpha virt. eigenvalues --    0.58782   0.59617   0.59990   0.60272   0.60641
 Alpha virt. eigenvalues --    0.60943   0.61275   0.61373   0.61475   0.61846
 Alpha virt. eigenvalues --    0.62084   0.62206   0.62453   0.63062   0.63285
 Alpha virt. eigenvalues --    0.63499   0.63767   0.63945   0.64189   0.64309
 Alpha virt. eigenvalues --    0.64417   0.64691   0.65022   0.65338   0.65993
 Alpha virt. eigenvalues --    0.66459   0.66568   0.66651   0.67187   0.67351
 Alpha virt. eigenvalues --    0.67627   0.67837   0.68029   0.68460   0.68712
 Alpha virt. eigenvalues --    0.68848   0.69245   0.69490   0.69732   0.70006
 Alpha virt. eigenvalues --    0.70419   0.70720   0.71272   0.71495   0.71846
 Alpha virt. eigenvalues --    0.72011   0.72218   0.72385   0.72813   0.73445
 Alpha virt. eigenvalues --    0.73590   0.73734   0.74065   0.74338   0.74644
 Alpha virt. eigenvalues --    0.74844   0.75241   0.75565   0.75905   0.76039
 Alpha virt. eigenvalues --    0.76403   0.76794   0.77175   0.77470   0.78082
 Alpha virt. eigenvalues --    0.78473   0.78578   0.78918   0.79254   0.79380
 Alpha virt. eigenvalues --    0.80114   0.80795   0.81347   0.81558   0.81874
 Alpha virt. eigenvalues --    0.82714   0.83162   0.84032   0.84697   0.85176
 Alpha virt. eigenvalues --    0.86459   0.86839   0.87192   0.87545   0.88807
 Alpha virt. eigenvalues --    0.89432   0.90168   0.91007   0.91370   0.91771
 Alpha virt. eigenvalues --    0.92197   0.92898   0.93557   0.94040   0.94405
 Alpha virt. eigenvalues --    0.94789   0.95345   0.95770   0.96460   0.96652
 Alpha virt. eigenvalues --    0.97272   0.97746   0.98081   0.98759   0.99926
 Alpha virt. eigenvalues --    1.00032   1.00547   1.01253   1.01471   1.02756
 Alpha virt. eigenvalues --    1.02879   1.03564   1.04111   1.04680   1.06208
 Alpha virt. eigenvalues --    1.06584   1.07499   1.07885   1.08444   1.09570
 Alpha virt. eigenvalues --    1.10035   1.10918   1.11416   1.12026   1.12377
 Alpha virt. eigenvalues --    1.13452   1.14050   1.14465   1.14857   1.15519
 Alpha virt. eigenvalues --    1.16258   1.17638   1.17656   1.18081   1.19587
 Alpha virt. eigenvalues --    1.20067   1.20706   1.20844   1.22806   1.23305
 Alpha virt. eigenvalues --    1.23650   1.24220   1.25198   1.25644   1.26529
 Alpha virt. eigenvalues --    1.27017   1.27382   1.28668   1.29482   1.29873
 Alpha virt. eigenvalues --    1.30692   1.31615   1.32184   1.32685   1.33271
 Alpha virt. eigenvalues --    1.34048   1.35554   1.35861   1.36597   1.37501
 Alpha virt. eigenvalues --    1.37771   1.38539   1.39089   1.39225   1.39331
 Alpha virt. eigenvalues --    1.40120   1.40284   1.41553   1.41620   1.42512
 Alpha virt. eigenvalues --    1.43022   1.43917   1.44970   1.45652   1.46746
 Alpha virt. eigenvalues --    1.47136   1.47343   1.47431   1.48418   1.49072
 Alpha virt. eigenvalues --    1.49411   1.50437   1.51054   1.51613   1.51779
 Alpha virt. eigenvalues --    1.52224   1.53042   1.53341   1.54107   1.54747
 Alpha virt. eigenvalues --    1.54827   1.54951   1.55660   1.55956   1.56434
 Alpha virt. eigenvalues --    1.57356   1.57595   1.59150   1.59740   1.59905
 Alpha virt. eigenvalues --    1.60289   1.60657   1.61437   1.62024   1.62395
 Alpha virt. eigenvalues --    1.63054   1.63278   1.63480   1.64306   1.64874
 Alpha virt. eigenvalues --    1.65233   1.65763   1.66047   1.66499   1.66842
 Alpha virt. eigenvalues --    1.67192   1.67646   1.68163   1.68811   1.69088
 Alpha virt. eigenvalues --    1.69113   1.70021   1.70392   1.70608   1.70715
 Alpha virt. eigenvalues --    1.71006   1.72052   1.72409   1.72670   1.73105
 Alpha virt. eigenvalues --    1.73630   1.74533   1.74701   1.75437   1.76322
 Alpha virt. eigenvalues --    1.76416   1.77198   1.77347   1.77833   1.78361
 Alpha virt. eigenvalues --    1.78696   1.78713   1.79026   1.79464   1.79671
 Alpha virt. eigenvalues --    1.80436   1.80607   1.81367   1.81623   1.81715
 Alpha virt. eigenvalues --    1.82147   1.82338   1.82927   1.83233   1.83689
 Alpha virt. eigenvalues --    1.84010   1.84261   1.84559   1.84646   1.85177
 Alpha virt. eigenvalues --    1.85448   1.85943   1.86274   1.86551   1.86614
 Alpha virt. eigenvalues --    1.87827   1.87895   1.88286   1.88712   1.89052
 Alpha virt. eigenvalues --    1.89765   1.90069   1.90293   1.91115   1.91306
 Alpha virt. eigenvalues --    1.91405   1.91632   1.91906   1.91991   1.92560
 Alpha virt. eigenvalues --    1.94037   1.94358   1.94683   1.94980   1.95471
 Alpha virt. eigenvalues --    1.95827   1.96603   1.96839   1.97126   1.97429
 Alpha virt. eigenvalues --    1.97576   1.98900   1.99476   2.00340   2.00510
 Alpha virt. eigenvalues --    2.00850   2.01655   2.02236   2.02683   2.03604
 Alpha virt. eigenvalues --    2.04221   2.04933   2.05033   2.05625   2.06382
 Alpha virt. eigenvalues --    2.06903   2.07811   2.08100   2.08729   2.09149
 Alpha virt. eigenvalues --    2.09518   2.09557   2.10435   2.10708   2.11765
 Alpha virt. eigenvalues --    2.12250   2.12873   2.13087   2.13313   2.14207
 Alpha virt. eigenvalues --    2.14913   2.15505   2.15962   2.16786   2.18102
 Alpha virt. eigenvalues --    2.18904   2.19287   2.20424   2.21721   2.21902
 Alpha virt. eigenvalues --    2.22269   2.23556   2.23700   2.25448   2.25808
 Alpha virt. eigenvalues --    2.26212   2.26647   2.27317   2.27651   2.28024
 Alpha virt. eigenvalues --    2.28791   2.30046   2.30207   2.30999   2.31947
 Alpha virt. eigenvalues --    2.32448   2.33566   2.34213   2.34990   2.35278
 Alpha virt. eigenvalues --    2.36202   2.36979   2.37684   2.38373   2.39374
 Alpha virt. eigenvalues --    2.39519   2.40079   2.40492   2.40725   2.41045
 Alpha virt. eigenvalues --    2.41484   2.42283   2.42663   2.43706   2.44397
 Alpha virt. eigenvalues --    2.45040   2.45967   2.46743   2.47882   2.48713
 Alpha virt. eigenvalues --    2.49546   2.51041   2.51608   2.52513   2.53290
 Alpha virt. eigenvalues --    2.54157   2.54238   2.54748   2.55458   2.56242
 Alpha virt. eigenvalues --    2.57223   2.58679   2.59946   2.60058   2.60620
 Alpha virt. eigenvalues --    2.62216   2.62739   2.62931   2.63234   2.63422
 Alpha virt. eigenvalues --    2.63956   2.64666   2.64691   2.65126   2.65712
 Alpha virt. eigenvalues --    2.66458   2.66735   2.68199   2.68642   2.69080
 Alpha virt. eigenvalues --    2.69666   2.70387   2.70941   2.71523   2.71875
 Alpha virt. eigenvalues --    2.72245   2.72354   2.73150   2.73483   2.74135
 Alpha virt. eigenvalues --    2.75043   2.75683   2.76313   2.77017   2.77957
 Alpha virt. eigenvalues --    2.79259   2.79611   2.80034   2.81438   2.81954
 Alpha virt. eigenvalues --    2.82355   2.83246   2.84094   2.84962   2.85706
 Alpha virt. eigenvalues --    2.86175   2.86873   2.87790   2.88025   2.88874
 Alpha virt. eigenvalues --    2.89257   2.89867   2.90919   2.91725   2.92255
 Alpha virt. eigenvalues --    2.93695   2.95178   2.97055   2.97866   2.99062
 Alpha virt. eigenvalues --    3.00484   3.01082   3.01281   3.01969   3.02863
 Alpha virt. eigenvalues --    3.04424   3.05389   3.05956   3.07205   3.08233
 Alpha virt. eigenvalues --    3.09187   3.10648   3.10976   3.11091   3.11381
 Alpha virt. eigenvalues --    3.12164   3.15090   3.15700   3.16862   3.17302
 Alpha virt. eigenvalues --    3.19059   3.20389   3.20985   3.21311   3.22805
 Alpha virt. eigenvalues --    3.23841   3.25112   3.26300   3.27337   3.29164
 Alpha virt. eigenvalues --    3.31139   3.33326   3.40185   3.43714   3.44410
 Alpha virt. eigenvalues --    3.48615   3.53319   3.58959   3.59267   3.60650
 Alpha virt. eigenvalues --    3.61824   3.62944   3.72757   3.73108   3.78331
 Alpha virt. eigenvalues --    3.86154
          Condensed to atoms (all electrons):
 Mulliken charges:
               1
     1  O   -0.147486
     2  O   -0.248935
     3  O   -0.128706
     4  O   -0.287049
     5  O   -0.253878
     6  O   -0.175277
     7  N   -0.074820
     8  N    0.107548
     9  N   -0.142252
    10  N   -0.346537
    11  C   -0.158261
    12  C    0.037138
    13  C   -0.073808
    14  C    0.083196
    15  C   -0.126423
    16  C    0.129877
    17  C   -0.079463
    18  C   -0.036055
    19  C    0.136669
    20  C   -0.073868
    21  C    0.081485
    22  C    0.017854
    23  C    0.020278
    24  C    0.133390
    25  C   -0.172897
    26  C   -0.006920
    27  C    0.085444
    28  C   -0.035914
    29  C    0.024504
    30  C   -0.099624
    31  C   -0.108187
    32  C    0.153640
    33  C   -0.078496
    34  C    0.045997
    35  C   -0.060676
    36  C   -0.225261
    37  C    0.181849
    38  C   -0.030513
    39  C    0.125285
    40  C    0.154805
    41  C    0.186946
    42  C    0.077118
    43  C    0.016857
    44  H    0.158259
    45  H    0.023441
    46  H    0.025056
    47  H    0.012973
    48  H    0.019704
    49  H    0.028917
    50  H   -0.036716
    51  H    0.050871
    52  H   -0.002420
    53  H    0.017287
    54  H    0.040136
    55  H    0.041626
    56  H    0.087430
    57  H    0.042539
    58  H    0.085706
    59  H    0.022544
    60  H    0.066487
    61  H    0.062822
    62  H    0.055380
    63  H    0.070135
    64  H    0.021591
    65  H    0.013050
    66  H   -0.043421
    67  H   -0.009392
    68  H   -0.040621
    69  H    0.110516
    70  H    0.018038
    71  H    0.026514
    72  H   -0.053811
    73  H    0.005488
    74  H    0.005340
    75  H    0.019952
    76  H    0.023492
    77  H   -0.020567
    78  H    0.000684
    79  H    0.046975
    80  H    0.248043
    81  H    0.127376
 Sum of Mulliken charges =  -0.00000
 Mulliken charges with hydrogens summed into heavy atoms:
               1
     1  O   -0.147486
     2  O   -0.000892
     3  O   -0.001330
     4  O   -0.287049
     5  O   -0.253878
     6  O   -0.175277
     7  N    0.083439
     8  N    0.105128
     9  N   -0.054822
    10  N   -0.346537
    11  C   -0.158261
    12  C    0.037138
    13  C   -0.073808
    14  C    0.083196
    15  C   -0.126423
    16  C    0.129877
    17  C   -0.056021
    18  C   -0.036055
    19  C    0.174698
    20  C   -0.054163
    21  C    0.081485
    22  C    0.017854
    23  C    0.020278
    24  C    0.125591
    25  C   -0.122026
    26  C    0.092130
    27  C    0.085444
    28  C    0.092331
    29  C    0.113536
    30  C    0.088713
    31  C   -0.086596
    32  C    0.113877
    33  C   -0.119117
    34  C    0.045997
    35  C   -0.060676
    36  C   -0.225261
    37  C    0.181849
    38  C    0.124555
    39  C    0.125285
    40  C    0.106482
    41  C    0.186946
    42  C    0.125902
    43  C    0.043949
 Electronic spatial extent (au):  <R**2>=          29974.5241
 Charge=             -0.0000 electrons
 Dipole moment (field-independent basis, Debye):
    X=             -2.9565    Y=              0.6834    Z=             -1.2201  Tot=              3.2705
 Quadrupole moment (field-independent basis, Debye-Ang):
   XX=           -253.3741   YY=           -236.7536   ZZ=           -255.9587
   XY=             13.4022   XZ=             16.0412   YZ=            -17.1514
 Traceless Quadrupole moment (field-independent basis, Debye-Ang):
   XX=             -4.6786   YY=             11.9419   ZZ=             -7.2632
   XY=             13.4022   XZ=             16.0412   YZ=            -17.1514
 Octapole moment (field-independent basis, Debye-Ang**2):
  XXX=             39.0923  YYY=            126.1330  ZZZ=            -16.2091  XYY=           -130.0506
  XXY=            -38.1676  XXZ=           -122.1529  XZZ=            -49.4926  YZZ=            -29.5204
  YYZ=             41.1676  XYZ=            -49.5912
 Hexadecapole moment (field-independent basis, Debye-Ang**3):
 XXXX=         -21776.3630 YYYY=         -15835.2914 ZZZZ=          -1650.4293 XXXY=            395.7369
 XXXZ=            984.7321 YYYX=            944.8335 YYYZ=           -459.3639 ZZZX=             63.7285
 ZZZY=             43.8792 XXYY=          -6193.7577 XXZZ=          -3914.6857 YYZZ=          -3078.7087
 XXYZ=             89.4645 YYXZ=            271.2572 ZZXY=            166.9467
 N-N= 5.068142125883D+03 E-N=-1.466750647187D+04  KE= 1.928973127252D+03
 1\1\GINC-PADAWAN\SP\RB3LYP TD-FC\SVP\C33H38N4O6\PADAWAN\29-Jun-2019\0\
 \# td=(NStates=1) B3LYP/SVP\\TD\\0,1\O,0,-4.0641979306,-4.8180561768,1
 .8825522836\O,0,2.6241264413,-4.6846097678,1.328136951\O,0,6.977214025
 7,-1.5920364733,1.8176944489\O,0,3.6765727148,-3.0881768427,0.08235489
 61\O,0,7.546644201,-0.7043003251,-0.270883121\O,0,-3.0772733134,2.3555
 736082,-0.4333949009\N,0,-0.2699339881,-0.4598201751,-0.6455115641\N,0
 ,1.547353228,1.8751579483,-0.4675083284\N,0,-3.1676087499,-3.133004413
 4,0.6553018488\N,0,-0.8251410098,2.8613072801,-0.1306269085\C,0,0.6786
 901333,-2.3595939178,-1.4532576209\C,0,0.9120741097,-0.9815953912,-1.0
 729961485\C,0,-0.7508092096,-2.6417825405,-1.3388059433\C,0,-1.2842988
 519,-1.4087211835,-0.6658057106\C,0,3.7729057514,1.5604692134,-0.27842
 2109\C,0,2.4801701228,0.9002918547,-0.6992641114\C,0,2.2158468349,-0.4
 36560914,-0.850124487\C,0,3.5583164717,2.7713969419,0.2103490252\C,0,1
 .676369042,-3.354297131,-2.0306704126\C,0,-5.4905879655,-2.8198475997,
 1.299297194\C,0,-3.5719910584,-1.7745924351,0.164142346\C,0,2.05603991
 61,2.9946194561,0.0093685603\C,0,-4.9861013064,-1.5520041643,0.4672007
 64\C,0,5.1263478967,0.8995548724,-0.2330722659\C,0,-2.5441792336,-1.01
 68602414,-0.3640428781\C,0,-1.4194616083,-3.7429240455,-1.817982115\C,
 0,-4.1877984482,-3.8061148433,1.3328184074\C,0,2.0381949532,-4.4456935
 931,-1.0040096278\C,0,5.4965784602,-0.1097490984,0.852967844\C,0,4.437
 5698183,3.8255354028,0.5974519455\C,0,1.268725551,4.1557301233,0.19133
 08537\C,0,-6.6448191325,-3.6103358134,0.8261416763\C,0,-5.8525448351,-
 0.5943952235,0.1178989568\C,0,-0.1693648558,3.9976580156,0.2426460765\
 C,0,-1.0526403626,5.1142589596,0.4921476803\C,0,-2.3515946332,4.563257
 8272,0.2848443904\C,0,2.832139796,-4.0126739376,0.1533030195\C,0,-5.38
 32220317,0.5215274413,-0.7345549203\C,0,6.7890787869,-0.8174772173,0.7
 146323614\C,0,-3.6529428372,5.2729083493,0.4306675775\C,0,-2.219371488
 7,3.1112960906,-0.0992056904\C,0,-0.7102916203,6.5484605161,0.87851690
 33\C,0,-4.2095805207,5.5882847852,-1.0110801995\H,0,-0.3010016851,0.31
 92787937,0.0611663769\H,0,2.9689442554,-1.2278609273,-0.8712372111\H,0
 ,2.5479846798,-2.7701286095,-2.3791244595\H,0,1.2002810343,-3.92443655
 46,-2.8615145116\H,0,-5.5023519625,-2.5707056953,2.3259731372\H,0,5.17
 95904715,0.5283822196,-1.3138617335\H,0,5.8129598634,1.6580153296,-0.1
 596095356\H,0,-2.7605222699,0.1077585662,-0.3140418017\H,0,0.671724403
 ,1.8512849724,-0.5325406996\H,0,-1.3473494707,-4.5834929198,-1.1498744
 972\H,0,-2.6397540864,-3.6134519316,-1.8495830914\H,0,-1.2715523351,-4
 .0993570045,-2.9001556049\H,0,-2.243756762,-3.2803877695,0.75494816\H,
 0,1.2284736767,-5.1067933776,-0.6636317531\H,0,2.903516456,-5.05581968
 89,-1.7693223141\H,0,4.9256878018,-0.9833094943,0.7848482209\H,0,5.507
 0950549,0.4622322619,1.9859864017\H,0,4.7727077964,4.4164820646,-0.523
 8137532\H,0,5.5653196237,3.3547430075,0.88340413\H,0,3.8531023428,4.68
 12335955,1.3586615831\H,0,1.7169424728,5.071316309,0.864357511\H,0,-7.
 6777193402,-3.1218872722,0.923553625\H,0,-6.7868827522,-4.42277866,1.3
 184876892\H,0,-6.5201877158,-4.0337307892,-0.1362115328\H,0,-6.8484093
 632,-0.8160625148,0.1849164927\H,0,-4.796958668,1.457030524,-0.0832255
 839\H,0,-6.3132297004,0.9269817732,-1.3914834644\H,0,-4.6176610781,0.1
 140815704,-1.354612226\H,0,-3.6240843939,6.0822126264,0.982525129\H,0,
 -4.3809095292,4.5666689988,0.8548215085\H,0,-0.062745419,6.5822487903,
 1.6667065123\H,0,-1.6280689172,7.2772911838,0.9723465864\H,0,-0.265227
 3547,7.2623685226,0.1081617733\H,0,-3.4754754545,5.9690945352,-1.56070
 02725\H,0,-4.9623689441,6.3765707732,-1.0121810953\H,0,-4.6101544923,4
 .5882589962,-1.3860781158\H,0,3.5444828488,-4.2333095435,1.8240631887\
 H,0,7.7899470193,-1.9223816272,1.6968770707\\Version=ES64L-G16RevA.03\
 State=1-A\HF=-1948.9967051\RMSD=3.451e-09\PG=C01 [X(C33H38N4O6)]\\@


 FOR THE NATURE OF THE CHEMICAL BOND
 IS THE PROBLEM AT THE HEART OF ALL CHEMISTRY.

                     -- BRYCE CRAWFORD, JR., 1953
 Job cpu time:       0 days  3 hours 52 minutes 33.5 seconds.
 Elapsed time:       0 days  2 hours 34 minutes 52.2 seconds.
 File lengths (MBytes):  RWF=   2591 Int=      0 D2E=      0 Chk=     65 Scr=      1
 Normal termination of Gaussian 16 at Sat Jun 29 03:12:54 2019.
