 Entering Gaussian System, Link 0=g16
 Input=Geometria-259-.com
 Output=Geometria-259-.log
 Initial command:
 /usr/local/g16/l1.exe "/home/padawan/israel-mol/phycocyanobilin/spectra/emi/Gau-17481.inp" -scrdir="/home/padawan/israel-mol/phycocyanobilin/spectra/emi/"
 Entering Link 1 = /usr/local/g16/l1.exe PID=     17483.
  
 Copyright (c) 1988,1990,1992,1993,1995,1998,2003,2009,2016,
            Gaussian, Inc.  All Rights Reserved.
  
 This is part of the Gaussian(R) 16 program.  It is based on
 the Gaussian(R) 09 system (copyright 2009, Gaussian, Inc.),
 the Gaussian(R) 03 system (copyright 2003, Gaussian, Inc.),
 the Gaussian(R) 98 system (copyright 1998, Gaussian, Inc.),
 the Gaussian(R) 94 system (copyright 1995, Gaussian, Inc.),
 the Gaussian 92(TM) system (copyright 1992, Gaussian, Inc.),
 the Gaussian 90(TM) system (copyright 1990, Gaussian, Inc.),
 the Gaussian 88(TM) system (copyright 1988, Gaussian, Inc.),
 the Gaussian 86(TM) system (copyright 1986, Carnegie Mellon
 University), and the Gaussian 82(TM) system (copyright 1983,
 Carnegie Mellon University). Gaussian is a federally registered
 trademark of Gaussian, Inc.
  
 This software contains proprietary and confidential information,
 including trade secrets, belonging to Gaussian, Inc.
  
 This software is provided under written license and may be
 used, copied, transmitted, or stored only in accord with that
 written license.
  
 The following legend is applicable only to US Government
 contracts under FAR:
  
                    RESTRICTED RIGHTS LEGEND
  
 Use, reproduction and disclosure by the US Government is
 subject to restrictions as set forth in subparagraphs (a)
 and (c) of the Commercial Computer Software - Restricted
 Rights clause in FAR 52.227-19.
  
 Gaussian, Inc.
 340 Quinnipiac St., Bldg. 40, Wallingford CT 06492
  
  
 ---------------------------------------------------------------
 Warning -- This program may not be used in any manner that
 competes with the business of Gaussian, Inc. or will provide
 assistance to any competitor of Gaussian, Inc.  The licensee
 of this program is prohibited from giving any competitor of
 Gaussian, Inc. access to this program.  By using this program,
 the user acknowledges that Gaussian, Inc. is engaged in the
 business of creating and licensing software in the field of
 computational chemistry and represents and warrants to the
 licensee that it is not a competitor of Gaussian, Inc. and that
 it will not use this program in any manner prohibited above.
 ---------------------------------------------------------------
  

 Cite this work as:
 Gaussian 16, Revision A.03,
 M. J. Frisch, G. W. Trucks, H. B. Schlegel, G. E. Scuseria, 
 M. A. Robb, J. R. Cheeseman, G. Scalmani, V. Barone, 
 G. A. Petersson, H. Nakatsuji, X. Li, M. Caricato, A. V. Marenich, 
 J. Bloino, B. G. Janesko, R. Gomperts, B. Mennucci, H. P. Hratchian, 
 J. V. Ortiz, A. F. Izmaylov, J. L. Sonnenberg, D. Williams-Young, 
 F. Ding, F. Lipparini, F. Egidi, J. Goings, B. Peng, A. Petrone, 
 T. Henderson, D. Ranasinghe, V. G. Zakrzewski, J. Gao, N. Rega, 
 G. Zheng, W. Liang, M. Hada, M. Ehara, K. Toyota, R. Fukuda, 
 J. Hasegawa, M. Ishida, T. Nakajima, Y. Honda, O. Kitao, H. Nakai, 
 T. Vreven, K. Throssell, J. A. Montgomery, Jr., J. E. Peralta, 
 F. Ogliaro, M. J. Bearpark, J. J. Heyd, E. N. Brothers, K. N. Kudin, 
 V. N. Staroverov, T. A. Keith, R. Kobayashi, J. Normand, 
 K. Raghavachari, A. P. Rendell, J. C. Burant, S. S. Iyengar, 
 J. Tomasi, M. Cossi, J. M. Millam, M. Klene, C. Adamo, R. Cammi, 
 J. W. Ochterski, R. L. Martin, K. Morokuma, O. Farkas, 
 J. B. Foresman, and D. J. Fox, Gaussian, Inc., Wallingford CT, 2016.
 
 ******************************************
 Gaussian 16:  ES64L-G16RevA.03 25-Dec-2016
                30-Jun-2019 
 ******************************************
 %nproc=4
 Will use up to    4 processors via shared memory.
 %Mem=2GB
 --------------------------
 # td=(NStates=1) B3LYP/SVP
 --------------------------
 1/38=1,172=1/1;
 2/12=2,17=6,18=5,40=1/2;
 3/5=18,7=101,11=9,25=1,30=1,74=-5/1,2,3,8;
 4//1;
 5/5=2,38=5/2;
 8/6=1,10=1,108=1/1;
 9/41=1,42=1,70=2/14;
 6/7=2,8=2,9=2,10=2/1;
 99/5=1,9=1/99;
 --
 TD
 --
 Symbolic Z-matrix:
 Charge =  0 Multiplicity = 1
 8                    -4.11332  -4.83055   1.91545 
 8                     3.04167  -4.86592   1.05967 
 8                     6.9765   -1.67405   1.85049 
 8                     3.79146  -3.21102  -0.07156 
 8                     7.61102  -0.44768   0.0397 
 8                    -3.12342   2.4489   -0.3444 
 7                    -0.22253  -0.37595  -0.78802 
 7                     1.48891   1.81325  -0.55432 
 7                    -3.22904  -3.06607   0.63517 
 7                    -0.81421   2.79851  -0.08551 
 6                     0.61119  -2.3431   -1.43118 
 6                     0.99831  -1.00549  -1.04643 
 6                    -0.75952  -2.62825  -1.20083 
 6                    -1.30711  -1.33982  -0.81554 
 6                     3.73928   1.52844  -0.16179 
 6                     2.51022   0.80795  -0.64512 
 6                     2.28962  -0.44372  -0.96115 
 6                     3.52033   2.82821   0.16865 
 6                     1.58035  -3.30629  -2.02793 
 6                    -5.42583  -2.77609   1.40925 
 6                    -3.53932  -1.78766   0.12973 
 6                     2.02936   2.95688  -0.12531 
 6                    -4.98133  -1.65782   0.44875 
 6                     5.08593   0.82649  -0.21915 
 6                    -2.6361   -1.06692  -0.46726 
 6                    -1.54497  -3.7532   -1.77646 
 6                    -4.2201   -3.71187   1.3875 
 6                     2.01648  -4.53191  -1.00618 
 6                     5.30836  -0.06063   0.98794 
 6                     4.53675   3.78247   0.55984 
 6                     1.31037   4.03401   0.33238 
 6                    -6.82356  -3.51159   1.14027 
 6                    -5.76759  -0.69475  -0.0542 
 6                    -0.08487   4.0103    0.19663 
 6                    -1.09337   5.22022   0.39911 
 6                    -2.34747   4.60511   0.26921 
 6                     2.90043  -4.11257   0.01716 
 6                    -5.518     0.56338  -0.78732 
 6                     6.81319  -0.67683   0.88823 
 6                    -3.63648   5.31385   0.32433 
 6                    -2.13652   3.21501  -0.07941 
 6                    -0.67996   6.53371   0.83467 
 6                    -4.41202   5.59377  -0.97789 
 1                    -0.26519   0.60568  -0.45411 
 1                     3.13611  -1.08485  -1.23293 
 1                     2.5323   -2.7257   -1.94085 
 1                     1.14536  -3.6707   -3.00562 
 1                    -5.40606  -2.24763   2.48187 
 1                     5.40672   0.3558   -1.1982 
 1                     5.84434   1.52338  -0.30451 
 1                    -2.80922   0.05826  -0.59088 
 1                     0.51532   1.82579  -0.56515 
 1                    -1.27919  -4.71939  -1.10975 
 1                    -2.65921  -3.56004  -2.02378 
 1                    -1.25913  -4.01406  -2.61983 
 1                    -2.163    -3.48619   0.6844 
 1                     1.18199  -5.02717  -0.56112 
 1                     2.47466  -5.35919  -1.63741 
 1                     4.61903  -1.05359   1.22773 
 1                     5.35575   0.52155   2.09885 
 1                     4.41279   4.76699   0.19978 
 1                     5.50506   3.53116   0.44029 
 1                     4.34193   3.91061   1.74865 
 1                     1.6958    4.85668   0.61673 
 1                    -7.76656  -3.00725   1.3717 
 1                    -6.79268  -4.59898   1.54823 
 1                    -6.68498  -3.4591    0.08517 
 1                    -6.69752  -0.81544   0.4503 
 1                    -5.1109    1.49489  -0.135 
 1                    -6.407     0.92526  -1.18572 
 1                    -4.81082   0.60743  -1.71059 
 1                    -3.58997   6.33337   0.90659 
 1                    -4.22615   4.79434   0.98484 
 1                    -0.20135   6.63575   1.81035 
 1                    -1.6104    7.20702   0.8428 
 1                     0.17764   7.05358   0.39065 
 1                    -3.79353   6.12596  -1.85343 
 1                    -5.37947   5.89038  -0.65189 
 1                    -4.6438    4.52427  -1.31448 
 1                     3.7276   -4.43836   1.71411 
 1                     7.98153  -1.94215   1.55003 
 
 Stoichiometry    C33H38N4O6
 Framework group  C1[X(C33H38N4O6)]
 Deg. of freedom   237
 Full point group                 C1      NOp   1
 Largest Abelian subgroup         C1      NOp   1
 Largest concise Abelian subgroup C1      NOp   1
                         Standard orientation:                         
 ---------------------------------------------------------------------
 Center     Atomic      Atomic             Coordinates (Angstroms)
 Number     Number       Type             X           Y           Z
 ---------------------------------------------------------------------
      1          8           0        4.017917   -4.908434   -1.922167
      2          8           0       -3.133223   -4.810956   -1.039449
      3          8           0       -7.011415   -1.547634   -1.818340
      4          8           0       -3.848057   -3.141551    0.093099
      5          8           0       -7.616335   -0.308247   -0.006285
      6          8           0        3.171129    2.389937    0.334807
      7          7           0        0.220275   -0.380496    0.791888
      8          7           0       -1.451320    1.839744    0.562652
      9          7           0        3.171211   -3.126859   -0.640168
     10          7           0        0.867808    2.781913    0.084297
     11          6           0       -0.647190   -2.331378    1.439956
     12          6           0       -1.010997   -0.987164    1.055465
     13          6           0        0.717145   -2.641982    1.204715
     14          6           0        1.286972   -1.364209    0.816203
     15          6           0       -3.708037    1.596206    0.178852
     16          6           0       -2.490673    0.853552    0.658203
     17          6           0       -2.292029   -0.401718    0.974528
     18          6           0       -3.466376    2.891442   -0.153589
     19          6           0       -1.631703   -3.276009    2.041222
     20          6           0        5.370037   -2.878146   -1.422767
     21          6           0        3.506943   -1.853981   -0.137053
     22          6           0       -1.972179    2.992795    0.134653
     23          6           0        4.949892   -1.751060   -0.461613
     24          6           0       -5.067193    0.919294    0.241912
     25          6           0        2.619447   -1.116179    0.462682
     26          6           0        1.483864   -3.780759    1.778398
     27          6           0        4.147326   -3.791475   -1.395641
     28          6           0       -2.094248   -4.494217    1.022227
     29          6           0       -5.310519    0.035425   -0.963533
     30          6           0       -4.466472    3.863981   -0.541807
     31          6           0       -1.235161    4.056084   -0.326721
     32          6           0        6.754951   -3.639101   -1.158388
     33          6           0        5.755689   -0.802245    0.037503
     34          6           0        0.159902    4.006727   -0.196196
     35          6           0        1.189805    5.197648   -0.403558
     36          6           0        2.432816    4.559595   -0.277826
     37          6           0       -2.974159   -4.059480    0.001842
     38          6           0        5.532142    0.460887    0.770422
     39          6           0       -6.826084   -0.552796   -0.857605
     40          6           0        3.734472    5.244365   -0.338429
     41          6           0        2.197554    3.173913    0.072847
     42          6           0        0.799069    6.518185   -0.838750
     43          6           0        4.519962    5.510994    0.960604
     44          1           0        0.279789    0.599900    0.456933
     45          1           0       -3.149176   -1.026875    1.250078
     46          1           0       -2.573097   -2.678013    1.957200
     47          1           0       -1.199820   -3.647573    3.017596
     48          1           0        5.355976   -2.350306   -2.495782
     49          1           0       -5.392917    0.455432    1.222586
     50          1           0       -5.812278    1.630145    0.329498
     51          1           0        2.813776    0.005714    0.584630
     52          1           0       -0.477632    1.834312    0.569815
     53          1           0        1.197772   -4.742433    1.113568
     54          1           0        2.602399   -3.608004    2.021352
     55          1           0        1.196442   -4.035596    2.623072
     56          1           0        2.097412   -3.527262   -0.685009
     57          1           0       -1.270728   -5.005167    0.574480
     58          1           0       -2.565237   -5.312366    1.655923
     59          1           0       -4.640548   -0.970287   -1.205019
     60          1           0       -5.351349    0.617457   -2.074779
     61          1           0       -4.322998    4.846340   -0.183106
     62          1           0       -5.438802    3.630695   -0.418390
     63          1           0       -4.273814    3.987506   -1.731460
     64          1           0       -1.606408    4.885501   -0.610360
     65          1           0        7.706222   -3.152454   -1.393815
     66          1           0        6.702465   -4.726075   -1.565244
     67          1           0        6.621358   -3.583188   -0.102819
     68          1           0        6.681328   -0.940515   -0.470384
     69          1           0        5.139853    1.399214    0.118798
     70          1           0        6.429174    0.806620    1.165150
     71          1           0        4.829394    0.518758    1.696303
     72          1           0        3.704594    6.264079   -0.921431
     73          1           0        4.311952    4.713503   -1.000691
     74          1           0        0.318742    6.628237   -1.812713
     75          1           0        1.741743    7.174196   -0.850990
     76          1           0       -0.047098    7.054172   -0.391974
     77          1           0        3.914712    6.055249    1.837987
     78          1           0        5.491485    5.789422    0.630698
     79          1           0        4.733223    4.437684    1.297290
     80          1           0       -3.813613   -4.371350   -1.691692
     81          1           0       -8.020074   -1.796877   -1.513864
 ---------------------------------------------------------------------
 Rotational constants (GHZ):           0.0758737           0.0552742           0.0342862
 Standard basis: SVP (5D, 7F)
 There are   835 symmetry adapted cartesian basis functions of A   symmetry.
 There are   792 symmetry adapted basis functions of A   symmetry.
   792 basis functions,  1341 primitive gaussians,   835 cartesian basis functions
   156 alpha electrons      156 beta electrons
       nuclear repulsion energy      5049.1245972032 Hartrees.
 NAtoms=   81 NActive=   81 NUniq=   81 SFac= 1.00D+00 NAtFMM=   60 NAOKFM=T Big=T
 Integral buffers will be    131072 words long.
 Regular integral format.
 Two-electron integral symmetry is turned on.
 One-electron integrals computed using PRISM.
 NBasis=   792 RedAO= T EigKep=  3.75D-04  NBF=   792
 NBsUse=   792 1.00D-06 EigRej= -1.00D+00 NBFU=   792
 ExpMin= 1.22D-01 ExpMax= 2.27D+03 ExpMxC= 3.41D+02 IAcc=3 IRadAn=         5 AccDes= 0.00D+00
 Harris functional with IExCor=  402 and IRadAn=       5 diagonalized for initial guess.
 HarFok:  IExCor=  402 AccDes= 0.00D+00 IRadAn=         5 IDoV= 1 UseB2=F ITyADJ=14
 ICtDFT=  3500011 ScaDFX=  1.000000  1.000000  1.000000  1.000000
 FoFCou: FMM=F IPFlag=           0 FMFlag=      100000 FMFlg1=        2001
         NFxFlg=           0 DoJE=T BraDBF=F KetDBF=T FulRan=T
         wScrn=  0.000000 ICntrl=       500 IOpCl=  0 I1Cent=   200000004 NGrid=           0
         NMat0=    1 NMatS0=      1 NMatT0=    0 NMatD0=    1 NMtDS0=    0 NMtDT0=    0
 Petite list used in FoFCou.
 Requested convergence on RMS density matrix=1.00D-08 within 128 cycles.
 Requested convergence on MAX density matrix=1.00D-06.
 Requested convergence on             energy=1.00D-06.
 No special actions if energy rises.
 Integral accuracy reduced to 1.0D-05 until final iterations.
 Initial convergence to 1.0D-05 achieved.  Increase integral accuracy.
 SCF Done:  E(RB3LYP) =  -1949.04582725     A.U. after   18 cycles
            NFock= 18  Conv=0.64D-08     -V/T= 2.0107
 DoSCS=F DFT=T ScalE2(SS,OS)=  1.000000  1.000000
 ExpMin= 1.22D-01 ExpMax= 2.27D+03 ExpMxC= 3.41D+02 IAcc=3 IRadAn=         5 AccDes= 0.00D+00
 HarFok:  IExCor=  205 AccDes= 0.00D+00 IRadAn=         5 IDoV=-2 UseB2=F ITyADJ=14
 ICtDFT= 12500011 ScaDFX=  1.000000  1.000000  1.000000  1.000000
 GSVD:  LWork=       -2193 too small for GESVD, short by        9890 words or        9890 for optimal perf.
 Range of M.O.s used for correlation:    44   792
 NBasis=   792 NAE=   156 NBE=   156 NFC=    43 NFV=     0
 NROrb=    749 NOA=   113 NOB=   113 NVA=   636 NVB=   636

 **** Warning!!: The smallest alpha delta epsilon is  0.70539156D-01

 Orbital symmetries:
       Occupied  (A) (A) (A) (A) (A) (A) (A) (A) (A) (A) (A) (A)
                 (A) (A) (A) (A) (A) (A) (A) (A) (A) (A) (A) (A)
                 (A) (A) (A) (A) (A) (A) (A) (A) (A) (A) (A) (A)
                 (A) (A) (A) (A) (A) (A) (A) (A) (A) (A) (A) (A)
                 (A) (A) (A) (A) (A) (A) (A) (A) (A) (A) (A) (A)
                 (A) (A) (A) (A) (A) (A) (A) (A) (A) (A) (A) (A)
                 (A) (A) (A) (A) (A) (A) (A) (A) (A) (A) (A) (A)
                 (A) (A) (A) (A) (A) (A) (A) (A) (A) (A) (A) (A)
                 (A) (A) (A) (A) (A) (A) (A) (A) (A) (A) (A) (A)
                 (A) (A) (A) (A) (A) (A) (A) (A) (A) (A) (A) (A)
                 (A) (A) (A) (A) (A) (A) (A) (A) (A) (A) (A) (A)
                 (A) (A) (A) (A) (A) (A) (A) (A) (A) (A) (A) (A)
                 (A) (A) (A) (A) (A) (A) (A) (A) (A) (A) (A) (A)
       Virtual   (A) (A) (A) (A) (A) (A) (A) (A) (A) (A) (A) (A)
                 (A) (A) (A) (A) (A) (A) (A) (A) (A) (A) (A) (A)
                 (A) (A) (A) (A) (A) (A) (A) (A) (A) (A) (A) (A)
                 (A) (A) (A) (A) (A) (A) (A) (A) (A) (A) (A) (A)
                 (A) (A) (A) (A) (A) (A) (A) (A) (A) (A) (A) (A)
                 (A) (A) (A) (A) (A) (A) (A) (A) (A) (A) (A) (A)
                 (A) (A) (A) (A) (A) (A) (A) (A) (A) (A) (A) (A)
                 (A) (A) (A) (A) (A) (A) (A) (A) (A) (A) (A) (A)
                 (A) (A) (A) (A) (A) (A) (A) (A) (A) (A) (A) (A)
                 (A) (A) (A) (A) (A) (A) (A) (A) (A) (A) (A) (A)
                 (A) (A) (A) (A) (A) (A) (A) (A) (A) (A) (A) (A)
                 (A) (A) (A) (A) (A) (A) (A) (A) (A) (A) (A) (A)
                 (A) (A) (A) (A) (A) (A) (A) (A) (A) (A) (A) (A)
                 (A) (A) (A) (A) (A) (A) (A) (A) (A) (A) (A) (A)
                 (A) (A) (A) (A) (A) (A) (A) (A) (A) (A) (A) (A)
                 (A) (A) (A) (A) (A) (A) (A) (A) (A) (A) (A) (A)
                 (A) (A) (A) (A) (A) (A) (A) (A) (A) (A) (A) (A)
                 (A) (A) (A) (A) (A) (A) (A) (A) (A) (A) (A) (A)
                 (A) (A) (A) (A) (A) (A) (A) (A) (A) (A) (A) (A)
                 (A) (A) (A) (A) (A) (A) (A) (A) (A) (A) (A) (A)
                 (A) (A) (A) (A) (A) (A) (A) (A) (A) (A) (A) (A)
                 (A) (A) (A) (A) (A) (A) (A) (A) (A) (A) (A) (A)
                 (A) (A) (A) (A) (A) (A) (A) (A) (A) (A) (A) (A)
                 (A) (A) (A) (A) (A) (A) (A) (A) (A) (A) (A) (A)
                 (A) (A) (A) (A) (A) (A) (A) (A) (A) (A) (A) (A)
                 (A) (A) (A) (A) (A) (A) (A) (A) (A) (A) (A) (A)
                 (A) (A) (A) (A) (A) (A) (A) (A) (A) (A) (A) (A)
                 (A) (A) (A) (A) (A) (A) (A) (A) (A) (A) (A) (A)
                 (A) (A) (A) (A) (A) (A) (A) (A) (A) (A) (A) (A)
                 (A) (A) (A) (A) (A) (A) (A) (A) (A) (A) (A) (A)
                 (A) (A) (A) (A) (A) (A) (A) (A) (A) (A) (A) (A)
                 (A) (A) (A) (A) (A) (A) (A) (A) (A) (A) (A) (A)
                 (A) (A) (A) (A) (A) (A) (A) (A) (A) (A) (A) (A)
                 (A) (A) (A) (A) (A) (A) (A) (A) (A) (A) (A) (A)
                 (A) (A) (A) (A) (A) (A) (A) (A) (A) (A) (A) (A)
                 (A) (A) (A) (A) (A) (A) (A) (A) (A) (A) (A) (A)
                 (A) (A) (A) (A) (A) (A) (A) (A) (A) (A) (A) (A)
                 (A) (A) (A) (A) (A) (A) (A) (A) (A) (A) (A) (A)
                 (A) (A) (A) (A) (A) (A) (A) (A) (A) (A) (A) (A)
                 (A) (A) (A) (A) (A) (A) (A) (A) (A) (A) (A) (A)
                 (A) (A) (A) (A) (A) (A) (A) (A) (A) (A) (A) (A)
                 (A) (A) (A) (A) (A) (A) (A) (A) (A) (A) (A) (A)
                 (A) (A) (A) (A) (A) (A) (A) (A) (A) (A) (A) (A)
                 (A) (A) (A) (A) (A) (A) (A) (A) (A) (A) (A) (A)
                 (A) (A) (A) (A) (A) (A) (A) (A) (A) (A) (A) (A)
                 (A) (A) (A) (A) (A) (A) (A) (A) (A) (A) (A) (A)
                 (A) (A) (A) (A) (A) (A) (A) (A) (A) (A) (A) (A)
                 (A) (A) (A) (A) (A) (A) (A) (A) (A) (A) (A) (A)
                 (A) (A) (A) (A) (A) (A) (A) (A) (A) (A) (A) (A)
                 (A) (A) (A) (A) (A) (A) (A) (A) (A) (A) (A) (A)
                 (A) (A) (A) (A) (A) (A) (A) (A) (A) (A) (A) (A)
                 (A) (A) (A) (A) (A) (A) (A) (A) (A) (A) (A) (A)
                 (A) (A) (A) (A) (A) (A) (A) (A) (A) (A) (A) (A)
     4 initial guesses have been made.
 Convergence on wavefunction:    0.001000000000000
 Iteration     1 Dimension     4 NMult     0 NNew      4
 CISAX will form     4 AO SS matrices at one time.
 Iteration     2 Dimension     6 NMult     4 NNew      2
 Iteration     3 Dimension     8 NMult     6 NNew      2
 Iteration     4 Dimension    10 NMult     8 NNew      2
 Iteration     5 Dimension    12 NMult    10 NNew      2
 Iteration     6 Dimension    14 NMult    12 NNew      2
 ***********************************************************************
 Excited states from <AA,BB:AA,BB> singles matrix:
 ***********************************************************************
 
 Ground to excited state transition densities written to RWF  633
 Ground to excited state transition electric dipole moments (Au):
       state          X           Y           Z        Dip. S.      Osc.
         1        -0.7381      2.4188     -0.1456      6.4168      0.2689
 Ground to excited state transition velocity dipole moments (Au):
       state          X           Y           Z        Dip. S.      Osc.
         1         0.0495     -0.1483      0.0088      0.0245      0.2602
 Ground to excited state transition magnetic dipole moments (Au):
       state          X           Y           Z
         1         0.3588      0.5545      2.1655
 Ground to excited state transition velocity quadrupole moments (Au):
       state          XX          YY          ZZ          XY          XZ          YZ
         1         0.3426     -0.4830      0.0638     -0.4158     -0.0678      0.0269
 <0|del|b> * <b|rxdel|0> + <0|del|b> * <b|delr+rdel|0>
 Rotatory Strengths (R) in cgs (10**-40 erg-esu-cm/Gauss)
       state          XX          YY          ZZ    R(velocity)    E-M Angle
         1      -432.4665    235.5961   -313.7501   -170.2069       97.35
 1/2[<0|r|b>*<b|rxdel|0> + (<0|rxdel|b>*<b|r|0>)*]
 Rotatory Strengths (R) in cgs (10**-40 erg-esu-cm/Gauss)
       state          XX          YY          ZZ     R(length)
         1       187.2658   -948.4904    222.9049   -179.4399
  1/2[<0|del|b>*<b|r|0> + (<0|r|b>*<b|del|0>)*] (Au)
       state          X           Y           Z        Dip. S.   Osc.(frdel)
         1        -0.0365     -0.3588     -0.0013      0.3966      0.2644

 Excitation energies and oscillator strengths:
 
 Excited State   1:      Singlet-A      1.7102 eV  724.98 nm  f=0.2689  <S**2>=0.000
     156 ->157         0.70771
     156 <-157        -0.10540
 This state for optimization and/or second-order correction.
 Total Energy, E(TD-HF/TD-DFT) =  -1948.98297988    
 Copying the excited state density for this state as the 1-particle RhoCI density.
 SavETr:  write IOETrn=   770 NScale= 10 NData=  16 NLR=1 NState=    1 LETran=      28.

 **********************************************************************

            Population analysis using the SCF density.

 **********************************************************************

 Orbital symmetries:
       Occupied  (A) (A) (A) (A) (A) (A) (A) (A) (A) (A) (A) (A)
                 (A) (A) (A) (A) (A) (A) (A) (A) (A) (A) (A) (A)
                 (A) (A) (A) (A) (A) (A) (A) (A) (A) (A) (A) (A)
                 (A) (A) (A) (A) (A) (A) (A) (A) (A) (A) (A) (A)
                 (A) (A) (A) (A) (A) (A) (A) (A) (A) (A) (A) (A)
                 (A) (A) (A) (A) (A) (A) (A) (A) (A) (A) (A) (A)
                 (A) (A) (A) (A) (A) (A) (A) (A) (A) (A) (A) (A)
                 (A) (A) (A) (A) (A) (A) (A) (A) (A) (A) (A) (A)
                 (A) (A) (A) (A) (A) (A) (A) (A) (A) (A) (A) (A)
                 (A) (A) (A) (A) (A) (A) (A) (A) (A) (A) (A) (A)
                 (A) (A) (A) (A) (A) (A) (A) (A) (A) (A) (A) (A)
                 (A) (A) (A) (A) (A) (A) (A) (A) (A) (A) (A) (A)
                 (A) (A) (A) (A) (A) (A) (A) (A) (A) (A) (A) (A)
       Virtual   (A) (A) (A) (A) (A) (A) (A) (A) (A) (A) (A) (A)
                 (A) (A) (A) (A) (A) (A) (A) (A) (A) (A) (A) (A)
                 (A) (A) (A) (A) (A) (A) (A) (A) (A) (A) (A) (A)
                 (A) (A) (A) (A) (A) (A) (A) (A) (A) (A) (A) (A)
                 (A) (A) (A) (A) (A) (A) (A) (A) (A) (A) (A) (A)
                 (A) (A) (A) (A) (A) (A) (A) (A) (A) (A) (A) (A)
                 (A) (A) (A) (A) (A) (A) (A) (A) (A) (A) (A) (A)
                 (A) (A) (A) (A) (A) (A) (A) (A) (A) (A) (A) (A)
                 (A) (A) (A) (A) (A) (A) (A) (A) (A) (A) (A) (A)
                 (A) (A) (A) (A) (A) (A) (A) (A) (A) (A) (A) (A)
                 (A) (A) (A) (A) (A) (A) (A) (A) (A) (A) (A) (A)
                 (A) (A) (A) (A) (A) (A) (A) (A) (A) (A) (A) (A)
                 (A) (A) (A) (A) (A) (A) (A) (A) (A) (A) (A) (A)
                 (A) (A) (A) (A) (A) (A) (A) (A) (A) (A) (A) (A)
                 (A) (A) (A) (A) (A) (A) (A) (A) (A) (A) (A) (A)
                 (A) (A) (A) (A) (A) (A) (A) (A) (A) (A) (A) (A)
                 (A) (A) (A) (A) (A) (A) (A) (A) (A) (A) (A) (A)
                 (A) (A) (A) (A) (A) (A) (A) (A) (A) (A) (A) (A)
                 (A) (A) (A) (A) (A) (A) (A) (A) (A) (A) (A) (A)
                 (A) (A) (A) (A) (A) (A) (A) (A) (A) (A) (A) (A)
                 (A) (A) (A) (A) (A) (A) (A) (A) (A) (A) (A) (A)
                 (A) (A) (A) (A) (A) (A) (A) (A) (A) (A) (A) (A)
                 (A) (A) (A) (A) (A) (A) (A) (A) (A) (A) (A) (A)
                 (A) (A) (A) (A) (A) (A) (A) (A) (A) (A) (A) (A)
                 (A) (A) (A) (A) (A) (A) (A) (A) (A) (A) (A) (A)
                 (A) (A) (A) (A) (A) (A) (A) (A) (A) (A) (A) (A)
                 (A) (A) (A) (A) (A) (A) (A) (A) (A) (A) (A) (A)
                 (A) (A) (A) (A) (A) (A) (A) (A) (A) (A) (A) (A)
                 (A) (A) (A) (A) (A) (A) (A) (A) (A) (A) (A) (A)
                 (A) (A) (A) (A) (A) (A) (A) (A) (A) (A) (A) (A)
                 (A) (A) (A) (A) (A) (A) (A) (A) (A) (A) (A) (A)
                 (A) (A) (A) (A) (A) (A) (A) (A) (A) (A) (A) (A)
                 (A) (A) (A) (A) (A) (A) (A) (A) (A) (A) (A) (A)
                 (A) (A) (A) (A) (A) (A) (A) (A) (A) (A) (A) (A)
                 (A) (A) (A) (A) (A) (A) (A) (A) (A) (A) (A) (A)
                 (A) (A) (A) (A) (A) (A) (A) (A) (A) (A) (A) (A)
                 (A) (A) (A) (A) (A) (A) (A) (A) (A) (A) (A) (A)
                 (A) (A) (A) (A) (A) (A) (A) (A) (A) (A) (A) (A)
                 (A) (A) (A) (A) (A) (A) (A) (A) (A) (A) (A) (A)
                 (A) (A) (A) (A) (A) (A) (A) (A) (A) (A) (A) (A)
                 (A) (A) (A) (A) (A) (A) (A) (A) (A) (A) (A) (A)
                 (A) (A) (A) (A) (A) (A) (A) (A) (A) (A) (A) (A)
                 (A) (A) (A) (A) (A) (A) (A) (A) (A) (A) (A) (A)
                 (A) (A) (A) (A) (A) (A) (A) (A) (A) (A) (A) (A)
                 (A) (A) (A) (A) (A) (A) (A) (A) (A) (A) (A) (A)
                 (A) (A) (A) (A) (A) (A) (A) (A) (A) (A) (A) (A)
                 (A) (A) (A) (A) (A) (A) (A) (A) (A) (A) (A) (A)
                 (A) (A) (A) (A) (A) (A) (A) (A) (A) (A) (A) (A)
                 (A) (A) (A) (A) (A) (A) (A) (A) (A) (A) (A) (A)
                 (A) (A) (A) (A) (A) (A) (A) (A) (A) (A) (A) (A)
                 (A) (A) (A) (A) (A) (A) (A) (A) (A) (A) (A) (A)
                 (A) (A) (A) (A) (A) (A) (A) (A) (A) (A) (A) (A)
                 (A) (A) (A) (A) (A) (A) (A) (A) (A) (A) (A) (A)
 The electronic state is 1-A.
 Alpha  occ. eigenvalues --  -19.19702 -19.18602 -19.14269 -19.12110 -19.10357
 Alpha  occ. eigenvalues --  -19.09410 -14.37453 -14.36735 -14.36692 -14.29909
 Alpha  occ. eigenvalues --  -10.32825 -10.32444 -10.28820 -10.26173 -10.25110
 Alpha  occ. eigenvalues --  -10.24027 -10.23902 -10.23507 -10.23492 -10.23271
 Alpha  occ. eigenvalues --  -10.22985 -10.22073 -10.21763 -10.21490 -10.21272
 Alpha  occ. eigenvalues --  -10.21118 -10.20990 -10.20763 -10.20470 -10.20192
 Alpha  occ. eigenvalues --  -10.20125 -10.19672 -10.19668 -10.19513 -10.19397
 Alpha  occ. eigenvalues --  -10.19237 -10.19212 -10.18763 -10.18600 -10.18529
 Alpha  occ. eigenvalues --  -10.17995 -10.17729 -10.17634  -1.11656  -1.09209
 Alpha  occ. eigenvalues --   -1.01145  -1.00450  -0.99080  -0.98236  -0.97785
 Alpha  occ. eigenvalues --   -0.95517  -0.93493  -0.89238  -0.83306  -0.82431
 Alpha  occ. eigenvalues --   -0.81895  -0.80446  -0.80010  -0.79530  -0.78160
 Alpha  occ. eigenvalues --   -0.77371  -0.77072  -0.75428  -0.74416  -0.73182
 Alpha  occ. eigenvalues --   -0.72558  -0.69740  -0.69584  -0.68366  -0.67712
 Alpha  occ. eigenvalues --   -0.66718  -0.65124  -0.64018  -0.62362  -0.61426
 Alpha  occ. eigenvalues --   -0.60953  -0.59874  -0.58810  -0.56867  -0.56615
 Alpha  occ. eigenvalues --   -0.56143  -0.55320  -0.54552  -0.53696  -0.52932
 Alpha  occ. eigenvalues --   -0.52316  -0.51619  -0.51346  -0.49754  -0.49588
 Alpha  occ. eigenvalues --   -0.48996  -0.48936  -0.48519  -0.48204  -0.47308
 Alpha  occ. eigenvalues --   -0.46909  -0.46657  -0.46312  -0.45998  -0.45547
 Alpha  occ. eigenvalues --   -0.45210  -0.44857  -0.44603  -0.44137  -0.43741
 Alpha  occ. eigenvalues --   -0.43403  -0.42838  -0.42596  -0.42202  -0.41821
 Alpha  occ. eigenvalues --   -0.41447  -0.41292  -0.41032  -0.40906  -0.40726
 Alpha  occ. eigenvalues --   -0.40557  -0.40329  -0.40290  -0.40079  -0.39698
 Alpha  occ. eigenvalues --   -0.39360  -0.39024  -0.38889  -0.38558  -0.38251
 Alpha  occ. eigenvalues --   -0.38130  -0.37822  -0.37062  -0.36928  -0.36806
 Alpha  occ. eigenvalues --   -0.36086  -0.35797  -0.35612  -0.34445  -0.33981
 Alpha  occ. eigenvalues --   -0.33815  -0.33499  -0.32999  -0.32730  -0.32154
 Alpha  occ. eigenvalues --   -0.31718  -0.31541  -0.31360  -0.29593  -0.29027
 Alpha  occ. eigenvalues --   -0.28270  -0.27761  -0.26270  -0.25838  -0.25659
 Alpha  occ. eigenvalues --   -0.24693  -0.24577  -0.24035  -0.23357  -0.21948
 Alpha  occ. eigenvalues --   -0.17595
 Alpha virt. eigenvalues --   -0.10542  -0.05957  -0.03396  -0.02754  -0.00211
 Alpha virt. eigenvalues --    0.00036   0.01218   0.02211   0.02553   0.03082
 Alpha virt. eigenvalues --    0.03474   0.03983   0.04397   0.05073   0.06561
 Alpha virt. eigenvalues --    0.06764   0.07315   0.07391   0.07806   0.08534
 Alpha virt. eigenvalues --    0.08569   0.08790   0.08844   0.09388   0.09463
 Alpha virt. eigenvalues --    0.09931   0.10088   0.10326   0.10590   0.10902
 Alpha virt. eigenvalues --    0.11599   0.11746   0.12246   0.12394   0.12797
 Alpha virt. eigenvalues --    0.13138   0.13431   0.13740   0.13931   0.14040
 Alpha virt. eigenvalues --    0.14461   0.14898   0.15179   0.15624   0.16157
 Alpha virt. eigenvalues --    0.16298   0.16495   0.16851   0.17208   0.17916
 Alpha virt. eigenvalues --    0.18415   0.18573   0.19320   0.19983   0.20392
 Alpha virt. eigenvalues --    0.20926   0.21212   0.21733   0.21996   0.22309
 Alpha virt. eigenvalues --    0.22765   0.23074   0.23248   0.23468   0.23958
 Alpha virt. eigenvalues --    0.24223   0.24535   0.25273   0.25667   0.26045
 Alpha virt. eigenvalues --    0.26310   0.27210   0.27759   0.28011   0.28446
 Alpha virt. eigenvalues --    0.29271   0.29581   0.30233   0.30715   0.31118
 Alpha virt. eigenvalues --    0.31521   0.31730   0.32308   0.32908   0.33600
 Alpha virt. eigenvalues --    0.34580   0.35200   0.35629   0.36091   0.36454
 Alpha virt. eigenvalues --    0.36650   0.37145   0.37750   0.38124   0.38773
 Alpha virt. eigenvalues --    0.39385   0.40034   0.40169   0.40515   0.40765
 Alpha virt. eigenvalues --    0.41364   0.41963   0.42262   0.42684   0.42882
 Alpha virt. eigenvalues --    0.42975   0.43828   0.44003   0.44266   0.44800
 Alpha virt. eigenvalues --    0.45195   0.45349   0.45634   0.45924   0.46114
 Alpha virt. eigenvalues --    0.46496   0.46703   0.47201   0.47703   0.47822
 Alpha virt. eigenvalues --    0.48001   0.48701   0.48972   0.49336   0.49463
 Alpha virt. eigenvalues --    0.49667   0.50351   0.50949   0.51116   0.51340
 Alpha virt. eigenvalues --    0.51704   0.51877   0.52037   0.53003   0.53289
 Alpha virt. eigenvalues --    0.53631   0.53860   0.54296   0.54727   0.55429
 Alpha virt. eigenvalues --    0.55955   0.56210   0.56554   0.56695   0.56900
 Alpha virt. eigenvalues --    0.57840   0.58185   0.58216   0.58399   0.58664
 Alpha virt. eigenvalues --    0.58848   0.59427   0.59599   0.59829   0.59999
 Alpha virt. eigenvalues --    0.60521   0.60692   0.60836   0.61406   0.61826
 Alpha virt. eigenvalues --    0.62151   0.62510   0.62834   0.62999   0.63344
 Alpha virt. eigenvalues --    0.63463   0.63852   0.63911   0.64017   0.64389
 Alpha virt. eigenvalues --    0.64468   0.64888   0.64997   0.65223   0.65777
 Alpha virt. eigenvalues --    0.65878   0.66184   0.66656   0.66939   0.67254
 Alpha virt. eigenvalues --    0.67403   0.67683   0.67821   0.68130   0.68482
 Alpha virt. eigenvalues --    0.68779   0.68961   0.69061   0.69482   0.69850
 Alpha virt. eigenvalues --    0.69961   0.70023   0.70192   0.70429   0.70885
 Alpha virt. eigenvalues --    0.71329   0.71521   0.71707   0.71935   0.72149
 Alpha virt. eigenvalues --    0.72880   0.73159   0.73716   0.73847   0.74022
 Alpha virt. eigenvalues --    0.74391   0.74715   0.74886   0.75187   0.75507
 Alpha virt. eigenvalues --    0.76022   0.76332   0.76724   0.77058   0.77757
 Alpha virt. eigenvalues --    0.78226   0.78799   0.79040   0.79283   0.79934
 Alpha virt. eigenvalues --    0.80076   0.80910   0.81678   0.81907   0.82223
 Alpha virt. eigenvalues --    0.82611   0.83612   0.84305   0.85313   0.86125
 Alpha virt. eigenvalues --    0.86614   0.87394   0.87629   0.88452   0.89058
 Alpha virt. eigenvalues --    0.89625   0.90038   0.91112   0.91686   0.91900
 Alpha virt. eigenvalues --    0.92585   0.92996   0.93890   0.94347   0.94591
 Alpha virt. eigenvalues --    0.95039   0.95814   0.95908   0.97352   0.97451
 Alpha virt. eigenvalues --    0.97702   0.98777   0.99008   0.99379   1.00404
 Alpha virt. eigenvalues --    1.00697   1.01818   1.01967   1.03292   1.03716
 Alpha virt. eigenvalues --    1.04394   1.04584   1.05748   1.05974   1.06541
 Alpha virt. eigenvalues --    1.07337   1.07816   1.08134   1.09717   1.10424
 Alpha virt. eigenvalues --    1.10549   1.11477   1.11550   1.13025   1.13730
 Alpha virt. eigenvalues --    1.14530   1.15042   1.15478   1.16085   1.16730
 Alpha virt. eigenvalues --    1.16934   1.17808   1.18595   1.19228   1.19865
 Alpha virt. eigenvalues --    1.20741   1.20918   1.22489   1.22599   1.23062
 Alpha virt. eigenvalues --    1.23610   1.23806   1.24404   1.26024   1.26730
 Alpha virt. eigenvalues --    1.27588   1.27954   1.29284   1.29546   1.29886
 Alpha virt. eigenvalues --    1.30547   1.31425   1.31971   1.32351   1.33856
 Alpha virt. eigenvalues --    1.34011   1.34958   1.35315   1.35393   1.35933
 Alpha virt. eigenvalues --    1.36860   1.37565   1.37922   1.38048   1.39121
 Alpha virt. eigenvalues --    1.39697   1.40345   1.41652   1.42262   1.43049
 Alpha virt. eigenvalues --    1.43808   1.44350   1.45101   1.45482   1.45972
 Alpha virt. eigenvalues --    1.46806   1.47329   1.47694   1.48480   1.48764
 Alpha virt. eigenvalues --    1.49331   1.49642   1.50425   1.50534   1.51182
 Alpha virt. eigenvalues --    1.52801   1.53230   1.53567   1.53694   1.53762
 Alpha virt. eigenvalues --    1.54247   1.54596   1.54895   1.56542   1.56939
 Alpha virt. eigenvalues --    1.57021   1.57556   1.57918   1.59426   1.59673
 Alpha virt. eigenvalues --    1.59917   1.60922   1.62084   1.62584   1.62870
 Alpha virt. eigenvalues --    1.63640   1.63678   1.63996   1.64416   1.64559
 Alpha virt. eigenvalues --    1.65318   1.65995   1.66527   1.66744   1.67075
 Alpha virt. eigenvalues --    1.67211   1.68105   1.68771   1.68950   1.69814
 Alpha virt. eigenvalues --    1.70251   1.70505   1.70909   1.71419   1.71533
 Alpha virt. eigenvalues --    1.71674   1.72162   1.72210   1.73075   1.73603
 Alpha virt. eigenvalues --    1.74065   1.74457   1.74630   1.75240   1.75491
 Alpha virt. eigenvalues --    1.75922   1.76257   1.76567   1.77297   1.77597
 Alpha virt. eigenvalues --    1.78364   1.78440   1.78565   1.79305   1.79765
 Alpha virt. eigenvalues --    1.80059   1.80329   1.80772   1.81435   1.81526
 Alpha virt. eigenvalues --    1.81847   1.82458   1.82563   1.83010   1.83178
 Alpha virt. eigenvalues --    1.83676   1.84285   1.84459   1.85074   1.85666
 Alpha virt. eigenvalues --    1.86108   1.86290   1.87393   1.87947   1.88329
 Alpha virt. eigenvalues --    1.88502   1.88797   1.89711   1.90282   1.90577
 Alpha virt. eigenvalues --    1.90846   1.91271   1.91683   1.92088   1.92267
 Alpha virt. eigenvalues --    1.92670   1.93956   1.94507   1.94760   1.95097
 Alpha virt. eigenvalues --    1.95286   1.95327   1.95790   1.96276   1.96417
 Alpha virt. eigenvalues --    1.97099   1.97409   1.98166   1.99307   1.99560
 Alpha virt. eigenvalues --    1.99653   1.99908   2.00453   2.01005   2.01396
 Alpha virt. eigenvalues --    2.01803   2.02184   2.02972   2.03317   2.03539
 Alpha virt. eigenvalues --    2.04055   2.04400   2.05197   2.05322   2.05978
 Alpha virt. eigenvalues --    2.06183   2.06974   2.07486   2.08493   2.09067
 Alpha virt. eigenvalues --    2.09447   2.10102   2.11316   2.11800   2.12192
 Alpha virt. eigenvalues --    2.12881   2.13522   2.14414   2.14949   2.15209
 Alpha virt. eigenvalues --    2.15736   2.16135   2.17116   2.17495   2.18030
 Alpha virt. eigenvalues --    2.18932   2.19194   2.20481   2.21231   2.21570
 Alpha virt. eigenvalues --    2.21911   2.22471   2.23134   2.23935   2.24679
 Alpha virt. eigenvalues --    2.25875   2.26198   2.26785   2.27377   2.28088
 Alpha virt. eigenvalues --    2.28587   2.29498   2.30505   2.31120   2.31544
 Alpha virt. eigenvalues --    2.32020   2.33599   2.34392   2.35083   2.35715
 Alpha virt. eigenvalues --    2.36556   2.37509   2.37698   2.38271   2.38776
 Alpha virt. eigenvalues --    2.39200   2.40454   2.40925   2.41406   2.41863
 Alpha virt. eigenvalues --    2.42371   2.43239   2.44077   2.45395   2.45571
 Alpha virt. eigenvalues --    2.46008   2.46247   2.46752   2.48284   2.49288
 Alpha virt. eigenvalues --    2.49900   2.50854   2.52190   2.52921   2.53398
 Alpha virt. eigenvalues --    2.53798   2.54526   2.54796   2.55362   2.56194
 Alpha virt. eigenvalues --    2.57277   2.57541   2.58867   2.59788   2.60241
 Alpha virt. eigenvalues --    2.61440   2.61625   2.62614   2.62813   2.63418
 Alpha virt. eigenvalues --    2.63492   2.64166   2.64680   2.65099   2.66412
 Alpha virt. eigenvalues --    2.66777   2.67237   2.67945   2.68697   2.69043
 Alpha virt. eigenvalues --    2.69933   2.70505   2.70989   2.71353   2.71554
 Alpha virt. eigenvalues --    2.72372   2.72691   2.73521   2.74009   2.75007
 Alpha virt. eigenvalues --    2.75335   2.76073   2.76740   2.77035   2.77808
 Alpha virt. eigenvalues --    2.78517   2.79147   2.80090   2.80646   2.81347
 Alpha virt. eigenvalues --    2.82045   2.83224   2.83647   2.84481   2.84850
 Alpha virt. eigenvalues --    2.85207   2.85816   2.86928   2.88169   2.89527
 Alpha virt. eigenvalues --    2.90017   2.90668   2.91049   2.92270   2.92565
 Alpha virt. eigenvalues --    2.92993   2.93545   2.93922   2.95641   2.96464
 Alpha virt. eigenvalues --    2.98101   2.98440   3.00310   3.00820   3.01114
 Alpha virt. eigenvalues --    3.01423   3.02324   3.03355   3.05021   3.05498
 Alpha virt. eigenvalues --    3.06338   3.08070   3.08328   3.10312   3.11274
 Alpha virt. eigenvalues --    3.11992   3.12904   3.13771   3.15413   3.16810
 Alpha virt. eigenvalues --    3.17942   3.18750   3.19728   3.19952   3.20511
 Alpha virt. eigenvalues --    3.21284   3.24684   3.26673   3.33173   3.34931
 Alpha virt. eigenvalues --    3.37602   3.38528   3.39801   3.46375   3.48222
 Alpha virt. eigenvalues --    3.49058   3.52353   3.54952   3.55816   3.61561
 Alpha virt. eigenvalues --    3.62129   3.63168   3.64619   3.68071   3.69724
 Alpha virt. eigenvalues --    3.71270
          Condensed to atoms (all electrons):
 Mulliken charges:
               1
     1  O   -0.242670
     2  O   -0.160957
     3  O   -0.263450
     4  O   -0.318208
     5  O   -0.206082
     6  O   -0.281166
     7  N   -0.137001
     8  N   -0.050579
     9  N   -0.213990
    10  N   -0.358591
    11  C   -0.135223
    12  C    0.078490
    13  C   -0.179815
    14  C    0.077727
    15  C   -0.062525
    16  C    0.146593
    17  C   -0.063985
    18  C   -0.126692
    19  C    0.073651
    20  C   -0.062373
    21  C    0.192165
    22  C    0.093994
    23  C   -0.071140
    24  C    0.131175
    25  C   -0.156564
    26  C    0.155006
    27  C    0.142583
    28  C    0.032175
    29  C   -0.128429
    30  C    0.150164
    31  C    0.008238
    32  C    0.028817
    33  C   -0.090350
    34  C    0.068141
    35  C   -0.038088
    36  C   -0.125530
    37  C    0.118813
    38  C    0.043793
    39  C    0.165470
    40  C    0.057579
    41  C    0.186774
    42  C    0.065641
    43  C    0.005537
    44  H    0.131465
    45  H    0.021086
    46  H    0.030941
    47  H    0.033000
    48  H    0.066547
    49  H    0.032505
    50  H   -0.033458
    51  H    0.047368
    52  H    0.093758
    53  H    0.022381
    54  H    0.051831
    55  H   -0.072687
    56  H    0.181311
    57  H    0.011761
    58  H    0.069217
    59  H    0.095908
    60  H    0.055927
    61  H    0.009175
    62  H   -0.012195
    63  H    0.033377
    64  H   -0.136378
    65  H    0.029039
    66  H    0.062438
    67  H    0.011368
    68  H   -0.029814
    69  H    0.088476
    70  H   -0.020032
    71  H    0.039579
    72  H   -0.008869
    73  H   -0.021175
    74  H    0.013901
    75  H    0.034161
    76  H    0.006838
    77  H    0.044742
    78  H    0.001263
    79  H    0.025203
    80  H    0.231082
    81  H    0.209839
 Sum of Mulliken charges =  -0.00000
 Mulliken charges with hydrogens summed into heavy atoms:
               1
     1  O   -0.242670
     2  O    0.070125
     3  O   -0.053611
     4  O   -0.318208
     5  O   -0.206082
     6  O   -0.281166
     7  N   -0.005536
     8  N    0.043179
     9  N   -0.032679
    10  N   -0.358591
    11  C   -0.135223
    12  C    0.078490
    13  C   -0.179815
    14  C    0.077727
    15  C   -0.062525
    16  C    0.146593
    17  C   -0.042899
    18  C   -0.126692
    19  C    0.137593
    20  C    0.004173
    21  C    0.192165
    22  C    0.093994
    23  C   -0.071140
    24  C    0.130223
    25  C   -0.109196
    26  C    0.156531
    27  C    0.142583
    28  C    0.113153
    29  C    0.023406
    30  C    0.180521
    31  C   -0.128140
    32  C    0.131662
    33  C   -0.120163
    34  C    0.068141
    35  C   -0.038088
    36  C   -0.125530
    37  C    0.118813
    38  C    0.151817
    39  C    0.165470
    40  C    0.027535
    41  C    0.186774
    42  C    0.120540
    43  C    0.076745
 Electronic spatial extent (au):  <R**2>=          30296.3963
 Charge=             -0.0000 electrons
 Dipole moment (field-independent basis, Debye):
    X=             -3.7973    Y=              2.4007    Z=             -0.2890  Tot=              4.5018
 Quadrupole moment (field-independent basis, Debye-Ang):
   XX=           -248.3678   YY=           -237.7744   ZZ=           -254.3656
   XY=              9.9722   XZ=             11.3227   YZ=            -18.3351
 Traceless Quadrupole moment (field-independent basis, Debye-Ang):
   XX=             -1.5319   YY=              9.0615   ZZ=             -7.5296
   XY=              9.9722   XZ=             11.3227   YZ=            -18.3351
 Octapole moment (field-independent basis, Debye-Ang**2):
  XXX=             -8.2299  YYY=            155.3547  ZZZ=             -9.3338  XYY=           -185.4245
  XXY=              4.8547  XXZ=            -92.8724  XZZ=            -45.6779  YZZ=            -23.6540
  YYZ=             36.4095  XYZ=            -50.0850
 Hexadecapole moment (field-independent basis, Debye-Ang**3):
 XXXX=         -21515.3584 YYYY=         -16168.1664 ZZZZ=          -1691.5005 XXXY=            520.2922
 XXXZ=            540.6681 YYYX=            761.8570 YYYZ=           -595.5934 ZZZX=             79.7526
 ZZZY=              8.5841 XXYY=          -6354.5598 XXZZ=          -3992.0419 YYZZ=          -3073.0358
 XXYZ=             -0.8389 YYXZ=            257.7047 ZZXY=            170.1642
 N-N= 5.049124597203D+03 E-N=-1.462984055019D+04  KE= 1.928331212042D+03
 1\1\GINC-PADAWAN\SP\RB3LYP TD-FC\SVP\C33H38N4O6\PADAWAN\30-Jun-2019\0\
 \# td=(NStates=1) B3LYP/SVP\\TD\\0,1\O,0,-4.1133228431,-4.8305474259,1
 .915445573\O,0,3.0416681955,-4.8659178986,1.0596701043\O,0,6.976503954
 7,-1.6740546752,1.8504877283\O,0,3.7914642039,-3.2110191269,-0.0715604
 954\O,0,7.6110206387,-0.4476846636,0.0396979371\O,0,-3.1234179279,2.44
 89029411,-0.344396001\N,0,-0.2225292476,-0.3759517883,-0.7880158145\N,
 0,1.4889073834,1.8132517577,-0.5543170093\N,0,-3.2290448935,-3.0660677
 198,0.6351698356\N,0,-0.8142099167,2.7985110005,-0.085512397\C,0,0.611
 1933836,-2.3431022686,-1.4311754126\C,0,0.9983127336,-1.0054877805,-1.
 0464334922\C,0,-0.7595200807,-2.6282511873,-1.2008321459\C,0,-1.307111
 1331,-1.3398242938,-0.8155406841\C,0,3.739282389,1.5284360101,-0.16179
 04458\C,0,2.5102231281,0.8079526208,-0.6451186969\C,0,2.2896242126,-0.
 4437216301,-0.9611455892\C,0,3.5203326734,2.8282126235,0.1686548558\C,
 0,1.58034944,-3.3062923305,-2.0279301386\C,0,-5.4258314898,-2.77609322
 42,1.4092481891\C,0,-3.5393177911,-1.7876637423,0.1297289047\C,0,2.029
 3572478,2.9568756818,-0.1253149081\C,0,-4.9813308294,-1.6578247464,0.4
 487489188\C,0,5.0859338553,0.8264875657,-0.2191508738\C,0,-2.636098425
 5,-1.0669152469,-0.4672632001\C,0,-1.5449741595,-3.7531950726,-1.77645
 79626\C,0,-4.2201016786,-3.7118654183,1.387503876\C,0,2.016482782,-4.5
 319122149,-1.0061798448\C,0,5.3083596384,-0.0606341869,0.9879413413\C,
 0,4.5367497363,3.7824710964,0.5598381841\C,0,1.3103697154,4.0340079511
 ,0.3323849591\C,0,-6.8235570063,-3.5115859384,1.1402730894\C,0,-5.7675
 863392,-0.6947452585,-0.0541982529\C,0,-0.0848664059,4.0102992797,0.19
 6631475\C,0,-1.093374436,5.2202195557,0.3991083763\C,0,-2.3474742211,4
 .6051120126,0.2692128273\C,0,2.9004266247,-4.1125739276,0.0171594051\C
 ,0,-5.5179955091,0.5633816268,-0.7873201968\C,0,6.8131911981,-0.676833
 1529,0.8882297212\C,0,-3.636481191,5.3138524437,0.3243269434\C,0,-2.13
 65232039,3.2150064616,-0.0794137112\C,0,-0.679958587,6.5337090409,0.83
 46725189\C,0,-4.4120207647,5.5937653332,-0.9778868802\H,0,-0.265188103
 7,0.6056774335,-0.4541051502\H,0,3.1361109721,-1.0848466259,-1.2329333
 807\H,0,2.5323031116,-2.725704167,-1.9408506322\H,0,1.1453555418,-3.67
 0701181,-3.005618922\H,0,-5.4060623335,-2.247633388,2.4818687268\H,0,5
 .4067231848,0.3558049619,-1.1982001673\H,0,5.8443430017,1.5233818663,-
 0.304514026\H,0,-2.8092171394,0.0582636167,-0.5908794854\H,0,0.5153187
 625,1.8257924231,-0.5651539609\H,0,-1.2791926551,-4.7193865092,-1.1097
 504848\H,0,-2.6592060316,-3.5600365901,-2.0237805112\H,0,-1.259131093,
 -4.0140584746,-2.6198275721\H,0,-2.1629986862,-3.4861883495,0.68440110
 53\H,0,1.1819890282,-5.0271654148,-0.5611215021\H,0,2.4746635708,-5.35
 91900259,-1.6374091228\H,0,4.6190271357,-1.0535865221,1.2277325094\H,0
 ,5.3557499204,0.5215481935,2.0988476879\H,0,4.4127918048,4.7669871151,
 0.1997786061\H,0,5.5050635981,3.5311606493,0.4402898186\H,0,4.34193122
 57,3.9106065328,1.748650582\H,0,1.6958003586,4.8566848459,0.6167327485
 \H,0,-7.7665582241,-3.0072458081,1.3716984394\H,0,-6.7926833322,-4.598
 9762797,1.5482306635\H,0,-6.6849841954,-3.4591033264,0.0851706055\H,0,
 -6.6975242747,-0.8154424527,0.4503030314\H,0,-5.1109000621,1.494894310
 3,-0.1350007614\H,0,-6.4069990773,0.9252616012,-1.1857228884\H,0,-4.81
 0820394,0.6074309053,-1.7105878236\H,0,-3.5899709826,6.3333677419,0.90
 65875353\H,0,-4.2261540536,4.7943417661,0.9848445108\H,0,-0.2013492794
 ,6.6357541408,1.8103508767\H,0,-1.61039715,7.2070241571,0.8428036321\H
 ,0,0.1776369317,7.0535776435,0.3906500221\H,0,-3.7935272597,6.12596022
 17,-1.8534295455\H,0,-5.3794706543,5.8903821543,-0.6518850657\H,0,-4.6
 437978567,4.5242725976,-1.3144809561\H,0,3.7276011606,-4.4383600485,1.
 7141121936\H,0,7.9815261772,-1.9421536044,1.5500323862\\Version=ES64L-
 G16RevA.03\State=1-A\HF=-1949.0458273\RMSD=6.430e-09\PG=C01 [X(C33H38N
 4O6)]\\@


 FROM WHENCE IT HAPPENS, THAT THEY WHICH TRUST TO BOOKS, DO AS THEY THAT CAST UP MANY LITTLE SUMMS INTO GREATER,
 WITHOUT CONSIDERING WETHER THOSE LITTLE SUMMES WERE RIGHTLY CAST UP OR NOT...
 AND AT LAST FINDING THE ERROUR VISIBLE, AND NOT MISTRUSTING THEIR FIRST GROUNDS,
 KNOW NOT WHICH WAY TO CLEERE THEMSELVES...
 BUT SPEND TIME IN FLUTTERING OVER THEIR BOOKES....
 AS BIRDS THAT ENTERING BY THE CHIMNEY, AND FINDING THEMSELVES INCLOSED IN A CHAMBER,
 FLUTTER AT THE FALSE LIGHT OF A GLASSE WINDOW,
 FOR WANT OF WIT TO CONSIDER WHICH WAY THEY CAME IN....
           LEVIATHAN
 Job cpu time:       0 days  3 hours 46 minutes 45.0 seconds.
 Elapsed time:       0 days  2 hours 31 minutes 25.6 seconds.
 File lengths (MBytes):  RWF=   2591 Int=      0 D2E=      0 Chk=     65 Scr=      1
 Normal termination of Gaussian 16 at Sun Jun 30 10:59:41 2019.
