 Entering Gaussian System, Link 0=g16
 Input=Geometria-402-.com
 Output=Geometria-402-.log
 Initial command:
 /usr/local/g16/l1.exe "/home/padawan/israel-mol/phycocyanobilin/spectra/emi/Gau-31713.inp" -scrdir="/home/padawan/israel-mol/phycocyanobilin/spectra/emi/"
 Entering Link 1 = /usr/local/g16/l1.exe PID=     31715.
  
 Copyright (c) 1988,1990,1992,1993,1995,1998,2003,2009,2016,
            Gaussian, Inc.  All Rights Reserved.
  
 This is part of the Gaussian(R) 16 program.  It is based on
 the Gaussian(R) 09 system (copyright 2009, Gaussian, Inc.),
 the Gaussian(R) 03 system (copyright 2003, Gaussian, Inc.),
 the Gaussian(R) 98 system (copyright 1998, Gaussian, Inc.),
 the Gaussian(R) 94 system (copyright 1995, Gaussian, Inc.),
 the Gaussian 92(TM) system (copyright 1992, Gaussian, Inc.),
 the Gaussian 90(TM) system (copyright 1990, Gaussian, Inc.),
 the Gaussian 88(TM) system (copyright 1988, Gaussian, Inc.),
 the Gaussian 86(TM) system (copyright 1986, Carnegie Mellon
 University), and the Gaussian 82(TM) system (copyright 1983,
 Carnegie Mellon University). Gaussian is a federally registered
 trademark of Gaussian, Inc.
  
 This software contains proprietary and confidential information,
 including trade secrets, belonging to Gaussian, Inc.
  
 This software is provided under written license and may be
 used, copied, transmitted, or stored only in accord with that
 written license.
  
 The following legend is applicable only to US Government
 contracts under FAR:
  
                    RESTRICTED RIGHTS LEGEND
  
 Use, reproduction and disclosure by the US Government is
 subject to restrictions as set forth in subparagraphs (a)
 and (c) of the Commercial Computer Software - Restricted
 Rights clause in FAR 52.227-19.
  
 Gaussian, Inc.
 340 Quinnipiac St., Bldg. 40, Wallingford CT 06492
  
  
 ---------------------------------------------------------------
 Warning -- This program may not be used in any manner that
 competes with the business of Gaussian, Inc. or will provide
 assistance to any competitor of Gaussian, Inc.  The licensee
 of this program is prohibited from giving any competitor of
 Gaussian, Inc. access to this program.  By using this program,
 the user acknowledges that Gaussian, Inc. is engaged in the
 business of creating and licensing software in the field of
 computational chemistry and represents and warrants to the
 licensee that it is not a competitor of Gaussian, Inc. and that
 it will not use this program in any manner prohibited above.
 ---------------------------------------------------------------
  

 Cite this work as:
 Gaussian 16, Revision A.03,
 M. J. Frisch, G. W. Trucks, H. B. Schlegel, G. E. Scuseria, 
 M. A. Robb, J. R. Cheeseman, G. Scalmani, V. Barone, 
 G. A. Petersson, H. Nakatsuji, X. Li, M. Caricato, A. V. Marenich, 
 J. Bloino, B. G. Janesko, R. Gomperts, B. Mennucci, H. P. Hratchian, 
 J. V. Ortiz, A. F. Izmaylov, J. L. Sonnenberg, D. Williams-Young, 
 F. Ding, F. Lipparini, F. Egidi, J. Goings, B. Peng, A. Petrone, 
 T. Henderson, D. Ranasinghe, V. G. Zakrzewski, J. Gao, N. Rega, 
 G. Zheng, W. Liang, M. Hada, M. Ehara, K. Toyota, R. Fukuda, 
 J. Hasegawa, M. Ishida, T. Nakajima, Y. Honda, O. Kitao, H. Nakai, 
 T. Vreven, K. Throssell, J. A. Montgomery, Jr., J. E. Peralta, 
 F. Ogliaro, M. J. Bearpark, J. J. Heyd, E. N. Brothers, K. N. Kudin, 
 V. N. Staroverov, T. A. Keith, R. Kobayashi, J. Normand, 
 K. Raghavachari, A. P. Rendell, J. C. Burant, S. S. Iyengar, 
 J. Tomasi, M. Cossi, J. M. Millam, M. Klene, C. Adamo, R. Cammi, 
 J. W. Ochterski, R. L. Martin, K. Morokuma, O. Farkas, 
 J. B. Foresman, and D. J. Fox, Gaussian, Inc., Wallingford CT, 2016.
 
 ******************************************
 Gaussian 16:  ES64L-G16RevA.03 25-Dec-2016
                 2-Jul-2019 
 ******************************************
 %nproc=4
 Will use up to    4 processors via shared memory.
 %Mem=2GB
 --------------------------
 # td=(NStates=1) B3LYP/SVP
 --------------------------
 1/38=1,172=1/1;
 2/12=2,17=6,18=5,40=1/2;
 3/5=18,7=101,11=9,25=1,30=1,74=-5/1,2,3,8;
 4//1;
 5/5=2,38=5/2;
 8/6=1,10=1,108=1/1;
 9/41=1,42=1,70=2/14;
 6/7=2,8=2,9=2,10=2/1;
 99/5=1,9=1/99;
 --
 TD
 --
 Symbolic Z-matrix:
 Charge =  0 Multiplicity = 1
 8                    -4.40817  -4.86066   2.01243 
 8                     3.09203  -4.65637   1.13902 
 8                     6.81044  -1.77312   1.71713 
 8                     4.03181  -3.15459  -0.25994 
 8                     7.47272  -0.69852  -0.2191 
 8                    -3.16247   2.44108  -0.80246 
 7                    -0.23599  -0.47379  -0.50852 
 7                     1.57787   1.85803  -0.20869 
 7                    -3.20378  -3.12122   0.7163 
 7                    -0.88189   2.79869  -0.07899 
 6                     0.65049  -2.33323  -1.36837 
 6                     1.00264  -1.02079  -0.87808 
 6                    -0.7125   -2.57987  -1.22925 
 6                    -1.29556  -1.36824  -0.65264 
 6                     3.73961   1.63024  -0.16057 
 6                     2.46575   0.97174  -0.37547 
 6                     2.28505  -0.34497  -0.78162 
 6                     3.60508   2.96193   0.16907 
 6                     1.72716  -3.30529  -2.0041 
 6                    -5.49362  -2.81712   1.33817 
 6                    -3.48574  -1.82507   0.20387 
 6                     2.16323   3.06486  -0.007 
 6                    -5.05325  -1.70347   0.45597 
 6                     5.09918   0.90051  -0.33459 
 6                    -2.64489  -1.02092  -0.32697 
 6                    -1.42501  -3.79259  -1.60442 
 6                    -4.36609  -3.72067   1.46236 
 6                     2.11707  -4.49287  -1.06367 
 6                     5.36055  -0.26972   0.7671 
 6                     4.52282   3.92497   0.58306 
 6                     1.23587   4.08036   0.31484 
 6                    -6.79668  -3.44303   0.86538 
 6                    -5.88277  -0.65028   0.07261 
 6                    -0.15441   3.96779   0.36864 
 6                    -1.15601   5.11561   0.57794 
 6                    -2.40106   4.68585   0.17345 
 6                     3.22195  -4.00315  -0.03251 
 6                    -5.44045   0.54724  -0.71584 
 6                     6.693    -0.95249   0.66278 
 6                    -3.66422   5.3266    0.15016 
 6                    -2.16719   3.17297  -0.25026 
 6                    -0.7072    6.43703   1.06921 
 6                    -4.22588   5.58077  -1.21781 
 1                    -0.6011    0.42773  -0.11567 
 1                     3.12949  -1.05473  -0.89096 
 1                     2.5355   -2.80934  -2.50554 
 1                     1.18064  -3.92847  -2.7342 
 1                    -5.46887  -2.29215   2.3956 
 1                     5.05621   0.4102   -1.33762 
 1                     6.02824   1.513    -0.26006 
 1                    -2.87041   0.03411  -0.39848 
 1                     0.39739   1.84105  -0.50863 
 1                    -1.2341   -4.77489  -0.96504 
 1                    -2.5173   -3.6201   -1.65671 
 1                    -1.31592  -4.18738  -2.65132 
 1                    -2.37532  -3.32206   0.54227 
 1                     1.2726   -4.92112  -0.56556 
 1                     2.57289  -5.14775  -1.66975 
 1                     4.5247   -1.03964   0.53326 
 1                     5.05702   0.26952   1.81912 
 1                     4.17366   4.69631   0.08041 
 1                     5.4665    3.59626   0.59098 
 1                     4.3652    4.26614   1.67511 
 1                     1.68763   4.96626   0.43372 
 1                    -7.58919  -2.66105   0.89852 
 1                    -6.98289  -4.37573   1.37467 
 1                    -6.61496  -3.76776  -0.33689 
 1                    -6.99752  -0.78072   0.28655 
 1                    -4.49987   1.12285  -0.22437 
 1                    -6.20412   1.27938  -1.14313 
 1                    -4.82084   0.27566  -1.66194 
 1                    -3.85042   6.26138   0.84122 
 1                    -4.40341   4.56608   0.71069 
 1                     0.1046    6.34117   1.95984 
 1                    -1.51361   7.03737   1.34106 
 1                    -0.02773   6.99195   0.40464 
 1                    -3.7264    6.25755  -1.98289 
 1                    -5.32394   5.86586  -1.32985 
 1                    -4.24169   4.58279  -1.76494 
 1                     3.80599  -4.28823   1.58906 
 1                     7.75489  -2.05529   1.77685 
 
 Stoichiometry    C33H38N4O6
 Framework group  C1[X(C33H38N4O6)]
 Deg. of freedom   237
 Full point group                 C1      NOp   1
 Largest Abelian subgroup         C1      NOp   1
 Largest concise Abelian subgroup C1      NOp   1
                         Standard orientation:                         
 ---------------------------------------------------------------------
 Center     Atomic      Atomic             Coordinates (Angstroms)
 Number     Number       Type             X           Y           Z
 ---------------------------------------------------------------------
      1          8           0        4.269506   -4.993910   -1.984931
      2          8           0       -3.223405   -4.567178   -1.129450
      3          8           0       -6.854580   -1.578494   -1.726246
      4          8           0       -4.121896   -3.033546    0.262049
      5          8           0       -7.489370   -0.478034    0.204664
      6          8           0        3.231826    2.351202    0.801349
      7          7           0        0.221960   -0.477856    0.510967
      8          7           0       -1.522232    1.904931    0.198769
      9          7           0        3.113693   -3.215346   -0.697705
     10          7           0        0.964270    2.772770    0.071395
     11          6           0       -0.720425   -2.307472    1.375329
     12          6           0       -1.032954   -0.987058    0.879609
     13          6           0        0.635059   -2.594368    1.240210
     14          6           0        1.254587   -1.402390    0.660673
     15          6           0       -3.689607    1.740301    0.146492
     16          6           0       -2.436029    1.045599    0.366633
     17          6           0       -2.294827   -0.274368    0.777829
     18          6           0       -3.515447    3.066294   -0.187533
     19          6           0       -1.826472   -3.245334    2.012008
     20          6           0        5.412802   -2.980586   -1.315394
     21          6           0        3.432335   -1.926162   -0.189198
     22          6           0       -2.071591    3.127636   -0.008513
     23          6           0        5.003275   -1.851374   -0.438133
     24          6           0       -5.070316    1.051291    0.319966
     25          6           0        2.614210   -1.095864    0.336871
     26          6           0        1.310964   -3.826060    1.621279
     27          6           0        4.259590   -3.851206   -1.438985
     28          6           0       -2.248902   -4.424364    1.074874
     29          6           0       -5.363412   -0.114739   -0.778192
     30          6           0       -4.403705    4.054275   -0.607013
     31          6           0       -1.114214    4.114419   -0.331808
     32          6           0        6.695958   -3.642646   -0.837409
     33          6           0        5.862414   -0.821532   -0.056590
     34          6           0        0.272297    3.961029   -0.382018
     35          6           0        1.307506    5.078305   -0.593061
     36          6           0        2.538559    4.613765   -0.184213
     37          6           0       -3.336716   -3.906243    0.039464
     38          6           0        5.453598    0.391237    0.726627
     39          6           0       -6.715489   -0.757867   -0.674520
     40          6           0        3.819876    5.217374   -0.160280
     41          6           0        2.259592    3.109906    0.244292
     42          6           0        0.898629    6.410517   -1.090012
     43          6           0        4.385735    5.459914    1.208070
     44          1           0        0.614152    0.411183    0.115784
     45          1           0       -3.159907   -0.958728    0.887734
     46          1           0       -2.621049   -2.724155    2.509842
     47          1           0       -1.300014   -3.881605    2.745554
     48          1           0        5.405738   -2.458915   -2.374720
     49          1           0       -5.043910    0.563532    1.324815
     50          1           0       -5.980898    1.690420    0.241146
     51          1           0        2.870350   -0.047630    0.405181
     52          1           0       -0.343414    1.854511    0.501469
     53          1           0        1.092790   -4.804647    0.984923
     54          1           0        2.407716   -3.685412    1.675469
     55          1           0        1.188073   -4.213727    2.669311
     56          1           0        2.279330   -3.391240   -0.524868
     57          1           0       -1.416231   -4.878925    0.580220
     58          1           0       -2.725014   -5.063452    1.682217
     59          1           0       -4.550954   -0.907935   -0.539728
     60          1           0       -5.041927    0.411610   -1.831407
     61          1           0       -4.033226    4.816875   -0.106280
     62          1           0       -5.356580    3.753285   -0.615943
     63          1           0       -4.233785    4.386774   -1.699896
     64          1           0       -1.539596    5.012715   -0.454845
     65          1           0        7.511076   -2.884308   -0.871492
     66          1           0        6.855910   -4.582220   -1.342989
     67          1           0        6.502176   -3.957609    0.365575
     68          1           0        6.973343   -0.985289   -0.267505
     69          1           0        4.531342    0.992344    0.230973
     70          1           0        6.237426    1.102251    1.153080
     71          1           0        4.824241    0.141293    1.672254
     72          1           0        4.034853    6.143818   -0.854202
     73          1           0        4.537720    4.433546   -0.716428
     74          1           0        0.086321    6.335254   -1.982158
     75          1           0        1.722849    6.986030   -1.362133
     76          1           0        0.234236    6.987458   -0.428966
     77          1           0        3.904596    6.153756    1.969615
     78          1           0        5.491411    5.713158    1.321625
     79          1           0        4.371135    4.463863    1.758743
     80          1           0       -3.925296   -4.179927   -1.582422
     81          1           0       -7.806755   -1.833129   -1.787128
 ---------------------------------------------------------------------
 Rotational constants (GHZ):           0.0763097           0.0551417           0.0342194
 Standard basis: SVP (5D, 7F)
 There are   835 symmetry adapted cartesian basis functions of A   symmetry.
 There are   792 symmetry adapted basis functions of A   symmetry.
   792 basis functions,  1341 primitive gaussians,   835 cartesian basis functions
   156 alpha electrons      156 beta electrons
       nuclear repulsion energy      5051.8193643755 Hartrees.
 NAtoms=   81 NActive=   81 NUniq=   81 SFac= 1.00D+00 NAtFMM=   60 NAOKFM=T Big=T
 Integral buffers will be    131072 words long.
 Regular integral format.
 Two-electron integral symmetry is turned on.
 One-electron integrals computed using PRISM.
 NBasis=   792 RedAO= T EigKep=  3.59D-04  NBF=   792
 NBsUse=   792 1.00D-06 EigRej= -1.00D+00 NBFU=   792
 ExpMin= 1.22D-01 ExpMax= 2.27D+03 ExpMxC= 3.41D+02 IAcc=3 IRadAn=         5 AccDes= 0.00D+00
 Harris functional with IExCor=  402 and IRadAn=       5 diagonalized for initial guess.
 HarFok:  IExCor=  402 AccDes= 0.00D+00 IRadAn=         5 IDoV= 1 UseB2=F ITyADJ=14
 ICtDFT=  3500011 ScaDFX=  1.000000  1.000000  1.000000  1.000000
 FoFCou: FMM=F IPFlag=           0 FMFlag=      100000 FMFlg1=        2001
         NFxFlg=           0 DoJE=T BraDBF=F KetDBF=T FulRan=T
         wScrn=  0.000000 ICntrl=       500 IOpCl=  0 I1Cent=   200000004 NGrid=           0
         NMat0=    1 NMatS0=      1 NMatT0=    0 NMatD0=    1 NMtDS0=    0 NMtDT0=    0
 Petite list used in FoFCou.
 Requested convergence on RMS density matrix=1.00D-08 within 128 cycles.
 Requested convergence on MAX density matrix=1.00D-06.
 Requested convergence on             energy=1.00D-06.
 No special actions if energy rises.
 Integral accuracy reduced to 1.0D-05 until final iterations.
 EnCoef did     6 forward-backward iterations
 Initial convergence to 1.0D-05 achieved.  Increase integral accuracy.
 SCF Done:  E(RB3LYP) =  -1949.06541946     A.U. after   19 cycles
            NFock= 19  Conv=0.52D-08     -V/T= 2.0108
 DoSCS=F DFT=T ScalE2(SS,OS)=  1.000000  1.000000
 ExpMin= 1.22D-01 ExpMax= 2.27D+03 ExpMxC= 3.41D+02 IAcc=3 IRadAn=         5 AccDes= 0.00D+00
 HarFok:  IExCor=  205 AccDes= 0.00D+00 IRadAn=         5 IDoV=-2 UseB2=F ITyADJ=14
 ICtDFT= 12500011 ScaDFX=  1.000000  1.000000  1.000000  1.000000
 GSVD:  LWork=       -2193 too small for GESVD, short by        9890 words or        9890 for optimal perf.
 Range of M.O.s used for correlation:    44   792
 NBasis=   792 NAE=   156 NBE=   156 NFC=    43 NFV=     0
 NROrb=    749 NOA=   113 NOB=   113 NVA=   636 NVB=   636

 **** Warning!!: The smallest alpha delta epsilon is  0.69946827D-01

 Orbital symmetries:
       Occupied  (A) (A) (A) (A) (A) (A) (A) (A) (A) (A) (A) (A)
                 (A) (A) (A) (A) (A) (A) (A) (A) (A) (A) (A) (A)
                 (A) (A) (A) (A) (A) (A) (A) (A) (A) (A) (A) (A)
                 (A) (A) (A) (A) (A) (A) (A) (A) (A) (A) (A) (A)
                 (A) (A) (A) (A) (A) (A) (A) (A) (A) (A) (A) (A)
                 (A) (A) (A) (A) (A) (A) (A) (A) (A) (A) (A) (A)
                 (A) (A) (A) (A) (A) (A) (A) (A) (A) (A) (A) (A)
                 (A) (A) (A) (A) (A) (A) (A) (A) (A) (A) (A) (A)
                 (A) (A) (A) (A) (A) (A) (A) (A) (A) (A) (A) (A)
                 (A) (A) (A) (A) (A) (A) (A) (A) (A) (A) (A) (A)
                 (A) (A) (A) (A) (A) (A) (A) (A) (A) (A) (A) (A)
                 (A) (A) (A) (A) (A) (A) (A) (A) (A) (A) (A) (A)
                 (A) (A) (A) (A) (A) (A) (A) (A) (A) (A) (A) (A)
       Virtual   (A) (A) (A) (A) (A) (A) (A) (A) (A) (A) (A) (A)
                 (A) (A) (A) (A) (A) (A) (A) (A) (A) (A) (A) (A)
                 (A) (A) (A) (A) (A) (A) (A) (A) (A) (A) (A) (A)
                 (A) (A) (A) (A) (A) (A) (A) (A) (A) (A) (A) (A)
                 (A) (A) (A) (A) (A) (A) (A) (A) (A) (A) (A) (A)
                 (A) (A) (A) (A) (A) (A) (A) (A) (A) (A) (A) (A)
                 (A) (A) (A) (A) (A) (A) (A) (A) (A) (A) (A) (A)
                 (A) (A) (A) (A) (A) (A) (A) (A) (A) (A) (A) (A)
                 (A) (A) (A) (A) (A) (A) (A) (A) (A) (A) (A) (A)
                 (A) (A) (A) (A) (A) (A) (A) (A) (A) (A) (A) (A)
                 (A) (A) (A) (A) (A) (A) (A) (A) (A) (A) (A) (A)
                 (A) (A) (A) (A) (A) (A) (A) (A) (A) (A) (A) (A)
                 (A) (A) (A) (A) (A) (A) (A) (A) (A) (A) (A) (A)
                 (A) (A) (A) (A) (A) (A) (A) (A) (A) (A) (A) (A)
                 (A) (A) (A) (A) (A) (A) (A) (A) (A) (A) (A) (A)
                 (A) (A) (A) (A) (A) (A) (A) (A) (A) (A) (A) (A)
                 (A) (A) (A) (A) (A) (A) (A) (A) (A) (A) (A) (A)
                 (A) (A) (A) (A) (A) (A) (A) (A) (A) (A) (A) (A)
                 (A) (A) (A) (A) (A) (A) (A) (A) (A) (A) (A) (A)
                 (A) (A) (A) (A) (A) (A) (A) (A) (A) (A) (A) (A)
                 (A) (A) (A) (A) (A) (A) (A) (A) (A) (A) (A) (A)
                 (A) (A) (A) (A) (A) (A) (A) (A) (A) (A) (A) (A)
                 (A) (A) (A) (A) (A) (A) (A) (A) (A) (A) (A) (A)
                 (A) (A) (A) (A) (A) (A) (A) (A) (A) (A) (A) (A)
                 (A) (A) (A) (A) (A) (A) (A) (A) (A) (A) (A) (A)
                 (A) (A) (A) (A) (A) (A) (A) (A) (A) (A) (A) (A)
                 (A) (A) (A) (A) (A) (A) (A) (A) (A) (A) (A) (A)
                 (A) (A) (A) (A) (A) (A) (A) (A) (A) (A) (A) (A)
                 (A) (A) (A) (A) (A) (A) (A) (A) (A) (A) (A) (A)
                 (A) (A) (A) (A) (A) (A) (A) (A) (A) (A) (A) (A)
                 (A) (A) (A) (A) (A) (A) (A) (A) (A) (A) (A) (A)
                 (A) (A) (A) (A) (A) (A) (A) (A) (A) (A) (A) (A)
                 (A) (A) (A) (A) (A) (A) (A) (A) (A) (A) (A) (A)
                 (A) (A) (A) (A) (A) (A) (A) (A) (A) (A) (A) (A)
                 (A) (A) (A) (A) (A) (A) (A) (A) (A) (A) (A) (A)
                 (A) (A) (A) (A) (A) (A) (A) (A) (A) (A) (A) (A)
                 (A) (A) (A) (A) (A) (A) (A) (A) (A) (A) (A) (A)
                 (A) (A) (A) (A) (A) (A) (A) (A) (A) (A) (A) (A)
                 (A) (A) (A) (A) (A) (A) (A) (A) (A) (A) (A) (A)
                 (A) (A) (A) (A) (A) (A) (A) (A) (A) (A) (A) (A)
                 (A) (A) (A) (A) (A) (A) (A) (A) (A) (A) (A) (A)
                 (A) (A) (A) (A) (A) (A) (A) (A) (A) (A) (A) (A)
                 (A) (A) (A) (A) (A) (A) (A) (A) (A) (A) (A) (A)
                 (A) (A) (A) (A) (A) (A) (A) (A) (A) (A) (A) (A)
                 (A) (A) (A) (A) (A) (A) (A) (A) (A) (A) (A) (A)
                 (A) (A) (A) (A) (A) (A) (A) (A) (A) (A) (A) (A)
                 (A) (A) (A) (A) (A) (A) (A) (A) (A) (A) (A) (A)
                 (A) (A) (A) (A) (A) (A) (A) (A) (A) (A) (A) (A)
                 (A) (A) (A) (A) (A) (A) (A) (A) (A) (A) (A) (A)
                 (A) (A) (A) (A) (A) (A) (A) (A) (A) (A) (A) (A)
                 (A) (A) (A) (A) (A) (A) (A) (A) (A) (A) (A) (A)
                 (A) (A) (A) (A) (A) (A) (A) (A) (A) (A) (A) (A)
                 (A) (A) (A) (A) (A) (A) (A) (A) (A) (A) (A) (A)
     4 initial guesses have been made.
 Convergence on wavefunction:    0.001000000000000
 Iteration     1 Dimension     4 NMult     0 NNew      4
 CISAX will form     4 AO SS matrices at one time.
 Iteration     2 Dimension     6 NMult     4 NNew      2
 Iteration     3 Dimension     8 NMult     6 NNew      2
 Iteration     4 Dimension    10 NMult     8 NNew      2
 Iteration     5 Dimension    12 NMult    10 NNew      2
 Iteration     6 Dimension    14 NMult    12 NNew      2
 Iteration     7 Dimension    16 NMult    14 NNew      2
 ***********************************************************************
 Excited states from <AA,BB:AA,BB> singles matrix:
 ***********************************************************************
 
 Ground to excited state transition densities written to RWF  633
 Ground to excited state transition electric dipole moments (Au):
       state          X           Y           Z        Dip. S.      Osc.
         1         0.6050     -2.4553      0.1643      6.4215      0.2714
 Ground to excited state transition velocity dipole moments (Au):
       state          X           Y           Z        Dip. S.      Osc.
         1        -0.0397      0.1509     -0.0114      0.0245      0.2574
 Ground to excited state transition magnetic dipole moments (Au):
       state          X           Y           Z
         1        -0.2502     -0.5079     -2.6441
 Ground to excited state transition velocity quadrupole moments (Au):
       state          XX          YY          ZZ          XY          XZ          YZ
         1        -0.2286      0.4532     -0.0527      0.3964      0.0923      0.0010
 <0|del|b> * <b|rxdel|0> + <0|del|b> * <b|delr+rdel|0>
 Rotatory Strengths (R) in cgs (10**-40 erg-esu-cm/Gauss)
       state          XX          YY          ZZ    R(velocity)    E-M Angle
         1      -362.4742    248.1135   -294.1280   -136.1629       94.97
 1/2[<0|r|b>*<b|rxdel|0> + (<0|rxdel|b>*<b|r|0>)*]
 Rotatory Strengths (R) in cgs (10**-40 erg-esu-cm/Gauss)
       state          XX          YY          ZZ     R(length)
         1       107.0499   -881.8789    307.1785   -155.8835
  1/2[<0|del|b>*<b|r|0> + (<0|r|b>*<b|del|0>)*] (Au)
       state          X           Y           Z        Dip. S.   Osc.(frdel)
         1        -0.0240     -0.3705     -0.0019      0.3964      0.2643

 Excitation energies and oscillator strengths:
 
 Excited State   1:      Singlet-A      1.7254 eV  718.58 nm  f=0.2714  <S**2>=0.000
     156 ->157         0.70580
     156 <-157        -0.12174
 This state for optimization and/or second-order correction.
 Total Energy, E(TD-HF/TD-DFT) =  -1949.00201160    
 Copying the excited state density for this state as the 1-particle RhoCI density.
 SavETr:  write IOETrn=   770 NScale= 10 NData=  16 NLR=1 NState=    1 LETran=      28.

 **********************************************************************

            Population analysis using the SCF density.

 **********************************************************************

 Orbital symmetries:
       Occupied  (A) (A) (A) (A) (A) (A) (A) (A) (A) (A) (A) (A)
                 (A) (A) (A) (A) (A) (A) (A) (A) (A) (A) (A) (A)
                 (A) (A) (A) (A) (A) (A) (A) (A) (A) (A) (A) (A)
                 (A) (A) (A) (A) (A) (A) (A) (A) (A) (A) (A) (A)
                 (A) (A) (A) (A) (A) (A) (A) (A) (A) (A) (A) (A)
                 (A) (A) (A) (A) (A) (A) (A) (A) (A) (A) (A) (A)
                 (A) (A) (A) (A) (A) (A) (A) (A) (A) (A) (A) (A)
                 (A) (A) (A) (A) (A) (A) (A) (A) (A) (A) (A) (A)
                 (A) (A) (A) (A) (A) (A) (A) (A) (A) (A) (A) (A)
                 (A) (A) (A) (A) (A) (A) (A) (A) (A) (A) (A) (A)
                 (A) (A) (A) (A) (A) (A) (A) (A) (A) (A) (A) (A)
                 (A) (A) (A) (A) (A) (A) (A) (A) (A) (A) (A) (A)
                 (A) (A) (A) (A) (A) (A) (A) (A) (A) (A) (A) (A)
       Virtual   (A) (A) (A) (A) (A) (A) (A) (A) (A) (A) (A) (A)
                 (A) (A) (A) (A) (A) (A) (A) (A) (A) (A) (A) (A)
                 (A) (A) (A) (A) (A) (A) (A) (A) (A) (A) (A) (A)
                 (A) (A) (A) (A) (A) (A) (A) (A) (A) (A) (A) (A)
                 (A) (A) (A) (A) (A) (A) (A) (A) (A) (A) (A) (A)
                 (A) (A) (A) (A) (A) (A) (A) (A) (A) (A) (A) (A)
                 (A) (A) (A) (A) (A) (A) (A) (A) (A) (A) (A) (A)
                 (A) (A) (A) (A) (A) (A) (A) (A) (A) (A) (A) (A)
                 (A) (A) (A) (A) (A) (A) (A) (A) (A) (A) (A) (A)
                 (A) (A) (A) (A) (A) (A) (A) (A) (A) (A) (A) (A)
                 (A) (A) (A) (A) (A) (A) (A) (A) (A) (A) (A) (A)
                 (A) (A) (A) (A) (A) (A) (A) (A) (A) (A) (A) (A)
                 (A) (A) (A) (A) (A) (A) (A) (A) (A) (A) (A) (A)
                 (A) (A) (A) (A) (A) (A) (A) (A) (A) (A) (A) (A)
                 (A) (A) (A) (A) (A) (A) (A) (A) (A) (A) (A) (A)
                 (A) (A) (A) (A) (A) (A) (A) (A) (A) (A) (A) (A)
                 (A) (A) (A) (A) (A) (A) (A) (A) (A) (A) (A) (A)
                 (A) (A) (A) (A) (A) (A) (A) (A) (A) (A) (A) (A)
                 (A) (A) (A) (A) (A) (A) (A) (A) (A) (A) (A) (A)
                 (A) (A) (A) (A) (A) (A) (A) (A) (A) (A) (A) (A)
                 (A) (A) (A) (A) (A) (A) (A) (A) (A) (A) (A) (A)
                 (A) (A) (A) (A) (A) (A) (A) (A) (A) (A) (A) (A)
                 (A) (A) (A) (A) (A) (A) (A) (A) (A) (A) (A) (A)
                 (A) (A) (A) (A) (A) (A) (A) (A) (A) (A) (A) (A)
                 (A) (A) (A) (A) (A) (A) (A) (A) (A) (A) (A) (A)
                 (A) (A) (A) (A) (A) (A) (A) (A) (A) (A) (A) (A)
                 (A) (A) (A) (A) (A) (A) (A) (A) (A) (A) (A) (A)
                 (A) (A) (A) (A) (A) (A) (A) (A) (A) (A) (A) (A)
                 (A) (A) (A) (A) (A) (A) (A) (A) (A) (A) (A) (A)
                 (A) (A) (A) (A) (A) (A) (A) (A) (A) (A) (A) (A)
                 (A) (A) (A) (A) (A) (A) (A) (A) (A) (A) (A) (A)
                 (A) (A) (A) (A) (A) (A) (A) (A) (A) (A) (A) (A)
                 (A) (A) (A) (A) (A) (A) (A) (A) (A) (A) (A) (A)
                 (A) (A) (A) (A) (A) (A) (A) (A) (A) (A) (A) (A)
                 (A) (A) (A) (A) (A) (A) (A) (A) (A) (A) (A) (A)
                 (A) (A) (A) (A) (A) (A) (A) (A) (A) (A) (A) (A)
                 (A) (A) (A) (A) (A) (A) (A) (A) (A) (A) (A) (A)
                 (A) (A) (A) (A) (A) (A) (A) (A) (A) (A) (A) (A)
                 (A) (A) (A) (A) (A) (A) (A) (A) (A) (A) (A) (A)
                 (A) (A) (A) (A) (A) (A) (A) (A) (A) (A) (A) (A)
                 (A) (A) (A) (A) (A) (A) (A) (A) (A) (A) (A) (A)
                 (A) (A) (A) (A) (A) (A) (A) (A) (A) (A) (A) (A)
                 (A) (A) (A) (A) (A) (A) (A) (A) (A) (A) (A) (A)
                 (A) (A) (A) (A) (A) (A) (A) (A) (A) (A) (A) (A)
                 (A) (A) (A) (A) (A) (A) (A) (A) (A) (A) (A) (A)
                 (A) (A) (A) (A) (A) (A) (A) (A) (A) (A) (A) (A)
                 (A) (A) (A) (A) (A) (A) (A) (A) (A) (A) (A) (A)
                 (A) (A) (A) (A) (A) (A) (A) (A) (A) (A) (A) (A)
                 (A) (A) (A) (A) (A) (A) (A) (A) (A) (A) (A) (A)
                 (A) (A) (A) (A) (A) (A) (A) (A) (A) (A) (A) (A)
                 (A) (A) (A) (A) (A) (A) (A) (A) (A) (A) (A) (A)
                 (A) (A) (A) (A) (A) (A) (A) (A) (A) (A) (A) (A)
                 (A) (A) (A) (A) (A) (A) (A) (A) (A) (A) (A) (A)
 The electronic state is 1-A.
 Alpha  occ. eigenvalues --  -19.20138 -19.19479 -19.15484 -19.13342 -19.12229
 Alpha  occ. eigenvalues --  -19.08730 -14.38426 -14.35898 -14.35891 -14.31078
 Alpha  occ. eigenvalues --  -10.33988 -10.32483 -10.31104 -10.26964 -10.24572
 Alpha  occ. eigenvalues --  -10.24421 -10.24257 -10.23977 -10.23937 -10.22844
 Alpha  occ. eigenvalues --  -10.22501 -10.21472 -10.21456 -10.21297 -10.21176
 Alpha  occ. eigenvalues --  -10.21056 -10.20751 -10.20680 -10.20613 -10.20557
 Alpha  occ. eigenvalues --  -10.20547 -10.20426 -10.20359 -10.20296 -10.20204
 Alpha  occ. eigenvalues --  -10.19813 -10.19588 -10.19394 -10.18874 -10.18864
 Alpha  occ. eigenvalues --  -10.18138 -10.17958 -10.17587  -1.13218  -1.10258
 Alpha  occ. eigenvalues --   -1.04222  -1.02073  -1.01172  -1.00995  -0.97532
 Alpha  occ. eigenvalues --   -0.95017  -0.94678  -0.88869  -0.83480  -0.82675
 Alpha  occ. eigenvalues --   -0.82103  -0.81464  -0.80076  -0.79725  -0.78331
 Alpha  occ. eigenvalues --   -0.76961  -0.76766  -0.75019  -0.74162  -0.73137
 Alpha  occ. eigenvalues --   -0.72367  -0.69199  -0.69011  -0.68287  -0.68001
 Alpha  occ. eigenvalues --   -0.67444  -0.65925  -0.64564  -0.62026  -0.61770
 Alpha  occ. eigenvalues --   -0.60828  -0.59787  -0.59016  -0.58181  -0.57471
 Alpha  occ. eigenvalues --   -0.56955  -0.55466  -0.54451  -0.53571  -0.52612
 Alpha  occ. eigenvalues --   -0.52098  -0.51888  -0.51551  -0.51426  -0.50097
 Alpha  occ. eigenvalues --   -0.49860  -0.49644  -0.49054  -0.48766  -0.48557
 Alpha  occ. eigenvalues --   -0.47559  -0.47241  -0.47086  -0.46215  -0.45918
 Alpha  occ. eigenvalues --   -0.45642  -0.45354  -0.44397  -0.44041  -0.43925
 Alpha  occ. eigenvalues --   -0.43808  -0.43123  -0.43015  -0.42592  -0.42391
 Alpha  occ. eigenvalues --   -0.41852  -0.41670  -0.41484  -0.41123  -0.40963
 Alpha  occ. eigenvalues --   -0.40811  -0.40465  -0.40408  -0.39908  -0.39764
 Alpha  occ. eigenvalues --   -0.39693  -0.39337  -0.38852  -0.38302  -0.37683
 Alpha  occ. eigenvalues --   -0.37496  -0.37269  -0.37098  -0.36647  -0.36436
 Alpha  occ. eigenvalues --   -0.35801  -0.35721  -0.35324  -0.35137  -0.35097
 Alpha  occ. eigenvalues --   -0.34263  -0.33875  -0.33493  -0.33462  -0.33234
 Alpha  occ. eigenvalues --   -0.32048  -0.31871  -0.30913  -0.30477  -0.28973
 Alpha  occ. eigenvalues --   -0.28628  -0.28050  -0.27011  -0.26230  -0.25678
 Alpha  occ. eigenvalues --   -0.25267  -0.23874  -0.23056  -0.22992  -0.22474
 Alpha  occ. eigenvalues --   -0.18207
 Alpha virt. eigenvalues --   -0.11212  -0.05414  -0.03653  -0.01942  -0.01430
 Alpha virt. eigenvalues --   -0.00067   0.01832   0.02341   0.03151   0.03698
 Alpha virt. eigenvalues --    0.04376   0.04909   0.05252   0.06034   0.06109
 Alpha virt. eigenvalues --    0.06542   0.06706   0.07167   0.07628   0.08001
 Alpha virt. eigenvalues --    0.08219   0.08669   0.08935   0.09342   0.09508
 Alpha virt. eigenvalues --    0.09758   0.10014   0.10297   0.10662   0.10816
 Alpha virt. eigenvalues --    0.11063   0.11501   0.12081   0.12537   0.13252
 Alpha virt. eigenvalues --    0.13462   0.13688   0.13941   0.14233   0.14851
 Alpha virt. eigenvalues --    0.15031   0.15287   0.15603   0.15873   0.16230
 Alpha virt. eigenvalues --    0.16423   0.16567   0.16889   0.16944   0.17636
 Alpha virt. eigenvalues --    0.18287   0.18413   0.19074   0.19645   0.19804
 Alpha virt. eigenvalues --    0.20370   0.20528   0.20660   0.21232   0.21355
 Alpha virt. eigenvalues --    0.22144   0.22510   0.23029   0.23147   0.23669
 Alpha virt. eigenvalues --    0.23873   0.24565   0.24816   0.25115   0.25487
 Alpha virt. eigenvalues --    0.26227   0.26379   0.27393   0.27684   0.28398
 Alpha virt. eigenvalues --    0.28839   0.29070   0.29656   0.30291   0.30874
 Alpha virt. eigenvalues --    0.31208   0.31237   0.32103   0.32315   0.32535
 Alpha virt. eigenvalues --    0.33448   0.34268   0.34332   0.35659   0.35915
 Alpha virt. eigenvalues --    0.36194   0.36648   0.37280   0.37888   0.37903
 Alpha virt. eigenvalues --    0.38803   0.39436   0.39823   0.40278   0.40753
 Alpha virt. eigenvalues --    0.40948   0.41397   0.41533   0.42070   0.42454
 Alpha virt. eigenvalues --    0.42862   0.43373   0.43608   0.44119   0.44323
 Alpha virt. eigenvalues --    0.44494   0.44971   0.45209   0.45843   0.45980
 Alpha virt. eigenvalues --    0.46365   0.46797   0.47028   0.47328   0.47414
 Alpha virt. eigenvalues --    0.48246   0.48267   0.49292   0.49485   0.49738
 Alpha virt. eigenvalues --    0.50091   0.50560   0.50665   0.50812   0.51626
 Alpha virt. eigenvalues --    0.52102   0.52370   0.52826   0.53365   0.53630
 Alpha virt. eigenvalues --    0.53827   0.54540   0.54707   0.55365   0.55613
 Alpha virt. eigenvalues --    0.55898   0.56227   0.56808   0.56921   0.57289
 Alpha virt. eigenvalues --    0.58209   0.58391   0.58530   0.58782   0.59026
 Alpha virt. eigenvalues --    0.59398   0.59629   0.59817   0.60085   0.60339
 Alpha virt. eigenvalues --    0.60643   0.60705   0.61006   0.61299   0.61816
 Alpha virt. eigenvalues --    0.61942   0.62076   0.62273   0.62398   0.62607
 Alpha virt. eigenvalues --    0.63046   0.63512   0.63866   0.64118   0.64426
 Alpha virt. eigenvalues --    0.64826   0.65031   0.65115   0.65452   0.65618
 Alpha virt. eigenvalues --    0.65854   0.65977   0.66546   0.66579   0.66611
 Alpha virt. eigenvalues --    0.67286   0.67657   0.67737   0.67773   0.68596
 Alpha virt. eigenvalues --    0.68752   0.68802   0.69284   0.69475   0.69667
 Alpha virt. eigenvalues --    0.69849   0.69995   0.70257   0.70480   0.70766
 Alpha virt. eigenvalues --    0.71068   0.71290   0.71573   0.71943   0.72098
 Alpha virt. eigenvalues --    0.72275   0.72654   0.73016   0.73247   0.73373
 Alpha virt. eigenvalues --    0.74151   0.74376   0.74998   0.75272   0.75466
 Alpha virt. eigenvalues --    0.75707   0.76079   0.76447   0.77073   0.77448
 Alpha virt. eigenvalues --    0.77916   0.78601   0.79051   0.79580   0.80083
 Alpha virt. eigenvalues --    0.80740   0.81063   0.81392   0.82253   0.82619
 Alpha virt. eigenvalues --    0.83334   0.83702   0.84752   0.85209   0.86259
 Alpha virt. eigenvalues --    0.86525   0.87519   0.87992   0.88737   0.89553
 Alpha virt. eigenvalues --    0.90125   0.91217   0.91968   0.92664   0.93156
 Alpha virt. eigenvalues --    0.93455   0.93721   0.94338   0.94744   0.94780
 Alpha virt. eigenvalues --    0.95590   0.96025   0.96172   0.96357   0.96900
 Alpha virt. eigenvalues --    0.97231   0.97575   0.98064   0.98695   0.99734
 Alpha virt. eigenvalues --    1.00303   1.02059   1.02500   1.03322   1.03446
 Alpha virt. eigenvalues --    1.04438   1.04784   1.05620   1.06350   1.06621
 Alpha virt. eigenvalues --    1.07503   1.08083   1.08625   1.09107   1.09838
 Alpha virt. eigenvalues --    1.10569   1.10882   1.12063   1.12335   1.13554
 Alpha virt. eigenvalues --    1.14498   1.14884   1.15240   1.16022   1.17197
 Alpha virt. eigenvalues --    1.17749   1.17875   1.18569   1.19352   1.19922
 Alpha virt. eigenvalues --    1.20099   1.20794   1.21322   1.22200   1.22575
 Alpha virt. eigenvalues --    1.23717   1.24049   1.24493   1.25035   1.26928
 Alpha virt. eigenvalues --    1.27278   1.28261   1.28600   1.29370   1.29769
 Alpha virt. eigenvalues --    1.30644   1.31119   1.31362   1.31995   1.33235
 Alpha virt. eigenvalues --    1.33314   1.33546   1.34616   1.35074   1.36114
 Alpha virt. eigenvalues --    1.37533   1.37841   1.38475   1.39169   1.39670
 Alpha virt. eigenvalues --    1.40053   1.40164   1.40458   1.40992   1.41944
 Alpha virt. eigenvalues --    1.42304   1.42533   1.44012   1.45290   1.45859
 Alpha virt. eigenvalues --    1.46452   1.47709   1.48044   1.48655   1.49812
 Alpha virt. eigenvalues --    1.49952   1.50357   1.50565   1.50891   1.51291
 Alpha virt. eigenvalues --    1.51874   1.52521   1.53148   1.53478   1.54660
 Alpha virt. eigenvalues --    1.54961   1.55252   1.56057   1.56606   1.57324
 Alpha virt. eigenvalues --    1.57674   1.57771   1.58631   1.59060   1.60296
 Alpha virt. eigenvalues --    1.60765   1.61700   1.62679   1.63112   1.63176
 Alpha virt. eigenvalues --    1.63468   1.63493   1.63611   1.64257   1.64618
 Alpha virt. eigenvalues --    1.65333   1.65966   1.66262   1.66792   1.67349
 Alpha virt. eigenvalues --    1.67711   1.68373   1.68717   1.68822   1.69343
 Alpha virt. eigenvalues --    1.69647   1.70730   1.71260   1.71395   1.72310
 Alpha virt. eigenvalues --    1.72610   1.73249   1.73490   1.73900   1.74341
 Alpha virt. eigenvalues --    1.74786   1.74955   1.75334   1.75711   1.76525
 Alpha virt. eigenvalues --    1.76716   1.76833   1.77533   1.77865   1.77956
 Alpha virt. eigenvalues --    1.78188   1.78470   1.78940   1.79167   1.79617
 Alpha virt. eigenvalues --    1.80031   1.80237   1.80342   1.80888   1.81099
 Alpha virt. eigenvalues --    1.81357   1.82146   1.82351   1.82539   1.83048
 Alpha virt. eigenvalues --    1.83537   1.83822   1.84572   1.85071   1.85273
 Alpha virt. eigenvalues --    1.85443   1.85896   1.86245   1.86485   1.86709
 Alpha virt. eigenvalues --    1.87967   1.88070   1.88484   1.88919   1.89582
 Alpha virt. eigenvalues --    1.89915   1.90113   1.90601   1.91012   1.91924
 Alpha virt. eigenvalues --    1.92395   1.92937   1.93614   1.93738   1.94309
 Alpha virt. eigenvalues --    1.94479   1.95471   1.95612   1.95883   1.96033
 Alpha virt. eigenvalues --    1.96930   1.97319   1.97593   1.97831   1.98332
 Alpha virt. eigenvalues --    1.98743   1.99528   1.99711   2.00100   2.00652
 Alpha virt. eigenvalues --    2.01059   2.01574   2.01867   2.02627   2.03077
 Alpha virt. eigenvalues --    2.04249   2.04817   2.05689   2.06175   2.06476
 Alpha virt. eigenvalues --    2.06970   2.07175   2.08329   2.08786   2.09193
 Alpha virt. eigenvalues --    2.09741   2.10078   2.10942   2.11282   2.12057
 Alpha virt. eigenvalues --    2.12184   2.13601   2.14529   2.14664   2.15342
 Alpha virt. eigenvalues --    2.16083   2.16874   2.17587   2.18271   2.18783
 Alpha virt. eigenvalues --    2.18953   2.19996   2.20449   2.20502   2.21621
 Alpha virt. eigenvalues --    2.21711   2.22577   2.23094   2.24396   2.25719
 Alpha virt. eigenvalues --    2.25847   2.26675   2.26812   2.27365   2.28626
 Alpha virt. eigenvalues --    2.29623   2.29869   2.30452   2.32100   2.32970
 Alpha virt. eigenvalues --    2.33098   2.33789   2.33934   2.34649   2.35291
 Alpha virt. eigenvalues --    2.35658   2.36874   2.37112   2.37951   2.38094
 Alpha virt. eigenvalues --    2.38931   2.39160   2.39678   2.40082   2.40572
 Alpha virt. eigenvalues --    2.40816   2.41785   2.43040   2.43389   2.43875
 Alpha virt. eigenvalues --    2.44173   2.44445   2.45142   2.46397   2.47129
 Alpha virt. eigenvalues --    2.47829   2.49262   2.49965   2.50145   2.51245
 Alpha virt. eigenvalues --    2.52385   2.52554   2.53377   2.54251   2.55566
 Alpha virt. eigenvalues --    2.55954   2.56925   2.57465   2.58079   2.58705
 Alpha virt. eigenvalues --    2.59636   2.60605   2.60787   2.61585   2.62226
 Alpha virt. eigenvalues --    2.62316   2.62950   2.63182   2.63924   2.64300
 Alpha virt. eigenvalues --    2.65895   2.66454   2.67177   2.67812   2.68339
 Alpha virt. eigenvalues --    2.69324   2.69870   2.70276   2.70529   2.71374
 Alpha virt. eigenvalues --    2.71715   2.72092   2.72686   2.73187   2.74125
 Alpha virt. eigenvalues --    2.74498   2.75111   2.75873   2.77497   2.78230
 Alpha virt. eigenvalues --    2.79052   2.80226   2.81852   2.82177   2.82925
 Alpha virt. eigenvalues --    2.84575   2.85498   2.86022   2.86449   2.86708
 Alpha virt. eigenvalues --    2.87692   2.89295   2.89444   2.90285   2.90593
 Alpha virt. eigenvalues --    2.91052   2.91245   2.91686   2.91859   2.92269
 Alpha virt. eigenvalues --    2.93428   2.95647   2.96045   2.96526   2.97692
 Alpha virt. eigenvalues --    2.98101   2.98569   2.99180   3.00202   3.00475
 Alpha virt. eigenvalues --    3.01479   3.02591   3.02986   3.03481   3.05314
 Alpha virt. eigenvalues --    3.05940   3.06342   3.08755   3.09742   3.10043
 Alpha virt. eigenvalues --    3.11782   3.12343   3.12798   3.14791   3.15139
 Alpha virt. eigenvalues --    3.17340   3.18182   3.19396   3.19993   3.21427
 Alpha virt. eigenvalues --    3.21991   3.22426   3.23400   3.25090   3.30680
 Alpha virt. eigenvalues --    3.33171   3.34038   3.41144   3.43742   3.45371
 Alpha virt. eigenvalues --    3.46016   3.50655   3.54983   3.55960   3.57805
 Alpha virt. eigenvalues --    3.61610   3.65822   3.67972   3.74900   3.75770
 Alpha virt. eigenvalues --    3.80973
          Condensed to atoms (all electrons):
 Mulliken charges:
               1
     1  O   -0.245856
     2  O   -0.122324
     3  O   -0.184476
     4  O   -0.211038
     5  O   -0.211982
     6  O   -0.371461
     7  N   -0.131473
     8  N   -0.085891
     9  N   -0.100209
    10  N   -0.336873
    11  C   -0.108114
    12  C    0.061884
    13  C   -0.094148
    14  C    0.017481
    15  C   -0.115747
    16  C    0.087980
    17  C   -0.076833
    18  C   -0.116733
    19  C    0.091692
    20  C   -0.004008
    21  C    0.120066
    22  C    0.040014
    23  C   -0.077736
    24  C    0.078201
    25  C   -0.102691
    26  C   -0.012766
    27  C    0.198116
    28  C    0.092939
    29  C   -0.129687
    30  C    0.238379
    31  C   -0.066243
    32  C    0.031036
    33  C   -0.101184
    34  C    0.141438
    35  C   -0.090190
    36  C   -0.100550
    37  C    0.107023
    38  C   -0.050262
    39  C    0.175435
    40  C    0.007282
    41  C    0.219409
    42  C    0.105499
    43  C   -0.049653
    44  H    0.159306
    45  H    0.027308
    46  H    0.022644
    47  H   -0.003742
    48  H    0.073769
    49  H    0.024526
    50  H    0.017594
    51  H   -0.004021
    52  H    0.237808
    53  H    0.049292
    54  H    0.028797
    55  H    0.025294
    56  H    0.023654
    57  H    0.023454
    58  H    0.004135
    59  H    0.067217
    60  H    0.054777
    61  H   -0.009925
    62  H   -0.025427
    63  H    0.020077
    64  H   -0.091692
    65  H    0.037841
    66  H    0.036885
    67  H    0.037378
    68  H    0.006854
    69  H    0.108820
    70  H    0.024922
    71  H    0.037282
    72  H    0.014884
    73  H    0.033586
    74  H    0.017138
    75  H    0.003434
    76  H    0.017385
    77  H    0.013679
    78  H    0.006626
    79  H    0.033224
    80  H    0.144558
    81  H    0.184911
 Sum of Mulliken charges =  -0.00000
 Mulliken charges with hydrogens summed into heavy atoms:
               1
     1  O   -0.245856
     2  O    0.022233
     3  O    0.000435
     4  O   -0.211038
     5  O   -0.211982
     6  O   -0.371461
     7  N    0.027833
     8  N    0.151917
     9  N   -0.076554
    10  N   -0.336873
    11  C   -0.108114
    12  C    0.061884
    13  C   -0.094148
    14  C    0.017481
    15  C   -0.115747
    16  C    0.087980
    17  C   -0.049524
    18  C   -0.116733
    19  C    0.110595
    20  C    0.069761
    21  C    0.120066
    22  C    0.040014
    23  C   -0.077736
    24  C    0.120321
    25  C   -0.106712
    26  C    0.090617
    27  C    0.198116
    28  C    0.120528
    29  C   -0.007694
    30  C    0.223105
    31  C   -0.157935
    32  C    0.143139
    33  C   -0.094331
    34  C    0.141438
    35  C   -0.090190
    36  C   -0.100550
    37  C    0.107023
    38  C    0.120762
    39  C    0.175435
    40  C    0.055753
    41  C    0.219409
    42  C    0.143456
    43  C    0.003877
 Electronic spatial extent (au):  <R**2>=          30268.9820
 Charge=             -0.0000 electrons
 Dipole moment (field-independent basis, Debye):
    X=             -4.3556    Y=              0.1429    Z=             -1.3183  Tot=              4.5530
 Quadrupole moment (field-independent basis, Debye-Ang):
   XX=           -246.7799   YY=           -243.1852   ZZ=           -256.5009
   XY=              9.8638   XZ=             16.2519   YZ=            -17.7191
 Traceless Quadrupole moment (field-independent basis, Debye-Ang):
   XX=              2.0421   YY=              5.6368   ZZ=             -7.6789
   XY=              9.8638   XZ=             16.2519   YZ=            -17.7191
 Octapole moment (field-independent basis, Debye-Ang**2):
  XXX=            -37.0180  YYY=            109.1900  ZZZ=            -12.1688  XYY=           -196.3415
  XXY=            -47.4737  XXZ=           -149.5297  XZZ=            -63.5074  YZZ=            -23.0778
  YYZ=             51.4846  XYZ=            -54.9590
 Hexadecapole moment (field-independent basis, Debye-Ang**3):
 XXXX=         -21503.8335 YYYY=         -16398.4679 ZZZZ=          -1629.3771 XXXY=            593.9353
 XXXZ=           1102.4130 YYYX=            788.9222 YYYZ=           -533.7824 ZZZX=             92.9246
 ZZZY=             35.1102 XXYY=          -6344.4506 XXZZ=          -3909.0126 YYZZ=          -3100.2072
 XXYZ=             40.9526 YYXZ=            303.2601 ZZXY=            201.4274
 N-N= 5.051819364376D+03 E-N=-1.463421672751D+04  KE= 1.928270343222D+03
 1\1\GINC-PADAWAN\SP\RB3LYP TD-FC\SVP\C33H38N4O6\PADAWAN\02-Jul-2019\0\
 \# td=(NStates=1) B3LYP/SVP\\TD\\0,1\O,0,-4.408172328,-4.8606604372,2.
 0124252709\O,0,3.092033232,-4.6563669435,1.1390180391\O,0,6.810437348,
 -1.7731245822,1.7171343929\O,0,4.0318082383,-3.1545934843,-0.259939333
 3\O,0,7.4727168083,-0.6985197471,-0.2190979425\O,0,-3.1624718333,2.441
 082159,-0.8024618076\N,0,-0.2359905938,-0.4737915723,-0.5085178647\N,0
 ,1.5778662793,1.8580262351,-0.2086924468\N,0,-3.2037823672,-3.12122323
 53,0.7162979484\N,0,-0.8818866844,2.7986910185,-0.078991745\C,0,0.6504
 87313,-2.3332312815,-1.368369132\C,0,1.0026431666,-1.0207893106,-0.878
 0766566\C,0,-0.7124953782,-2.5798663488,-1.2292549882\C,0,-1.295559978
 ,-1.3682371351,-0.6526443944\C,0,3.739612422,1.6302361901,-0.160570323
 8\C,0,2.4657486807,0.9717389994,-0.3754717322\C,0,2.2850537556,-0.3449
 717551,-0.7816176364\C,0,3.6050811482,2.9619259948,0.1690748978\C,0,1.
 7271641215,-3.3052922305,-2.0040977554\C,0,-5.4936182685,-2.8171173266
 ,1.3381710814\C,0,-3.4857424335,-1.8250674826,0.2038663184\C,0,2.16323
 06352,3.0648564798,-0.0070030769\C,0,-5.0532480211,-1.7034693108,0.455
 9696409\C,0,5.0991751794,0.9005149684,-0.3345924179\C,0,-2.6448893046,
 -1.0209206475,-0.3269691707\C,0,-1.4250121633,-3.792589012,-1.60442075
 89\C,0,-4.366086277,-3.7206662984,1.4623613617\C,0,2.117072841,-4.4928
 683105,-1.0636655934\C,0,5.3605548579,-0.269715095,0.7670992571\C,0,4.
 5228183431,3.9249653458,0.5830605064\C,0,1.2358722656,4.0803625866,0.3
 148432049\C,0,-6.796684319,-3.4430290827,0.8653755997\C,0,-5.882767857
 4,-0.6502808121,0.0726144283\C,0,-0.1544133606,3.9677850283,0.36863867
 58\C,0,-1.1560106997,5.1156090946,0.5779362591\C,0,-2.4010595797,4.685
 8500864,0.1734532513\C,0,3.2219487769,-4.0031529855,-0.0325055614\C,0,
 -5.4404477543,0.5472400126,-0.7158430491\C,0,6.6929991789,-0.952490718
 7,0.6627771759\C,0,-3.6642239653,5.3266037189,0.1501595267\C,0,-2.1671
 862702,3.1729722582,-0.2502607959\C,0,-0.7072013112,6.4370293729,1.069
 2059722\C,0,-4.2258821508,5.5807740341,-1.2178108726\H,0,-0.6011016951
 ,0.4277296388,-0.1156713068\H,0,3.12949031,-1.0547336146,-0.8909591833
 \H,0,2.5355034316,-2.8093425309,-2.5055371008\H,0,1.1806390701,-3.9284
 669576,-2.7342017803\H,0,-5.4688686142,-2.2921478395,2.3956000999\H,0,
 5.0562081333,0.4102004014,-1.3376241097\H,0,6.0282413915,1.5130008282,
 -0.2600595806\H,0,-2.870413259,0.0341112014,-0.3984802455\H,0,0.397386
 9693,1.8410539493,-0.5086283083\H,0,-1.2340981456,-4.7748920597,-0.965
 0360134\H,0,-2.5173018412,-3.6201025967,-1.6567138045\H,0,-1.315916771
 6,-4.1873758064,-2.6513207214\H,0,-2.3753199183,-3.3220619369,0.542266
 8919\H,0,1.2725980891,-4.9211248108,-0.5655619461\H,0,2.5728933937,-5.
 1477488818,-1.6697523571\H,0,4.5246977028,-1.0396351269,0.5332630624\H
 ,0,5.0570200474,0.269522991,1.8191197151\H,0,4.1736578914,4.6963100474
 ,0.0804066689\H,0,5.4664997417,3.5962571589,0.5909848881\H,0,4.3652035
 53,4.2661420863,1.6751132282\H,0,1.6876295416,4.966255803,0.4337244476
 \H,0,-7.5891904873,-2.6610511886,0.8985211217\H,0,-6.9828923531,-4.375
 7339555,1.3746733077\H,0,-6.6149571927,-3.7677641925,-0.3368916008\H,0
 ,-6.9975242747,-0.7807189804,0.2865466558\H,0,-4.499868959,1.122847105
 6,-0.2243696983\H,0,-6.2041187893,1.2793770127,-1.143128629\H,0,-4.820
 8413961,0.275657728,-1.6619429591\H,0,-3.8504170272,6.2613805432,0.841
 2209986\H,0,-4.4034117794,4.5660789398,0.710687095\H,0,0.1046013156,6.
 3411746829,1.9598358252\H,0,-1.513607471,7.0373671914,1.341063458\H,0,
 -0.0277336054,6.9919514808,0.4046414212\H,0,-3.7264005471,6.257553381,
 -1.9828924917\H,0,-5.3239351007,5.8658597021,-1.3298528625\H,0,-4.2416
 876457,4.5827884491,-1.7649360016\H,0,3.8059889994,-4.288225035,1.5890
 596884\H,0,7.754893514,-2.0552949185,1.7768450675\\Version=ES64L-G16Re
 vA.03\State=1-A\HF=-1949.0654195\RMSD=5.160e-09\PG=C01 [X(C33H38N4O6)]
 \\@


 HICKORY, DICKORY, DOCK
 TWO MICE RAN UP THE CLOCK
 THE CLOCK STRUCK ONE...
 THE OTHER ESCAPED WITH MINOR INJURIES.
 Job cpu time:       0 days  4 hours 21 minutes 50.8 seconds.
 Elapsed time:       0 days  2 hours 55 minutes  5.1 seconds.
 File lengths (MBytes):  RWF=   2591 Int=      0 D2E=      0 Chk=     65 Scr=      1
 Normal termination of Gaussian 16 at Tue Jul  2 12:08:20 2019.
