 Entering Gaussian System, Link 0=g16
 Input=Geometria-171-.com
 Output=Geometria-171-.log
 Initial command:
 /usr/local/g16/l1.exe "/home/padawan/israel-mol/phycocyanobilin/spectra/emi/Gau-32219.inp" -scrdir="/home/padawan/israel-mol/phycocyanobilin/spectra/emi/"
 Entering Link 1 = /usr/local/g16/l1.exe PID=     32221.
  
 Copyright (c) 1988,1990,1992,1993,1995,1998,2003,2009,2016,
            Gaussian, Inc.  All Rights Reserved.
  
 This is part of the Gaussian(R) 16 program.  It is based on
 the Gaussian(R) 09 system (copyright 2009, Gaussian, Inc.),
 the Gaussian(R) 03 system (copyright 2003, Gaussian, Inc.),
 the Gaussian(R) 98 system (copyright 1998, Gaussian, Inc.),
 the Gaussian(R) 94 system (copyright 1995, Gaussian, Inc.),
 the Gaussian 92(TM) system (copyright 1992, Gaussian, Inc.),
 the Gaussian 90(TM) system (copyright 1990, Gaussian, Inc.),
 the Gaussian 88(TM) system (copyright 1988, Gaussian, Inc.),
 the Gaussian 86(TM) system (copyright 1986, Carnegie Mellon
 University), and the Gaussian 82(TM) system (copyright 1983,
 Carnegie Mellon University). Gaussian is a federally registered
 trademark of Gaussian, Inc.
  
 This software contains proprietary and confidential information,
 including trade secrets, belonging to Gaussian, Inc.
  
 This software is provided under written license and may be
 used, copied, transmitted, or stored only in accord with that
 written license.
  
 The following legend is applicable only to US Government
 contracts under FAR:
  
                    RESTRICTED RIGHTS LEGEND
  
 Use, reproduction and disclosure by the US Government is
 subject to restrictions as set forth in subparagraphs (a)
 and (c) of the Commercial Computer Software - Restricted
 Rights clause in FAR 52.227-19.
  
 Gaussian, Inc.
 340 Quinnipiac St., Bldg. 40, Wallingford CT 06492
  
  
 ---------------------------------------------------------------
 Warning -- This program may not be used in any manner that
 competes with the business of Gaussian, Inc. or will provide
 assistance to any competitor of Gaussian, Inc.  The licensee
 of this program is prohibited from giving any competitor of
 Gaussian, Inc. access to this program.  By using this program,
 the user acknowledges that Gaussian, Inc. is engaged in the
 business of creating and licensing software in the field of
 computational chemistry and represents and warrants to the
 licensee that it is not a competitor of Gaussian, Inc. and that
 it will not use this program in any manner prohibited above.
 ---------------------------------------------------------------
  

 Cite this work as:
 Gaussian 16, Revision A.03,
 M. J. Frisch, G. W. Trucks, H. B. Schlegel, G. E. Scuseria, 
 M. A. Robb, J. R. Cheeseman, G. Scalmani, V. Barone, 
 G. A. Petersson, H. Nakatsuji, X. Li, M. Caricato, A. V. Marenich, 
 J. Bloino, B. G. Janesko, R. Gomperts, B. Mennucci, H. P. Hratchian, 
 J. V. Ortiz, A. F. Izmaylov, J. L. Sonnenberg, D. Williams-Young, 
 F. Ding, F. Lipparini, F. Egidi, J. Goings, B. Peng, A. Petrone, 
 T. Henderson, D. Ranasinghe, V. G. Zakrzewski, J. Gao, N. Rega, 
 G. Zheng, W. Liang, M. Hada, M. Ehara, K. Toyota, R. Fukuda, 
 J. Hasegawa, M. Ishida, T. Nakajima, Y. Honda, O. Kitao, H. Nakai, 
 T. Vreven, K. Throssell, J. A. Montgomery, Jr., J. E. Peralta, 
 F. Ogliaro, M. J. Bearpark, J. J. Heyd, E. N. Brothers, K. N. Kudin, 
 V. N. Staroverov, T. A. Keith, R. Kobayashi, J. Normand, 
 K. Raghavachari, A. P. Rendell, J. C. Burant, S. S. Iyengar, 
 J. Tomasi, M. Cossi, J. M. Millam, M. Klene, C. Adamo, R. Cammi, 
 J. W. Ochterski, R. L. Martin, K. Morokuma, O. Farkas, 
 J. B. Foresman, and D. J. Fox, Gaussian, Inc., Wallingford CT, 2016.
 
 ******************************************
 Gaussian 16:  ES64L-G16RevA.03 25-Dec-2016
                29-Jun-2019 
 ******************************************
 %nproc=4
 Will use up to    4 processors via shared memory.
 %Mem=2GB
 --------------------------
 # td=(NStates=1) B3LYP/SVP
 --------------------------
 1/38=1,172=1/1;
 2/12=2,17=6,18=5,40=1/2;
 3/5=18,7=101,11=9,25=1,30=1,74=-5/1,2,3,8;
 4//1;
 5/5=2,38=5/2;
 8/6=1,10=1,108=1/1;
 9/41=1,42=1,70=2/14;
 6/7=2,8=2,9=2,10=2/1;
 99/5=1,9=1/99;
 --
 TD
 --
 Symbolic Z-matrix:
 Charge =  0 Multiplicity = 1
 8                    -4.16106  -4.87253   1.82411 
 8                     2.78764  -4.60124   1.04135 
 8                     6.88428  -1.59376   1.92879 
 8                     3.90083  -3.02938  -0.22489 
 8                     7.72709  -0.5859    0.09356 
 8                    -3.00995   2.27075  -0.33519 
 7                    -0.2835   -0.40272  -0.65738 
 7                     1.5981    1.76581  -0.30141 
 7                    -3.27405  -3.11205   0.7588 
 7                    -0.79478   2.8071   -0.11375 
 6                     0.54969  -2.3278   -1.43933 
 6                     0.94047  -1.05842  -0.94952 
 6                    -0.81106  -2.53638  -1.24085 
 6                    -1.26758  -1.36347  -0.82668 
 6                     3.83657   1.49525  -0.37744 
 6                     2.59432   0.8602   -0.56352 
 6                     2.25328  -0.42173  -0.94483 
 6                     3.60736   2.83182   0.09962 
 6                     1.65529  -3.23909  -2.03472 
 6                    -5.50837  -2.8402    1.35614 
 6                    -3.60365  -1.86228   0.28922 
 6                     2.15753   2.96582   0.05727 
 6                    -5.02612  -1.6359    0.57265 
 6                     5.16698   0.76212  -0.24386 
 6                    -2.69222  -1.0694   -0.39819 
 6                    -1.63521  -3.78767  -1.67126 
 6                    -4.33092  -3.83595   1.33245 
 6                     2.13107  -4.39545  -1.16971 
 6                     5.27953  -0.17133   0.9165 
 6                     4.46607   3.94364   0.43047 
 6                     1.2189    4.08436   0.36417 
 6                    -6.79641  -3.59511   0.82664 
 6                    -5.85754  -0.57717   0.32673 
 6                    -0.15463   4.00847   0.22032 
 6                    -1.0389    5.10658   0.40745 
 6                    -2.30979   4.51767   0.1322 
 6                     3.09363  -3.91887  -0.05025 
 6                    -5.55547   0.61285  -0.62476 
 6                     6.71896  -0.79875   0.85098 
 6                    -3.61588   5.25547   0.28724 
 6                    -2.13207   3.13332  -0.14427 
 6                    -0.6974    6.4893    0.74676 
 6                    -4.1988    5.66451  -1.11453 
 1                    -0.29939   0.41244   0.0526 
 1                     3.00063  -1.37791  -0.97818 
 1                     2.62436  -2.64513  -2.44306 
 1                     1.28316  -3.50939  -3.05606 
 1                    -5.78899  -2.60496   2.26899 
 1                     5.24896   0.22523  -1.25238 
 1                     5.86129   1.55066  -0.20282 
 1                    -2.86956   0.00838  -0.42867 
 1                     0.58182   1.91945  -0.41982 
 1                    -1.50977  -4.46112  -0.88494 
 1                    -2.70912  -3.6322   -1.9672 
 1                    -1.07806  -4.15076  -2.7212 
 1                    -2.39426  -3.60605   0.85005 
 1                     1.18812  -5.00847  -0.82223 
 1                     3.06702  -5.00849  -1.83244 
 1                     4.59575  -1.0316    0.77324 
 1                     5.24226   0.40467   1.82784 
 1                     4.35536   4.90995  -0.30462 
 1                     5.54688   3.77516   0.63734 
 1                     4.13029   4.38037   1.52991 
 1                     1.57649   5.02852   0.78926 
 1                    -7.59417  -2.72505   0.90131 
 1                    -7.06198  -4.49459   1.64618 
 1                    -6.81242  -3.88137  -0.21936 
 1                    -6.97264  -0.48886   0.64281 
 1                    -4.69276   1.30572  -0.14035 
 1                    -6.45108   1.05492  -1.11349 
 1                    -4.96484   0.26765  -1.57685 
 1                    -3.65071   6.1077    0.87019 
 1                    -4.37493   4.52194   0.76225 
 1                    -0.37893   6.23441   1.81867 
 1                    -1.68919   7.08249   0.67913 
 1                     0.06345   6.98213   0.00821 
 1                    -3.71326   6.33564  -1.73103 
 1                    -5.20987   6.04685  -1.12464 
 1                    -4.39536   4.76259  -1.79714 
 1                     3.35903  -4.38823   1.78732 
 1                     7.86783  -1.67687   1.88378 
 
 Stoichiometry    C33H38N4O6
 Framework group  C1[X(C33H38N4O6)]
 Deg. of freedom   237
 Full point group                 C1      NOp   1
 Largest Abelian subgroup         C1      NOp   1
 Largest concise Abelian subgroup C1      NOp   1
                         Standard orientation:                         
 ---------------------------------------------------------------------
 Center     Atomic      Atomic             Coordinates (Angstroms)
 Number     Number       Type             X           Y           Z
 ---------------------------------------------------------------------
      1          8           0        4.262138   -4.794176   -1.798926
      2          8           0       -2.691723   -4.664548   -1.025774
      3          8           0       -6.849047   -1.747047   -1.931221
      4          8           0       -3.839098   -3.110807    0.232275
      5          8           0       -7.715082   -0.749084   -0.101414
      6          8           0        2.959468    2.332779    0.327942
      7          7           0        0.288957   -0.395579    0.658437
      8          7           0       -1.636994    1.731667    0.290776
      9          7           0        3.337215   -3.048007   -0.742350
     10          7           0        0.733884    2.821841    0.101492
     11          6           0       -0.504907   -2.334228    1.447719
     12          6           0       -0.921441   -1.075405    0.951938
     13          6           0        0.860147   -2.515228    1.251795
     14          6           0        1.292643   -1.334841    0.833097
     15          6           0       -3.869435    1.414799    0.365268
     16          6           0       -2.614452    0.806609    0.555606
     17          6           0       -2.247242   -0.466267    0.942894
     18          6           0       -3.667532    2.753789   -0.117311
     19          6           0       -1.592032   -3.265805    2.045723
     20          6           0        5.566155   -2.732176   -1.338157
     21          6           0        3.640068   -1.789616   -0.277802
     22          6           0       -2.220868    2.918185   -0.073792
     23          6           0        5.057865   -1.534834   -0.560485
     24          6           0       -5.184088    0.653499    0.233261
     25          6           0        2.711403   -1.012961    0.405056
     26          6           0        1.709665   -3.747178    1.688632
     27          6           0        4.409704   -3.752162   -1.311567
     28          6           0       -2.042469   -4.435564    1.185160
     29          6           0       -5.275627   -0.287090   -0.923180
     30          6           0       -4.548816    3.846008   -0.454022
     31          6           0       -1.305375    4.054737   -0.384401
     32          6           0        6.868975   -3.457761   -0.803823
     33          6           0        5.866700   -0.457937   -0.318154
     34          6           0        0.069255    4.008138   -0.238565
     35          6           0        0.930666    5.123640   -0.429383
     36          6           0        2.213205    4.562572   -0.150039
     37          6           0       -3.013294   -3.984011    0.062478
     38          6           0        5.538639    0.729616    0.627799
     39          6           0       -6.701746   -0.944117   -0.856673
     40          6           0        3.503821    5.326779   -0.306702
     41          6           0        2.064042    3.176016    0.132221
     42          6           0        0.560842    6.497464   -0.775110
     43          6           0        4.076257    5.753942    1.093989
     44          1           0        0.288771    0.416667   -0.055053
     45          1           0       -2.974525   -1.437675    0.979482
     46          1           0       -2.573817   -2.690437    2.450307
     47          1           0       -1.215678   -3.523872    3.068680
     48          1           0        5.842996   -2.495072   -2.251673
     49          1           0       -5.256160    0.119373    1.243994
     50          1           0       -5.894644    1.427201    0.187957
     51          1           0        2.866183    0.068400    0.431079
     52          1           0       -0.624293    1.906992    0.409748
     53          1           0        1.599316   -4.426487    0.905092
     54          1           0        2.779710   -3.568066    1.985203
     55          1           0        1.158843   -4.117284    2.739463
     56          1           0        2.468042   -3.560642   -0.832516
     57          1           0       -1.086481   -5.030275    0.841489
     58          1           0       -2.966289   -5.065139    1.849413
     59          1           0       -4.574247   -1.132289   -0.775351
     60          1           0       -5.249195    0.285617   -1.836962
     61          1           0       -4.459237    4.817584    0.276998
     62          1           0       -5.625601    3.654121   -0.661472
     63          1           0       -4.220785    4.284907   -1.554943
     64          1           0       -1.682025    4.989387   -0.814020
     65          1           0        7.648506   -2.571569   -0.881302
     66          1           0        7.154312   -4.355023   -1.619127
     67          1           0        6.889583   -3.739100    0.243430
     68          1           0        6.980132   -0.347742   -0.633265
     69          1           0        4.662295    1.402238    0.139338
     70          1           0        6.424200    1.192388    1.115682
     71          1           0        4.954095    0.376279    1.580662
     72          1           0        3.521624    6.177026   -0.893303
     73          1           0        4.278624    4.607211   -0.777602
     74          1           0        0.249151    6.231361   -1.846286
     75          1           0        1.539949    7.111500   -0.708847
     76          1           0       -0.211079    6.977490   -0.039627
     77          1           0        3.576021    6.417448    1.706978
     78          1           0        5.079122    6.157330    1.103666
     79          1           0        4.290702    4.859267    1.780744
     80          1           0       -3.266462   -4.466720   -1.773355
     81          1           0       -7.830707   -1.850466   -1.887043
 ---------------------------------------------------------------------
 Rotational constants (GHZ):           0.0772006           0.0550307           0.0343779
 Standard basis: SVP (5D, 7F)
 There are   835 symmetry adapted cartesian basis functions of A   symmetry.
 There are   792 symmetry adapted basis functions of A   symmetry.
   792 basis functions,  1341 primitive gaussians,   835 cartesian basis functions
   156 alpha electrons      156 beta electrons
       nuclear repulsion energy      5059.9180277056 Hartrees.
 NAtoms=   81 NActive=   81 NUniq=   81 SFac= 1.00D+00 NAtFMM=   60 NAOKFM=T Big=T
 Integral buffers will be    131072 words long.
 Regular integral format.
 Two-electron integral symmetry is turned on.
 One-electron integrals computed using PRISM.
 NBasis=   792 RedAO= T EigKep=  3.26D-04  NBF=   792
 NBsUse=   792 1.00D-06 EigRej= -1.00D+00 NBFU=   792
 ExpMin= 1.22D-01 ExpMax= 2.27D+03 ExpMxC= 3.41D+02 IAcc=3 IRadAn=         5 AccDes= 0.00D+00
 Harris functional with IExCor=  402 and IRadAn=       5 diagonalized for initial guess.
 HarFok:  IExCor=  402 AccDes= 0.00D+00 IRadAn=         5 IDoV= 1 UseB2=F ITyADJ=14
 ICtDFT=  3500011 ScaDFX=  1.000000  1.000000  1.000000  1.000000
 FoFCou: FMM=F IPFlag=           0 FMFlag=      100000 FMFlg1=        2001
         NFxFlg=           0 DoJE=T BraDBF=F KetDBF=T FulRan=T
         wScrn=  0.000000 ICntrl=       500 IOpCl=  0 I1Cent=   200000004 NGrid=           0
         NMat0=    1 NMatS0=      1 NMatT0=    0 NMatD0=    1 NMtDS0=    0 NMtDT0=    0
 Petite list used in FoFCou.
 Requested convergence on RMS density matrix=1.00D-08 within 128 cycles.
 Requested convergence on MAX density matrix=1.00D-06.
 Requested convergence on             energy=1.00D-06.
 No special actions if energy rises.
 Integral accuracy reduced to 1.0D-05 until final iterations.
 EnCoef did     2 forward-backward iterations
 Initial convergence to 1.0D-05 achieved.  Increase integral accuracy.
 SCF Done:  E(RB3LYP) =  -1949.10754164     A.U. after   19 cycles
            NFock= 19  Conv=0.68D-08     -V/T= 2.0111
 DoSCS=F DFT=T ScalE2(SS,OS)=  1.000000  1.000000
 ExpMin= 1.22D-01 ExpMax= 2.27D+03 ExpMxC= 3.41D+02 IAcc=3 IRadAn=         5 AccDes= 0.00D+00
 HarFok:  IExCor=  205 AccDes= 0.00D+00 IRadAn=         5 IDoV=-2 UseB2=F ITyADJ=14
 ICtDFT= 12500011 ScaDFX=  1.000000  1.000000  1.000000  1.000000
 GSVD:  LWork=       -2193 too small for GESVD, short by        9890 words or        9890 for optimal perf.
 Range of M.O.s used for correlation:    44   792
 NBasis=   792 NAE=   156 NBE=   156 NFC=    43 NFV=     0
 NROrb=    749 NOA=   113 NOB=   113 NVA=   636 NVB=   636

 **** Warning!!: The smallest alpha delta epsilon is  0.71822650D-01

 Orbital symmetries:
       Occupied  (A) (A) (A) (A) (A) (A) (A) (A) (A) (A) (A) (A)
                 (A) (A) (A) (A) (A) (A) (A) (A) (A) (A) (A) (A)
                 (A) (A) (A) (A) (A) (A) (A) (A) (A) (A) (A) (A)
                 (A) (A) (A) (A) (A) (A) (A) (A) (A) (A) (A) (A)
                 (A) (A) (A) (A) (A) (A) (A) (A) (A) (A) (A) (A)
                 (A) (A) (A) (A) (A) (A) (A) (A) (A) (A) (A) (A)
                 (A) (A) (A) (A) (A) (A) (A) (A) (A) (A) (A) (A)
                 (A) (A) (A) (A) (A) (A) (A) (A) (A) (A) (A) (A)
                 (A) (A) (A) (A) (A) (A) (A) (A) (A) (A) (A) (A)
                 (A) (A) (A) (A) (A) (A) (A) (A) (A) (A) (A) (A)
                 (A) (A) (A) (A) (A) (A) (A) (A) (A) (A) (A) (A)
                 (A) (A) (A) (A) (A) (A) (A) (A) (A) (A) (A) (A)
                 (A) (A) (A) (A) (A) (A) (A) (A) (A) (A) (A) (A)
       Virtual   (A) (A) (A) (A) (A) (A) (A) (A) (A) (A) (A) (A)
                 (A) (A) (A) (A) (A) (A) (A) (A) (A) (A) (A) (A)
                 (A) (A) (A) (A) (A) (A) (A) (A) (A) (A) (A) (A)
                 (A) (A) (A) (A) (A) (A) (A) (A) (A) (A) (A) (A)
                 (A) (A) (A) (A) (A) (A) (A) (A) (A) (A) (A) (A)
                 (A) (A) (A) (A) (A) (A) (A) (A) (A) (A) (A) (A)
                 (A) (A) (A) (A) (A) (A) (A) (A) (A) (A) (A) (A)
                 (A) (A) (A) (A) (A) (A) (A) (A) (A) (A) (A) (A)
                 (A) (A) (A) (A) (A) (A) (A) (A) (A) (A) (A) (A)
                 (A) (A) (A) (A) (A) (A) (A) (A) (A) (A) (A) (A)
                 (A) (A) (A) (A) (A) (A) (A) (A) (A) (A) (A) (A)
                 (A) (A) (A) (A) (A) (A) (A) (A) (A) (A) (A) (A)
                 (A) (A) (A) (A) (A) (A) (A) (A) (A) (A) (A) (A)
                 (A) (A) (A) (A) (A) (A) (A) (A) (A) (A) (A) (A)
                 (A) (A) (A) (A) (A) (A) (A) (A) (A) (A) (A) (A)
                 (A) (A) (A) (A) (A) (A) (A) (A) (A) (A) (A) (A)
                 (A) (A) (A) (A) (A) (A) (A) (A) (A) (A) (A) (A)
                 (A) (A) (A) (A) (A) (A) (A) (A) (A) (A) (A) (A)
                 (A) (A) (A) (A) (A) (A) (A) (A) (A) (A) (A) (A)
                 (A) (A) (A) (A) (A) (A) (A) (A) (A) (A) (A) (A)
                 (A) (A) (A) (A) (A) (A) (A) (A) (A) (A) (A) (A)
                 (A) (A) (A) (A) (A) (A) (A) (A) (A) (A) (A) (A)
                 (A) (A) (A) (A) (A) (A) (A) (A) (A) (A) (A) (A)
                 (A) (A) (A) (A) (A) (A) (A) (A) (A) (A) (A) (A)
                 (A) (A) (A) (A) (A) (A) (A) (A) (A) (A) (A) (A)
                 (A) (A) (A) (A) (A) (A) (A) (A) (A) (A) (A) (A)
                 (A) (A) (A) (A) (A) (A) (A) (A) (A) (A) (A) (A)
                 (A) (A) (A) (A) (A) (A) (A) (A) (A) (A) (A) (A)
                 (A) (A) (A) (A) (A) (A) (A) (A) (A) (A) (A) (A)
                 (A) (A) (A) (A) (A) (A) (A) (A) (A) (A) (A) (A)
                 (A) (A) (A) (A) (A) (A) (A) (A) (A) (A) (A) (A)
                 (A) (A) (A) (A) (A) (A) (A) (A) (A) (A) (A) (A)
                 (A) (A) (A) (A) (A) (A) (A) (A) (A) (A) (A) (A)
                 (A) (A) (A) (A) (A) (A) (A) (A) (A) (A) (A) (A)
                 (A) (A) (A) (A) (A) (A) (A) (A) (A) (A) (A) (A)
                 (A) (A) (A) (A) (A) (A) (A) (A) (A) (A) (A) (A)
                 (A) (A) (A) (A) (A) (A) (A) (A) (A) (A) (A) (A)
                 (A) (A) (A) (A) (A) (A) (A) (A) (A) (A) (A) (A)
                 (A) (A) (A) (A) (A) (A) (A) (A) (A) (A) (A) (A)
                 (A) (A) (A) (A) (A) (A) (A) (A) (A) (A) (A) (A)
                 (A) (A) (A) (A) (A) (A) (A) (A) (A) (A) (A) (A)
                 (A) (A) (A) (A) (A) (A) (A) (A) (A) (A) (A) (A)
                 (A) (A) (A) (A) (A) (A) (A) (A) (A) (A) (A) (A)
                 (A) (A) (A) (A) (A) (A) (A) (A) (A) (A) (A) (A)
                 (A) (A) (A) (A) (A) (A) (A) (A) (A) (A) (A) (A)
                 (A) (A) (A) (A) (A) (A) (A) (A) (A) (A) (A) (A)
                 (A) (A) (A) (A) (A) (A) (A) (A) (A) (A) (A) (A)
                 (A) (A) (A) (A) (A) (A) (A) (A) (A) (A) (A) (A)
                 (A) (A) (A) (A) (A) (A) (A) (A) (A) (A) (A) (A)
                 (A) (A) (A) (A) (A) (A) (A) (A) (A) (A) (A) (A)
                 (A) (A) (A) (A) (A) (A) (A) (A) (A) (A) (A) (A)
                 (A) (A) (A) (A) (A) (A) (A) (A) (A) (A) (A) (A)
                 (A) (A) (A) (A) (A) (A) (A) (A) (A) (A) (A) (A)
     4 initial guesses have been made.
 Convergence on wavefunction:    0.001000000000000
 Iteration     1 Dimension     4 NMult     0 NNew      4
 CISAX will form     4 AO SS matrices at one time.
 Iteration     2 Dimension     6 NMult     4 NNew      2
 Iteration     3 Dimension     8 NMult     6 NNew      2
 Iteration     4 Dimension    10 NMult     8 NNew      2
 Iteration     5 Dimension    12 NMult    10 NNew      2
 Iteration     6 Dimension    14 NMult    12 NNew      2
 Iteration     7 Dimension    16 NMult    14 NNew      2
 ***********************************************************************
 Excited states from <AA,BB:AA,BB> singles matrix:
 ***********************************************************************
 
 Ground to excited state transition densities written to RWF  633
 Ground to excited state transition electric dipole moments (Au):
       state          X           Y           Z        Dip. S.      Osc.
         1        -0.8931      2.2744     -0.1354      5.9888      0.2509
 Ground to excited state transition velocity dipole moments (Au):
       state          X           Y           Z        Dip. S.      Osc.
         1         0.0577     -0.1379      0.0088      0.0224      0.2381
 Ground to excited state transition magnetic dipole moments (Au):
       state          X           Y           Z
         1         0.2860      0.5524      2.1722
 Ground to excited state transition velocity quadrupole moments (Au):
       state          XX          YY          ZZ          XY          XZ          YZ
         1         0.4065     -0.4691      0.0664     -0.3207     -0.0910      0.0062
 <0|del|b> * <b|rxdel|0> + <0|del|b> * <b|delr+rdel|0>
 Rotatory Strengths (R) in cgs (10**-40 erg-esu-cm/Gauss)
       state          XX          YY          ZZ    R(velocity)    E-M Angle
         1      -407.4046    218.8641   -267.2547   -151.9317       96.87
 1/2[<0|r|b>*<b|rxdel|0> + (<0|rxdel|b>*<b|r|0>)*]
 Rotatory Strengths (R) in cgs (10**-40 erg-esu-cm/Gauss)
       state          XX          YY          ZZ     R(length)
         1       180.6205   -888.4892    207.9322   -166.6455
  1/2[<0|del|b>*<b|r|0> + (<0|r|b>*<b|del|0>)*] (Au)
       state          X           Y           Z        Dip. S.   Osc.(frdel)
         1        -0.0516     -0.3137     -0.0012      0.3665      0.2443

 Excitation energies and oscillator strengths:
 
 Excited State   1:      Singlet-A      1.7099 eV  725.12 nm  f=0.2509  <S**2>=0.000
     156 ->157         0.70167
     156 <-157        -0.10188
 This state for optimization and/or second-order correction.
 Total Energy, E(TD-HF/TD-DFT) =  -1949.04470571    
 Copying the excited state density for this state as the 1-particle RhoCI density.
 SavETr:  write IOETrn=   770 NScale= 10 NData=  16 NLR=1 NState=    1 LETran=      28.

 **********************************************************************

            Population analysis using the SCF density.

 **********************************************************************

 Orbital symmetries:
       Occupied  (A) (A) (A) (A) (A) (A) (A) (A) (A) (A) (A) (A)
                 (A) (A) (A) (A) (A) (A) (A) (A) (A) (A) (A) (A)
                 (A) (A) (A) (A) (A) (A) (A) (A) (A) (A) (A) (A)
                 (A) (A) (A) (A) (A) (A) (A) (A) (A) (A) (A) (A)
                 (A) (A) (A) (A) (A) (A) (A) (A) (A) (A) (A) (A)
                 (A) (A) (A) (A) (A) (A) (A) (A) (A) (A) (A) (A)
                 (A) (A) (A) (A) (A) (A) (A) (A) (A) (A) (A) (A)
                 (A) (A) (A) (A) (A) (A) (A) (A) (A) (A) (A) (A)
                 (A) (A) (A) (A) (A) (A) (A) (A) (A) (A) (A) (A)
                 (A) (A) (A) (A) (A) (A) (A) (A) (A) (A) (A) (A)
                 (A) (A) (A) (A) (A) (A) (A) (A) (A) (A) (A) (A)
                 (A) (A) (A) (A) (A) (A) (A) (A) (A) (A) (A) (A)
                 (A) (A) (A) (A) (A) (A) (A) (A) (A) (A) (A) (A)
       Virtual   (A) (A) (A) (A) (A) (A) (A) (A) (A) (A) (A) (A)
                 (A) (A) (A) (A) (A) (A) (A) (A) (A) (A) (A) (A)
                 (A) (A) (A) (A) (A) (A) (A) (A) (A) (A) (A) (A)
                 (A) (A) (A) (A) (A) (A) (A) (A) (A) (A) (A) (A)
                 (A) (A) (A) (A) (A) (A) (A) (A) (A) (A) (A) (A)
                 (A) (A) (A) (A) (A) (A) (A) (A) (A) (A) (A) (A)
                 (A) (A) (A) (A) (A) (A) (A) (A) (A) (A) (A) (A)
                 (A) (A) (A) (A) (A) (A) (A) (A) (A) (A) (A) (A)
                 (A) (A) (A) (A) (A) (A) (A) (A) (A) (A) (A) (A)
                 (A) (A) (A) (A) (A) (A) (A) (A) (A) (A) (A) (A)
                 (A) (A) (A) (A) (A) (A) (A) (A) (A) (A) (A) (A)
                 (A) (A) (A) (A) (A) (A) (A) (A) (A) (A) (A) (A)
                 (A) (A) (A) (A) (A) (A) (A) (A) (A) (A) (A) (A)
                 (A) (A) (A) (A) (A) (A) (A) (A) (A) (A) (A) (A)
                 (A) (A) (A) (A) (A) (A) (A) (A) (A) (A) (A) (A)
                 (A) (A) (A) (A) (A) (A) (A) (A) (A) (A) (A) (A)
                 (A) (A) (A) (A) (A) (A) (A) (A) (A) (A) (A) (A)
                 (A) (A) (A) (A) (A) (A) (A) (A) (A) (A) (A) (A)
                 (A) (A) (A) (A) (A) (A) (A) (A) (A) (A) (A) (A)
                 (A) (A) (A) (A) (A) (A) (A) (A) (A) (A) (A) (A)
                 (A) (A) (A) (A) (A) (A) (A) (A) (A) (A) (A) (A)
                 (A) (A) (A) (A) (A) (A) (A) (A) (A) (A) (A) (A)
                 (A) (A) (A) (A) (A) (A) (A) (A) (A) (A) (A) (A)
                 (A) (A) (A) (A) (A) (A) (A) (A) (A) (A) (A) (A)
                 (A) (A) (A) (A) (A) (A) (A) (A) (A) (A) (A) (A)
                 (A) (A) (A) (A) (A) (A) (A) (A) (A) (A) (A) (A)
                 (A) (A) (A) (A) (A) (A) (A) (A) (A) (A) (A) (A)
                 (A) (A) (A) (A) (A) (A) (A) (A) (A) (A) (A) (A)
                 (A) (A) (A) (A) (A) (A) (A) (A) (A) (A) (A) (A)
                 (A) (A) (A) (A) (A) (A) (A) (A) (A) (A) (A) (A)
                 (A) (A) (A) (A) (A) (A) (A) (A) (A) (A) (A) (A)
                 (A) (A) (A) (A) (A) (A) (A) (A) (A) (A) (A) (A)
                 (A) (A) (A) (A) (A) (A) (A) (A) (A) (A) (A) (A)
                 (A) (A) (A) (A) (A) (A) (A) (A) (A) (A) (A) (A)
                 (A) (A) (A) (A) (A) (A) (A) (A) (A) (A) (A) (A)
                 (A) (A) (A) (A) (A) (A) (A) (A) (A) (A) (A) (A)
                 (A) (A) (A) (A) (A) (A) (A) (A) (A) (A) (A) (A)
                 (A) (A) (A) (A) (A) (A) (A) (A) (A) (A) (A) (A)
                 (A) (A) (A) (A) (A) (A) (A) (A) (A) (A) (A) (A)
                 (A) (A) (A) (A) (A) (A) (A) (A) (A) (A) (A) (A)
                 (A) (A) (A) (A) (A) (A) (A) (A) (A) (A) (A) (A)
                 (A) (A) (A) (A) (A) (A) (A) (A) (A) (A) (A) (A)
                 (A) (A) (A) (A) (A) (A) (A) (A) (A) (A) (A) (A)
                 (A) (A) (A) (A) (A) (A) (A) (A) (A) (A) (A) (A)
                 (A) (A) (A) (A) (A) (A) (A) (A) (A) (A) (A) (A)
                 (A) (A) (A) (A) (A) (A) (A) (A) (A) (A) (A) (A)
                 (A) (A) (A) (A) (A) (A) (A) (A) (A) (A) (A) (A)
                 (A) (A) (A) (A) (A) (A) (A) (A) (A) (A) (A) (A)
                 (A) (A) (A) (A) (A) (A) (A) (A) (A) (A) (A) (A)
                 (A) (A) (A) (A) (A) (A) (A) (A) (A) (A) (A) (A)
                 (A) (A) (A) (A) (A) (A) (A) (A) (A) (A) (A) (A)
                 (A) (A) (A) (A) (A) (A) (A) (A) (A) (A) (A) (A)
                 (A) (A) (A) (A) (A) (A) (A) (A) (A) (A) (A) (A)
 The electronic state is 1-A.
 Alpha  occ. eigenvalues --  -19.21736 -19.18903 -19.15801 -19.13129 -19.11760
 Alpha  occ. eigenvalues --  -19.08458 -14.37135 -14.36177 -14.35498 -14.27357
 Alpha  occ. eigenvalues --  -10.35096 -10.32896 -10.28720 -10.24759 -10.24595
 Alpha  occ. eigenvalues --  -10.24436 -10.24367 -10.23420 -10.23229 -10.23137
 Alpha  occ. eigenvalues --  -10.22712 -10.22181 -10.22079 -10.21499 -10.21420
 Alpha  occ. eigenvalues --  -10.21349 -10.21040 -10.20923 -10.20836 -10.20820
 Alpha  occ. eigenvalues --  -10.20784 -10.20768 -10.20136 -10.19830 -10.19495
 Alpha  occ. eigenvalues --  -10.19336 -10.19332 -10.19232 -10.18741 -10.18328
 Alpha  occ. eigenvalues --  -10.18097 -10.17746 -10.16715  -1.12987  -1.09722
 Alpha  occ. eigenvalues --   -1.06849  -1.04458  -0.99161  -0.98337  -0.97802
 Alpha  occ. eigenvalues --   -0.97143  -0.95423  -0.90250  -0.82532  -0.81814
 Alpha  occ. eigenvalues --   -0.81100  -0.80817  -0.78971  -0.78696  -0.77773
 Alpha  occ. eigenvalues --   -0.76843  -0.75969  -0.74673  -0.72801  -0.71966
 Alpha  occ. eigenvalues --   -0.71248  -0.69333  -0.68745  -0.68413  -0.67347
 Alpha  occ. eigenvalues --   -0.67108  -0.64862  -0.63201  -0.62407  -0.62065
 Alpha  occ. eigenvalues --   -0.60801  -0.59250  -0.58536  -0.57719  -0.56749
 Alpha  occ. eigenvalues --   -0.56315  -0.55446  -0.54032  -0.53463  -0.52876
 Alpha  occ. eigenvalues --   -0.52223  -0.51731  -0.50807  -0.50564  -0.50025
 Alpha  occ. eigenvalues --   -0.49698  -0.48977  -0.48630  -0.48261  -0.48049
 Alpha  occ. eigenvalues --   -0.46957  -0.46225  -0.45732  -0.45372  -0.45236
 Alpha  occ. eigenvalues --   -0.45093  -0.44433  -0.44328  -0.44145  -0.43936
 Alpha  occ. eigenvalues --   -0.43802  -0.42991  -0.42714  -0.42502  -0.42287
 Alpha  occ. eigenvalues --   -0.42135  -0.41501  -0.41120  -0.40759  -0.40243
 Alpha  occ. eigenvalues --   -0.40064  -0.39702  -0.39488  -0.39397  -0.39231
 Alpha  occ. eigenvalues --   -0.39015  -0.38521  -0.38298  -0.38126  -0.37557
 Alpha  occ. eigenvalues --   -0.37446  -0.37281  -0.36948  -0.36482  -0.36276
 Alpha  occ. eigenvalues --   -0.36033  -0.35628  -0.35155  -0.34944  -0.34505
 Alpha  occ. eigenvalues --   -0.34302  -0.34021  -0.33275  -0.33197  -0.32425
 Alpha  occ. eigenvalues --   -0.32141  -0.32070  -0.31690  -0.30617  -0.29504
 Alpha  occ. eigenvalues --   -0.28205  -0.27253  -0.26446  -0.26309  -0.25655
 Alpha  occ. eigenvalues --   -0.25000  -0.24428  -0.23366  -0.21880  -0.20664
 Alpha  occ. eigenvalues --   -0.18108
 Alpha virt. eigenvalues --   -0.10926  -0.06316  -0.04075  -0.02345  -0.01495
 Alpha virt. eigenvalues --    0.00506   0.01439   0.02542   0.03139   0.03304
 Alpha virt. eigenvalues --    0.03890   0.04707   0.05123   0.05630   0.05835
 Alpha virt. eigenvalues --    0.06076   0.06725   0.07392   0.07448   0.07939
 Alpha virt. eigenvalues --    0.08350   0.08446   0.09269   0.09439   0.09725
 Alpha virt. eigenvalues --    0.09956   0.10310   0.10521   0.10839   0.11216
 Alpha virt. eigenvalues --    0.11612   0.11631   0.12008   0.12532   0.12705
 Alpha virt. eigenvalues --    0.12976   0.13430   0.13488   0.13928   0.14330
 Alpha virt. eigenvalues --    0.14538   0.15016   0.15072   0.15776   0.15887
 Alpha virt. eigenvalues --    0.16358   0.16676   0.17101   0.17244   0.17990
 Alpha virt. eigenvalues --    0.18100   0.18696   0.19188   0.19547   0.20021
 Alpha virt. eigenvalues --    0.20383   0.20655   0.20804   0.21234   0.21804
 Alpha virt. eigenvalues --    0.21907   0.22610   0.23117   0.23405   0.23573
 Alpha virt. eigenvalues --    0.24185   0.24405   0.24806   0.25101   0.25796
 Alpha virt. eigenvalues --    0.26440   0.26730   0.27029   0.27489   0.28243
 Alpha virt. eigenvalues --    0.28789   0.29361   0.29812   0.30242   0.31236
 Alpha virt. eigenvalues --    0.31750   0.32422   0.32685   0.32886   0.33022
 Alpha virt. eigenvalues --    0.33802   0.34617   0.35292   0.35370   0.36040
 Alpha virt. eigenvalues --    0.36689   0.37077   0.37718   0.38186   0.38444
 Alpha virt. eigenvalues --    0.38939   0.39748   0.40308   0.40640   0.41401
 Alpha virt. eigenvalues --    0.41678   0.42070   0.42361   0.42492   0.43063
 Alpha virt. eigenvalues --    0.43296   0.43362   0.43683   0.44071   0.45031
 Alpha virt. eigenvalues --    0.45449   0.45482   0.45739   0.46237   0.46545
 Alpha virt. eigenvalues --    0.46747   0.46771   0.47509   0.47613   0.48035
 Alpha virt. eigenvalues --    0.48337   0.48519   0.48803   0.49305   0.49726
 Alpha virt. eigenvalues --    0.50285   0.50518   0.50770   0.51118   0.51765
 Alpha virt. eigenvalues --    0.51935   0.52270   0.52737   0.52867   0.53255
 Alpha virt. eigenvalues --    0.53874   0.54051   0.54269   0.54949   0.55039
 Alpha virt. eigenvalues --    0.55358   0.55613   0.55895   0.56697   0.56955
 Alpha virt. eigenvalues --    0.57345   0.57621   0.58113   0.58340   0.58601
 Alpha virt. eigenvalues --    0.58747   0.58855   0.59189   0.59698   0.60063
 Alpha virt. eigenvalues --    0.60472   0.60959   0.61096   0.61455   0.61634
 Alpha virt. eigenvalues --    0.61804   0.61890   0.62363   0.62440   0.62811
 Alpha virt. eigenvalues --    0.63247   0.63550   0.63734   0.63953   0.64058
 Alpha virt. eigenvalues --    0.64393   0.64735   0.65113   0.65438   0.65628
 Alpha virt. eigenvalues --    0.66139   0.66655   0.66692   0.66881   0.67048
 Alpha virt. eigenvalues --    0.67491   0.67539   0.67688   0.68025   0.68269
 Alpha virt. eigenvalues --    0.68546   0.68866   0.69248   0.69582   0.69702
 Alpha virt. eigenvalues --    0.69938   0.69979   0.70249   0.70667   0.70933
 Alpha virt. eigenvalues --    0.71090   0.71159   0.71638   0.71686   0.72109
 Alpha virt. eigenvalues --    0.72578   0.72805   0.72908   0.73024   0.73359
 Alpha virt. eigenvalues --    0.74078   0.74136   0.74267   0.75293   0.75634
 Alpha virt. eigenvalues --    0.75949   0.76258   0.76498   0.76864   0.77622
 Alpha virt. eigenvalues --    0.77807   0.77969   0.78126   0.78645   0.79356
 Alpha virt. eigenvalues --    0.79624   0.79889   0.80740   0.81626   0.82348
 Alpha virt. eigenvalues --    0.82906   0.83335   0.83702   0.84655   0.84899
 Alpha virt. eigenvalues --    0.85502   0.86050   0.87290   0.87752   0.88525
 Alpha virt. eigenvalues --    0.89090   0.89484   0.90221   0.90726   0.91455
 Alpha virt. eigenvalues --    0.92204   0.93231   0.93453   0.94080   0.94263
 Alpha virt. eigenvalues --    0.94918   0.95652   0.95853   0.96714   0.97249
 Alpha virt. eigenvalues --    0.97592   0.98545   0.98680   0.99069   1.00170
 Alpha virt. eigenvalues --    1.00416   1.00991   1.02066   1.02489   1.02896
 Alpha virt. eigenvalues --    1.04645   1.04976   1.05718   1.06520   1.07048
 Alpha virt. eigenvalues --    1.07397   1.08195   1.09123   1.09697   1.09900
 Alpha virt. eigenvalues --    1.10661   1.11434   1.12745   1.13513   1.13749
 Alpha virt. eigenvalues --    1.14060   1.14973   1.15424   1.15631   1.16596
 Alpha virt. eigenvalues --    1.17646   1.18444   1.18731   1.19393   1.19782
 Alpha virt. eigenvalues --    1.20552   1.21123   1.21498   1.22101   1.23112
 Alpha virt. eigenvalues --    1.24200   1.24575   1.24945   1.26018   1.26485
 Alpha virt. eigenvalues --    1.27407   1.28018   1.28424   1.28935   1.30314
 Alpha virt. eigenvalues --    1.30480   1.31158   1.31959   1.32493   1.32893
 Alpha virt. eigenvalues --    1.33933   1.34344   1.34827   1.35259   1.36116
 Alpha virt. eigenvalues --    1.37333   1.37555   1.38025   1.38695   1.39783
 Alpha virt. eigenvalues --    1.40270   1.40730   1.41808   1.42220   1.42433
 Alpha virt. eigenvalues --    1.43260   1.43663   1.44303   1.44749   1.44890
 Alpha virt. eigenvalues --    1.45896   1.46438   1.47241   1.47452   1.48439
 Alpha virt. eigenvalues --    1.49010   1.49467   1.49693   1.49968   1.50647
 Alpha virt. eigenvalues --    1.50719   1.50982   1.51996   1.52696   1.53702
 Alpha virt. eigenvalues --    1.53825   1.54734   1.55104   1.56164   1.57080
 Alpha virt. eigenvalues --    1.57842   1.58153   1.58408   1.59052   1.60575
 Alpha virt. eigenvalues --    1.60737   1.60956   1.61482   1.61871   1.62991
 Alpha virt. eigenvalues --    1.63062   1.63613   1.63827   1.64371   1.64838
 Alpha virt. eigenvalues --    1.65175   1.66015   1.66174   1.66340   1.67358
 Alpha virt. eigenvalues --    1.67808   1.67938   1.68854   1.69097   1.69484
 Alpha virt. eigenvalues --    1.69618   1.69973   1.70230   1.70366   1.70870
 Alpha virt. eigenvalues --    1.71979   1.72520   1.72721   1.73253   1.73331
 Alpha virt. eigenvalues --    1.73551   1.74173   1.74296   1.75090   1.75300
 Alpha virt. eigenvalues --    1.75489   1.75943   1.76224   1.76751   1.77092
 Alpha virt. eigenvalues --    1.77756   1.77867   1.78066   1.78381   1.78822
 Alpha virt. eigenvalues --    1.79677   1.79889   1.80129   1.80810   1.81309
 Alpha virt. eigenvalues --    1.81570   1.81711   1.82281   1.82855   1.83006
 Alpha virt. eigenvalues --    1.83333   1.83502   1.84003   1.84189   1.84790
 Alpha virt. eigenvalues --    1.85173   1.85589   1.85852   1.86544   1.86706
 Alpha virt. eigenvalues --    1.87115   1.87557   1.87765   1.88497   1.89247
 Alpha virt. eigenvalues --    1.89650   1.89890   1.90247   1.90509   1.91080
 Alpha virt. eigenvalues --    1.91587   1.91919   1.92246   1.92580   1.92832
 Alpha virt. eigenvalues --    1.93517   1.93796   1.95044   1.95577   1.96058
 Alpha virt. eigenvalues --    1.96595   1.96962   1.97052   1.98055   1.98589
 Alpha virt. eigenvalues --    1.99589   2.00030   2.00431   2.00808   2.01265
 Alpha virt. eigenvalues --    2.01956   2.02736   2.02947   2.03240   2.03926
 Alpha virt. eigenvalues --    2.04399   2.04575   2.04809   2.05127   2.05883
 Alpha virt. eigenvalues --    2.06261   2.06377   2.06713   2.07701   2.08030
 Alpha virt. eigenvalues --    2.08895   2.09589   2.10238   2.10325   2.11120
 Alpha virt. eigenvalues --    2.12513   2.12780   2.13179   2.13241   2.13364
 Alpha virt. eigenvalues --    2.14177   2.14388   2.15237   2.15825   2.16725
 Alpha virt. eigenvalues --    2.17205   2.17912   2.17925   2.19223   2.19734
 Alpha virt. eigenvalues --    2.20964   2.22151   2.22477   2.23156   2.24146
 Alpha virt. eigenvalues --    2.24348   2.24739   2.25914   2.26355   2.27068
 Alpha virt. eigenvalues --    2.27975   2.28350   2.28575   2.29159   2.30364
 Alpha virt. eigenvalues --    2.30820   2.30952   2.31923   2.32189   2.32495
 Alpha virt. eigenvalues --    2.32902   2.33654   2.34899   2.35173   2.35736
 Alpha virt. eigenvalues --    2.37293   2.37483   2.38135   2.38769   2.40031
 Alpha virt. eigenvalues --    2.40826   2.41336   2.42242   2.42556   2.42869
 Alpha virt. eigenvalues --    2.43509   2.43859   2.44977   2.45777   2.46750
 Alpha virt. eigenvalues --    2.47788   2.48133   2.48944   2.49971   2.50359
 Alpha virt. eigenvalues --    2.51996   2.52176   2.53130   2.53810   2.54792
 Alpha virt. eigenvalues --    2.56276   2.57145   2.57655   2.58318   2.59017
 Alpha virt. eigenvalues --    2.60288   2.60468   2.61153   2.62045   2.62529
 Alpha virt. eigenvalues --    2.63728   2.64238   2.64347   2.64506   2.65145
 Alpha virt. eigenvalues --    2.65313   2.66039   2.67082   2.67839   2.68405
 Alpha virt. eigenvalues --    2.68923   2.69011   2.69319   2.69463   2.70116
 Alpha virt. eigenvalues --    2.70923   2.71312   2.71628   2.72216   2.72998
 Alpha virt. eigenvalues --    2.73529   2.74459   2.75111   2.76483   2.76963
 Alpha virt. eigenvalues --    2.77783   2.78759   2.79367   2.79964   2.80373
 Alpha virt. eigenvalues --    2.80846   2.81417   2.82362   2.82654   2.84439
 Alpha virt. eigenvalues --    2.85458   2.85887   2.86081   2.86308   2.86431
 Alpha virt. eigenvalues --    2.86798   2.87852   2.88368   2.89270   2.90281
 Alpha virt. eigenvalues --    2.91321   2.91820   2.92748   2.93615   2.94688
 Alpha virt. eigenvalues --    2.96455   2.96638   2.97455   2.99174   3.00244
 Alpha virt. eigenvalues --    3.00667   3.01952   3.02149   3.03102   3.03807
 Alpha virt. eigenvalues --    3.05457   3.06075   3.07687   3.09135   3.09706
 Alpha virt. eigenvalues --    3.10262   3.11171   3.12934   3.13375   3.15037
 Alpha virt. eigenvalues --    3.16567   3.16927   3.18085   3.18694   3.21031
 Alpha virt. eigenvalues --    3.21068   3.24633   3.25525   3.27313   3.27956
 Alpha virt. eigenvalues --    3.30646   3.36674   3.39822   3.41339   3.46067
 Alpha virt. eigenvalues --    3.46925   3.51247   3.54126   3.54843   3.59950
 Alpha virt. eigenvalues --    3.68075   3.68173   3.71175   3.72050   3.74610
 Alpha virt. eigenvalues --    3.75495
          Condensed to atoms (all electrons):
 Mulliken charges:
               1
     1  O   -0.147694
     2  O   -0.136010
     3  O   -0.179048
     4  O   -0.225762
     5  O   -0.295893
     6  O   -0.246928
     7  N   -0.114086
     8  N   -0.084098
     9  N   -0.134457
    10  N   -0.339424
    11  C   -0.077733
    12  C   -0.036297
    13  C   -0.175211
    14  C    0.048625
    15  C   -0.107291
    16  C    0.144345
    17  C   -0.095025
    18  C   -0.070964
    19  C    0.000309
    20  C   -0.035957
    21  C    0.150598
    22  C    0.043791
    23  C    0.048640
    24  C    0.098712
    25  C   -0.106588
    26  C    0.070967
    27  C    0.113004
    28  C   -0.022016
    29  C    0.054350
    30  C   -0.024046
    31  C   -0.110234
    32  C   -0.034619
    33  C   -0.174513
    34  C    0.092259
    35  C   -0.110588
    36  C   -0.142031
    37  C    0.140806
    38  C   -0.064969
    39  C    0.153783
    40  C    0.097846
    41  C    0.162530
    42  C    0.040659
    43  C   -0.004854
    44  H    0.181486
    45  H    0.090259
    46  H    0.036912
    47  H    0.020206
    48  H   -0.007916
    49  H    0.031400
    50  H   -0.009856
    51  H    0.014629
    52  H    0.138034
    53  H    0.012904
    54  H    0.053762
    55  H    0.039686
    56  H    0.122780
    57  H    0.058939
    58  H    0.069316
    59  H    0.054428
    60  H    0.035236
    61  H    0.059724
    62  H    0.025330
    63  H    0.034350
    64  H   -0.034679
    65  H    0.022312
    66  H    0.060637
    67  H    0.021299
    68  H    0.028157
    69  H    0.124470
    70  H    0.013412
    71  H    0.027967
    72  H   -0.019444
    73  H    0.022224
    74  H    0.056348
    75  H    0.035472
    76  H    0.058735
    77  H   -0.012697
    78  H   -0.011947
    79  H    0.018074
    80  H    0.185019
    81  H    0.178146
 Sum of Mulliken charges =  -0.00000
 Mulliken charges with hydrogens summed into heavy atoms:
               1
     1  O   -0.147694
     2  O    0.049009
     3  O   -0.000902
     4  O   -0.225762
     5  O   -0.295893
     6  O   -0.246928
     7  N    0.067399
     8  N    0.053936
     9  N   -0.011677
    10  N   -0.339424
    11  C   -0.077733
    12  C   -0.036297
    13  C   -0.175211
    14  C    0.048625
    15  C   -0.107291
    16  C    0.144345
    17  C   -0.004767
    18  C   -0.070964
    19  C    0.057427
    20  C   -0.043873
    21  C    0.150598
    22  C    0.043791
    23  C    0.048640
    24  C    0.120256
    25  C   -0.091959
    26  C    0.177319
    27  C    0.113004
    28  C    0.106239
    29  C    0.144014
    30  C    0.095358
    31  C   -0.144914
    32  C    0.069629
    33  C   -0.146356
    34  C    0.092259
    35  C   -0.110588
    36  C   -0.142031
    37  C    0.140806
    38  C    0.100881
    39  C    0.153783
    40  C    0.100626
    41  C    0.162530
    42  C    0.191213
    43  C   -0.011424
 Electronic spatial extent (au):  <R**2>=          30201.1149
 Charge=             -0.0000 electrons
 Dipole moment (field-independent basis, Debye):
    X=             -2.5535    Y=             -0.6685    Z=             -2.0485  Tot=              3.3413
 Quadrupole moment (field-independent basis, Debye-Ang):
   XX=           -260.7022   YY=           -235.9889   ZZ=           -251.4102
   XY=             10.3080   XZ=             16.3641   YZ=             -9.6720
 Traceless Quadrupole moment (field-independent basis, Debye-Ang):
   XX=            -11.3351   YY=             13.3782   ZZ=             -2.0431
   XY=             10.3080   XZ=             16.3641   YZ=             -9.6720
 Octapole moment (field-independent basis, Debye-Ang**2):
  XXX=            117.4154  YYY=             95.2142  ZZZ=            -24.2674  XYY=           -158.1978
  XXY=             -2.2415  XXZ=           -120.4854  XZZ=            -51.5872  YZZ=            -34.3531
  YYZ=             16.9571  XYZ=            -47.3478
 Hexadecapole moment (field-independent basis, Debye-Ang**3):
 XXXX=         -23121.8489 YYYY=         -16007.2270 ZZZZ=          -1620.4594 XXXY=            361.6001
 XXXZ=            919.1681 YYYX=            898.6209 YYYZ=           -169.1125 ZZZX=             93.7090
 ZZZY=             72.0757 XXYY=          -6375.3764 XXZZ=          -3872.2430 YYZZ=          -2984.6630
 XXYZ=             70.9224 YYXZ=            293.1315 ZZXY=            188.2787
 N-N= 5.059918027706D+03 E-N=-1.465088306668D+04  KE= 1.927680548995D+03
 1\1\GINC-PADAWAN\SP\RB3LYP TD-FC\SVP\C33H38N4O6\PADAWAN\29-Jun-2019\0\
 \# td=(NStates=1) B3LYP/SVP\\TD\\0,1\O,0,-4.1610576166,-4.8725316244,1
 .824106439\O,0,2.787642793,-4.6012414309,1.0413482721\O,0,6.8842847328
 ,-1.5937566454,1.9287855581\O,0,3.90082514,-3.0293809631,-0.224885828\
 O,0,7.7270922458,-0.5858984849,0.0935633236\O,0,-3.0099465808,2.270745
 1253,-0.3351850799\N,0,-0.2834953442,-0.4027244655,-0.6573827512\N,0,1
 .5980983025,1.7658070132,-0.3014117188\N,0,-3.2740493939,-3.1120523182
 ,0.7588021988\N,0,-0.7947779735,2.8071018596,-0.1137452203\C,0,0.54968
 7233,-2.3278007385,-1.4393262277\C,0,0.940466949,-1.058423074,-0.94952
 38013\C,0,-0.8110552342,-2.5363820004,-1.2408461473\C,0,-1.2675771797,
 -1.3634666581,-0.8266817982\C,0,3.836572118,1.4952526918,-0.377442011\
 C,0,2.594321538,0.8601978453,-0.5635205371\C,0,2.2532805783,-0.4217294
 308,-0.944833958\C,0,3.6073613762,2.8318229845,0.0996179521\C,0,1.6552
 869338,-3.2390856099,-2.0347208177\C,0,-5.5083697437,-2.8401996349,1.3
 561428786\C,0,-3.6036542247,-1.862281204,0.2892248543\C,0,2.1575300651
 ,2.9658165759,0.0572733507\C,0,-5.0261153078,-1.6359025542,0.572651309
 \C,0,5.1669819601,0.762121129,-0.243863345\C,0,-2.6922240381,-1.069395
 4949,-0.3981862924\C,0,-1.6352131834,-3.78766852,-1.6712574425\C,0,-4.
 3309227607,-3.8359478266,1.3324483704\C,0,2.1310742411,-4.3954485686,-
 1.1697061974\C,0,5.2795267551,-0.171325256,0.9165041976\C,0,4.46607266
 86,3.943637213,0.4304652468\C,0,1.2189005685,4.0843629866,0.3641681374
 \C,0,-6.796414292,-3.5951142912,0.8266417263\C,0,-5.8575353341,-0.5771
 735014,0.3267298399\C,0,-0.1546333826,4.0084690967,0.2203238443\C,0,-1
 .0388989885,5.1065781915,0.4074492104\C,0,-2.3097904527,4.5176732687,0
 .1321991259\C,0,3.0936259446,-3.9188745577,-0.0502473355\C,0,-5.555469
 2564,0.6128465733,-0.6247639412\C,0,6.7189617752,-0.7987453441,0.85097
 59958\C,0,-3.6158791308,5.2554666052,0.287243235\C,0,-2.1320727589,3.1
 333182928,-0.1442701968\C,0,-0.6974003311,6.4893046005,0.746763728\C,0
 ,-4.1987994425,5.6645124079,-1.1145305446\H,0,-0.2993915241,0.41243810
 96,0.0525955199\H,0,3.0006274237,-1.3779059318,-0.9781779052\H,0,2.624
 3623175,-2.6451261092,-2.4430608532\H,0,1.2831593221,-3.5093850494,-3.
 0560639665\H,0,-5.7889906264,-2.6049591206,2.2689874386\H,0,5.24895740
 82,0.2252319046,-1.2523755849\H,0,5.8612946969,1.5506645946,-0.2028238
 57\H,0,-2.869563174,0.0083786282,-0.4286732648\H,0,0.5818154121,1.9194
 517891,-0.4198194274\H,0,-1.5097657124,-4.4611206826,-0.8849380036\H,0
 ,-2.7091210231,-3.6322038068,-1.9672048536\H,0,-1.0780629862,-4.150762
 145,-2.7211977091\H,0,-2.3942618125,-3.6060503357,0.85004767\H,0,1.188
 1196413,-5.0084735457,-0.8222276127\H,0,3.0670228067,-5.0084949564,-1.
 8324386258\H,0,4.5957548085,-1.0316043238,0.7732370598\H,0,5.242258571
 3,0.4046665054,1.8278405872\H,0,4.3553560612,4.9099514115,-0.304621834
 \H,0,5.5468777795,3.7751550487,0.6373395236\H,0,4.1302900616,4.3803735
 095,1.5299087078\H,0,1.5764884274,5.0285220296,0.7892600012\H,0,-7.594
 1709854,-2.7250475883,0.9013114007\H,0,-7.0619802619,-4.4945858407,1.6
 461804584\H,0,-6.8124169387,-3.8813655527,-0.2193598476\H,0,-6.9726417
 865,-0.4888597945,0.6428122823\H,0,-4.6927582479,1.3057153924,-0.14035
 12964\H,0,-6.4510834857,1.0549245675,-1.1134856647\H,0,-4.9648357956,0
 .2676469269,-1.5768544502\H,0,-3.6507070562,6.1076951746,0.8701938959\
 H,0,-4.3749289311,4.5219445264,0.7622522515\H,0,-0.3789270372,6.234414
 0068,1.8186717088\H,0,-1.6891850288,7.0824917039,0.6791272644\H,0,0.06
 34455126,6.9821304987,0.0082117783\H,0,-3.7132592329,6.3356411898,-1.7
 310273052\H,0,-5.2098736946,6.0468478009,-1.1246423414\H,0,-4.39536301
 32,4.7625864289,-1.7971392219\H,0,3.3590343039,-4.388225035,1.78731951
 44\H,0,7.8678348081,-1.6768670757,1.8837757606\\Version=ES64L-G16RevA.
 03\State=1-A\HF=-1949.1075416\RMSD=6.794e-09\PG=C01 [X(C33H38N4O6)]\\@


      HUMANKIND PERIODICALLY GOES THROUGH A SPEEDUP OF ITS AFFAIRS, 
      THEREBY EXPERIENCING THE RACE BETWEEN THE RENEWABLE VITALITY
      OF THE LIVING, AND THE BECKONING VITIATION OF DECADENCE.
      IN THIS PERIODIC RACE, ANY PAUSE BECOMES A LUXURY.
      ONLY THEN CAN ONE REFLECT THAT ALL IS PERMITTED;
      ALL IS POSSIBLE.

                              -- THE APOCRYPHA OF MUAD'DIB
                                 CHILDREN OF DUNE, BY FRANK HERBERT
 Job cpu time:       0 days  4 hours 22 minutes  9.4 seconds.
 Elapsed time:       0 days  2 hours 55 minutes 26.6 seconds.
 File lengths (MBytes):  RWF=   2591 Int=      0 D2E=      0 Chk=     65 Scr=      1
 Normal termination of Gaussian 16 at Sat Jun 29 06:08:21 2019.
