 Entering Gaussian System, Link 0=g16
 Input=Geometria-337-.com
 Output=Geometria-337-.log
 Initial command:
 /usr/local/g16/l1.exe "/home/padawan/israel-mol/phycocyanobilin/spectra/emi/Gau-25681.inp" -scrdir="/home/padawan/israel-mol/phycocyanobilin/spectra/emi/"
 Entering Link 1 = /usr/local/g16/l1.exe PID=     25683.
  
 Copyright (c) 1988,1990,1992,1993,1995,1998,2003,2009,2016,
            Gaussian, Inc.  All Rights Reserved.
  
 This is part of the Gaussian(R) 16 program.  It is based on
 the Gaussian(R) 09 system (copyright 2009, Gaussian, Inc.),
 the Gaussian(R) 03 system (copyright 2003, Gaussian, Inc.),
 the Gaussian(R) 98 system (copyright 1998, Gaussian, Inc.),
 the Gaussian(R) 94 system (copyright 1995, Gaussian, Inc.),
 the Gaussian 92(TM) system (copyright 1992, Gaussian, Inc.),
 the Gaussian 90(TM) system (copyright 1990, Gaussian, Inc.),
 the Gaussian 88(TM) system (copyright 1988, Gaussian, Inc.),
 the Gaussian 86(TM) system (copyright 1986, Carnegie Mellon
 University), and the Gaussian 82(TM) system (copyright 1983,
 Carnegie Mellon University). Gaussian is a federally registered
 trademark of Gaussian, Inc.
  
 This software contains proprietary and confidential information,
 including trade secrets, belonging to Gaussian, Inc.
  
 This software is provided under written license and may be
 used, copied, transmitted, or stored only in accord with that
 written license.
  
 The following legend is applicable only to US Government
 contracts under FAR:
  
                    RESTRICTED RIGHTS LEGEND
  
 Use, reproduction and disclosure by the US Government is
 subject to restrictions as set forth in subparagraphs (a)
 and (c) of the Commercial Computer Software - Restricted
 Rights clause in FAR 52.227-19.
  
 Gaussian, Inc.
 340 Quinnipiac St., Bldg. 40, Wallingford CT 06492
  
  
 ---------------------------------------------------------------
 Warning -- This program may not be used in any manner that
 competes with the business of Gaussian, Inc. or will provide
 assistance to any competitor of Gaussian, Inc.  The licensee
 of this program is prohibited from giving any competitor of
 Gaussian, Inc. access to this program.  By using this program,
 the user acknowledges that Gaussian, Inc. is engaged in the
 business of creating and licensing software in the field of
 computational chemistry and represents and warrants to the
 licensee that it is not a competitor of Gaussian, Inc. and that
 it will not use this program in any manner prohibited above.
 ---------------------------------------------------------------
  

 Cite this work as:
 Gaussian 16, Revision A.03,
 M. J. Frisch, G. W. Trucks, H. B. Schlegel, G. E. Scuseria, 
 M. A. Robb, J. R. Cheeseman, G. Scalmani, V. Barone, 
 G. A. Petersson, H. Nakatsuji, X. Li, M. Caricato, A. V. Marenich, 
 J. Bloino, B. G. Janesko, R. Gomperts, B. Mennucci, H. P. Hratchian, 
 J. V. Ortiz, A. F. Izmaylov, J. L. Sonnenberg, D. Williams-Young, 
 F. Ding, F. Lipparini, F. Egidi, J. Goings, B. Peng, A. Petrone, 
 T. Henderson, D. Ranasinghe, V. G. Zakrzewski, J. Gao, N. Rega, 
 G. Zheng, W. Liang, M. Hada, M. Ehara, K. Toyota, R. Fukuda, 
 J. Hasegawa, M. Ishida, T. Nakajima, Y. Honda, O. Kitao, H. Nakai, 
 T. Vreven, K. Throssell, J. A. Montgomery, Jr., J. E. Peralta, 
 F. Ogliaro, M. J. Bearpark, J. J. Heyd, E. N. Brothers, K. N. Kudin, 
 V. N. Staroverov, T. A. Keith, R. Kobayashi, J. Normand, 
 K. Raghavachari, A. P. Rendell, J. C. Burant, S. S. Iyengar, 
 J. Tomasi, M. Cossi, J. M. Millam, M. Klene, C. Adamo, R. Cammi, 
 J. W. Ochterski, R. L. Martin, K. Morokuma, O. Farkas, 
 J. B. Foresman, and D. J. Fox, Gaussian, Inc., Wallingford CT, 2016.
 
 ******************************************
 Gaussian 16:  ES64L-G16RevA.03 25-Dec-2016
                 1-Jul-2019 
 ******************************************
 %nproc=4
 Will use up to    4 processors via shared memory.
 %Mem=2GB
 --------------------------
 # td=(NStates=1) B3LYP/SVP
 --------------------------
 1/38=1,172=1/1;
 2/12=2,17=6,18=5,40=1/2;
 3/5=18,7=101,11=9,25=1,30=1,74=-5/1,2,3,8;
 4//1;
 5/5=2,38=5/2;
 8/6=1,10=1,108=1/1;
 9/41=1,42=1,70=2/14;
 6/7=2,8=2,9=2,10=2/1;
 99/5=1,9=1/99;
 --
 TD
 --
 Symbolic Z-matrix:
 Charge =  0 Multiplicity = 1
 8                    -4.26455  -4.88489   1.6085 
 8                     3.07361  -4.97346   1.07887 
 8                     7.05     -1.50265   1.94301 
 8                     3.74195  -3.11607  -0.15347 
 8                     7.6159   -0.62596  -0.0567 
 8                    -3.0586    2.31331  -0.26809 
 7                    -0.2319   -0.48301  -0.51247 
 7                     1.55737   1.87493  -0.33879 
 7                    -3.30244  -3.08178   0.63027 
 7                    -0.74021   2.8413   -0.08253 
 6                     0.63896  -2.38312  -1.23007 
 6                     0.94055  -1.08725  -0.84573 
 6                    -0.78001  -2.62002  -1.1683 
 6                    -1.26656  -1.41258  -0.69955 
 6                     3.81357   1.58529  -0.23542 
 6                     2.45324   0.93781  -0.49704 
 6                     2.25939  -0.41046  -0.83051 
 6                     3.56661   2.93706   0.09901 
 6                     1.55049  -3.376    -1.91385 
 6                    -5.49763  -2.74361   1.37205 
 6                    -3.655    -1.78985   0.16574 
 6                     2.08649   3.06641  -0.04708 
 6                    -5.04197  -1.59547   0.50532 
 6                     5.06124   0.84116  -0.31978 
 6                    -2.65146  -1.00551  -0.40973 
 6                    -1.65873  -3.76802  -1.76908 
 6                    -4.30405  -3.75841   1.24642 
 6                     2.05297  -4.43611  -1.11843 
 6                     5.5453   -0.11811   0.77808 
 6                     4.52364   3.99409   0.44786 
 6                     1.29591   4.16237   0.30021 
 6                    -6.79054  -3.44592   0.91626 
 6                    -5.85581  -0.52157   0.12647 
 6                    -0.15321   4.06688   0.19992 
 6                    -1.0692    5.16134   0.38938 
 6                    -2.35388   4.62149   0.21495 
 6                     3.02647  -4.09131  -0.07003 
 6                    -5.55565   0.569    -0.68391 
 6                     6.87154  -0.74133   0.86398 
 6                    -3.62393   5.2489    0.28066 
 6                    -2.15058   3.10178  -0.1014 
 6                    -0.67235   6.5057    0.91454 
 6                    -4.32057   5.18701  -1.22743 
 1                    -0.49493   0.37908  -0.15823 
 1                     2.95277  -1.10222  -0.89177 
 1                     2.45562  -2.78949  -2.15674 
 1                     0.83366  -3.80556  -2.93867 
 1                    -5.77932  -2.60581   2.62552 
 1                     4.79595   0.21363  -1.21354 
 1                     6.05218   1.56431  -0.45979 
 1                    -2.8295    0.19079  -0.38678 
 1                     0.51139   1.87574  -0.50011 
 1                    -1.56074  -4.83072  -1.24417 
 1                    -2.74113  -3.44924  -1.89884 
 1                    -1.20616  -3.8581   -2.87196 
 1                    -2.37432  -3.42267   0.35397 
 1                     1.18677  -4.95184  -0.50709 
 1                     2.56832  -5.422    -1.54705 
 1                     4.59844  -0.72445   1.03546 
 1                     5.33517   0.33643   1.6315 
 1                     4.2001    4.96923  -0.24916 
 1                     5.57693   3.81917  -0.02278 
 1                     4.80538   4.17997   1.59624 
 1                     2.02629   4.89646   0.33191 
 1                    -7.699    -2.82538   1.05504 
 1                    -6.81971  -4.25649   1.51891 
 1                    -6.59927  -3.67114  -0.20634 
 1                    -6.801    -0.63647   0.71549 
 1                    -4.97582   1.27135  -0.04093 
 1                    -6.38063   0.92769  -0.95545 
 1                    -4.80373   0.30688  -1.44743 
 1                    -3.45788   6.23056   0.7009 
 1                    -4.14665   4.74991   1.09685 
 1                    -0.14999   6.32956   2.14155 
 1                    -1.40461   7.2553    1.09848 
 1                     0.27611   7.15179   0.51786 
 1                    -3.74249   5.60448  -1.9251 
 1                    -5.29884   5.87913  -1.53916 
 1                    -4.47014   4.16434  -1.46427 
 1                     3.39758  -4.46764   1.70858 
 1                     8.06017  -1.56112   1.88093 
 
 Stoichiometry    C33H38N4O6
 Framework group  C1[X(C33H38N4O6)]
 Deg. of freedom   237
 Full point group                 C1      NOp   1
 Largest Abelian subgroup         C1      NOp   1
 Largest concise Abelian subgroup C1      NOp   1
                         Standard orientation:                         
 ---------------------------------------------------------------------
 Center     Atomic      Atomic             Coordinates (Angstroms)
 Number     Number       Type             X           Y           Z
 ---------------------------------------------------------------------
      1          8           0        4.380392   -4.769590   -1.638000
      2          8           0       -2.950693   -5.047050   -1.076621
      3          8           0       -7.018286   -1.677009   -1.914742
      4          8           0       -3.660839   -3.210308    0.163260
      5          8           0       -7.597567   -0.819860    0.089599
      6          8           0        2.999142    2.390918    0.261818
      7          7           0        0.245953   -0.477353    0.511522
      8          7           0       -1.603761    1.834467    0.351532
      9          7           0        3.376842   -2.994010   -0.651077
     10          7           0        0.667217    2.859884    0.087686
     11          6           0       -0.572868   -2.400813    1.228154
     12          6           0       -0.909181   -1.112166    0.848381
     13          6           0        0.851406   -2.601204    1.159614
     14          6           0        1.304851   -1.380602    0.691768
     15          6           0       -3.852251    1.487476    0.257272
     16          6           0       -2.474669    0.874366    0.511349
     17          6           0       -2.244949   -0.469292    0.840598
     18          6           0       -3.641404    2.845916   -0.074846
     19          6           0       -1.455688   -3.418312    1.913419
     20          6           0        5.559366   -2.598044   -1.401573
     21          6           0        3.698309   -1.694605   -0.184863
     22          6           0       -2.164448    3.012718    0.065111
     23          6           0        5.078339   -1.464003   -0.529998
     24          6           0       -5.080108    0.711480    0.345211
     25          6           0        2.677601   -0.937556    0.396933
     26          6           0        1.761825   -3.727785    1.753686
     27          6           0        4.392685   -3.643333   -1.273276
     28          6           0       -1.934416   -4.489027    1.117551
     29          6           0       -5.544338   -0.257230   -0.752926
     30          6           0       -4.626675    3.878954   -0.416878
     31          6           0       -1.403680    4.129368   -0.282878
     32          6           0        6.871813   -3.268146   -0.953174
     33          6           0        5.866127   -0.370549   -0.152010
     34          6           0        0.047838    4.070732   -0.189143
     35          6           0        0.934704    5.188707   -0.379851
     36          6           0        2.233525    4.681472   -0.212371
     37          6           0       -2.921039   -4.166732    0.074266
     38          6           0        5.541776    0.710050    0.662394
     39          6           0       -6.854574   -0.913955   -0.834601
     40          6           0        3.486815    5.341303   -0.282051
     41          6           0        2.070539    3.156301    0.101055
     42          6           0        0.501298    6.523721   -0.899918
     43          6           0        4.191469    5.293657    1.222835
     44          1           0        0.485292    0.392033    0.158292
     45          1           0       -2.920143   -1.178702    0.903146
     46          1           0       -2.374432   -2.855724    2.161719
     47          1           0       -0.723597   -3.831851    2.934032
     48          1           0        5.831900   -2.450092   -2.655909
     49          1           0       -4.794916    0.088809    1.236235
     50          1           0       -6.088583    1.408713    0.491343
     51          1           0        2.824898    0.262953    0.376200
     52          1           0       -0.557435    1.861640    0.508296
     53          1           0        1.688718   -4.791388    1.226559
     54          1           0        2.836294   -3.381738    1.879525
     55          1           0        1.316584   -3.832048    2.858304
     56          1           0        2.458967   -3.359185   -0.371588
     57          1           0       -1.058029   -4.980971    0.501150
     58          1           0       -2.422503   -5.488788    1.545945
     59          1           0       -4.583426   -0.838545   -1.015947
     60          1           0       -5.349664    0.204571   -1.606115
     61          1           0       -4.325092    4.860377    0.281154
     62          1           0       -5.673061    3.676030    0.057901
     63          1           0       -4.918146    4.060311   -1.563550
     64          1           0       -2.152725    4.844611   -0.309563
     65          1           0        7.763490   -2.624246   -1.094356
     66          1           0        6.919023   -4.076267   -1.557967
     67          1           0        6.691319   -3.500869    0.169681
     68          1           0        6.811342   -0.459840   -0.745428
     69          1           0        4.941343    1.398875    0.023706
     70          1           0        6.358507    1.089071    0.931232
     71          1           0        4.800185    0.426964    1.428527
     72          1           0        3.293867    6.319398   -0.699102
     73          1           0        4.018503    4.857795   -1.101748
     74          1           0       -0.021801    6.337218   -2.125080
     75          1           0        1.213335    7.292242   -1.085171
     76          1           0       -0.461600    7.144397   -0.497497
     77          1           0        3.605996    5.694534    1.924053
     78          1           0        5.153097    6.009818    1.532030
     79          1           0        4.368177    4.274576    1.456458
     80          1           0       -3.290264   -4.548183   -1.703646
     81          1           0       -8.026350   -1.761439   -1.848406
 ---------------------------------------------------------------------
 Rotational constants (GHZ):           0.0768197           0.0548033           0.0340613
 Standard basis: SVP (5D, 7F)
 There are   835 symmetry adapted cartesian basis functions of A   symmetry.
 There are   792 symmetry adapted basis functions of A   symmetry.
   792 basis functions,  1341 primitive gaussians,   835 cartesian basis functions
   156 alpha electrons      156 beta electrons
       nuclear repulsion energy      5054.6322193564 Hartrees.
 NAtoms=   81 NActive=   81 NUniq=   81 SFac= 1.00D+00 NAtFMM=   60 NAOKFM=T Big=T
 Integral buffers will be    131072 words long.
 Regular integral format.
 Two-electron integral symmetry is turned on.
 One-electron integrals computed using PRISM.
 NBasis=   792 RedAO= T EigKep=  3.45D-04  NBF=   792
 NBsUse=   792 1.00D-06 EigRej= -1.00D+00 NBFU=   792
 ExpMin= 1.22D-01 ExpMax= 2.27D+03 ExpMxC= 3.41D+02 IAcc=3 IRadAn=         5 AccDes= 0.00D+00
 Harris functional with IExCor=  402 and IRadAn=       5 diagonalized for initial guess.
 HarFok:  IExCor=  402 AccDes= 0.00D+00 IRadAn=         5 IDoV= 1 UseB2=F ITyADJ=14
 ICtDFT=  3500011 ScaDFX=  1.000000  1.000000  1.000000  1.000000
 FoFCou: FMM=F IPFlag=           0 FMFlag=      100000 FMFlg1=        2001
         NFxFlg=           0 DoJE=T BraDBF=F KetDBF=T FulRan=T
         wScrn=  0.000000 ICntrl=       500 IOpCl=  0 I1Cent=   200000004 NGrid=           0
         NMat0=    1 NMatS0=      1 NMatT0=    0 NMatD0=    1 NMtDS0=    0 NMtDT0=    0
 Petite list used in FoFCou.
 Requested convergence on RMS density matrix=1.00D-08 within 128 cycles.
 Requested convergence on MAX density matrix=1.00D-06.
 Requested convergence on             energy=1.00D-06.
 No special actions if energy rises.
 Integral accuracy reduced to 1.0D-05 until final iterations.
 Initial convergence to 1.0D-05 achieved.  Increase integral accuracy.
 SCF Done:  E(RB3LYP) =  -1948.99921204     A.U. after   16 cycles
            NFock= 16  Conv=0.83D-08     -V/T= 2.0105
 DoSCS=F DFT=T ScalE2(SS,OS)=  1.000000  1.000000
 ExpMin= 1.22D-01 ExpMax= 2.27D+03 ExpMxC= 3.41D+02 IAcc=3 IRadAn=         5 AccDes= 0.00D+00
 HarFok:  IExCor=  205 AccDes= 0.00D+00 IRadAn=         5 IDoV=-2 UseB2=F ITyADJ=14
 ICtDFT= 12500011 ScaDFX=  1.000000  1.000000  1.000000  1.000000
 GSVD:  LWork=       -2193 too small for GESVD, short by        9890 words or        9890 for optimal perf.
 Range of M.O.s used for correlation:    44   792
 NBasis=   792 NAE=   156 NBE=   156 NFC=    43 NFV=     0
 NROrb=    749 NOA=   113 NOB=   113 NVA=   636 NVB=   636

 **** Warning!!: The smallest alpha delta epsilon is  0.65749871D-01

 Orbital symmetries:
       Occupied  (A) (A) (A) (A) (A) (A) (A) (A) (A) (A) (A) (A)
                 (A) (A) (A) (A) (A) (A) (A) (A) (A) (A) (A) (A)
                 (A) (A) (A) (A) (A) (A) (A) (A) (A) (A) (A) (A)
                 (A) (A) (A) (A) (A) (A) (A) (A) (A) (A) (A) (A)
                 (A) (A) (A) (A) (A) (A) (A) (A) (A) (A) (A) (A)
                 (A) (A) (A) (A) (A) (A) (A) (A) (A) (A) (A) (A)
                 (A) (A) (A) (A) (A) (A) (A) (A) (A) (A) (A) (A)
                 (A) (A) (A) (A) (A) (A) (A) (A) (A) (A) (A) (A)
                 (A) (A) (A) (A) (A) (A) (A) (A) (A) (A) (A) (A)
                 (A) (A) (A) (A) (A) (A) (A) (A) (A) (A) (A) (A)
                 (A) (A) (A) (A) (A) (A) (A) (A) (A) (A) (A) (A)
                 (A) (A) (A) (A) (A) (A) (A) (A) (A) (A) (A) (A)
                 (A) (A) (A) (A) (A) (A) (A) (A) (A) (A) (A) (A)
       Virtual   (A) (A) (A) (A) (A) (A) (A) (A) (A) (A) (A) (A)
                 (A) (A) (A) (A) (A) (A) (A) (A) (A) (A) (A) (A)
                 (A) (A) (A) (A) (A) (A) (A) (A) (A) (A) (A) (A)
                 (A) (A) (A) (A) (A) (A) (A) (A) (A) (A) (A) (A)
                 (A) (A) (A) (A) (A) (A) (A) (A) (A) (A) (A) (A)
                 (A) (A) (A) (A) (A) (A) (A) (A) (A) (A) (A) (A)
                 (A) (A) (A) (A) (A) (A) (A) (A) (A) (A) (A) (A)
                 (A) (A) (A) (A) (A) (A) (A) (A) (A) (A) (A) (A)
                 (A) (A) (A) (A) (A) (A) (A) (A) (A) (A) (A) (A)
                 (A) (A) (A) (A) (A) (A) (A) (A) (A) (A) (A) (A)
                 (A) (A) (A) (A) (A) (A) (A) (A) (A) (A) (A) (A)
                 (A) (A) (A) (A) (A) (A) (A) (A) (A) (A) (A) (A)
                 (A) (A) (A) (A) (A) (A) (A) (A) (A) (A) (A) (A)
                 (A) (A) (A) (A) (A) (A) (A) (A) (A) (A) (A) (A)
                 (A) (A) (A) (A) (A) (A) (A) (A) (A) (A) (A) (A)
                 (A) (A) (A) (A) (A) (A) (A) (A) (A) (A) (A) (A)
                 (A) (A) (A) (A) (A) (A) (A) (A) (A) (A) (A) (A)
                 (A) (A) (A) (A) (A) (A) (A) (A) (A) (A) (A) (A)
                 (A) (A) (A) (A) (A) (A) (A) (A) (A) (A) (A) (A)
                 (A) (A) (A) (A) (A) (A) (A) (A) (A) (A) (A) (A)
                 (A) (A) (A) (A) (A) (A) (A) (A) (A) (A) (A) (A)
                 (A) (A) (A) (A) (A) (A) (A) (A) (A) (A) (A) (A)
                 (A) (A) (A) (A) (A) (A) (A) (A) (A) (A) (A) (A)
                 (A) (A) (A) (A) (A) (A) (A) (A) (A) (A) (A) (A)
                 (A) (A) (A) (A) (A) (A) (A) (A) (A) (A) (A) (A)
                 (A) (A) (A) (A) (A) (A) (A) (A) (A) (A) (A) (A)
                 (A) (A) (A) (A) (A) (A) (A) (A) (A) (A) (A) (A)
                 (A) (A) (A) (A) (A) (A) (A) (A) (A) (A) (A) (A)
                 (A) (A) (A) (A) (A) (A) (A) (A) (A) (A) (A) (A)
                 (A) (A) (A) (A) (A) (A) (A) (A) (A) (A) (A) (A)
                 (A) (A) (A) (A) (A) (A) (A) (A) (A) (A) (A) (A)
                 (A) (A) (A) (A) (A) (A) (A) (A) (A) (A) (A) (A)
                 (A) (A) (A) (A) (A) (A) (A) (A) (A) (A) (A) (A)
                 (A) (A) (A) (A) (A) (A) (A) (A) (A) (A) (A) (A)
                 (A) (A) (A) (A) (A) (A) (A) (A) (A) (A) (A) (A)
                 (A) (A) (A) (A) (A) (A) (A) (A) (A) (A) (A) (A)
                 (A) (A) (A) (A) (A) (A) (A) (A) (A) (A) (A) (A)
                 (A) (A) (A) (A) (A) (A) (A) (A) (A) (A) (A) (A)
                 (A) (A) (A) (A) (A) (A) (A) (A) (A) (A) (A) (A)
                 (A) (A) (A) (A) (A) (A) (A) (A) (A) (A) (A) (A)
                 (A) (A) (A) (A) (A) (A) (A) (A) (A) (A) (A) (A)
                 (A) (A) (A) (A) (A) (A) (A) (A) (A) (A) (A) (A)
                 (A) (A) (A) (A) (A) (A) (A) (A) (A) (A) (A) (A)
                 (A) (A) (A) (A) (A) (A) (A) (A) (A) (A) (A) (A)
                 (A) (A) (A) (A) (A) (A) (A) (A) (A) (A) (A) (A)
                 (A) (A) (A) (A) (A) (A) (A) (A) (A) (A) (A) (A)
                 (A) (A) (A) (A) (A) (A) (A) (A) (A) (A) (A) (A)
                 (A) (A) (A) (A) (A) (A) (A) (A) (A) (A) (A) (A)
                 (A) (A) (A) (A) (A) (A) (A) (A) (A) (A) (A) (A)
                 (A) (A) (A) (A) (A) (A) (A) (A) (A) (A) (A) (A)
                 (A) (A) (A) (A) (A) (A) (A) (A) (A) (A) (A) (A)
                 (A) (A) (A) (A) (A) (A) (A) (A) (A) (A) (A) (A)
                 (A) (A) (A) (A) (A) (A) (A) (A) (A) (A) (A) (A)
     4 initial guesses have been made.
 Convergence on wavefunction:    0.001000000000000
 Iteration     1 Dimension     4 NMult     0 NNew      4
 CISAX will form     4 AO SS matrices at one time.
 Iteration     2 Dimension     6 NMult     4 NNew      2
 Iteration     3 Dimension     8 NMult     6 NNew      2
 Iteration     4 Dimension    10 NMult     8 NNew      2
 Iteration     5 Dimension    12 NMult    10 NNew      2
 Iteration     6 Dimension    14 NMult    12 NNew      2
 ***********************************************************************
 Excited states from <AA,BB:AA,BB> singles matrix:
 ***********************************************************************
 
 Ground to excited state transition densities written to RWF  633
 Ground to excited state transition electric dipole moments (Au):
       state          X           Y           Z        Dip. S.      Osc.
         1         0.9134     -2.3184      0.1269      6.2256      0.2416
 Ground to excited state transition velocity dipole moments (Au):
       state          X           Y           Z        Dip. S.      Osc.
         1        -0.0537      0.1310     -0.0075      0.0201      0.2301
 Ground to excited state transition magnetic dipole moments (Au):
       state          X           Y           Z
         1        -0.2434     -0.4498     -2.0604
 Ground to excited state transition velocity quadrupole moments (Au):
       state          XX          YY          ZZ          XY          XZ          YZ
         1        -0.3528      0.4993     -0.0403      0.3552      0.0746     -0.0050
 <0|del|b> * <b|rxdel|0> + <0|del|b> * <b|delr+rdel|0>
 Rotatory Strengths (R) in cgs (10**-40 erg-esu-cm/Gauss)
       state          XX          YY          ZZ    R(velocity)    E-M Angle
         1      -339.5095    191.0869   -220.8497   -123.0908       95.80
 1/2[<0|r|b>*<b|rxdel|0> + (<0|rxdel|b>*<b|r|0>)*]
 Rotatory Strengths (R) in cgs (10**-40 erg-esu-cm/Gauss)
       state          XX          YY          ZZ     R(length)
         1       157.2037   -737.4768    184.9008   -131.7908
  1/2[<0|del|b>*<b|r|0> + (<0|r|b>*<b|del|0>)*] (Au)
       state          X           Y           Z        Dip. S.   Osc.(frdel)
         1        -0.0490     -0.3037     -0.0010      0.3537      0.2358

 Excitation energies and oscillator strengths:
 
 Excited State   1:      Singlet-A      1.5841 eV  782.67 nm  f=0.2416  <S**2>=0.000
     156 ->157         0.70634
     156 <-157        -0.10782
 This state for optimization and/or second-order correction.
 Total Energy, E(TD-HF/TD-DFT) =  -1948.94099652    
 Copying the excited state density for this state as the 1-particle RhoCI density.
 SavETr:  write IOETrn=   770 NScale= 10 NData=  16 NLR=1 NState=    1 LETran=      28.

 **********************************************************************

            Population analysis using the SCF density.

 **********************************************************************

 Orbital symmetries:
       Occupied  (A) (A) (A) (A) (A) (A) (A) (A) (A) (A) (A) (A)
                 (A) (A) (A) (A) (A) (A) (A) (A) (A) (A) (A) (A)
                 (A) (A) (A) (A) (A) (A) (A) (A) (A) (A) (A) (A)
                 (A) (A) (A) (A) (A) (A) (A) (A) (A) (A) (A) (A)
                 (A) (A) (A) (A) (A) (A) (A) (A) (A) (A) (A) (A)
                 (A) (A) (A) (A) (A) (A) (A) (A) (A) (A) (A) (A)
                 (A) (A) (A) (A) (A) (A) (A) (A) (A) (A) (A) (A)
                 (A) (A) (A) (A) (A) (A) (A) (A) (A) (A) (A) (A)
                 (A) (A) (A) (A) (A) (A) (A) (A) (A) (A) (A) (A)
                 (A) (A) (A) (A) (A) (A) (A) (A) (A) (A) (A) (A)
                 (A) (A) (A) (A) (A) (A) (A) (A) (A) (A) (A) (A)
                 (A) (A) (A) (A) (A) (A) (A) (A) (A) (A) (A) (A)
                 (A) (A) (A) (A) (A) (A) (A) (A) (A) (A) (A) (A)
       Virtual   (A) (A) (A) (A) (A) (A) (A) (A) (A) (A) (A) (A)
                 (A) (A) (A) (A) (A) (A) (A) (A) (A) (A) (A) (A)
                 (A) (A) (A) (A) (A) (A) (A) (A) (A) (A) (A) (A)
                 (A) (A) (A) (A) (A) (A) (A) (A) (A) (A) (A) (A)
                 (A) (A) (A) (A) (A) (A) (A) (A) (A) (A) (A) (A)
                 (A) (A) (A) (A) (A) (A) (A) (A) (A) (A) (A) (A)
                 (A) (A) (A) (A) (A) (A) (A) (A) (A) (A) (A) (A)
                 (A) (A) (A) (A) (A) (A) (A) (A) (A) (A) (A) (A)
                 (A) (A) (A) (A) (A) (A) (A) (A) (A) (A) (A) (A)
                 (A) (A) (A) (A) (A) (A) (A) (A) (A) (A) (A) (A)
                 (A) (A) (A) (A) (A) (A) (A) (A) (A) (A) (A) (A)
                 (A) (A) (A) (A) (A) (A) (A) (A) (A) (A) (A) (A)
                 (A) (A) (A) (A) (A) (A) (A) (A) (A) (A) (A) (A)
                 (A) (A) (A) (A) (A) (A) (A) (A) (A) (A) (A) (A)
                 (A) (A) (A) (A) (A) (A) (A) (A) (A) (A) (A) (A)
                 (A) (A) (A) (A) (A) (A) (A) (A) (A) (A) (A) (A)
                 (A) (A) (A) (A) (A) (A) (A) (A) (A) (A) (A) (A)
                 (A) (A) (A) (A) (A) (A) (A) (A) (A) (A) (A) (A)
                 (A) (A) (A) (A) (A) (A) (A) (A) (A) (A) (A) (A)
                 (A) (A) (A) (A) (A) (A) (A) (A) (A) (A) (A) (A)
                 (A) (A) (A) (A) (A) (A) (A) (A) (A) (A) (A) (A)
                 (A) (A) (A) (A) (A) (A) (A) (A) (A) (A) (A) (A)
                 (A) (A) (A) (A) (A) (A) (A) (A) (A) (A) (A) (A)
                 (A) (A) (A) (A) (A) (A) (A) (A) (A) (A) (A) (A)
                 (A) (A) (A) (A) (A) (A) (A) (A) (A) (A) (A) (A)
                 (A) (A) (A) (A) (A) (A) (A) (A) (A) (A) (A) (A)
                 (A) (A) (A) (A) (A) (A) (A) (A) (A) (A) (A) (A)
                 (A) (A) (A) (A) (A) (A) (A) (A) (A) (A) (A) (A)
                 (A) (A) (A) (A) (A) (A) (A) (A) (A) (A) (A) (A)
                 (A) (A) (A) (A) (A) (A) (A) (A) (A) (A) (A) (A)
                 (A) (A) (A) (A) (A) (A) (A) (A) (A) (A) (A) (A)
                 (A) (A) (A) (A) (A) (A) (A) (A) (A) (A) (A) (A)
                 (A) (A) (A) (A) (A) (A) (A) (A) (A) (A) (A) (A)
                 (A) (A) (A) (A) (A) (A) (A) (A) (A) (A) (A) (A)
                 (A) (A) (A) (A) (A) (A) (A) (A) (A) (A) (A) (A)
                 (A) (A) (A) (A) (A) (A) (A) (A) (A) (A) (A) (A)
                 (A) (A) (A) (A) (A) (A) (A) (A) (A) (A) (A) (A)
                 (A) (A) (A) (A) (A) (A) (A) (A) (A) (A) (A) (A)
                 (A) (A) (A) (A) (A) (A) (A) (A) (A) (A) (A) (A)
                 (A) (A) (A) (A) (A) (A) (A) (A) (A) (A) (A) (A)
                 (A) (A) (A) (A) (A) (A) (A) (A) (A) (A) (A) (A)
                 (A) (A) (A) (A) (A) (A) (A) (A) (A) (A) (A) (A)
                 (A) (A) (A) (A) (A) (A) (A) (A) (A) (A) (A) (A)
                 (A) (A) (A) (A) (A) (A) (A) (A) (A) (A) (A) (A)
                 (A) (A) (A) (A) (A) (A) (A) (A) (A) (A) (A) (A)
                 (A) (A) (A) (A) (A) (A) (A) (A) (A) (A) (A) (A)
                 (A) (A) (A) (A) (A) (A) (A) (A) (A) (A) (A) (A)
                 (A) (A) (A) (A) (A) (A) (A) (A) (A) (A) (A) (A)
                 (A) (A) (A) (A) (A) (A) (A) (A) (A) (A) (A) (A)
                 (A) (A) (A) (A) (A) (A) (A) (A) (A) (A) (A) (A)
                 (A) (A) (A) (A) (A) (A) (A) (A) (A) (A) (A) (A)
                 (A) (A) (A) (A) (A) (A) (A) (A) (A) (A) (A) (A)
                 (A) (A) (A) (A) (A) (A) (A) (A) (A) (A) (A) (A)
 The electronic state is 1-A.
 Alpha  occ. eigenvalues --  -19.19525 -19.17300 -19.15087 -19.12756 -19.12382
 Alpha  occ. eigenvalues --  -19.10124 -14.37076 -14.36162 -14.35739 -14.30467
 Alpha  occ. eigenvalues --  -10.33730 -10.32148 -10.28371 -10.28045 -10.24615
 Alpha  occ. eigenvalues --  -10.24229 -10.24172 -10.23860 -10.23389 -10.23108
 Alpha  occ. eigenvalues --  -10.23057 -10.22686 -10.22647 -10.22578 -10.22115
 Alpha  occ. eigenvalues --  -10.21742 -10.21419 -10.21342 -10.21202 -10.21047
 Alpha  occ. eigenvalues --  -10.20979 -10.20311 -10.20012 -10.19894 -10.19854
 Alpha  occ. eigenvalues --  -10.19800 -10.19388 -10.19324 -10.19234 -10.19132
 Alpha  occ. eigenvalues --  -10.19041 -10.17991 -10.16197  -1.11303  -1.09633
 Alpha  occ. eigenvalues --   -1.04158  -1.03263  -1.02477  -1.02154  -1.00385
 Alpha  occ. eigenvalues --   -0.98375  -0.94768  -0.91444  -0.83505  -0.82589
 Alpha  occ. eigenvalues --   -0.81612  -0.81534  -0.80505  -0.79293  -0.78429
 Alpha  occ. eigenvalues --   -0.77645  -0.77090  -0.75592  -0.74533  -0.72466
 Alpha  occ. eigenvalues --   -0.71405  -0.69705  -0.69058  -0.68546  -0.67793
 Alpha  occ. eigenvalues --   -0.67462  -0.66012  -0.64244  -0.63928  -0.62327
 Alpha  occ. eigenvalues --   -0.60505  -0.60222  -0.59445  -0.57182  -0.56905
 Alpha  occ. eigenvalues --   -0.55394  -0.55226  -0.55061  -0.54291  -0.52916
 Alpha  occ. eigenvalues --   -0.52432  -0.52066  -0.51811  -0.51226  -0.50118
 Alpha  occ. eigenvalues --   -0.49824  -0.49240  -0.48607  -0.48223  -0.48017
 Alpha  occ. eigenvalues --   -0.47650  -0.47051  -0.46500  -0.46245  -0.45857
 Alpha  occ. eigenvalues --   -0.45151  -0.44993  -0.44536  -0.44189  -0.44055
 Alpha  occ. eigenvalues --   -0.43646  -0.43060  -0.42842  -0.42475  -0.42335
 Alpha  occ. eigenvalues --   -0.41915  -0.41659  -0.41507  -0.41408  -0.41180
 Alpha  occ. eigenvalues --   -0.41064  -0.40706  -0.40409  -0.40243  -0.40131
 Alpha  occ. eigenvalues --   -0.39858  -0.39513  -0.39108  -0.39004  -0.38817
 Alpha  occ. eigenvalues --   -0.37870  -0.37748  -0.37364  -0.36946  -0.36421
 Alpha  occ. eigenvalues --   -0.36100  -0.35934  -0.35585  -0.35057  -0.34755
 Alpha  occ. eigenvalues --   -0.34066  -0.33946  -0.33672  -0.33374  -0.33339
 Alpha  occ. eigenvalues --   -0.32967  -0.32481  -0.32225  -0.29940  -0.29817
 Alpha  occ. eigenvalues --   -0.29635  -0.28593  -0.26325  -0.25717  -0.25374
 Alpha  occ. eigenvalues --   -0.25236  -0.25060  -0.24421  -0.23200  -0.21523
 Alpha  occ. eigenvalues --   -0.17797
 Alpha virt. eigenvalues --   -0.11222  -0.06469  -0.04621  -0.02407   0.00035
 Alpha virt. eigenvalues --    0.00268   0.01385   0.01868   0.02624   0.03697
 Alpha virt. eigenvalues --    0.04154   0.04558   0.04760   0.05546   0.05837
 Alpha virt. eigenvalues --    0.06185   0.06557   0.07237   0.07390   0.08208
 Alpha virt. eigenvalues --    0.08271   0.08524   0.08657   0.08850   0.09044
 Alpha virt. eigenvalues --    0.09329   0.09584   0.09783   0.10078   0.10865
 Alpha virt. eigenvalues --    0.11426   0.11534   0.11728   0.11987   0.12397
 Alpha virt. eigenvalues --    0.13005   0.13277   0.13419   0.13943   0.14746
 Alpha virt. eigenvalues --    0.14921   0.15064   0.15479   0.15736   0.15853
 Alpha virt. eigenvalues --    0.16496   0.16732   0.16845   0.17225   0.17260
 Alpha virt. eigenvalues --    0.17879   0.18413   0.18969   0.19237   0.19758
 Alpha virt. eigenvalues --    0.20120   0.20394   0.20975   0.21766   0.22005
 Alpha virt. eigenvalues --    0.22212   0.23235   0.23410   0.23562   0.23979
 Alpha virt. eigenvalues --    0.24390   0.24824   0.25374   0.25575   0.26163
 Alpha virt. eigenvalues --    0.26617   0.26965   0.27396   0.27613   0.28197
 Alpha virt. eigenvalues --    0.28988   0.29935   0.30608   0.30931   0.31250
 Alpha virt. eigenvalues --    0.31529   0.32270   0.32633   0.33046   0.33339
 Alpha virt. eigenvalues --    0.34017   0.34318   0.34996   0.35670   0.36041
 Alpha virt. eigenvalues --    0.36375   0.36830   0.37799   0.37990   0.38522
 Alpha virt. eigenvalues --    0.38876   0.39347   0.39987   0.40616   0.41201
 Alpha virt. eigenvalues --    0.41988   0.42375   0.42529   0.42944   0.43127
 Alpha virt. eigenvalues --    0.43296   0.43623   0.43866   0.44298   0.44406
 Alpha virt. eigenvalues --    0.44626   0.44913   0.45019   0.45395   0.45710
 Alpha virt. eigenvalues --    0.45944   0.46730   0.47084   0.47419   0.47592
 Alpha virt. eigenvalues --    0.48135   0.48467   0.49111   0.49735   0.49896
 Alpha virt. eigenvalues --    0.50317   0.50427   0.50819   0.50903   0.51305
 Alpha virt. eigenvalues --    0.51514   0.52072   0.52473   0.52931   0.53256
 Alpha virt. eigenvalues --    0.53679   0.53844   0.54160   0.54346   0.54737
 Alpha virt. eigenvalues --    0.55164   0.55388   0.55770   0.55969   0.56593
 Alpha virt. eigenvalues --    0.56946   0.57238   0.57570   0.57818   0.58046
 Alpha virt. eigenvalues --    0.58665   0.59189   0.59507   0.59674   0.60091
 Alpha virt. eigenvalues --    0.60433   0.60841   0.61169   0.61321   0.61451
 Alpha virt. eigenvalues --    0.61937   0.62005   0.62080   0.62381   0.62851
 Alpha virt. eigenvalues --    0.63349   0.63453   0.63686   0.64200   0.64215
 Alpha virt. eigenvalues --    0.64628   0.64800   0.65048   0.65354   0.65497
 Alpha virt. eigenvalues --    0.65870   0.65948   0.66262   0.66505   0.66715
 Alpha virt. eigenvalues --    0.66960   0.67186   0.67488   0.67696   0.67905
 Alpha virt. eigenvalues --    0.68433   0.68575   0.68742   0.69445   0.69593
 Alpha virt. eigenvalues --    0.69976   0.70271   0.70640   0.70748   0.71000
 Alpha virt. eigenvalues --    0.71327   0.71447   0.71752   0.71898   0.72622
 Alpha virt. eigenvalues --    0.72746   0.73352   0.73498   0.73774   0.74031
 Alpha virt. eigenvalues --    0.74278   0.74549   0.75537   0.75644   0.76060
 Alpha virt. eigenvalues --    0.76396   0.76438   0.77041   0.77405   0.77737
 Alpha virt. eigenvalues --    0.78219   0.78593   0.79080   0.79454   0.79675
 Alpha virt. eigenvalues --    0.79796   0.80846   0.80905   0.82095   0.82492
 Alpha virt. eigenvalues --    0.82960   0.84057   0.84909   0.85570   0.86158
 Alpha virt. eigenvalues --    0.86349   0.86698   0.87733   0.88382   0.89059
 Alpha virt. eigenvalues --    0.89763   0.89924   0.90899   0.91939   0.92233
 Alpha virt. eigenvalues --    0.92552   0.93532   0.94155   0.94286   0.94649
 Alpha virt. eigenvalues --    0.95029   0.95588   0.96301   0.96740   0.97348
 Alpha virt. eigenvalues --    0.98059   0.98370   0.99227   0.99358   0.99820
 Alpha virt. eigenvalues --    1.00346   1.00949   1.01356   1.02370   1.03280
 Alpha virt. eigenvalues --    1.03829   1.04315   1.05342   1.05710   1.07507
 Alpha virt. eigenvalues --    1.08178   1.08536   1.09142   1.09917   1.10580
 Alpha virt. eigenvalues --    1.11618   1.12416   1.12451   1.12935   1.13235
 Alpha virt. eigenvalues --    1.13513   1.14349   1.14736   1.15538   1.16031
 Alpha virt. eigenvalues --    1.16657   1.17101   1.18139   1.18677   1.19308
 Alpha virt. eigenvalues --    1.19585   1.20244   1.21483   1.22321   1.22359
 Alpha virt. eigenvalues --    1.22773   1.24112   1.24540   1.25340   1.25730
 Alpha virt. eigenvalues --    1.27049   1.27253   1.28490   1.28851   1.29910
 Alpha virt. eigenvalues --    1.30802   1.31522   1.32090   1.32595   1.33118
 Alpha virt. eigenvalues --    1.33596   1.34456   1.36265   1.36464   1.37440
 Alpha virt. eigenvalues --    1.38492   1.39065   1.39725   1.40183   1.40492
 Alpha virt. eigenvalues --    1.41319   1.41641   1.42129   1.42563   1.43447
 Alpha virt. eigenvalues --    1.43543   1.44123   1.44404   1.44801   1.45193
 Alpha virt. eigenvalues --    1.45278   1.46047   1.46696   1.47002   1.47789
 Alpha virt. eigenvalues --    1.48721   1.49414   1.49852   1.50710   1.50909
 Alpha virt. eigenvalues --    1.51276   1.52096   1.52557   1.53488   1.53829
 Alpha virt. eigenvalues --    1.53969   1.54468   1.55337   1.55540   1.56212
 Alpha virt. eigenvalues --    1.57228   1.58169   1.58415   1.58968   1.59569
 Alpha virt. eigenvalues --    1.60024   1.60508   1.60713   1.61785   1.62205
 Alpha virt. eigenvalues --    1.62288   1.62667   1.63440   1.64254   1.64833
 Alpha virt. eigenvalues --    1.65187   1.65688   1.66177   1.66604   1.66631
 Alpha virt. eigenvalues --    1.66932   1.67677   1.67995   1.68224   1.68333
 Alpha virt. eigenvalues --    1.68867   1.69378   1.69587   1.69766   1.70682
 Alpha virt. eigenvalues --    1.70734   1.71564   1.71751   1.72147   1.72485
 Alpha virt. eigenvalues --    1.72794   1.73093   1.73835   1.74526   1.74909
 Alpha virt. eigenvalues --    1.75293   1.75867   1.76358   1.76612   1.77101
 Alpha virt. eigenvalues --    1.77334   1.78058   1.78287   1.78687   1.79159
 Alpha virt. eigenvalues --    1.79439   1.79720   1.79865   1.80355   1.80388
 Alpha virt. eigenvalues --    1.81097   1.81869   1.82446   1.82626   1.83315
 Alpha virt. eigenvalues --    1.83579   1.83806   1.84042   1.84470   1.84796
 Alpha virt. eigenvalues --    1.85271   1.85673   1.86130   1.86367   1.87162
 Alpha virt. eigenvalues --    1.87220   1.87728   1.88090   1.88331   1.88702
 Alpha virt. eigenvalues --    1.89463   1.89860   1.90478   1.91073   1.91645
 Alpha virt. eigenvalues --    1.92104   1.92227   1.92408   1.93347   1.93688
 Alpha virt. eigenvalues --    1.94012   1.94258   1.95220   1.95641   1.96547
 Alpha virt. eigenvalues --    1.97218   1.97559   1.97786   1.98076   1.98812
 Alpha virt. eigenvalues --    1.99381   2.00079   2.00213   2.01090   2.01440
 Alpha virt. eigenvalues --    2.02040   2.02615   2.03609   2.04566   2.05307
 Alpha virt. eigenvalues --    2.05535   2.05570   2.05933   2.06033   2.07026
 Alpha virt. eigenvalues --    2.07365   2.08300   2.08731   2.09570   2.10069
 Alpha virt. eigenvalues --    2.10489   2.10713   2.10949   2.11978   2.12403
 Alpha virt. eigenvalues --    2.12941   2.13742   2.14101   2.14518   2.14843
 Alpha virt. eigenvalues --    2.15633   2.16346   2.16367   2.16800   2.17959
 Alpha virt. eigenvalues --    2.18221   2.19000   2.19956   2.20344   2.21110
 Alpha virt. eigenvalues --    2.22004   2.22205   2.22685   2.23147   2.23523
 Alpha virt. eigenvalues --    2.23719   2.24609   2.25724   2.25947   2.26435
 Alpha virt. eigenvalues --    2.27040   2.27861   2.28350   2.29405   2.29545
 Alpha virt. eigenvalues --    2.30943   2.31225   2.31387   2.32284   2.33146
 Alpha virt. eigenvalues --    2.33367   2.34536   2.35573   2.35688   2.36692
 Alpha virt. eigenvalues --    2.37307   2.37846   2.38826   2.39209   2.40047
 Alpha virt. eigenvalues --    2.40489   2.41599   2.42141   2.42516   2.43047
 Alpha virt. eigenvalues --    2.43649   2.44161   2.44892   2.45615   2.47636
 Alpha virt. eigenvalues --    2.48083   2.49010   2.50157   2.50727   2.52372
 Alpha virt. eigenvalues --    2.53441   2.54128   2.55218   2.55518   2.56207
 Alpha virt. eigenvalues --    2.56952   2.57985   2.58195   2.58821   2.59220
 Alpha virt. eigenvalues --    2.59804   2.60451   2.61411   2.61868   2.62212
 Alpha virt. eigenvalues --    2.63331   2.63720   2.64484   2.65024   2.65031
 Alpha virt. eigenvalues --    2.65817   2.66119   2.66808   2.67076   2.68390
 Alpha virt. eigenvalues --    2.68532   2.69387   2.69713   2.70450   2.71174
 Alpha virt. eigenvalues --    2.71866   2.72285   2.73154   2.73653   2.74051
 Alpha virt. eigenvalues --    2.75353   2.75611   2.76485   2.76557   2.77344
 Alpha virt. eigenvalues --    2.78296   2.79151   2.80161   2.80646   2.80787
 Alpha virt. eigenvalues --    2.81122   2.82330   2.83069   2.83773   2.84276
 Alpha virt. eigenvalues --    2.85351   2.85850   2.87314   2.87611   2.87930
 Alpha virt. eigenvalues --    2.88698   2.88872   2.90295   2.91800   2.91944
 Alpha virt. eigenvalues --    2.93113   2.94895   2.95467   2.95997   2.97568
 Alpha virt. eigenvalues --    2.98974   2.99432   2.99727   3.00690   3.01792
 Alpha virt. eigenvalues --    3.02301   3.02706   3.03913   3.05120   3.07893
 Alpha virt. eigenvalues --    3.09663   3.10044   3.10132   3.11071   3.12568
 Alpha virt. eigenvalues --    3.14729   3.15085   3.15833   3.16264   3.16633
 Alpha virt. eigenvalues --    3.18046   3.18245   3.21508   3.23288   3.24435
 Alpha virt. eigenvalues --    3.26758   3.27254   3.29112   3.29214   3.33793
 Alpha virt. eigenvalues --    3.36134   3.38944   3.43510   3.45053   3.47077
 Alpha virt. eigenvalues --    3.47982   3.55851   3.58855   3.60017   3.62358
 Alpha virt. eigenvalues --    3.65702   3.67507   3.70894   3.72662   3.77221
 Alpha virt. eigenvalues --    3.85466
          Condensed to atoms (all electrons):
 Mulliken charges:
               1
     1  O   -0.180099
     2  O   -0.190149
     3  O   -0.177251
     4  O   -0.210733
     5  O   -0.203780
     6  O   -0.205106
     7  N   -0.046732
     8  N    0.002109
     9  N   -0.111800
    10  N   -0.381129
    11  C   -0.162924
    12  C    0.033600
    13  C   -0.152301
    14  C    0.014561
    15  C   -0.084314
    16  C    0.086128
    17  C    0.033240
    18  C   -0.071205
    19  C    0.103187
    20  C   -0.178532
    21  C    0.087526
    22  C   -0.039494
    23  C   -0.035488
    24  C    0.034412
    25  C   -0.167996
    26  C   -0.014345
    27  C    0.124183
    28  C    0.002902
    29  C    0.058833
    30  C   -0.042165
    31  C   -0.009351
    32  C    0.076748
    33  C   -0.165842
    34  C    0.137162
    35  C    0.000836
    36  C   -0.224121
    37  C    0.126556
    38  C    0.238975
    39  C    0.150016
    40  C    0.130281
    41  C    0.210060
    42  C   -0.030651
    43  C   -0.001256
    44  H    0.103492
    45  H   -0.081284
    46  H    0.011073
    47  H    0.046924
    48  H    0.054566
    49  H    0.035914
    50  H    0.035953
    51  H    0.065417
    52  H    0.155738
    53  H    0.065092
    54  H    0.060349
    55  H    0.044033
    56  H    0.126717
    57  H    0.041804
    58  H    0.070805
    59  H    0.022834
    60  H   -0.043601
    61  H    0.053060
    62  H    0.031331
    63  H    0.068167
    64  H   -0.070785
    65  H    0.016937
    66  H    0.003442
    67  H    0.019475
    68  H   -0.009938
    69  H    0.068603
    70  H   -0.049977
    71  H    0.028595
    72  H   -0.020262
    73  H    0.017495
    74  H    0.033684
    75  H    0.017517
    76  H    0.046810
    77  H   -0.013602
    78  H    0.020199
    79  H    0.038325
    80  H    0.128758
    81  H    0.191788
 Sum of Mulliken charges =  -0.00000
 Mulliken charges with hydrogens summed into heavy atoms:
               1
     1  O   -0.180099
     2  O   -0.061390
     3  O    0.014537
     4  O   -0.210733
     5  O   -0.203780
     6  O   -0.205106
     7  N    0.056760
     8  N    0.157847
     9  N    0.014917
    10  N   -0.381129
    11  C   -0.162924
    12  C    0.033600
    13  C   -0.152301
    14  C    0.014561
    15  C   -0.084314
    16  C    0.086128
    17  C   -0.048045
    18  C   -0.071205
    19  C    0.161184
    20  C   -0.123966
    21  C    0.087526
    22  C   -0.039494
    23  C   -0.035488
    24  C    0.106278
    25  C   -0.102579
    26  C    0.155129
    27  C    0.124183
    28  C    0.115511
    29  C    0.038065
    30  C    0.110393
    31  C   -0.080137
    32  C    0.116603
    33  C   -0.175780
    34  C    0.137162
    35  C    0.000836
    36  C   -0.224121
    37  C    0.126556
    38  C    0.286197
    39  C    0.150016
    40  C    0.127514
    41  C    0.210060
    42  C    0.067360
    43  C    0.043665
 Electronic spatial extent (au):  <R**2>=          30367.6477
 Charge=             -0.0000 electrons
 Dipole moment (field-independent basis, Debye):
    X=             -2.1570    Y=              3.7833    Z=             -0.5683  Tot=              4.3919
 Quadrupole moment (field-independent basis, Debye-Ang):
   XX=           -250.5469   YY=           -247.7704   ZZ=           -253.8531
   XY=             10.8765   XZ=             18.3553   YZ=            -13.2341
 Traceless Quadrupole moment (field-independent basis, Debye-Ang):
   XX=              0.1765   YY=              2.9531   ZZ=             -3.1296
   XY=             10.8765   XZ=             18.3553   YZ=            -13.2341
 Octapole moment (field-independent basis, Debye-Ang**2):
  XXX=            -27.6616  YYY=            175.5480  ZZZ=            -25.1593  XYY=           -139.9596
  XXY=             68.3951  XXZ=           -137.0196  XZZ=            -38.2231  YZZ=            -24.5276
  YYZ=             51.2695  XYZ=            -40.9706
 Hexadecapole moment (field-independent basis, Debye-Ang**3):
 XXXX=         -21832.9419 YYYY=         -16287.2009 ZZZZ=          -1576.1751 XXXY=            457.3468
 XXXZ=           1068.6392 YYYX=            832.1632 YYYZ=           -424.0100 ZZZX=            102.1323
 ZZZY=             95.8927 XXYY=          -6719.9777 XXZZ=          -3895.5488 YYZZ=          -3015.4522
 XXYZ=             73.2384 YYXZ=            230.4009 ZZXY=            176.7920
 N-N= 5.054632219356D+03 E-N=-1.463967503258D+04  KE= 1.928656677497D+03
 1\1\GINC-PADAWAN\SP\RB3LYP TD-FC\SVP\C33H38N4O6\PADAWAN\01-Jul-2019\0\
 \# td=(NStates=1) B3LYP/SVP\\TD\\0,1\O,0,-4.2645479656,-4.8848928605,1
 .6085048789\O,0,3.0736113898,-4.9734586527,1.0788720245\O,0,7.05000130
 44,-1.5026475345,1.9430069802\O,0,3.7419492524,-3.116069632,-0.1534686
 863\O,0,7.6159011267,-0.6259624913,-0.0567017029\O,0,-3.0586014462,2.3
 133093817,-0.2680883702\N,0,-0.2319001847,-0.4830124943,-0.5124682597\
 N,0,1.5573742301,1.8749279253,-0.3387854561\N,0,-3.3024422332,-3.08177
 92909,0.6302693455\N,0,-0.740212517,2.8412952789,-0.082532099\C,0,0.63
 89561599,-2.38311627,-1.2300653016\C,0,0.940546957,-1.0872459563,-0.84
 57334222\C,0,-0.7800121299,-2.6200203642,-1.1682988926\C,0,-1.26655707
 77,-1.4125815696,-0.6995490849\C,0,3.8135698178,1.5852916957,-0.235417
 8086\C,0,2.4532374295,0.9378056061,-0.4970438894\C,0,2.2593911893,-0.4
 104583037,-0.8305125259\C,0,3.5666073008,2.9370635086,0.0990078911\C,0
 ,1.5504864537,-3.3759993012,-1.9138487305\C,0,-5.4976286696,-2.7436099
 759,1.3720544697\C,0,-3.6549993592,-1.7898539613,0.1657425061\C,0,2.08
 64929614,3.0664066349,-0.0470770843\C,0,-5.041966893,-1.5954685108,0.5
 053245764\C,0,5.061241386,0.8411590328,-0.3197809368\C,0,-2.6514599617
 ,-1.0055091063,-0.4097274465\C,0,-1.6587255347,-3.7680165548,-1.769077
 2245\C,0,-4.3040500734,-3.7584100728,1.2464197676\C,0,2.0529664303,-4.
 436112635,-1.1184310699\C,0,5.5453033327,-0.1181099345,0.7780803552\C,
 0,4.5236384251,3.9940922585,0.447856986\C,0,1.2959082692,4.1623707874,
 0.3002117418\C,0,-6.790543705,-3.4459193717,0.9162606882\C,0,-5.855805
 1611,-0.5215679408,0.1264698139\C,0,-0.1532132406,4.0668849383,0.19992
 18041\C,0,-1.0692020188,5.1613436681,0.3893774032\C,0,-2.3538848622,4.
 6214936508,0.2149474007\C,0,3.0264692289,-4.0913118014,-0.0700293137\C
 ,0,-5.5556492744,0.5690021888,-0.6839098558\C,0,6.8715370327,-0.741329
 6026,0.8639772959\C,0,-3.6239299359,5.2488959481,0.280662577\C,0,-2.15
 05846101,3.1017751385,-0.1013959094\C,0,-0.6723478259,6.5056962396,0.9
 145405057\C,0,-4.3205716198,5.1870146582,-1.2274318347\H,0,-0.49493107
 8,0.3790847743,-0.1582255623\H,0,2.9527726383,-1.102218363,-0.89176926
 43\H,0,2.4556154428,-2.7894905457,-2.1567422213\H,0,0.8336643726,-3.80
 55646674,-2.9386722273\H,0,-5.7793196593,-2.6058092056,2.6255230922\H,
 0,4.7959521077,0.2136307445,-1.2135417015\H,0,6.0521837858,1.564305958
 7,-0.4597895536\H,0,-2.8294991676,0.190786869,-0.3867790754\H,0,0.5113
 883694,1.8757374176,-0.5001074562\H,0,-1.5607408099,-4.8307176423,-1.2
 441739272\H,0,-2.7411342244,-3.44923551,-1.8988380169\H,0,-1.206155795
 5,-3.8581028791,-2.8719627856\H,0,-2.3743198183,-3.4226719979,0.353968
 062\H,0,1.1867695063,-4.9518378821,-0.5070860985\H,0,2.5683229367,-5.4
 219963065,-1.5470500869\H,0,4.5984350765,-0.7244536088,1.0354632824\H,
 0,5.3351678622,0.3364296817,1.6315009532\H,0,4.2001005357,4.9692273391
 ,-0.2491562874\H,0,5.5769307848,3.8191694501,-0.022776488\H,0,4.805377
 5704,4.1799734694,1.5962353404\H,0,2.0262934079,4.8964588233,0.3319142
 666\H,0,-7.6990014684,-2.8253776213,1.0550367733\H,0,-6.8197060345,-4.
 2564920313,1.5189077312\H,0,-6.5992656236,-3.6711445306,-0.2063385455\
 H,0,-6.8010046228,-0.636474556,0.7154895501\H,0,-4.9758165538,1.271351
 9561,-0.0409313544\H,0,-6.38062644,0.9276918442,-0.9554498611\H,0,-4.8
 03729685,0.3068808503,-1.447431508\H,0,-3.4578777733,6.2305574608,0.70
 08969662\H,0,-4.1466461028,4.7499073226,1.0968457109\H,0,-0.1499941439
 ,6.3295635218,2.141553997\H,0,-1.404606571,7.2552989846,1.0984791996\H
 ,0,0.2761067787,7.1517874644,0.5178627434\H,0,-3.7424921562,5.60447807
 35,-1.9250967122\H,0,-5.2988425915,5.8791310292,-1.5391637936\H,0,-4.4
 701404909,4.164336604,-1.4642659346\H,0,3.3975781583,-4.4676429768,1.7
 085816406\H,0,8.060174042,-1.5611155006,1.8809254755\\Version=ES64L-G1
 6RevA.03\State=1-A\HF=-1948.999212\RMSD=8.272e-09\PG=C01 [X(C33H38N4O6
 )]\\@


 THE SCIENTIFIC THEORIST IS NOT TO BE ENVIED. FOR NATURE, OR MORE
 PRECISELY EXPERIMENT, IS AN INEXORABLE AND NOT VERY FRIENDLY JUDGE OF HIS
 WORK.  IT NEVER SAYS "YES" TO A THEORY. IN THE MOST FAVORABLE CASES
 IT SAYS "MAYBE", AND IN THE GREAT MAJORITY OF CASES SIMPLY "NO"...
 PROBABLY EVERY THEORY WILL SOME DAY EXPERIENCE ITS "NO" - MOST
 THEORIES, SOON AFTER CONCEPTION.  -- A.EINSTEIN, NOV 11, 1922.
 Job cpu time:       0 days  3 hours 44 minutes 36.4 seconds.
 Elapsed time:       0 days  2 hours 29 minutes 39.9 seconds.
 File lengths (MBytes):  RWF=   2591 Int=      0 D2E=      0 Chk=     65 Scr=      1
 Normal termination of Gaussian 16 at Mon Jul  1 13:29:18 2019.
