 Entering Gaussian System, Link 0=g16
 Input=Geometria-232-.com
 Output=Geometria-232-.log
 Initial command:
 /usr/local/g16/l1.exe "/home/padawan/israel-mol/phycocyanobilin/spectra/emi/Gau-5509.inp" -scrdir="/home/padawan/israel-mol/phycocyanobilin/spectra/emi/"
 Entering Link 1 = /usr/local/g16/l1.exe PID=      5511.
  
 Copyright (c) 1988,1990,1992,1993,1995,1998,2003,2009,2016,
            Gaussian, Inc.  All Rights Reserved.
  
 This is part of the Gaussian(R) 16 program.  It is based on
 the Gaussian(R) 09 system (copyright 2009, Gaussian, Inc.),
 the Gaussian(R) 03 system (copyright 2003, Gaussian, Inc.),
 the Gaussian(R) 98 system (copyright 1998, Gaussian, Inc.),
 the Gaussian(R) 94 system (copyright 1995, Gaussian, Inc.),
 the Gaussian 92(TM) system (copyright 1992, Gaussian, Inc.),
 the Gaussian 90(TM) system (copyright 1990, Gaussian, Inc.),
 the Gaussian 88(TM) system (copyright 1988, Gaussian, Inc.),
 the Gaussian 86(TM) system (copyright 1986, Carnegie Mellon
 University), and the Gaussian 82(TM) system (copyright 1983,
 Carnegie Mellon University). Gaussian is a federally registered
 trademark of Gaussian, Inc.
  
 This software contains proprietary and confidential information,
 including trade secrets, belonging to Gaussian, Inc.
  
 This software is provided under written license and may be
 used, copied, transmitted, or stored only in accord with that
 written license.
  
 The following legend is applicable only to US Government
 contracts under FAR:
  
                    RESTRICTED RIGHTS LEGEND
  
 Use, reproduction and disclosure by the US Government is
 subject to restrictions as set forth in subparagraphs (a)
 and (c) of the Commercial Computer Software - Restricted
 Rights clause in FAR 52.227-19.
  
 Gaussian, Inc.
 340 Quinnipiac St., Bldg. 40, Wallingford CT 06492
  
  
 ---------------------------------------------------------------
 Warning -- This program may not be used in any manner that
 competes with the business of Gaussian, Inc. or will provide
 assistance to any competitor of Gaussian, Inc.  The licensee
 of this program is prohibited from giving any competitor of
 Gaussian, Inc. access to this program.  By using this program,
 the user acknowledges that Gaussian, Inc. is engaged in the
 business of creating and licensing software in the field of
 computational chemistry and represents and warrants to the
 licensee that it is not a competitor of Gaussian, Inc. and that
 it will not use this program in any manner prohibited above.
 ---------------------------------------------------------------
  

 Cite this work as:
 Gaussian 16, Revision A.03,
 M. J. Frisch, G. W. Trucks, H. B. Schlegel, G. E. Scuseria, 
 M. A. Robb, J. R. Cheeseman, G. Scalmani, V. Barone, 
 G. A. Petersson, H. Nakatsuji, X. Li, M. Caricato, A. V. Marenich, 
 J. Bloino, B. G. Janesko, R. Gomperts, B. Mennucci, H. P. Hratchian, 
 J. V. Ortiz, A. F. Izmaylov, J. L. Sonnenberg, D. Williams-Young, 
 F. Ding, F. Lipparini, F. Egidi, J. Goings, B. Peng, A. Petrone, 
 T. Henderson, D. Ranasinghe, V. G. Zakrzewski, J. Gao, N. Rega, 
 G. Zheng, W. Liang, M. Hada, M. Ehara, K. Toyota, R. Fukuda, 
 J. Hasegawa, M. Ishida, T. Nakajima, Y. Honda, O. Kitao, H. Nakai, 
 T. Vreven, K. Throssell, J. A. Montgomery, Jr., J. E. Peralta, 
 F. Ogliaro, M. J. Bearpark, J. J. Heyd, E. N. Brothers, K. N. Kudin, 
 V. N. Staroverov, T. A. Keith, R. Kobayashi, J. Normand, 
 K. Raghavachari, A. P. Rendell, J. C. Burant, S. S. Iyengar, 
 J. Tomasi, M. Cossi, J. M. Millam, M. Klene, C. Adamo, R. Cammi, 
 J. W. Ochterski, R. L. Martin, K. Morokuma, O. Farkas, 
 J. B. Foresman, and D. J. Fox, Gaussian, Inc., Wallingford CT, 2016.
 
 ******************************************
 Gaussian 16:  ES64L-G16RevA.03 25-Dec-2016
                29-Jun-2019 
 ******************************************
 %nproc=4
 Will use up to    4 processors via shared memory.
 %Mem=2GB
 --------------------------
 # td=(NStates=1) B3LYP/SVP
 --------------------------
 1/38=1,172=1/1;
 2/12=2,17=6,18=5,40=1/2;
 3/5=18,7=101,11=9,25=1,30=1,74=-5/1,2,3,8;
 4//1;
 5/5=2,38=5/2;
 8/6=1,10=1,108=1/1;
 9/41=1,42=1,70=2/14;
 6/7=2,8=2,9=2,10=2/1;
 99/5=1,9=1/99;
 --
 TD
 --
 Symbolic Z-matrix:
 Charge =  0 Multiplicity = 1
 8                    -4.15669  -4.84601   1.99934 
 8                     2.9904   -4.80239   0.96348 
 8                     6.93967  -1.48142   2.06154 
 8                     3.70122  -3.03407  -0.25643 
 8                     7.62857  -0.4283    0.17721 
 8                    -3.06315   2.45013  -0.45978 
 7                    -0.28837  -0.56802  -0.65786 
 7                     1.6176    1.79671  -0.39399 
 7                    -3.31399  -3.11833   0.72996 
 7                    -0.86418   2.954    -0.04661 
 6                     0.59737  -2.45653  -1.6484 
 6                     0.82528  -1.12345  -1.13563 
 6                    -0.75544  -2.66844  -1.46314 
 6                    -1.30971  -1.56649  -0.65604 
 6                     3.77783   1.42429  -0.20791 
 6                     2.5263    0.83451  -0.60766 
 6                     2.19723  -0.44663  -1.08482 
 6                     3.5783    2.71828   0.22355 
 6                     1.58327  -3.32853  -2.26225 
 6                    -5.45585  -2.76449   1.4328 
 6                    -3.56607  -1.82501   0.35915 
 6                     2.08552   2.97773   0.11764 
 6                    -5.0409   -1.53375   0.72243 
 6                     5.14807   0.79551  -0.273 
 6                    -2.60418  -1.05484  -0.36848 
 6                    -1.60013  -3.86855  -1.912 
 6                    -4.26379  -3.78072   1.46041 
 6                     2.04959  -4.4839   -1.28413 
 6                     5.39192   0.013     0.94885 
 6                     4.58745   3.77515   0.72805 
 6                     1.27098   4.05571   0.40228 
 6                    -6.74763  -3.55677   0.92622 
 6                    -5.78524  -0.48566   0.3916 
 6                    -0.25086   3.96795   0.28438 
 6                    -1.05567   5.19273   0.3443 
 6                    -2.30108   4.71767   0.11254 
 6                     2.99182  -3.97707  -0.13514 
 6                    -5.30201   0.6135   -0.44269 
 6                     6.81662  -0.68269   1.01111 
 6                    -3.70134   5.3853    0.08582 
 6                    -2.22862   3.26013  -0.10839 
 6                    -0.70049   6.54833   0.91315 
 6                    -4.2765    5.39475  -1.4115 
 1                    -0.53438   0.39831  -0.17194 
 1                     3.0342   -1.10785  -1.38524 
 1                     2.56551  -2.68244  -2.63245 
 1                     1.28582  -3.94528  -3.10026 
 1                    -5.5764   -2.92478   2.70285 
 1                     5.4214    0.28551  -1.27653 
 1                     5.91239   1.53583  -0.54223 
 1                    -2.96759  -0.0275   -0.5148 
 1                     0.49778   1.83842  -0.51649 
 1                    -1.61848  -4.50852  -1.2636 
 1                    -2.73064  -3.72421  -2.31554 
 1                    -0.92982  -4.3225   -2.77579 
 1                    -2.32943  -3.42703   0.40417 
 1                     1.22016  -4.96168  -0.91257 
 1                     2.45452  -5.20473  -1.86829 
 1                     4.87731  -0.95569   0.86848 
 1                     5.27884   0.58887   1.87559 
 1                     4.15731   4.85597   0.37292 
 1                     5.67549   3.61817   0.30703 
 1                     4.77322   3.52805   2.04634 
 1                     1.98666   4.82303   0.70159 
 1                    -7.92347  -3.05871   1.46499 
 1                    -6.75104  -4.62567   1.33598 
 1                    -6.78112  -3.72986  -0.15265 
 1                    -6.83717  -0.46125   0.82902 
 1                    -4.38678   1.07201   0.06592 
 1                    -6.16829   1.64638  -0.71836 
 1                    -4.8535    0.43396  -1.44945 
 1                    -3.57557   6.40968   0.46523 
 1                    -4.38252   4.95686   0.64594 
 1                    -0.18532   6.45138   1.84752 
 1                    -1.47978   7.26164   0.75708 
 1                     0.12193   6.87562   0.04646 
 1                    -3.61887   6.1037   -2.02825 
 1                    -5.30386   5.84594  -1.41964 
 1                    -4.1842    4.49391  -1.84264 
 1                     3.74267  -4.5688    1.41568 
 1                     7.89513  -1.94659   2.06416 
 
 Stoichiometry    C33H38N4O6
 Framework group  C1[X(C33H38N4O6)]
 Deg. of freedom   237
 Full point group                 C1      NOp   1
 Largest Abelian subgroup         C1      NOp   1
 Largest concise Abelian subgroup C1      NOp   1
                         Standard orientation:                         
 ---------------------------------------------------------------------
 Center     Atomic      Atomic             Coordinates (Angstroms)
 Number     Number       Type             X           Y           Z
 ---------------------------------------------------------------------
      1          8           0        4.200875   -4.797163   -2.030181
      2          8           0       -2.943771   -4.825336   -0.977069
      3          8           0       -6.926962   -1.537680   -2.052630
      4          8           0       -3.668332   -3.068610    0.251472
      5          8           0       -7.621228   -0.498510   -0.162540
      6          8           0        3.044276    2.478628    0.460186
      7          7           0        0.298682   -0.566442    0.653049
      8          7           0       -1.630225    1.781130    0.403025
      9          7           0        3.344944   -3.082522   -0.752009
     10          7           0        0.839639    2.963236    0.054258
     11          6           0       -0.566726   -2.467118    1.638273
     12          6           0       -0.808487   -1.134262    1.131295
     13          6           0        0.787578   -2.665463    1.448950
     14          6           0        1.329429   -1.555167    0.644867
     15          6           0       -3.787273    1.388976    0.220643
     16          6           0       -2.529257    0.809528    0.615090
     17          6           0       -2.186913   -0.470286    1.086419
     18          6           0       -3.601056    2.686480   -0.206203
     19          6           0       -1.542829   -3.350815    2.251055
     20          6           0        5.481646   -2.705654   -1.458574
     21          6           0        3.585663   -1.788323   -0.376728
     22          6           0       -2.110551    2.959648   -0.102843
     23          6           0        5.056779   -1.481686   -0.742381
     24          6           0       -5.151340    0.746996    0.286540
     25          6           0        2.618288   -1.030159    0.356224
     26          6           0        1.644681   -3.859258    1.891075
     27          6           0        4.299190   -3.733022   -1.487326
     28          6           0       -2.000558   -4.506718    1.269517
     29          6           0       -5.390733   -0.033015   -0.937781
     30          6           0       -4.621396    3.735698   -0.704128
     31          6           0       -1.306941    4.046406   -0.385196
     32          6           0        6.782091   -3.487625   -0.958201
     33          6           0        5.791964   -0.427889   -0.409218
     34          6           0        0.215942    3.972610   -0.271279
     35          6           0        1.008968    5.205190   -0.328314
     36          6           0        2.259379    4.741061   -0.101395
     37          6           0       -2.950332   -4.004362    0.124780
     38          6           0        5.300380    0.663376    0.430528
     39          6           0       -6.808932   -0.741936   -0.999372
     40          6           0        3.653313    5.421820   -0.075406
     41          6           0        2.201263    3.282045    0.113975
     42          6           0        0.639588    6.559577   -0.890982
     43          6           0        4.231991    5.430870    1.420563
     44          1           0        0.534349    0.404064    0.170335
     45          1           0       -3.016848   -1.140574    1.386241
     46          1           0       -2.530238   -2.715510    2.626134
     47          1           0       -1.237519   -3.967980    3.085918
     48          1           0        5.600619   -2.859832   -2.729529
     49          1           0       -5.417396    0.230507    1.288711
     50          1           0       -5.921980    1.478980    0.560504
     51          1           0        2.972316   -0.000000    0.505707
     52          1           0       -0.510553    1.832977    0.523008
     53          1           0        1.667513   -4.496487    1.240119
     54          1           0        2.774754   -3.705792    2.292473
     55          1           0        0.980797   -4.322913    2.754677
     56          1           0        2.364137   -3.401810   -0.425085
     57          1           0       -1.167552   -4.975162    0.894100
     58          1           0       -2.397230   -5.233637    1.851812
     59          1           0       -4.866785   -0.997090   -0.862446
     60          1           0       -5.285366    0.547518   -1.862518
     61          1           0       -4.200640    4.819147   -0.345786
     62          1           0       -5.706871    3.566768   -0.281129
     63          1           0       -4.808018    3.491996   -2.022936
     64          1           0       -2.030583    4.808072   -0.679777
     65          1           0        7.951856   -2.976342   -1.497816
     66          1           0        6.794628   -4.554835   -1.372161
     67          1           0        6.819843   -3.664601    0.119903
     68          1           0        6.842550   -0.391795   -0.849057
     69          1           0        4.379611    1.115178   -0.074083
     70          1           0        6.157499    1.703343    0.708181
     71          1           0        4.856037    0.475670    1.437650
     72          1           0        3.516930    6.446431   -0.450489
     73          1           0        4.337159    5.002044   -0.638829
     74          1           0        0.123089    6.461393   -1.824496
     75          1           0        1.412469    7.279625   -0.733970
     76          1           0       -0.183790    6.875669   -0.021045
     77          1           0        3.569179    6.131144    2.041660
     78          1           0        5.255055    5.891745    1.428020
     79          1           0        4.149277    4.527523    1.848385
     80          1           0       -3.699315   -4.597125   -1.426550
     81          1           0       -7.877976   -2.011880   -2.054798
 ---------------------------------------------------------------------
 Rotational constants (GHZ):           0.0749945           0.0547263           0.0342987
 Standard basis: SVP (5D, 7F)
 There are   835 symmetry adapted cartesian basis functions of A   symmetry.
 There are   792 symmetry adapted basis functions of A   symmetry.
   792 basis functions,  1341 primitive gaussians,   835 cartesian basis functions
   156 alpha electrons      156 beta electrons
       nuclear repulsion energy      5029.8314385804 Hartrees.
 NAtoms=   81 NActive=   81 NUniq=   81 SFac= 1.00D+00 NAtFMM=   60 NAOKFM=T Big=T
 Integral buffers will be    131072 words long.
 Regular integral format.
 Two-electron integral symmetry is turned on.
 One-electron integrals computed using PRISM.
 NBasis=   792 RedAO= T EigKep=  3.82D-04  NBF=   792
 NBsUse=   792 1.00D-06 EigRej= -1.00D+00 NBFU=   792
 ExpMin= 1.22D-01 ExpMax= 2.27D+03 ExpMxC= 3.41D+02 IAcc=3 IRadAn=         5 AccDes= 0.00D+00
 Harris functional with IExCor=  402 and IRadAn=       5 diagonalized for initial guess.
 HarFok:  IExCor=  402 AccDes= 0.00D+00 IRadAn=         5 IDoV= 1 UseB2=F ITyADJ=14
 ICtDFT=  3500011 ScaDFX=  1.000000  1.000000  1.000000  1.000000
 FoFCou: FMM=F IPFlag=           0 FMFlag=      100000 FMFlg1=        2001
         NFxFlg=           0 DoJE=T BraDBF=F KetDBF=T FulRan=T
         wScrn=  0.000000 ICntrl=       500 IOpCl=  0 I1Cent=   200000004 NGrid=           0
         NMat0=    1 NMatS0=      1 NMatT0=    0 NMatD0=    1 NMtDS0=    0 NMtDT0=    0
 Petite list used in FoFCou.
 Requested convergence on RMS density matrix=1.00D-08 within 128 cycles.
 Requested convergence on MAX density matrix=1.00D-06.
 Requested convergence on             energy=1.00D-06.
 No special actions if energy rises.
 Integral accuracy reduced to 1.0D-05 until final iterations.
 Initial convergence to 1.0D-05 achieved.  Increase integral accuracy.
 SCF Done:  E(RB3LYP) =  -1948.98573785     A.U. after   17 cycles
            NFock= 17  Conv=0.45D-08     -V/T= 2.0109
 DoSCS=F DFT=T ScalE2(SS,OS)=  1.000000  1.000000
 ExpMin= 1.22D-01 ExpMax= 2.27D+03 ExpMxC= 3.41D+02 IAcc=3 IRadAn=         5 AccDes= 0.00D+00
 HarFok:  IExCor=  205 AccDes= 0.00D+00 IRadAn=         5 IDoV=-2 UseB2=F ITyADJ=14
 ICtDFT= 12500011 ScaDFX=  1.000000  1.000000  1.000000  1.000000
 GSVD:  LWork=       -2193 too small for GESVD, short by        9890 words or        9890 for optimal perf.
 Range of M.O.s used for correlation:    44   792
 NBasis=   792 NAE=   156 NBE=   156 NFC=    43 NFV=     0
 NROrb=    749 NOA=   113 NOB=   113 NVA=   636 NVB=   636

 **** Warning!!: The smallest alpha delta epsilon is  0.62594405D-01

 Orbital symmetries:
       Occupied  (A) (A) (A) (A) (A) (A) (A) (A) (A) (A) (A) (A)
                 (A) (A) (A) (A) (A) (A) (A) (A) (A) (A) (A) (A)
                 (A) (A) (A) (A) (A) (A) (A) (A) (A) (A) (A) (A)
                 (A) (A) (A) (A) (A) (A) (A) (A) (A) (A) (A) (A)
                 (A) (A) (A) (A) (A) (A) (A) (A) (A) (A) (A) (A)
                 (A) (A) (A) (A) (A) (A) (A) (A) (A) (A) (A) (A)
                 (A) (A) (A) (A) (A) (A) (A) (A) (A) (A) (A) (A)
                 (A) (A) (A) (A) (A) (A) (A) (A) (A) (A) (A) (A)
                 (A) (A) (A) (A) (A) (A) (A) (A) (A) (A) (A) (A)
                 (A) (A) (A) (A) (A) (A) (A) (A) (A) (A) (A) (A)
                 (A) (A) (A) (A) (A) (A) (A) (A) (A) (A) (A) (A)
                 (A) (A) (A) (A) (A) (A) (A) (A) (A) (A) (A) (A)
                 (A) (A) (A) (A) (A) (A) (A) (A) (A) (A) (A) (A)
       Virtual   (A) (A) (A) (A) (A) (A) (A) (A) (A) (A) (A) (A)
                 (A) (A) (A) (A) (A) (A) (A) (A) (A) (A) (A) (A)
                 (A) (A) (A) (A) (A) (A) (A) (A) (A) (A) (A) (A)
                 (A) (A) (A) (A) (A) (A) (A) (A) (A) (A) (A) (A)
                 (A) (A) (A) (A) (A) (A) (A) (A) (A) (A) (A) (A)
                 (A) (A) (A) (A) (A) (A) (A) (A) (A) (A) (A) (A)
                 (A) (A) (A) (A) (A) (A) (A) (A) (A) (A) (A) (A)
                 (A) (A) (A) (A) (A) (A) (A) (A) (A) (A) (A) (A)
                 (A) (A) (A) (A) (A) (A) (A) (A) (A) (A) (A) (A)
                 (A) (A) (A) (A) (A) (A) (A) (A) (A) (A) (A) (A)
                 (A) (A) (A) (A) (A) (A) (A) (A) (A) (A) (A) (A)
                 (A) (A) (A) (A) (A) (A) (A) (A) (A) (A) (A) (A)
                 (A) (A) (A) (A) (A) (A) (A) (A) (A) (A) (A) (A)
                 (A) (A) (A) (A) (A) (A) (A) (A) (A) (A) (A) (A)
                 (A) (A) (A) (A) (A) (A) (A) (A) (A) (A) (A) (A)
                 (A) (A) (A) (A) (A) (A) (A) (A) (A) (A) (A) (A)
                 (A) (A) (A) (A) (A) (A) (A) (A) (A) (A) (A) (A)
                 (A) (A) (A) (A) (A) (A) (A) (A) (A) (A) (A) (A)
                 (A) (A) (A) (A) (A) (A) (A) (A) (A) (A) (A) (A)
                 (A) (A) (A) (A) (A) (A) (A) (A) (A) (A) (A) (A)
                 (A) (A) (A) (A) (A) (A) (A) (A) (A) (A) (A) (A)
                 (A) (A) (A) (A) (A) (A) (A) (A) (A) (A) (A) (A)
                 (A) (A) (A) (A) (A) (A) (A) (A) (A) (A) (A) (A)
                 (A) (A) (A) (A) (A) (A) (A) (A) (A) (A) (A) (A)
                 (A) (A) (A) (A) (A) (A) (A) (A) (A) (A) (A) (A)
                 (A) (A) (A) (A) (A) (A) (A) (A) (A) (A) (A) (A)
                 (A) (A) (A) (A) (A) (A) (A) (A) (A) (A) (A) (A)
                 (A) (A) (A) (A) (A) (A) (A) (A) (A) (A) (A) (A)
                 (A) (A) (A) (A) (A) (A) (A) (A) (A) (A) (A) (A)
                 (A) (A) (A) (A) (A) (A) (A) (A) (A) (A) (A) (A)
                 (A) (A) (A) (A) (A) (A) (A) (A) (A) (A) (A) (A)
                 (A) (A) (A) (A) (A) (A) (A) (A) (A) (A) (A) (A)
                 (A) (A) (A) (A) (A) (A) (A) (A) (A) (A) (A) (A)
                 (A) (A) (A) (A) (A) (A) (A) (A) (A) (A) (A) (A)
                 (A) (A) (A) (A) (A) (A) (A) (A) (A) (A) (A) (A)
                 (A) (A) (A) (A) (A) (A) (A) (A) (A) (A) (A) (A)
                 (A) (A) (A) (A) (A) (A) (A) (A) (A) (A) (A) (A)
                 (A) (A) (A) (A) (A) (A) (A) (A) (A) (A) (A) (A)
                 (A) (A) (A) (A) (A) (A) (A) (A) (A) (A) (A) (A)
                 (A) (A) (A) (A) (A) (A) (A) (A) (A) (A) (A) (A)
                 (A) (A) (A) (A) (A) (A) (A) (A) (A) (A) (A) (A)
                 (A) (A) (A) (A) (A) (A) (A) (A) (A) (A) (A) (A)
                 (A) (A) (A) (A) (A) (A) (A) (A) (A) (A) (A) (A)
                 (A) (A) (A) (A) (A) (A) (A) (A) (A) (A) (A) (A)
                 (A) (A) (A) (A) (A) (A) (A) (A) (A) (A) (A) (A)
                 (A) (A) (A) (A) (A) (A) (A) (A) (A) (A) (A) (A)
                 (A) (A) (A) (A) (A) (A) (A) (A) (A) (A) (A) (A)
                 (A) (A) (A) (A) (A) (A) (A) (A) (A) (A) (A) (A)
                 (A) (A) (A) (A) (A) (A) (A) (A) (A) (A) (A) (A)
                 (A) (A) (A) (A) (A) (A) (A) (A) (A) (A) (A) (A)
                 (A) (A) (A) (A) (A) (A) (A) (A) (A) (A) (A) (A)
                 (A) (A) (A) (A) (A) (A) (A) (A) (A) (A) (A) (A)
                 (A) (A) (A) (A) (A) (A) (A) (A) (A) (A) (A) (A)
     4 initial guesses have been made.
 Convergence on wavefunction:    0.001000000000000
 Iteration     1 Dimension     4 NMult     0 NNew      4
 CISAX will form     4 AO SS matrices at one time.
 Iteration     2 Dimension     6 NMult     4 NNew      2
 Iteration     3 Dimension     8 NMult     6 NNew      2
 Iteration     4 Dimension    10 NMult     8 NNew      2
 Iteration     5 Dimension    12 NMult    10 NNew      2
 Iteration     6 Dimension    14 NMult    12 NNew      2
 ***********************************************************************
 Excited states from <AA,BB:AA,BB> singles matrix:
 ***********************************************************************
 
 Ground to excited state transition densities written to RWF  633
 Ground to excited state transition electric dipole moments (Au):
       state          X           Y           Z        Dip. S.      Osc.
         1         0.5719     -2.2980      0.0932      5.6164      0.2060
 Ground to excited state transition velocity dipole moments (Au):
       state          X           Y           Z        Dip. S.      Osc.
         1        -0.0329      0.1217     -0.0045      0.0159      0.1929
 Ground to excited state transition magnetic dipole moments (Au):
       state          X           Y           Z
         1        -0.2585     -0.5403     -2.1844
 Ground to excited state transition velocity quadrupole moments (Au):
       state          XX          YY          ZZ          XY          XZ          YZ
         1        -0.2891      0.4639     -0.0559      0.3623      0.1068      0.0050
 <0|del|b> * <b|rxdel|0> + <0|del|b> * <b|delr+rdel|0>
 Rotatory Strengths (R) in cgs (10**-40 erg-esu-cm/Gauss)
       state          XX          YY          ZZ    R(velocity)    E-M Angle
         1      -453.6633    127.1034   -283.3431   -203.3010       99.56
 1/2[<0|r|b>*<b|rxdel|0> + (<0|rxdel|b>*<b|r|0>)*]
 Rotatory Strengths (R) in cgs (10**-40 erg-esu-cm/Gauss)
       state          XX          YY          ZZ     R(length)
         1       104.5659   -878.0194    143.9748   -209.8262
  1/2[<0|del|b>*<b|r|0> + (<0|r|b>*<b|del|0>)*] (Au)
       state          X           Y           Z        Dip. S.   Osc.(frdel)
         1        -0.0188     -0.2797     -0.0004      0.2989      0.1993

 Excitation energies and oscillator strengths:
 
 Excited State   1:      Singlet-A      1.4969 eV  828.25 nm  f=0.2060  <S**2>=0.000
     156 ->157         0.70772
     156 <-157        -0.11871
 This state for optimization and/or second-order correction.
 Total Energy, E(TD-HF/TD-DFT) =  -1948.93072598    
 Copying the excited state density for this state as the 1-particle RhoCI density.
 SavETr:  write IOETrn=   770 NScale= 10 NData=  16 NLR=1 NState=    1 LETran=      28.

 **********************************************************************

            Population analysis using the SCF density.

 **********************************************************************

 Orbital symmetries:
       Occupied  (A) (A) (A) (A) (A) (A) (A) (A) (A) (A) (A) (A)
                 (A) (A) (A) (A) (A) (A) (A) (A) (A) (A) (A) (A)
                 (A) (A) (A) (A) (A) (A) (A) (A) (A) (A) (A) (A)
                 (A) (A) (A) (A) (A) (A) (A) (A) (A) (A) (A) (A)
                 (A) (A) (A) (A) (A) (A) (A) (A) (A) (A) (A) (A)
                 (A) (A) (A) (A) (A) (A) (A) (A) (A) (A) (A) (A)
                 (A) (A) (A) (A) (A) (A) (A) (A) (A) (A) (A) (A)
                 (A) (A) (A) (A) (A) (A) (A) (A) (A) (A) (A) (A)
                 (A) (A) (A) (A) (A) (A) (A) (A) (A) (A) (A) (A)
                 (A) (A) (A) (A) (A) (A) (A) (A) (A) (A) (A) (A)
                 (A) (A) (A) (A) (A) (A) (A) (A) (A) (A) (A) (A)
                 (A) (A) (A) (A) (A) (A) (A) (A) (A) (A) (A) (A)
                 (A) (A) (A) (A) (A) (A) (A) (A) (A) (A) (A) (A)
       Virtual   (A) (A) (A) (A) (A) (A) (A) (A) (A) (A) (A) (A)
                 (A) (A) (A) (A) (A) (A) (A) (A) (A) (A) (A) (A)
                 (A) (A) (A) (A) (A) (A) (A) (A) (A) (A) (A) (A)
                 (A) (A) (A) (A) (A) (A) (A) (A) (A) (A) (A) (A)
                 (A) (A) (A) (A) (A) (A) (A) (A) (A) (A) (A) (A)
                 (A) (A) (A) (A) (A) (A) (A) (A) (A) (A) (A) (A)
                 (A) (A) (A) (A) (A) (A) (A) (A) (A) (A) (A) (A)
                 (A) (A) (A) (A) (A) (A) (A) (A) (A) (A) (A) (A)
                 (A) (A) (A) (A) (A) (A) (A) (A) (A) (A) (A) (A)
                 (A) (A) (A) (A) (A) (A) (A) (A) (A) (A) (A) (A)
                 (A) (A) (A) (A) (A) (A) (A) (A) (A) (A) (A) (A)
                 (A) (A) (A) (A) (A) (A) (A) (A) (A) (A) (A) (A)
                 (A) (A) (A) (A) (A) (A) (A) (A) (A) (A) (A) (A)
                 (A) (A) (A) (A) (A) (A) (A) (A) (A) (A) (A) (A)
                 (A) (A) (A) (A) (A) (A) (A) (A) (A) (A) (A) (A)
                 (A) (A) (A) (A) (A) (A) (A) (A) (A) (A) (A) (A)
                 (A) (A) (A) (A) (A) (A) (A) (A) (A) (A) (A) (A)
                 (A) (A) (A) (A) (A) (A) (A) (A) (A) (A) (A) (A)
                 (A) (A) (A) (A) (A) (A) (A) (A) (A) (A) (A) (A)
                 (A) (A) (A) (A) (A) (A) (A) (A) (A) (A) (A) (A)
                 (A) (A) (A) (A) (A) (A) (A) (A) (A) (A) (A) (A)
                 (A) (A) (A) (A) (A) (A) (A) (A) (A) (A) (A) (A)
                 (A) (A) (A) (A) (A) (A) (A) (A) (A) (A) (A) (A)
                 (A) (A) (A) (A) (A) (A) (A) (A) (A) (A) (A) (A)
                 (A) (A) (A) (A) (A) (A) (A) (A) (A) (A) (A) (A)
                 (A) (A) (A) (A) (A) (A) (A) (A) (A) (A) (A) (A)
                 (A) (A) (A) (A) (A) (A) (A) (A) (A) (A) (A) (A)
                 (A) (A) (A) (A) (A) (A) (A) (A) (A) (A) (A) (A)
                 (A) (A) (A) (A) (A) (A) (A) (A) (A) (A) (A) (A)
                 (A) (A) (A) (A) (A) (A) (A) (A) (A) (A) (A) (A)
                 (A) (A) (A) (A) (A) (A) (A) (A) (A) (A) (A) (A)
                 (A) (A) (A) (A) (A) (A) (A) (A) (A) (A) (A) (A)
                 (A) (A) (A) (A) (A) (A) (A) (A) (A) (A) (A) (A)
                 (A) (A) (A) (A) (A) (A) (A) (A) (A) (A) (A) (A)
                 (A) (A) (A) (A) (A) (A) (A) (A) (A) (A) (A) (A)
                 (A) (A) (A) (A) (A) (A) (A) (A) (A) (A) (A) (A)
                 (A) (A) (A) (A) (A) (A) (A) (A) (A) (A) (A) (A)
                 (A) (A) (A) (A) (A) (A) (A) (A) (A) (A) (A) (A)
                 (A) (A) (A) (A) (A) (A) (A) (A) (A) (A) (A) (A)
                 (A) (A) (A) (A) (A) (A) (A) (A) (A) (A) (A) (A)
                 (A) (A) (A) (A) (A) (A) (A) (A) (A) (A) (A) (A)
                 (A) (A) (A) (A) (A) (A) (A) (A) (A) (A) (A) (A)
                 (A) (A) (A) (A) (A) (A) (A) (A) (A) (A) (A) (A)
                 (A) (A) (A) (A) (A) (A) (A) (A) (A) (A) (A) (A)
                 (A) (A) (A) (A) (A) (A) (A) (A) (A) (A) (A) (A)
                 (A) (A) (A) (A) (A) (A) (A) (A) (A) (A) (A) (A)
                 (A) (A) (A) (A) (A) (A) (A) (A) (A) (A) (A) (A)
                 (A) (A) (A) (A) (A) (A) (A) (A) (A) (A) (A) (A)
                 (A) (A) (A) (A) (A) (A) (A) (A) (A) (A) (A) (A)
                 (A) (A) (A) (A) (A) (A) (A) (A) (A) (A) (A) (A)
                 (A) (A) (A) (A) (A) (A) (A) (A) (A) (A) (A) (A)
                 (A) (A) (A) (A) (A) (A) (A) (A) (A) (A) (A) (A)
                 (A) (A) (A) (A) (A) (A) (A) (A) (A) (A) (A) (A)
 The electronic state is 1-A.
 Alpha  occ. eigenvalues --  -19.19796 -19.18995 -19.15079 -19.12362 -19.12358
 Alpha  occ. eigenvalues --  -19.10957 -14.38256 -14.36860 -14.35671 -14.30097
 Alpha  occ. eigenvalues --  -10.33802 -10.31643 -10.29050 -10.27867 -10.24316
 Alpha  occ. eigenvalues --  -10.24157 -10.24013 -10.23900 -10.23742 -10.23293
 Alpha  occ. eigenvalues --  -10.22844 -10.21978 -10.21762 -10.21420 -10.21352
 Alpha  occ. eigenvalues --  -10.21071 -10.20758 -10.20504 -10.20445 -10.20345
 Alpha  occ. eigenvalues --  -10.20234 -10.20172 -10.20052 -10.19943 -10.19921
 Alpha  occ. eigenvalues --  -10.19619 -10.19615 -10.19507 -10.19368 -10.19280
 Alpha  occ. eigenvalues --  -10.18707 -10.18654 -10.17869  -1.11889  -1.09869
 Alpha  occ. eigenvalues --   -1.03958  -1.03935  -1.03750  -1.01418  -0.98164
 Alpha  occ. eigenvalues --   -0.97263  -0.96103  -0.95468  -0.82484  -0.81683
 Alpha  occ. eigenvalues --   -0.80991  -0.80489  -0.79837  -0.78335  -0.77357
 Alpha  occ. eigenvalues --   -0.76244  -0.75542  -0.74910  -0.73142  -0.72156
 Alpha  occ. eigenvalues --   -0.70207  -0.69324  -0.68340  -0.68142  -0.66717
 Alpha  occ. eigenvalues --   -0.66401  -0.65391  -0.63832  -0.62810  -0.62216
 Alpha  occ. eigenvalues --   -0.61739  -0.59707  -0.59006  -0.57359  -0.56244
 Alpha  occ. eigenvalues --   -0.55671  -0.55137  -0.54735  -0.54170  -0.53615
 Alpha  occ. eigenvalues --   -0.52746  -0.51974  -0.50868  -0.50427  -0.49722
 Alpha  occ. eigenvalues --   -0.49034  -0.48964  -0.48488  -0.48130  -0.47614
 Alpha  occ. eigenvalues --   -0.46661  -0.46249  -0.45710  -0.45607  -0.45439
 Alpha  occ. eigenvalues --   -0.44967  -0.44322  -0.44175  -0.43993  -0.43777
 Alpha  occ. eigenvalues --   -0.43508  -0.43451  -0.42828  -0.42285  -0.42178
 Alpha  occ. eigenvalues --   -0.41987  -0.41813  -0.41499  -0.41251  -0.40865
 Alpha  occ. eigenvalues --   -0.40713  -0.40613  -0.40302  -0.39728  -0.39424
 Alpha  occ. eigenvalues --   -0.39317  -0.38617  -0.38468  -0.38021  -0.37898
 Alpha  occ. eigenvalues --   -0.37803  -0.37662  -0.36696  -0.36446  -0.35909
 Alpha  occ. eigenvalues --   -0.35689  -0.35352  -0.34982  -0.34883  -0.34640
 Alpha  occ. eigenvalues --   -0.34520  -0.34447  -0.34016  -0.33441  -0.33162
 Alpha  occ. eigenvalues --   -0.32963  -0.32123  -0.32026  -0.30307  -0.29375
 Alpha  occ. eigenvalues --   -0.29211  -0.27239  -0.26211  -0.26050  -0.25696
 Alpha  occ. eigenvalues --   -0.25331  -0.25006  -0.24664  -0.24499  -0.21127
 Alpha  occ. eigenvalues --   -0.16948
 Alpha virt. eigenvalues --   -0.10688  -0.06289  -0.03882  -0.01275  -0.00376
 Alpha virt. eigenvalues --    0.01267   0.01772   0.02248   0.02517   0.03537
 Alpha virt. eigenvalues --    0.03798   0.04241   0.04588   0.04970   0.05473
 Alpha virt. eigenvalues --    0.05835   0.06228   0.06750   0.07089   0.07223
 Alpha virt. eigenvalues --    0.07472   0.08123   0.08667   0.08679   0.09011
 Alpha virt. eigenvalues --    0.09358   0.09987   0.10131   0.10445   0.10718
 Alpha virt. eigenvalues --    0.11319   0.11581   0.11730   0.11909   0.12220
 Alpha virt. eigenvalues --    0.12618   0.13179   0.13802   0.14070   0.14380
 Alpha virt. eigenvalues --    0.14461   0.14948   0.15260   0.16060   0.16200
 Alpha virt. eigenvalues --    0.16564   0.16886   0.17392   0.17536   0.17730
 Alpha virt. eigenvalues --    0.18134   0.18368   0.18923   0.19030   0.19344
 Alpha virt. eigenvalues --    0.19687   0.19977   0.20409   0.20790   0.20905
 Alpha virt. eigenvalues --    0.21793   0.22219   0.22404   0.22833   0.23485
 Alpha virt. eigenvalues --    0.24001   0.24522   0.25026   0.25229   0.25907
 Alpha virt. eigenvalues --    0.26335   0.26729   0.27171   0.27788   0.28142
 Alpha virt. eigenvalues --    0.28530   0.29120   0.29437   0.29659   0.30926
 Alpha virt. eigenvalues --    0.31436   0.31534   0.31864   0.32312   0.33008
 Alpha virt. eigenvalues --    0.34105   0.34401   0.35132   0.35613   0.36712
 Alpha virt. eigenvalues --    0.36885   0.37265   0.37738   0.38251   0.38643
 Alpha virt. eigenvalues --    0.38855   0.39084   0.39603   0.39866   0.40701
 Alpha virt. eigenvalues --    0.41674   0.42018   0.42147   0.42337   0.42647
 Alpha virt. eigenvalues --    0.43447   0.43794   0.44046   0.44112   0.44462
 Alpha virt. eigenvalues --    0.44701   0.44770   0.45447   0.45755   0.46056
 Alpha virt. eigenvalues --    0.46209   0.46501   0.46595   0.47246   0.47373
 Alpha virt. eigenvalues --    0.47708   0.47754   0.48092   0.48277   0.48630
 Alpha virt. eigenvalues --    0.49071   0.49815   0.49932   0.50290   0.50635
 Alpha virt. eigenvalues --    0.50863   0.51499   0.51764   0.52417   0.53203
 Alpha virt. eigenvalues --    0.53391   0.53942   0.54064   0.54299   0.54690
 Alpha virt. eigenvalues --    0.54865   0.55792   0.55873   0.56176   0.56841
 Alpha virt. eigenvalues --    0.56890   0.57282   0.57704   0.58049   0.58441
 Alpha virt. eigenvalues --    0.58511   0.59149   0.59551   0.59922   0.60029
 Alpha virt. eigenvalues --    0.60180   0.60852   0.61023   0.61512   0.61712
 Alpha virt. eigenvalues --    0.62034   0.62332   0.62481   0.62663   0.62864
 Alpha virt. eigenvalues --    0.63358   0.63706   0.63799   0.64098   0.64533
 Alpha virt. eigenvalues --    0.64858   0.64898   0.65055   0.65620   0.65691
 Alpha virt. eigenvalues --    0.66112   0.66254   0.66404   0.66606   0.67011
 Alpha virt. eigenvalues --    0.67258   0.67462   0.67577   0.67682   0.67997
 Alpha virt. eigenvalues --    0.68354   0.68582   0.68733   0.69003   0.69238
 Alpha virt. eigenvalues --    0.69297   0.69478   0.69718   0.69963   0.70350
 Alpha virt. eigenvalues --    0.70579   0.70588   0.70997   0.71593   0.71680
 Alpha virt. eigenvalues --    0.72040   0.72861   0.72974   0.73319   0.73641
 Alpha virt. eigenvalues --    0.73945   0.74095   0.74540   0.74845   0.75220
 Alpha virt. eigenvalues --    0.75767   0.76272   0.76691   0.76913   0.77293
 Alpha virt. eigenvalues --    0.77432   0.78148   0.78438   0.78600   0.79085
 Alpha virt. eigenvalues --    0.79809   0.80050   0.80940   0.81194   0.81622
 Alpha virt. eigenvalues --    0.82469   0.82591   0.83189   0.84292   0.84650
 Alpha virt. eigenvalues --    0.85649   0.85892   0.87101   0.88347   0.88525
 Alpha virt. eigenvalues --    0.89173   0.90049   0.90910   0.91560   0.92255
 Alpha virt. eigenvalues --    0.92576   0.93299   0.93953   0.94054   0.94303
 Alpha virt. eigenvalues --    0.94773   0.94906   0.95831   0.96034   0.96409
 Alpha virt. eigenvalues --    0.96900   0.97269   0.97918   0.98720   0.99570
 Alpha virt. eigenvalues --    1.00235   1.00835   1.02346   1.02811   1.03495
 Alpha virt. eigenvalues --    1.03968   1.04720   1.05345   1.06101   1.07509
 Alpha virt. eigenvalues --    1.08005   1.08184   1.08717   1.09836   1.10448
 Alpha virt. eigenvalues --    1.11698   1.12346   1.12575   1.13935   1.14264
 Alpha virt. eigenvalues --    1.15483   1.15974   1.16310   1.16658   1.17156
 Alpha virt. eigenvalues --    1.17921   1.18372   1.18695   1.20219   1.20865
 Alpha virt. eigenvalues --    1.21337   1.21994   1.22489   1.22975   1.23289
 Alpha virt. eigenvalues --    1.24080   1.24613   1.25738   1.26514   1.26855
 Alpha virt. eigenvalues --    1.27561   1.27800   1.28588   1.29194   1.29679
 Alpha virt. eigenvalues --    1.30698   1.31481   1.32149   1.32685   1.33134
 Alpha virt. eigenvalues --    1.33365   1.34173   1.34917   1.35445   1.35548
 Alpha virt. eigenvalues --    1.36731   1.37706   1.37881   1.38328   1.38626
 Alpha virt. eigenvalues --    1.39016   1.39158   1.39712   1.40363   1.41045
 Alpha virt. eigenvalues --    1.41336   1.41493   1.42274   1.43143   1.43423
 Alpha virt. eigenvalues --    1.43687   1.45386   1.45820   1.46398   1.46994
 Alpha virt. eigenvalues --    1.47109   1.47843   1.48835   1.49707   1.50309
 Alpha virt. eigenvalues --    1.50773   1.51586   1.51770   1.52489   1.53112
 Alpha virt. eigenvalues --    1.53411   1.53834   1.54412   1.55379   1.55598
 Alpha virt. eigenvalues --    1.56286   1.56889   1.57375   1.58014   1.58147
 Alpha virt. eigenvalues --    1.58271   1.58471   1.58715   1.59617   1.60814
 Alpha virt. eigenvalues --    1.61306   1.61372   1.61854   1.62712   1.63923
 Alpha virt. eigenvalues --    1.64391   1.65191   1.65519   1.65782   1.66132
 Alpha virt. eigenvalues --    1.66505   1.67061   1.67496   1.67729   1.68447
 Alpha virt. eigenvalues --    1.68483   1.69063   1.69391   1.69825   1.70502
 Alpha virt. eigenvalues --    1.70685   1.70849   1.71557   1.71928   1.72387
 Alpha virt. eigenvalues --    1.73130   1.73622   1.73886   1.74137   1.74408
 Alpha virt. eigenvalues --    1.75028   1.75594   1.75974   1.76099   1.76626
 Alpha virt. eigenvalues --    1.77022   1.77495   1.77659   1.77968   1.78246
 Alpha virt. eigenvalues --    1.78864   1.79061   1.79785   1.80313   1.80920
 Alpha virt. eigenvalues --    1.81155   1.81435   1.81766   1.82155   1.82654
 Alpha virt. eigenvalues --    1.82811   1.83206   1.83536   1.83793   1.84384
 Alpha virt. eigenvalues --    1.85178   1.85662   1.86087   1.86426   1.86957
 Alpha virt. eigenvalues --    1.87236   1.87491   1.87863   1.88232   1.89361
 Alpha virt. eigenvalues --    1.89431   1.89839   1.90324   1.90910   1.91259
 Alpha virt. eigenvalues --    1.91706   1.91916   1.92455   1.92909   1.93248
 Alpha virt. eigenvalues --    1.93592   1.94018   1.94548   1.94989   1.95582
 Alpha virt. eigenvalues --    1.96390   1.97247   1.98006   1.98194   1.98786
 Alpha virt. eigenvalues --    1.99014   1.99572   1.99981   2.00948   2.01073
 Alpha virt. eigenvalues --    2.01635   2.02222   2.02721   2.03251   2.03863
 Alpha virt. eigenvalues --    2.04206   2.04412   2.04567   2.04762   2.05621
 Alpha virt. eigenvalues --    2.05956   2.06201   2.06640   2.07300   2.07625
 Alpha virt. eigenvalues --    2.08041   2.08307   2.09149   2.09495   2.10326
 Alpha virt. eigenvalues --    2.10735   2.11614   2.12409   2.13150   2.13381
 Alpha virt. eigenvalues --    2.14151   2.15372   2.15613   2.16215   2.16826
 Alpha virt. eigenvalues --    2.16953   2.17992   2.19416   2.20001   2.20445
 Alpha virt. eigenvalues --    2.21101   2.21442   2.21870   2.22846   2.23535
 Alpha virt. eigenvalues --    2.23825   2.24355   2.26363   2.26516   2.26613
 Alpha virt. eigenvalues --    2.27330   2.27826   2.28551   2.28645   2.29310
 Alpha virt. eigenvalues --    2.29909   2.31237   2.31767   2.32278   2.33509
 Alpha virt. eigenvalues --    2.34070   2.34728   2.35279   2.35523   2.35913
 Alpha virt. eigenvalues --    2.36490   2.36776   2.37175   2.38897   2.39659
 Alpha virt. eigenvalues --    2.40046   2.40894   2.41332   2.43523   2.43749
 Alpha virt. eigenvalues --    2.43856   2.44569   2.46252   2.46964   2.47547
 Alpha virt. eigenvalues --    2.47710   2.48159   2.48768   2.49718   2.50320
 Alpha virt. eigenvalues --    2.51805   2.51978   2.52469   2.52755   2.53464
 Alpha virt. eigenvalues --    2.54023   2.55506   2.56199   2.57239   2.57924
 Alpha virt. eigenvalues --    2.58325   2.59091   2.59734   2.61322   2.61760
 Alpha virt. eigenvalues --    2.62465   2.62642   2.63351   2.63729   2.64044
 Alpha virt. eigenvalues --    2.65250   2.65493   2.65856   2.66192   2.67550
 Alpha virt. eigenvalues --    2.67644   2.68821   2.70416   2.70706   2.71048
 Alpha virt. eigenvalues --    2.71385   2.71988   2.72164   2.72557   2.72676
 Alpha virt. eigenvalues --    2.74016   2.74217   2.74833   2.75448   2.76083
 Alpha virt. eigenvalues --    2.76203   2.76886   2.77822   2.78153   2.79739
 Alpha virt. eigenvalues --    2.82202   2.83385   2.83745   2.84201   2.84959
 Alpha virt. eigenvalues --    2.85897   2.86196   2.86909   2.87922   2.88434
 Alpha virt. eigenvalues --    2.89462   2.89976   2.91374   2.92270   2.93365
 Alpha virt. eigenvalues --    2.93736   2.93848   2.93980   2.95951   2.96044
 Alpha virt. eigenvalues --    2.96728   2.97971   2.98524   2.99267   2.99969
 Alpha virt. eigenvalues --    3.00187   3.01987   3.04243   3.05337   3.05914
 Alpha virt. eigenvalues --    3.07566   3.08671   3.09042   3.09742   3.11569
 Alpha virt. eigenvalues --    3.13456   3.15097   3.15450   3.18604   3.18979
 Alpha virt. eigenvalues --    3.19360   3.20554   3.20769   3.21298   3.21587
 Alpha virt. eigenvalues --    3.22407   3.23932   3.25214   3.28098   3.28839
 Alpha virt. eigenvalues --    3.33874   3.38471   3.41694   3.44405   3.46835
 Alpha virt. eigenvalues --    3.47086   3.50357   3.54912   3.56573   3.58998
 Alpha virt. eigenvalues --    3.66879   3.68153   3.69069   3.70119   3.71030
 Alpha virt. eigenvalues --    3.80484
          Condensed to atoms (all electrons):
 Mulliken charges:
               1
     1  O   -0.187956
     2  O   -0.152354
     3  O   -0.214644
     4  O   -0.185814
     5  O   -0.208765
     6  O   -0.185861
     7  N   -0.122820
     8  N   -0.132535
     9  N   -0.122952
    10  N   -0.205030
    11  C   -0.041104
    12  C    0.031904
    13  C   -0.158804
    14  C    0.059311
    15  C   -0.071032
    16  C    0.096576
    17  C   -0.057521
    18  C   -0.079910
    19  C    0.010651
    20  C   -0.171963
    21  C   -0.005362
    22  C   -0.004460
    23  C    0.089053
    24  C    0.058572
    25  C   -0.101537
    26  C    0.122350
    27  C    0.141315
    28  C    0.088620
    29  C    0.030968
    30  C   -0.049652
    31  C   -0.057899
    32  C   -0.036259
    33  C   -0.097865
    34  C    0.053169
    35  C   -0.142988
    36  C   -0.194674
    37  C    0.139175
    38  C   -0.066985
    39  C    0.099889
    40  C    0.164226
    41  C    0.152600
    42  C    0.111574
    43  C   -0.000473
    44  H    0.188888
    45  H    0.010911
    46  H    0.045439
    47  H   -0.000563
    48  H    0.068621
    49  H    0.014702
    50  H   -0.006077
    51  H    0.001676
    52  H    0.180527
    53  H   -0.045087
    54  H    0.059407
    55  H    0.014276
    56  H    0.153854
    57  H   -0.011047
    58  H    0.001409
    59  H    0.041182
    60  H    0.037850
    61  H    0.064799
    62  H    0.050660
    63  H    0.056973
    64  H   -0.047173
    65  H    0.033921
    66  H    0.042347
    67  H    0.023922
    68  H    0.012128
    69  H    0.096258
    70  H    0.024499
    71  H    0.045761
    72  H   -0.018671
    73  H   -0.029131
    74  H    0.042777
    75  H    0.018814
    76  H    0.031930
    77  H    0.005778
    78  H    0.021040
    79  H    0.007773
    80  H    0.144575
    81  H    0.222322
 Sum of Mulliken charges =  -0.00000
 Mulliken charges with hydrogens summed into heavy atoms:
               1
     1  O   -0.187956
     2  O   -0.007779
     3  O    0.007678
     4  O   -0.185814
     5  O   -0.208765
     6  O   -0.185861
     7  N    0.066068
     8  N    0.047993
     9  N    0.030902
    10  N   -0.205030
    11  C   -0.041104
    12  C    0.031904
    13  C   -0.158804
    14  C    0.059311
    15  C   -0.071032
    16  C    0.096576
    17  C   -0.046610
    18  C   -0.079910
    19  C    0.055527
    20  C   -0.103342
    21  C   -0.005362
    22  C   -0.004460
    23  C    0.089053
    24  C    0.067198
    25  C   -0.099862
    26  C    0.150946
    27  C    0.141315
    28  C    0.078982
    29  C    0.110001
    30  C    0.122781
    31  C   -0.105072
    32  C    0.063930
    33  C   -0.085737
    34  C    0.053169
    35  C   -0.142988
    36  C   -0.194674
    37  C    0.139175
    38  C    0.099533
    39  C    0.099889
    40  C    0.116423
    41  C    0.152600
    42  C    0.205095
    43  C    0.034118
 Electronic spatial extent (au):  <R**2>=          30471.4450
 Charge=             -0.0000 electrons
 Dipole moment (field-independent basis, Debye):
    X=             -3.6341    Y=              1.0049    Z=             -0.2171  Tot=              3.7767
 Quadrupole moment (field-independent basis, Debye-Ang):
   XX=           -252.1190   YY=           -235.1292   ZZ=           -256.3107
   XY=             23.9577   XZ=             16.3499   YZ=            -16.5032
 Traceless Quadrupole moment (field-independent basis, Debye-Ang):
   XX=             -4.2660   YY=             12.7237   ZZ=             -8.4578
   XY=             23.9577   XZ=             16.3499   YZ=            -16.5032
 Octapole moment (field-independent basis, Debye-Ang**2):
  XXX=            -93.8599  YYY=             98.7789  ZZZ=            -16.0353  XYY=           -159.8638
  XXY=            -58.1596  XXZ=           -117.4151  XZZ=            -70.0756  YZZ=            -22.7436
  YYZ=             52.6051  XYZ=            -67.8759
 Hexadecapole moment (field-independent basis, Debye-Ang**3):
 XXXX=         -22240.3280 YYYY=         -16096.6098 ZZZZ=          -1951.5922 XXXY=           1071.1526
 XXXZ=           1010.3636 YYYX=           1070.3046 YYYZ=           -480.9160 ZZZX=            114.9311
 ZZZY=             13.0978 XXYY=          -6201.8320 XXZZ=          -3924.9378 YYZZ=          -3130.1979
 XXYZ=            125.3877 YYXZ=            310.0985 ZZXY=            239.3365
 N-N= 5.029831438580D+03 E-N=-1.459013889116D+04  KE= 1.927922947690D+03
 1\1\GINC-PADAWAN\SP\RB3LYP TD-FC\SVP\C33H38N4O6\PADAWAN\30-Jun-2019\0\
 \# td=(NStates=1) B3LYP/SVP\\TD\\0,1\O,0,-4.1566871795,-4.8460089721,1
 .9993439628\O,0,2.990403069,-4.802391546,0.9634804853\O,0,6.9396702713
 ,-1.4814154112,2.0615388334\O,0,3.701215179,-3.0340714321,-0.256428982
 3\O,0,7.6285723938,-0.4283027254,0.1772116885\O,0,-3.0631519013,2.4501
 330641,-0.4597775392\N,0,-0.2883658313,-0.5680209952,-0.6578627992\N,0
 ,1.6176002527,1.7967101035,-0.3939909767\N,0,-3.3139933883,-3.11833294
 63,0.7299593145\N,0,-0.8641849142,2.9539965491,-0.0466085067\C,0,0.597
 3720015,-2.4565336118,-1.6483971348\C,0,0.8252754298,-1.1234495767,-1.
 1356324121\C,0,-0.7554396727,-2.6684352057,-1.4631383765\C,0,-1.309711
 3931,-1.5664869601,-0.6560447345\C,0,3.7778262434,1.4242855951,-0.2079
 050573\C,0,2.5263047363,0.834505276,-0.6076649515\C,0,2.1972349737,-0.
 4466319211,-1.0848179564\C,0,3.5782984699,2.7182816304,0.2235503453\C,
 0,1.5832697321,-3.3285345548,-2.262253571\C,0,-5.4558544921,-2.7644920
 641,1.4328005444\C,0,-3.5660704663,-1.8250074766,0.359151847\C,0,2.085
 5228644,2.977727767,0.1176393873\C,0,-5.040896786,-1.5337523391,0.7224
 262865\C,0,5.1480700689,0.7955144683,-0.2729962583\C,0,-2.6041752332,-
 1.0548440398,-0.3684833221\C,0,-1.6001296751,-3.8685466078,-1.91200151
 7\C,0,-4.263786047,-3.780722304,1.4604111667\C,0,2.0495860923,-4.48389
 74134,-1.2841276396\C,0,5.3919179942,0.0130031768,0.9488474319\C,0,4.5
 874548068,3.7751503643,0.7280450048\C,0,1.270975776,4.0557101213,0.402
 2819488\C,0,-6.7476294135,-3.5567704568,0.9262216843\C,0,-5.7852381044
 ,-0.4856643504,0.3915963265\C,0,-0.2508630056,3.9679450443,0.284380249
 9\C,0,-1.0556706657,5.1927268064,0.3443028958\C,0,-2.3010795817,4.7176
 732687,0.1125371597\C,0,2.9918157636,-3.9770703772,-0.1351358244\C,0,-
 5.3020139109,0.6134966383,-0.4426857334\C,0,6.8166215412,-0.682693739,
 1.0111120094\C,0,-3.7013376767,5.3852995885,0.085823093\C,0,-2.2286224
 138,3.2601309741,-0.1083866085\C,0,-0.7004906402,6.5483305031,0.913150
 3666\C,0,-4.2764972123,5.3947454312,-1.4115002415\H,0,-0.5343750224,0.
 3983066965,-0.1719369334\H,0,3.0342007811,-1.1078489261,-1.3852386113\
 H,0,2.5655064319,-2.6824398406,-2.6324497921\H,0,1.2858195882,-3.94527
 86388,-3.1002583859\H,0,-5.5763993672,-2.9247811028,2.702850825\H,0,5.
 421404653,0.2855079322,-1.2765280001\H,0,5.9123898064,1.5358331114,-0.
 5422277974\H,0,-2.967592977,-0.0275049602,-0.5148018777\H,0,0.49777700
 83,1.8384236863,-0.5164890944\H,0,-1.6184765835,-4.508515422,-1.263595
 8694\H,0,-2.7306431753,-3.7242130077,-2.3155396871\H,0,-0.9298181617,-
 4.3224993187,-2.7757931686\H,0,-2.3294253288,-3.4270324339,0.404173082
 5\H,0,1.2201628456,-4.9616788662,-0.9125666466\H,0,2.4545215566,-5.204
 7345804,-1.8682922111\H,0,4.8773129643,-0.9556867321,0.8684765838\H,0,
 5.2788422296,0.5888749262,1.8755853616\H,0,4.1573062562,4.855966013,0.
 3729159198\H,0,5.6754906408,3.6181693501,0.3070264922\H,0,4.773224355,
 3.5280482769,2.0463403509\H,0,1.9866594445,4.8230314805,0.7015912343\H
 ,0,-7.9234739157,-3.0587109546,1.4649877684\H,0,-6.7510391678,-4.62566
 8949,1.3359794383\H,0,-6.7811238094,-3.7298604021,-0.1526531769\H,0,-6
 .8371682391,-0.4612470332,0.8290209032\H,0,-4.3867776499,1.0720120221,
 0.0659193306\H,0,-6.1682852059,1.6463837134,-0.7183561517\H,0,-4.85350
 46625,0.4339635586,-1.44945171\H,0,-3.5755695425,6.4096753726,0.465233
 3998\H,0,-4.3825196902,4.9568580177,0.6459406204\H,0,-0.1853176763,6.4
 51375703,1.8475245941\H,0,-1.4797840887,7.2616396187,0.7570750592\H,0,
 0.1219313611,6.8756198477,0.0464556027\H,0,-3.618869794,6.1036979955,-
 2.0282470272\H,0,-5.3038630935,5.8459377099,-1.4196418414\H,0,-4.18420
 18971,4.4939095613,-1.8426437724\H,0,3.7426726678,-4.5688030928,1.4156
 823506\H,0,7.8951275374,-1.9465940484,2.0641637994\\Version=ES64L-G16R
 evA.03\State=1-A\HF=-1948.9857378\RMSD=4.530e-09\PG=C01 [X(C33H38N4O6)
 ]\\@


 LOGIC IS A SYSTEMATIC METHOD OF COMING TO THE
 WRONG CONCLUSION WITH CONFIDENCE.
 Job cpu time:       0 days  3 hours 46 minutes 59.7 seconds.
 Elapsed time:       0 days  2 hours 32 minutes 32.6 seconds.
 File lengths (MBytes):  RWF=   2591 Int=      0 D2E=      0 Chk=     65 Scr=      1
 Normal termination of Gaussian 16 at Sun Jun 30 01:56:16 2019.
