 Entering Gaussian System, Link 0=g16
 Input=Geometria-17-.com
 Output=Geometria-17-.log
 Initial command:
 /usr/local/g16/l1.exe "/home/padawan/israel-mol/phycocyanobilin/spectra/emi/Gau-15108.inp" -scrdir="/home/padawan/israel-mol/phycocyanobilin/spectra/emi/"
 Entering Link 1 = /usr/local/g16/l1.exe PID=     15110.
  
 Copyright (c) 1988,1990,1992,1993,1995,1998,2003,2009,2016,
            Gaussian, Inc.  All Rights Reserved.
  
 This is part of the Gaussian(R) 16 program.  It is based on
 the Gaussian(R) 09 system (copyright 2009, Gaussian, Inc.),
 the Gaussian(R) 03 system (copyright 2003, Gaussian, Inc.),
 the Gaussian(R) 98 system (copyright 1998, Gaussian, Inc.),
 the Gaussian(R) 94 system (copyright 1995, Gaussian, Inc.),
 the Gaussian 92(TM) system (copyright 1992, Gaussian, Inc.),
 the Gaussian 90(TM) system (copyright 1990, Gaussian, Inc.),
 the Gaussian 88(TM) system (copyright 1988, Gaussian, Inc.),
 the Gaussian 86(TM) system (copyright 1986, Carnegie Mellon
 University), and the Gaussian 82(TM) system (copyright 1983,
 Carnegie Mellon University). Gaussian is a federally registered
 trademark of Gaussian, Inc.
  
 This software contains proprietary and confidential information,
 including trade secrets, belonging to Gaussian, Inc.
  
 This software is provided under written license and may be
 used, copied, transmitted, or stored only in accord with that
 written license.
  
 The following legend is applicable only to US Government
 contracts under FAR:
  
                    RESTRICTED RIGHTS LEGEND
  
 Use, reproduction and disclosure by the US Government is
 subject to restrictions as set forth in subparagraphs (a)
 and (c) of the Commercial Computer Software - Restricted
 Rights clause in FAR 52.227-19.
  
 Gaussian, Inc.
 340 Quinnipiac St., Bldg. 40, Wallingford CT 06492
  
  
 ---------------------------------------------------------------
 Warning -- This program may not be used in any manner that
 competes with the business of Gaussian, Inc. or will provide
 assistance to any competitor of Gaussian, Inc.  The licensee
 of this program is prohibited from giving any competitor of
 Gaussian, Inc. access to this program.  By using this program,
 the user acknowledges that Gaussian, Inc. is engaged in the
 business of creating and licensing software in the field of
 computational chemistry and represents and warrants to the
 licensee that it is not a competitor of Gaussian, Inc. and that
 it will not use this program in any manner prohibited above.
 ---------------------------------------------------------------
  

 Cite this work as:
 Gaussian 16, Revision A.03,
 M. J. Frisch, G. W. Trucks, H. B. Schlegel, G. E. Scuseria, 
 M. A. Robb, J. R. Cheeseman, G. Scalmani, V. Barone, 
 G. A. Petersson, H. Nakatsuji, X. Li, M. Caricato, A. V. Marenich, 
 J. Bloino, B. G. Janesko, R. Gomperts, B. Mennucci, H. P. Hratchian, 
 J. V. Ortiz, A. F. Izmaylov, J. L. Sonnenberg, D. Williams-Young, 
 F. Ding, F. Lipparini, F. Egidi, J. Goings, B. Peng, A. Petrone, 
 T. Henderson, D. Ranasinghe, V. G. Zakrzewski, J. Gao, N. Rega, 
 G. Zheng, W. Liang, M. Hada, M. Ehara, K. Toyota, R. Fukuda, 
 J. Hasegawa, M. Ishida, T. Nakajima, Y. Honda, O. Kitao, H. Nakai, 
 T. Vreven, K. Throssell, J. A. Montgomery, Jr., J. E. Peralta, 
 F. Ogliaro, M. J. Bearpark, J. J. Heyd, E. N. Brothers, K. N. Kudin, 
 V. N. Staroverov, T. A. Keith, R. Kobayashi, J. Normand, 
 K. Raghavachari, A. P. Rendell, J. C. Burant, S. S. Iyengar, 
 J. Tomasi, M. Cossi, J. M. Millam, M. Klene, C. Adamo, R. Cammi, 
 J. W. Ochterski, R. L. Martin, K. Morokuma, O. Farkas, 
 J. B. Foresman, and D. J. Fox, Gaussian, Inc., Wallingford CT, 2016.
 
 ******************************************
 Gaussian 16:  ES64L-G16RevA.03 25-Dec-2016
                26-Jun-2019 
 ******************************************
 %nproc=4
 Will use up to    4 processors via shared memory.
 %Mem=2GB
 --------------------------
 # td=(NStates=1) B3LYP/SVP
 --------------------------
 1/38=1,172=1/1;
 2/12=2,17=6,18=5,40=1/2;
 3/5=18,7=101,11=9,25=1,30=1,74=-5/1,2,3,8;
 4//1;
 5/5=2,38=5/2;
 8/6=1,10=1,108=1/1;
 9/41=1,42=1,70=2/14;
 6/7=2,8=2,9=2,10=2/1;
 99/5=1,9=1/99;
 --
 TD
 --
 Symbolic Z-matrix:
 Charge =  0 Multiplicity = 1
 8                    -4.02892  -4.80476   1.92837 
 8                     2.93655  -4.92169   1.02267 
 8                     6.94056  -1.48213   2.0576 
 8                     3.71697  -3.12748  -0.04503 
 8                     7.59054  -0.53508   0.01966 
 8                    -3.09699   2.45381  -0.46588 
 7                    -0.2826   -0.44588  -0.61742 
 7                     1.535     1.77654  -0.28393 
 7                    -3.26789  -3.08722   0.63875 
 7                    -0.82998   2.94988  -0.05216 
 6                     0.57195  -2.42041  -1.45359 
 6                     0.90733  -1.08057  -0.96494 
 6                    -0.74427  -2.6076   -1.28835 
 6                    -1.30581  -1.37417  -0.79491 
 6                     3.71418   1.51766  -0.32417 
 6                     2.49449   0.81182  -0.56543 
 6                     2.2424   -0.45164  -0.93364 
 6                     3.55231   2.81003   0.08023 
 6                     1.65611  -3.33026  -2.0805 
 6                    -5.48179  -2.84523   1.24814 
 6                    -3.66167  -1.91252   0.06391 
 6                     2.08258   3.06795  -0.02578 
 6                    -4.95202  -1.62205   0.46796 
 6                     5.09904   0.75866  -0.40578 
 6                    -2.66538  -1.01055  -0.44919 
 6                    -1.59581  -3.83245  -1.65415 
 6                    -4.23204  -3.7784    1.33075 
 6                     2.04508  -4.5437   -1.0633 
 6                     5.37748  -0.09239   0.7674 
 6                     4.43642   3.80547   0.50186 
 6                     1.23729   4.12185   0.38066 
 6                    -6.59305  -3.62562   0.72948 
 6                    -5.7931   -0.54273   0.30421 
 6                    -0.09331   4.07099   0.25507 
 6                    -1.06412   5.18476   0.4457 
 6                    -2.29056   4.74833   0.17329 
 6                     3.02914  -4.10683   0.01381 
 6                    -5.37979   0.78172  -0.35565 
 6                     6.76492  -0.73806   0.91606 
 6                    -3.57707   5.403     0.17805 
 6                    -2.17536   3.23525  -0.12641 
 6                    -0.64077   6.50188   0.95815 
 6                    -4.35647   5.26509  -1.17741 
 1                    -0.41569   0.44419  -0.34059 
 1                     3.0414   -1.1436   -1.0043 
 1                     2.53243  -2.68551  -2.59529 
 1                     1.08022  -3.7147   -2.70956 
 1                    -5.65893  -2.34577   2.3381 
 1                     5.14363   0.28669  -1.39467 
 1                     5.83966   1.53684  -0.73102 
 1                    -2.88517   0.1104   -0.77813 
 1                     0.35814   1.97913  -0.44845 
 1                    -1.36009  -4.70916  -1.18164 
 1                    -2.57015  -3.65308  -1.58063 
 1                    -1.38744  -4.13932  -2.96767 
 1                    -2.47086  -3.6278    0.5011 
 1                     1.09068  -4.91113  -0.52905 
 1                     2.5287   -5.23827  -1.72726 
 1                     4.62582  -0.90225   0.88391 
 1                     5.42711   0.46279   1.76648 
 1                     4.1459    4.91889   0.21276 
 1                     5.37368   3.5569   -0.08339 
 1                     4.41722   4.00339   1.59528 
 1                     1.6333    5.07979   0.73866 
 1                    -7.59088  -3.1138    0.91464 
 1                    -6.68149  -4.61308   1.46919 
 1                    -6.35235  -3.76744  -0.39466 
 1                    -6.81638  -0.3719    0.69776 
 1                    -4.58614   1.36752   0.1821 
 1                    -6.39873   1.50386  -0.58465 
 1                    -4.90803   0.50136  -1.36428 
 1                    -3.55562   6.39237   0.39299 
 1                    -4.07755   4.89531   1.31809 
 1                    -0.01964   6.44462   1.91007 
 1                    -1.58721   7.11743   1.08296 
 1                     0.06873   6.97038   0.28975 
 1                    -3.90356   5.85968  -2.06766 
 1                    -5.21908   5.85422  -0.85904 
 1                    -4.45      4.21499  -1.39887 
 1                     3.6991   -4.75047   1.6202 
 1                     7.8955   -1.95047   1.86171 
 
 Stoichiometry    C33H38N4O6
 Framework group  C1[X(C33H38N4O6)]
 Deg. of freedom   237
 Full point group                 C1      NOp   1
 Largest Abelian subgroup         C1      NOp   1
 Largest concise Abelian subgroup C1      NOp   1
                         Standard orientation:                         
 ---------------------------------------------------------------------
 Center     Atomic      Atomic             Coordinates (Angstroms)
 Number     Number       Type             X           Y           Z
 ---------------------------------------------------------------------
      1          8           0        3.969353   -4.843165   -1.956563
      2          8           0       -2.993705   -4.885756   -1.026087
      3          8           0       -6.963151   -1.399313   -2.037049
      4          8           0       -3.750436   -3.086046    0.049378
      5          8           0       -7.595341   -0.450884    0.005838
      6          8           0        3.126215    2.418502    0.461120
      7          7           0        0.280525   -0.450367    0.614773
      8          7           0       -1.513592    1.792903    0.293995
      9          7           0        3.231950   -3.120955   -0.659459
     10          7           0        0.863365    2.940714    0.056951
     11          6           0       -0.592786   -2.417688    1.448545
     12          6           0       -0.915093   -1.072856    0.964818
     13          6           0        0.720685   -2.618927    1.278047
     14          6           0        1.294052   -1.390387    0.786002
     15          6           0       -3.695338    1.557984    0.341369
     16          6           0       -2.482667    0.838049    0.576279
     17          6           0       -2.243233   -0.429151    0.940080
     18          6           0       -3.520644    2.849615   -0.060024
     19          6           0       -1.684680   -3.317279    2.076835
     20          6           0        5.446194   -2.901703   -1.276155
     21          6           0        3.640736   -1.952289   -0.082793
     22          6           0       -2.047792    3.090996    0.041403
     23          6           0        4.932761   -1.674948   -0.490684
     24          6           0       -5.088193    0.814084    0.425871
     25          6           0        2.656311   -1.040826    0.436394
     26          6           0        1.559945   -3.854127    1.637376
     27          6           0        4.185931   -3.820790   -1.356840
     28          6           0       -2.090663   -4.523489    1.057687
     29          6           0       -5.380210   -0.030541   -0.748649
     30          6           0       -4.395209    3.855935   -0.475712
     31          6           0       -1.192370    4.136640   -0.365166
     32          6           0        6.550619   -3.695761   -0.763667
     33          6           0        5.786293   -0.605440   -0.326975
     34          6           0        0.138027    4.070744   -0.244512
     35          6           0        1.120398    5.174264   -0.435561
     36          6           0        2.342905    4.723561   -0.168783
     37          6           0       -3.073684   -4.072761   -0.014650
     38          6           0        5.390003    0.721635    0.338030
     39          6           0       -6.775220   -0.660441   -0.894098
     40          6           0        3.636540    5.364009   -0.176366
     41          6           0        2.212068    3.211011    0.127140
     42          6           0        0.709798    6.497410   -0.942833
     43          6           0        4.419208    5.213699    1.175887
     44          1           0        0.422457    0.438954    0.339936
     45          1           0       -3.049573   -1.112447    1.011700
     46          1           0       -2.551985   -2.664341    2.596564
     47          1           0       -1.110830   -3.709808    2.702751
     48          1           0        5.624945   -2.401172   -2.365361
     49          1           0       -5.134461    0.339856    1.413605
     50          1           0       -5.819012    1.599476    0.755930
     51          1           0        2.889648    0.076700    0.767640
     52          1           0       -0.333986    1.982028    0.454834
     53          1           0        1.312870   -4.726844    1.163295
     54          1           0        2.535936   -3.685309    1.560842
     55          1           0        1.352899   -4.162366    2.950791
     56          1           0        2.429495   -3.653093   -0.520437
     57          1           0       -1.142299   -4.899928    0.518987
     58          1           0       -2.579553   -5.214536    1.721462
     59          1           0       -4.637964   -0.848321   -0.870109
     60          1           0       -5.427275    0.527957   -1.746007
     61          1           0       -4.091372    4.965263   -0.184576
     62          1           0       -5.333061    3.616081    0.112227
     63          1           0       -4.377731    4.056695   -1.568634
     64          1           0       -1.579052    5.099895   -0.719087
     65          1           0        7.553371   -3.194466   -0.951005
     66          1           0        6.625500   -4.682056   -1.506424
     67          1           0        6.312383   -3.838080    0.360935
     68          1           0        6.809982   -0.444807   -0.723737
     69          1           0        4.600952    1.317665   -0.195229
     70          1           0        6.417666    1.431836    0.565361
     71          1           0        4.918781    0.443664    1.347580
     72          1           0        3.625255    6.354157   -0.388481
     73          1           0        4.127308    4.854031   -1.319600
     74          1           0        0.084672    6.449682   -1.892659
     75          1           0        1.662528    7.102825   -1.069342
     76          1           0        0.007909    6.971836   -0.270580
     77          1           0        3.976082    5.810749    2.069412
     78          1           0        5.287139    5.794161    0.856042
     79          1           0        4.501927    4.162012    1.394102
     80          1           0       -3.756448   -4.704450   -1.620394
     81          1           0       -7.922497   -1.857643   -1.839021
 ---------------------------------------------------------------------
 Rotational constants (GHZ):           0.0755039           0.0559803           0.0344267
 Standard basis: SVP (5D, 7F)
 There are   835 symmetry adapted cartesian basis functions of A   symmetry.
 There are   792 symmetry adapted basis functions of A   symmetry.
   792 basis functions,  1341 primitive gaussians,   835 cartesian basis functions
   156 alpha electrons      156 beta electrons
       nuclear repulsion energy      5059.4446783598 Hartrees.
 NAtoms=   81 NActive=   81 NUniq=   81 SFac= 1.00D+00 NAtFMM=   60 NAOKFM=T Big=T
 Integral buffers will be    131072 words long.
 Regular integral format.
 Two-electron integral symmetry is turned on.
 One-electron integrals computed using PRISM.
 NBasis=   792 RedAO= T EigKep=  3.39D-04  NBF=   792
 NBsUse=   792 1.00D-06 EigRej= -1.00D+00 NBFU=   792
 ExpMin= 1.22D-01 ExpMax= 2.27D+03 ExpMxC= 3.41D+02 IAcc=3 IRadAn=         5 AccDes= 0.00D+00
 Harris functional with IExCor=  402 and IRadAn=       5 diagonalized for initial guess.
 HarFok:  IExCor=  402 AccDes= 0.00D+00 IRadAn=         5 IDoV= 1 UseB2=F ITyADJ=14
 ICtDFT=  3500011 ScaDFX=  1.000000  1.000000  1.000000  1.000000
 FoFCou: FMM=F IPFlag=           0 FMFlag=      100000 FMFlg1=        2001
         NFxFlg=           0 DoJE=T BraDBF=F KetDBF=T FulRan=T
         wScrn=  0.000000 ICntrl=       500 IOpCl=  0 I1Cent=   200000004 NGrid=           0
         NMat0=    1 NMatS0=      1 NMatT0=    0 NMatD0=    1 NMtDS0=    0 NMtDT0=    0
 Petite list used in FoFCou.
 Requested convergence on RMS density matrix=1.00D-08 within 128 cycles.
 Requested convergence on MAX density matrix=1.00D-06.
 Requested convergence on             energy=1.00D-06.
 No special actions if energy rises.
 Integral accuracy reduced to 1.0D-05 until final iterations.
 Initial convergence to 1.0D-05 achieved.  Increase integral accuracy.
 SCF Done:  E(RB3LYP) =  -1949.05970311     A.U. after   16 cycles
            NFock= 16  Conv=0.73D-08     -V/T= 2.0107
 DoSCS=F DFT=T ScalE2(SS,OS)=  1.000000  1.000000
 ExpMin= 1.22D-01 ExpMax= 2.27D+03 ExpMxC= 3.41D+02 IAcc=3 IRadAn=         5 AccDes= 0.00D+00
 HarFok:  IExCor=  205 AccDes= 0.00D+00 IRadAn=         5 IDoV=-2 UseB2=F ITyADJ=14
 ICtDFT= 12500011 ScaDFX=  1.000000  1.000000  1.000000  1.000000
 GSVD:  LWork=       -2193 too small for GESVD, short by        9890 words or        9890 for optimal perf.
 Range of M.O.s used for correlation:    44   792
 NBasis=   792 NAE=   156 NBE=   156 NFC=    43 NFV=     0
 NROrb=    749 NOA=   113 NOB=   113 NVA=   636 NVB=   636

 **** Warning!!: The smallest alpha delta epsilon is  0.67757466D-01

 Orbital symmetries:
       Occupied  (A) (A) (A) (A) (A) (A) (A) (A) (A) (A) (A) (A)
                 (A) (A) (A) (A) (A) (A) (A) (A) (A) (A) (A) (A)
                 (A) (A) (A) (A) (A) (A) (A) (A) (A) (A) (A) (A)
                 (A) (A) (A) (A) (A) (A) (A) (A) (A) (A) (A) (A)
                 (A) (A) (A) (A) (A) (A) (A) (A) (A) (A) (A) (A)
                 (A) (A) (A) (A) (A) (A) (A) (A) (A) (A) (A) (A)
                 (A) (A) (A) (A) (A) (A) (A) (A) (A) (A) (A) (A)
                 (A) (A) (A) (A) (A) (A) (A) (A) (A) (A) (A) (A)
                 (A) (A) (A) (A) (A) (A) (A) (A) (A) (A) (A) (A)
                 (A) (A) (A) (A) (A) (A) (A) (A) (A) (A) (A) (A)
                 (A) (A) (A) (A) (A) (A) (A) (A) (A) (A) (A) (A)
                 (A) (A) (A) (A) (A) (A) (A) (A) (A) (A) (A) (A)
                 (A) (A) (A) (A) (A) (A) (A) (A) (A) (A) (A) (A)
       Virtual   (A) (A) (A) (A) (A) (A) (A) (A) (A) (A) (A) (A)
                 (A) (A) (A) (A) (A) (A) (A) (A) (A) (A) (A) (A)
                 (A) (A) (A) (A) (A) (A) (A) (A) (A) (A) (A) (A)
                 (A) (A) (A) (A) (A) (A) (A) (A) (A) (A) (A) (A)
                 (A) (A) (A) (A) (A) (A) (A) (A) (A) (A) (A) (A)
                 (A) (A) (A) (A) (A) (A) (A) (A) (A) (A) (A) (A)
                 (A) (A) (A) (A) (A) (A) (A) (A) (A) (A) (A) (A)
                 (A) (A) (A) (A) (A) (A) (A) (A) (A) (A) (A) (A)
                 (A) (A) (A) (A) (A) (A) (A) (A) (A) (A) (A) (A)
                 (A) (A) (A) (A) (A) (A) (A) (A) (A) (A) (A) (A)
                 (A) (A) (A) (A) (A) (A) (A) (A) (A) (A) (A) (A)
                 (A) (A) (A) (A) (A) (A) (A) (A) (A) (A) (A) (A)
                 (A) (A) (A) (A) (A) (A) (A) (A) (A) (A) (A) (A)
                 (A) (A) (A) (A) (A) (A) (A) (A) (A) (A) (A) (A)
                 (A) (A) (A) (A) (A) (A) (A) (A) (A) (A) (A) (A)
                 (A) (A) (A) (A) (A) (A) (A) (A) (A) (A) (A) (A)
                 (A) (A) (A) (A) (A) (A) (A) (A) (A) (A) (A) (A)
                 (A) (A) (A) (A) (A) (A) (A) (A) (A) (A) (A) (A)
                 (A) (A) (A) (A) (A) (A) (A) (A) (A) (A) (A) (A)
                 (A) (A) (A) (A) (A) (A) (A) (A) (A) (A) (A) (A)
                 (A) (A) (A) (A) (A) (A) (A) (A) (A) (A) (A) (A)
                 (A) (A) (A) (A) (A) (A) (A) (A) (A) (A) (A) (A)
                 (A) (A) (A) (A) (A) (A) (A) (A) (A) (A) (A) (A)
                 (A) (A) (A) (A) (A) (A) (A) (A) (A) (A) (A) (A)
                 (A) (A) (A) (A) (A) (A) (A) (A) (A) (A) (A) (A)
                 (A) (A) (A) (A) (A) (A) (A) (A) (A) (A) (A) (A)
                 (A) (A) (A) (A) (A) (A) (A) (A) (A) (A) (A) (A)
                 (A) (A) (A) (A) (A) (A) (A) (A) (A) (A) (A) (A)
                 (A) (A) (A) (A) (A) (A) (A) (A) (A) (A) (A) (A)
                 (A) (A) (A) (A) (A) (A) (A) (A) (A) (A) (A) (A)
                 (A) (A) (A) (A) (A) (A) (A) (A) (A) (A) (A) (A)
                 (A) (A) (A) (A) (A) (A) (A) (A) (A) (A) (A) (A)
                 (A) (A) (A) (A) (A) (A) (A) (A) (A) (A) (A) (A)
                 (A) (A) (A) (A) (A) (A) (A) (A) (A) (A) (A) (A)
                 (A) (A) (A) (A) (A) (A) (A) (A) (A) (A) (A) (A)
                 (A) (A) (A) (A) (A) (A) (A) (A) (A) (A) (A) (A)
                 (A) (A) (A) (A) (A) (A) (A) (A) (A) (A) (A) (A)
                 (A) (A) (A) (A) (A) (A) (A) (A) (A) (A) (A) (A)
                 (A) (A) (A) (A) (A) (A) (A) (A) (A) (A) (A) (A)
                 (A) (A) (A) (A) (A) (A) (A) (A) (A) (A) (A) (A)
                 (A) (A) (A) (A) (A) (A) (A) (A) (A) (A) (A) (A)
                 (A) (A) (A) (A) (A) (A) (A) (A) (A) (A) (A) (A)
                 (A) (A) (A) (A) (A) (A) (A) (A) (A) (A) (A) (A)
                 (A) (A) (A) (A) (A) (A) (A) (A) (A) (A) (A) (A)
                 (A) (A) (A) (A) (A) (A) (A) (A) (A) (A) (A) (A)
                 (A) (A) (A) (A) (A) (A) (A) (A) (A) (A) (A) (A)
                 (A) (A) (A) (A) (A) (A) (A) (A) (A) (A) (A) (A)
                 (A) (A) (A) (A) (A) (A) (A) (A) (A) (A) (A) (A)
                 (A) (A) (A) (A) (A) (A) (A) (A) (A) (A) (A) (A)
                 (A) (A) (A) (A) (A) (A) (A) (A) (A) (A) (A) (A)
                 (A) (A) (A) (A) (A) (A) (A) (A) (A) (A) (A) (A)
                 (A) (A) (A) (A) (A) (A) (A) (A) (A) (A) (A) (A)
                 (A) (A) (A) (A) (A) (A) (A) (A) (A) (A) (A) (A)
     4 initial guesses have been made.
 Convergence on wavefunction:    0.001000000000000
 Iteration     1 Dimension     4 NMult     0 NNew      4
 CISAX will form     4 AO SS matrices at one time.
 Iteration     2 Dimension     6 NMult     4 NNew      2
 Iteration     3 Dimension     8 NMult     6 NNew      2
 Iteration     4 Dimension    10 NMult     8 NNew      2
 Iteration     5 Dimension    12 NMult    10 NNew      2
 Iteration     6 Dimension    14 NMult    12 NNew      2
 ***********************************************************************
 Excited states from <AA,BB:AA,BB> singles matrix:
 ***********************************************************************
 
 Ground to excited state transition densities written to RWF  633
 Ground to excited state transition electric dipole moments (Au):
       state          X           Y           Z        Dip. S.      Osc.
         1         1.3244     -2.3711      0.0647      7.3803      0.2970
 Ground to excited state transition velocity dipole moments (Au):
       state          X           Y           Z        Dip. S.      Osc.
         1        -0.0801      0.1388     -0.0053      0.0257      0.2840
 Ground to excited state transition magnetic dipole moments (Au):
       state          X           Y           Z
         1        -0.3340     -0.6242     -2.5625
 Ground to excited state transition velocity quadrupole moments (Au):
       state          XX          YY          ZZ          XY          XZ          YZ
         1        -0.4990      0.4484     -0.0523      0.3754      0.0876     -0.0245
 <0|del|b> * <b|rxdel|0> + <0|del|b> * <b|delr+rdel|0>
 Rotatory Strengths (R) in cgs (10**-40 erg-esu-cm/Gauss)
       state          XX          YY          ZZ    R(velocity)    E-M Angle
         1      -510.4076    260.0320   -291.0247   -180.4667       96.22
 1/2[<0|r|b>*<b|rxdel|0> + (<0|rxdel|b>*<b|r|0>)*]
 Rotatory Strengths (R) in cgs (10**-40 erg-esu-cm/Gauss)
       state          XX          YY          ZZ     R(length)
         1       312.8657  -1046.6344    117.1612   -205.5358
  1/2[<0|del|b>*<b|r|0> + (<0|r|b>*<b|del|0>)*] (Au)
       state          X           Y           Z        Dip. S.   Osc.(frdel)
         1        -0.1061     -0.3291     -0.0003      0.4356      0.2904

 Excitation energies and oscillator strengths:
 
 Excited State   1:      Singlet-A      1.6426 eV  754.79 nm  f=0.2970  <S**2>=0.000
     156 ->157         0.70997
     156 <-157        -0.11731
 This state for optimization and/or second-order correction.
 Total Energy, E(TD-HF/TD-DFT) =  -1948.99933721    
 Copying the excited state density for this state as the 1-particle RhoCI density.
 SavETr:  write IOETrn=   770 NScale= 10 NData=  16 NLR=1 NState=    1 LETran=      28.

 **********************************************************************

            Population analysis using the SCF density.

 **********************************************************************

 Orbital symmetries:
       Occupied  (A) (A) (A) (A) (A) (A) (A) (A) (A) (A) (A) (A)
                 (A) (A) (A) (A) (A) (A) (A) (A) (A) (A) (A) (A)
                 (A) (A) (A) (A) (A) (A) (A) (A) (A) (A) (A) (A)
                 (A) (A) (A) (A) (A) (A) (A) (A) (A) (A) (A) (A)
                 (A) (A) (A) (A) (A) (A) (A) (A) (A) (A) (A) (A)
                 (A) (A) (A) (A) (A) (A) (A) (A) (A) (A) (A) (A)
                 (A) (A) (A) (A) (A) (A) (A) (A) (A) (A) (A) (A)
                 (A) (A) (A) (A) (A) (A) (A) (A) (A) (A) (A) (A)
                 (A) (A) (A) (A) (A) (A) (A) (A) (A) (A) (A) (A)
                 (A) (A) (A) (A) (A) (A) (A) (A) (A) (A) (A) (A)
                 (A) (A) (A) (A) (A) (A) (A) (A) (A) (A) (A) (A)
                 (A) (A) (A) (A) (A) (A) (A) (A) (A) (A) (A) (A)
                 (A) (A) (A) (A) (A) (A) (A) (A) (A) (A) (A) (A)
       Virtual   (A) (A) (A) (A) (A) (A) (A) (A) (A) (A) (A) (A)
                 (A) (A) (A) (A) (A) (A) (A) (A) (A) (A) (A) (A)
                 (A) (A) (A) (A) (A) (A) (A) (A) (A) (A) (A) (A)
                 (A) (A) (A) (A) (A) (A) (A) (A) (A) (A) (A) (A)
                 (A) (A) (A) (A) (A) (A) (A) (A) (A) (A) (A) (A)
                 (A) (A) (A) (A) (A) (A) (A) (A) (A) (A) (A) (A)
                 (A) (A) (A) (A) (A) (A) (A) (A) (A) (A) (A) (A)
                 (A) (A) (A) (A) (A) (A) (A) (A) (A) (A) (A) (A)
                 (A) (A) (A) (A) (A) (A) (A) (A) (A) (A) (A) (A)
                 (A) (A) (A) (A) (A) (A) (A) (A) (A) (A) (A) (A)
                 (A) (A) (A) (A) (A) (A) (A) (A) (A) (A) (A) (A)
                 (A) (A) (A) (A) (A) (A) (A) (A) (A) (A) (A) (A)
                 (A) (A) (A) (A) (A) (A) (A) (A) (A) (A) (A) (A)
                 (A) (A) (A) (A) (A) (A) (A) (A) (A) (A) (A) (A)
                 (A) (A) (A) (A) (A) (A) (A) (A) (A) (A) (A) (A)
                 (A) (A) (A) (A) (A) (A) (A) (A) (A) (A) (A) (A)
                 (A) (A) (A) (A) (A) (A) (A) (A) (A) (A) (A) (A)
                 (A) (A) (A) (A) (A) (A) (A) (A) (A) (A) (A) (A)
                 (A) (A) (A) (A) (A) (A) (A) (A) (A) (A) (A) (A)
                 (A) (A) (A) (A) (A) (A) (A) (A) (A) (A) (A) (A)
                 (A) (A) (A) (A) (A) (A) (A) (A) (A) (A) (A) (A)
                 (A) (A) (A) (A) (A) (A) (A) (A) (A) (A) (A) (A)
                 (A) (A) (A) (A) (A) (A) (A) (A) (A) (A) (A) (A)
                 (A) (A) (A) (A) (A) (A) (A) (A) (A) (A) (A) (A)
                 (A) (A) (A) (A) (A) (A) (A) (A) (A) (A) (A) (A)
                 (A) (A) (A) (A) (A) (A) (A) (A) (A) (A) (A) (A)
                 (A) (A) (A) (A) (A) (A) (A) (A) (A) (A) (A) (A)
                 (A) (A) (A) (A) (A) (A) (A) (A) (A) (A) (A) (A)
                 (A) (A) (A) (A) (A) (A) (A) (A) (A) (A) (A) (A)
                 (A) (A) (A) (A) (A) (A) (A) (A) (A) (A) (A) (A)
                 (A) (A) (A) (A) (A) (A) (A) (A) (A) (A) (A) (A)
                 (A) (A) (A) (A) (A) (A) (A) (A) (A) (A) (A) (A)
                 (A) (A) (A) (A) (A) (A) (A) (A) (A) (A) (A) (A)
                 (A) (A) (A) (A) (A) (A) (A) (A) (A) (A) (A) (A)
                 (A) (A) (A) (A) (A) (A) (A) (A) (A) (A) (A) (A)
                 (A) (A) (A) (A) (A) (A) (A) (A) (A) (A) (A) (A)
                 (A) (A) (A) (A) (A) (A) (A) (A) (A) (A) (A) (A)
                 (A) (A) (A) (A) (A) (A) (A) (A) (A) (A) (A) (A)
                 (A) (A) (A) (A) (A) (A) (A) (A) (A) (A) (A) (A)
                 (A) (A) (A) (A) (A) (A) (A) (A) (A) (A) (A) (A)
                 (A) (A) (A) (A) (A) (A) (A) (A) (A) (A) (A) (A)
                 (A) (A) (A) (A) (A) (A) (A) (A) (A) (A) (A) (A)
                 (A) (A) (A) (A) (A) (A) (A) (A) (A) (A) (A) (A)
                 (A) (A) (A) (A) (A) (A) (A) (A) (A) (A) (A) (A)
                 (A) (A) (A) (A) (A) (A) (A) (A) (A) (A) (A) (A)
                 (A) (A) (A) (A) (A) (A) (A) (A) (A) (A) (A) (A)
                 (A) (A) (A) (A) (A) (A) (A) (A) (A) (A) (A) (A)
                 (A) (A) (A) (A) (A) (A) (A) (A) (A) (A) (A) (A)
                 (A) (A) (A) (A) (A) (A) (A) (A) (A) (A) (A) (A)
                 (A) (A) (A) (A) (A) (A) (A) (A) (A) (A) (A) (A)
                 (A) (A) (A) (A) (A) (A) (A) (A) (A) (A) (A) (A)
                 (A) (A) (A) (A) (A) (A) (A) (A) (A) (A) (A) (A)
                 (A) (A) (A) (A) (A) (A) (A) (A) (A) (A) (A) (A)
 The electronic state is 1-A.
 Alpha  occ. eigenvalues --  -19.20762 -19.19883 -19.14290 -19.12549 -19.11476
 Alpha  occ. eigenvalues --  -19.10152 -14.37592 -14.36770 -14.34591 -14.29373
 Alpha  occ. eigenvalues --  -10.33444 -10.32213 -10.28844 -10.26862 -10.24834
 Alpha  occ. eigenvalues --  -10.24085 -10.23972 -10.23418 -10.22503 -10.22313
 Alpha  occ. eigenvalues --  -10.22182 -10.21054 -10.20934 -10.20904 -10.20787
 Alpha  occ. eigenvalues --  -10.20778 -10.20496 -10.20432 -10.20175 -10.20166
 Alpha  occ. eigenvalues --  -10.20088 -10.20005 -10.19987 -10.19977 -10.19850
 Alpha  occ. eigenvalues --  -10.19631 -10.19527 -10.19467 -10.18904 -10.18541
 Alpha  occ. eigenvalues --  -10.18462 -10.18014 -10.17925  -1.13330  -1.07765
 Alpha  occ. eigenvalues --   -1.04611  -1.03412  -0.99693  -0.99487  -0.98131
 Alpha  occ. eigenvalues --   -0.96813  -0.95198  -0.91307  -0.82888  -0.81958
 Alpha  occ. eigenvalues --   -0.81338  -0.81219  -0.79803  -0.78902  -0.77614
 Alpha  occ. eigenvalues --   -0.77440  -0.76656  -0.75028  -0.73903  -0.72875
 Alpha  occ. eigenvalues --   -0.71393  -0.70348  -0.70083  -0.68404  -0.67325
 Alpha  occ. eigenvalues --   -0.66294  -0.65344  -0.63210  -0.62553  -0.62429
 Alpha  occ. eigenvalues --   -0.61120  -0.59245  -0.58731  -0.57611  -0.56981
 Alpha  occ. eigenvalues --   -0.55609  -0.55494  -0.54482  -0.54038  -0.52553
 Alpha  occ. eigenvalues --   -0.52272  -0.51691  -0.51077  -0.50516  -0.49729
 Alpha  occ. eigenvalues --   -0.49084  -0.48877  -0.48350  -0.48088  -0.47690
 Alpha  occ. eigenvalues --   -0.47296  -0.46732  -0.46131  -0.45727  -0.45457
 Alpha  occ. eigenvalues --   -0.45006  -0.44849  -0.44270  -0.44042  -0.43675
 Alpha  occ. eigenvalues --   -0.43385  -0.43245  -0.43076  -0.42901  -0.42398
 Alpha  occ. eigenvalues --   -0.42130  -0.41789  -0.41500  -0.41113  -0.40742
 Alpha  occ. eigenvalues --   -0.40324  -0.40123  -0.39827  -0.39685  -0.39547
 Alpha  occ. eigenvalues --   -0.39123  -0.38747  -0.38733  -0.38382  -0.38112
 Alpha  occ. eigenvalues --   -0.37964  -0.37474  -0.37026  -0.36892  -0.36537
 Alpha  occ. eigenvalues --   -0.36141  -0.35742  -0.35446  -0.35056  -0.34693
 Alpha  occ. eigenvalues --   -0.34600  -0.33406  -0.33187  -0.33025  -0.32864
 Alpha  occ. eigenvalues --   -0.32348  -0.31712  -0.30910  -0.29893  -0.29252
 Alpha  occ. eigenvalues --   -0.27251  -0.27031  -0.26481  -0.26327  -0.25973
 Alpha  occ. eigenvalues --   -0.25073  -0.24287  -0.24052  -0.22802  -0.21708
 Alpha  occ. eigenvalues --   -0.17392
 Alpha virt. eigenvalues --   -0.10616  -0.05917  -0.04191  -0.00701  -0.00031
 Alpha virt. eigenvalues --    0.00380   0.01736   0.01960   0.02298   0.03190
 Alpha virt. eigenvalues --    0.03834   0.04048   0.04699   0.04950   0.05799
 Alpha virt. eigenvalues --    0.06328   0.06672   0.06951   0.07721   0.07875
 Alpha virt. eigenvalues --    0.08174   0.08334   0.08542   0.08960   0.09448
 Alpha virt. eigenvalues --    0.10100   0.10213   0.10407   0.10896   0.11245
 Alpha virt. eigenvalues --    0.11811   0.11888   0.12080   0.12343   0.12711
 Alpha virt. eigenvalues --    0.13400   0.13466   0.13630   0.14381   0.14717
 Alpha virt. eigenvalues --    0.14972   0.15360   0.15448   0.16101   0.16485
 Alpha virt. eigenvalues --    0.16999   0.17051   0.17347   0.17956   0.18027
 Alpha virt. eigenvalues --    0.18329   0.18944   0.19550   0.19760   0.19866
 Alpha virt. eigenvalues --    0.20267   0.20630   0.21169   0.21760   0.22245
 Alpha virt. eigenvalues --    0.22325   0.22500   0.23004   0.23565   0.23784
 Alpha virt. eigenvalues --    0.24288   0.25003   0.25272   0.25945   0.26202
 Alpha virt. eigenvalues --    0.26598   0.27183   0.27360   0.27743   0.28137
 Alpha virt. eigenvalues --    0.29064   0.29991   0.30475   0.30643   0.31330
 Alpha virt. eigenvalues --    0.31794   0.32854   0.32883   0.33844   0.34074
 Alpha virt. eigenvalues --    0.34469   0.34892   0.35235   0.36143   0.36624
 Alpha virt. eigenvalues --    0.36933   0.37575   0.37773   0.38722   0.38808
 Alpha virt. eigenvalues --    0.39326   0.39844   0.40164   0.40776   0.40818
 Alpha virt. eigenvalues --    0.41722   0.42053   0.42487   0.42825   0.43314
 Alpha virt. eigenvalues --    0.43605   0.43837   0.43892   0.44455   0.44802
 Alpha virt. eigenvalues --    0.45173   0.45491   0.45825   0.46054   0.46524
 Alpha virt. eigenvalues --    0.46650   0.46938   0.47535   0.47944   0.48249
 Alpha virt. eigenvalues --    0.48351   0.48627   0.48906   0.49371   0.49638
 Alpha virt. eigenvalues --    0.49990   0.50523   0.50880   0.50973   0.51710
 Alpha virt. eigenvalues --    0.51887   0.52095   0.52455   0.52754   0.53368
 Alpha virt. eigenvalues --    0.53489   0.53870   0.54362   0.54780   0.55139
 Alpha virt. eigenvalues --    0.55662   0.56195   0.56437   0.56514   0.56764
 Alpha virt. eigenvalues --    0.56963   0.57436   0.57766   0.58389   0.58451
 Alpha virt. eigenvalues --    0.58766   0.59022   0.59429   0.59748   0.59949
 Alpha virt. eigenvalues --    0.60370   0.60672   0.60893   0.60932   0.61209
 Alpha virt. eigenvalues --    0.61896   0.62302   0.62372   0.62924   0.63038
 Alpha virt. eigenvalues --    0.63474   0.63803   0.64007   0.64219   0.64396
 Alpha virt. eigenvalues --    0.64579   0.64739   0.65006   0.65388   0.65531
 Alpha virt. eigenvalues --    0.65811   0.65925   0.66216   0.66377   0.66979
 Alpha virt. eigenvalues --    0.67036   0.67209   0.67532   0.67669   0.67788
 Alpha virt. eigenvalues --    0.68089   0.68601   0.68882   0.69245   0.69496
 Alpha virt. eigenvalues --    0.69612   0.69904   0.70152   0.70626   0.70883
 Alpha virt. eigenvalues --    0.71044   0.71478   0.71618   0.72058   0.72610
 Alpha virt. eigenvalues --    0.72951   0.73278   0.73515   0.74181   0.74543
 Alpha virt. eigenvalues --    0.74835   0.75010   0.75364   0.75834   0.76182
 Alpha virt. eigenvalues --    0.76557   0.76820   0.77357   0.77922   0.78128
 Alpha virt. eigenvalues --    0.78204   0.78517   0.78853   0.79333   0.80069
 Alpha virt. eigenvalues --    0.80187   0.81012   0.81431   0.81831   0.82128
 Alpha virt. eigenvalues --    0.82815   0.83910   0.84598   0.84868   0.86054
 Alpha virt. eigenvalues --    0.86526   0.87014   0.87644   0.88685   0.89222
 Alpha virt. eigenvalues --    0.89560   0.90346   0.90965   0.91197   0.91833
 Alpha virt. eigenvalues --    0.92839   0.92932   0.94129   0.94293   0.94794
 Alpha virt. eigenvalues --    0.95174   0.95428   0.95796   0.96192   0.96992
 Alpha virt. eigenvalues --    0.97505   0.98115   0.98768   0.99472   1.00376
 Alpha virt. eigenvalues --    1.00875   1.01472   1.02603   1.03526   1.04077
 Alpha virt. eigenvalues --    1.04384   1.05375   1.05852   1.06168   1.06597
 Alpha virt. eigenvalues --    1.06761   1.08376   1.09561   1.10508   1.10768
 Alpha virt. eigenvalues --    1.11340   1.12171   1.12548   1.13209   1.13629
 Alpha virt. eigenvalues --    1.14403   1.14733   1.15937   1.16340   1.17059
 Alpha virt. eigenvalues --    1.17567   1.18053   1.19513   1.19867   1.20829
 Alpha virt. eigenvalues --    1.21561   1.22429   1.22766   1.23039   1.24581
 Alpha virt. eigenvalues --    1.24724   1.25170   1.25332   1.26059   1.26514
 Alpha virt. eigenvalues --    1.26816   1.27391   1.28092   1.28508   1.29390
 Alpha virt. eigenvalues --    1.29966   1.30549   1.30979   1.32050   1.32781
 Alpha virt. eigenvalues --    1.33618   1.34108   1.35139   1.35575   1.36507
 Alpha virt. eigenvalues --    1.37884   1.37962   1.38315   1.38730   1.39477
 Alpha virt. eigenvalues --    1.39967   1.40688   1.41704   1.42269   1.42747
 Alpha virt. eigenvalues --    1.43073   1.43654   1.44671   1.46184   1.46417
 Alpha virt. eigenvalues --    1.47101   1.47349   1.47428   1.48555   1.49141
 Alpha virt. eigenvalues --    1.49819   1.49918   1.50445   1.50908   1.51052
 Alpha virt. eigenvalues --    1.51403   1.51662   1.52849   1.53805   1.53941
 Alpha virt. eigenvalues --    1.54645   1.55223   1.55926   1.56569   1.56951
 Alpha virt. eigenvalues --    1.57227   1.58919   1.59359   1.59570   1.60140
 Alpha virt. eigenvalues --    1.60390   1.60835   1.61169   1.62239   1.62692
 Alpha virt. eigenvalues --    1.63180   1.63709   1.63913   1.64314   1.64780
 Alpha virt. eigenvalues --    1.65461   1.66030   1.66344   1.66930   1.67674
 Alpha virt. eigenvalues --    1.67896   1.68320   1.68971   1.69106   1.69724
 Alpha virt. eigenvalues --    1.69849   1.70326   1.70674   1.70728   1.71244
 Alpha virt. eigenvalues --    1.71851   1.72159   1.72945   1.73095   1.73551
 Alpha virt. eigenvalues --    1.73783   1.74199   1.74479   1.74797   1.75002
 Alpha virt. eigenvalues --    1.75231   1.75629   1.75928   1.76580   1.76947
 Alpha virt. eigenvalues --    1.77166   1.77626   1.77791   1.77936   1.78607
 Alpha virt. eigenvalues --    1.78919   1.78961   1.79295   1.80208   1.80393
 Alpha virt. eigenvalues --    1.80884   1.81027   1.81122   1.81686   1.82470
 Alpha virt. eigenvalues --    1.82729   1.83279   1.83582   1.83999   1.84642
 Alpha virt. eigenvalues --    1.84815   1.85961   1.86188   1.86675   1.86969
 Alpha virt. eigenvalues --    1.87464   1.87569   1.88319   1.88514   1.89331
 Alpha virt. eigenvalues --    1.90105   1.90547   1.90665   1.91428   1.91546
 Alpha virt. eigenvalues --    1.92166   1.92404   1.92838   1.93441   1.94329
 Alpha virt. eigenvalues --    1.95261   1.95701   1.96101   1.96179   1.96675
 Alpha virt. eigenvalues --    1.97262   1.97833   1.98147   1.98445   1.99004
 Alpha virt. eigenvalues --    1.99602   2.00108   2.00393   2.01175   2.02073
 Alpha virt. eigenvalues --    2.02350   2.02827   2.03286   2.03840   2.04461
 Alpha virt. eigenvalues --    2.04717   2.05366   2.06728   2.07039   2.07130
 Alpha virt. eigenvalues --    2.07336   2.08311   2.08649   2.09067   2.09257
 Alpha virt. eigenvalues --    2.09881   2.10070   2.11096   2.11362   2.11867
 Alpha virt. eigenvalues --    2.12318   2.13020   2.13225   2.13389   2.14177
 Alpha virt. eigenvalues --    2.14997   2.15821   2.16214   2.16337   2.18195
 Alpha virt. eigenvalues --    2.19088   2.20238   2.20566   2.20765   2.21451
 Alpha virt. eigenvalues --    2.21905   2.22361   2.22956   2.23346   2.25166
 Alpha virt. eigenvalues --    2.25329   2.26290   2.26484   2.27090   2.27648
 Alpha virt. eigenvalues --    2.28434   2.28960   2.29681   2.30721   2.31038
 Alpha virt. eigenvalues --    2.31614   2.32508   2.33553   2.34270   2.34328
 Alpha virt. eigenvalues --    2.34899   2.35225   2.35648   2.36355   2.37067
 Alpha virt. eigenvalues --    2.37312   2.37571   2.38799   2.39569   2.39822
 Alpha virt. eigenvalues --    2.40374   2.40791   2.42007   2.42565   2.42990
 Alpha virt. eigenvalues --    2.43401   2.44518   2.45579   2.45686   2.46418
 Alpha virt. eigenvalues --    2.47183   2.47482   2.48033   2.49896   2.50841
 Alpha virt. eigenvalues --    2.51505   2.52470   2.54450   2.54687   2.57064
 Alpha virt. eigenvalues --    2.57407   2.57673   2.58703   2.59381   2.60185
 Alpha virt. eigenvalues --    2.60665   2.61851   2.62226   2.63096   2.63438
 Alpha virt. eigenvalues --    2.63869   2.64067   2.64765   2.65439   2.66024
 Alpha virt. eigenvalues --    2.66728   2.67360   2.68036   2.68707   2.69425
 Alpha virt. eigenvalues --    2.69470   2.70843   2.71048   2.71360   2.71855
 Alpha virt. eigenvalues --    2.71962   2.72770   2.73529   2.74653   2.75348
 Alpha virt. eigenvalues --    2.75559   2.76432   2.76608   2.77212   2.78486
 Alpha virt. eigenvalues --    2.79235   2.79276   2.79479   2.79971   2.80180
 Alpha virt. eigenvalues --    2.81447   2.83160   2.84019   2.84639   2.85231
 Alpha virt. eigenvalues --    2.85338   2.86502   2.86974   2.87366   2.87997
 Alpha virt. eigenvalues --    2.88273   2.89721   2.90856   2.91725   2.92446
 Alpha virt. eigenvalues --    2.92724   2.93058   2.93807   2.94168   2.95414
 Alpha virt. eigenvalues --    2.96164   2.97415   2.99029   2.99808   3.00112
 Alpha virt. eigenvalues --    3.01444   3.02277   3.03710   3.04084   3.07354
 Alpha virt. eigenvalues --    3.07520   3.07893   3.08384   3.11453   3.12436
 Alpha virt. eigenvalues --    3.13603   3.14121   3.15220   3.16731   3.17480
 Alpha virt. eigenvalues --    3.18454   3.18960   3.20244   3.21093   3.21452
 Alpha virt. eigenvalues --    3.21865   3.24123   3.28108   3.29828   3.30924
 Alpha virt. eigenvalues --    3.36175   3.36209   3.38237   3.42910   3.50183
 Alpha virt. eigenvalues --    3.51152   3.54547   3.56872   3.58838   3.59812
 Alpha virt. eigenvalues --    3.63300   3.67577   3.68224   3.68652   3.69513
 Alpha virt. eigenvalues --    3.74419
          Condensed to atoms (all electrons):
 Mulliken charges:
               1
     1  O   -0.200483
     2  O   -0.135346
     3  O   -0.250174
     4  O   -0.209559
     5  O   -0.252298
     6  O   -0.268127
     7  N   -0.013364
     8  N   -0.271982
     9  N   -0.073063
    10  N   -0.335860
    11  C   -0.150933
    12  C    0.023232
    13  C   -0.156880
    14  C    0.034744
    15  C   -0.137343
    16  C    0.168627
    17  C   -0.044852
    18  C   -0.080539
    19  C    0.224265
    20  C   -0.119317
    21  C    0.121563
    22  C    0.103183
    23  C   -0.009035
    24  C    0.127104
    25  C   -0.133393
    26  C    0.108881
    27  C    0.098516
    28  C   -0.033606
    29  C    0.034204
    30  C    0.048631
    31  C   -0.103371
    32  C    0.022383
    33  C   -0.135841
    34  C    0.112435
    35  C   -0.085737
    36  C   -0.171984
    37  C    0.113447
    38  C   -0.053652
    39  C    0.150897
    40  C    0.034670
    41  C    0.199773
    42  C    0.096310
    43  C   -0.010905
    44  H    0.069796
    45  H   -0.002464
    46  H    0.053749
    47  H   -0.088392
    48  H    0.058325
    49  H    0.001808
    50  H   -0.006727
    51  H    0.079203
    52  H    0.231611
    53  H    0.012498
    54  H   -0.013557
    55  H    0.035921
    56  H    0.098521
    57  H    0.061594
    58  H    0.044826
    59  H    0.051538
    60  H    0.035035
    61  H    0.017389
    62  H    0.037333
    63  H    0.030503
    64  H   -0.035794
    65  H    0.024892
    66  H    0.055343
    67  H    0.035099
    68  H    0.012593
    69  H    0.097331
    70  H    0.019786
    71  H    0.039316
    72  H   -0.046466
    73  H    0.033120
    74  H    0.025354
    75  H    0.023486
    76  H    0.009229
    77  H    0.026786
    78  H    0.010306
    79  H    0.058047
    80  H    0.189659
    81  H    0.228182
 Sum of Mulliken charges =  -0.00000
 Mulliken charges with hydrogens summed into heavy atoms:
               1
     1  O   -0.200483
     2  O    0.054313
     3  O   -0.021992
     4  O   -0.209559
     5  O   -0.252298
     6  O   -0.268127
     7  N    0.056432
     8  N   -0.040371
     9  N    0.025457
    10  N   -0.335860
    11  C   -0.150933
    12  C    0.023232
    13  C   -0.156880
    14  C    0.034744
    15  C   -0.137343
    16  C    0.168627
    17  C   -0.047316
    18  C   -0.080539
    19  C    0.189622
    20  C   -0.060992
    21  C    0.121563
    22  C    0.103183
    23  C   -0.009035
    24  C    0.122185
    25  C   -0.054191
    26  C    0.143744
    27  C    0.098516
    28  C    0.072814
    29  C    0.120776
    30  C    0.133855
    31  C   -0.139165
    32  C    0.137717
    33  C   -0.123247
    34  C    0.112435
    35  C   -0.085737
    36  C   -0.171984
    37  C    0.113447
    38  C    0.102781
    39  C    0.150897
    40  C    0.021325
    41  C    0.199773
    42  C    0.154378
    43  C    0.084234
 Electronic spatial extent (au):  <R**2>=          30139.5020
 Charge=              0.0000 electrons
 Dipole moment (field-independent basis, Debye):
    X=             -2.9694    Y=             -0.5916    Z=             -0.4070  Tot=              3.0550
 Quadrupole moment (field-independent basis, Debye-Ang):
   XX=           -252.5581   YY=           -232.3879   ZZ=           -256.1053
   XY=             19.3943   XZ=             12.8500   YZ=            -13.6023
 Traceless Quadrupole moment (field-independent basis, Debye-Ang):
   XX=             -5.5410   YY=             14.6292   ZZ=             -9.0882
   XY=             19.3943   XZ=             12.8500   YZ=            -13.6023
 Octapole moment (field-independent basis, Debye-Ang**2):
  XXX=             10.6425  YYY=             88.8778  ZZZ=            -15.0192  XYY=           -186.1343
  XXY=            -78.6122  XXZ=           -120.7635  XZZ=            -60.6183  YZZ=            -18.7839
  YYZ=             28.9666  XYZ=            -60.4556
 Hexadecapole moment (field-independent basis, Debye-Ang**3):
 XXXX=         -22005.6306 YYYY=         -16209.1829 ZZZZ=          -1674.2361 XXXY=            874.7288
 XXXZ=            724.0674 YYYX=           1055.5784 YYYZ=           -352.4447 ZZZX=             70.5280
 ZZZY=             41.2247 XXYY=          -6139.3055 XXZZ=          -3892.7773 YYZZ=          -3098.2172
 XXYZ=            129.2809 YYXZ=            351.3503 ZZXY=            210.0246
 N-N= 5.059444678360D+03 E-N=-1.465032495941D+04  KE= 1.928414614063D+03
 1\1\GINC-PADAWAN\SP\RB3LYP TD-FC\SVP\C33H38N4O6\PADAWAN\27-Jun-2019\0\
 \# td=(NStates=1) B3LYP/SVP\\TD\\0,1\O,0,-4.0289244032,-4.8047648477,1
 .9283668651\O,0,2.9365476835,-4.9216934761,1.0226664039\O,0,6.94056036
 03,-1.4821254822,2.0575984393\O,0,3.7169667542,-3.1274807731,-0.045027
 8422\O,0,7.5905385905,-0.5350834034,0.0196559329\O,0,-3.0969852846,2.4
 538134321,-0.4658781492\N,0,-0.2825952542,-0.445878781,-0.6174187548\N
 ,0,1.5350019929,1.7765380863,-0.2839299706\N,0,-3.2678887779,-3.087219
 835,0.6387501936\N,0,-0.8299814938,2.949876137,-0.0521590617\C,0,0.571
 9494592,-2.4204099994,-1.4535876539\C,0,0.9073336357,-1.0805652882,-0.
 9649353424\C,0,-0.7442685556,-2.6075991221,-1.2883508978\C,0,-1.305811
 0031,-1.3741677282,-0.7949086209\C,0,3.7141798788,1.517664933,-0.32416
 66835\C,0,2.494491555,0.8118230078,-0.5654307281\C,0,2.2423994901,-0.4
 516424221,-0.9336428389\C,0,3.5523058707,2.8100308053,0.0802260129\C,0
 ,1.6561070158,-3.3302647278,-2.0804953951\C,0,-5.4817870854,-2.8452301
 379,1.2481420785\C,0,-3.6616700263,-1.9125162275,0.063912323\C,0,2.082
 5825704,3.0679467889,-0.0257849551\C,0,-4.9520178981,-1.622051169,0.46
 796084\C,0,5.0990351654,0.758660783,-0.4057795367\C,0,-2.6653813538,-1
 .0105496104,-0.4491913929\C,0,-1.595809243,-3.8324529984,-1.6541457314
 \C,0,-4.2320428727,-3.778402072,1.3307482004\C,0,2.0450756413,-4.54370
 3394,-1.0632955564\C,0,5.3774765501,-0.0923873622,0.7673992871\C,0,4.4
 364197033,3.8054733966,0.5018623865\C,0,1.2372924076,4.121846735,0.380
 6597866\C,0,-6.593053956,-3.6256173415,0.7294820103\C,0,-5.7930988905,
 -0.542730057,0.3042075877\C,0,-0.09330725,4.0709853483,0.2550673186\C,
 0,-1.0641215108,5.1847560093,0.4457030358\C,0,-2.2905585296,4.74832633
 4,0.1732932353\C,0,3.0291394959,-4.1068333535,0.0138090701\C,0,-5.3797
 916887,0.7817234609,-0.3556470295\C,0,6.7649163706,-0.7380592755,0.916
 0625045\C,0,-3.5770652494,5.4030013586,0.1780523159\C,0,-2.1753570873,
 3.2352484858,-0.1264084106\C,0,-0.6407746686,6.5018758576,0.9581548671
 \C,0,-4.3564652091,5.2650924659,-1.1774068322\H,0,-0.4156931542,0.4441
 912849,-0.3405937991\H,0,3.0414015012,-1.1436025015,-1.0043005175\H,0,
 2.5324331246,-2.6855101476,-2.5952860757\H,0,1.0802190281,-3.714695580
 5,-2.709559316\H,0,-5.6589276201,-2.345773202,2.3381043503\H,0,5.14362
 68752,0.2866880502,-1.3946698143\H,0,5.8396625337,1.5368432124,-0.7310
 166763\H,0,-2.8851747352,0.1103988302,-0.7781282103\H,0,0.3581430449,1
 .9791277567,-0.4484522907\H,0,-1.3600907449,-4.709155486,-1.1816376736
 \H,0,-2.5701471257,-3.653075894,-1.5806261957\H,0,-1.3874439243,-4.139
 3210009,-2.9676723565\H,0,-2.4708594722,-3.627802511,0.5011027755\H,0,
 1.0906798973,-4.9111338117,-0.5290482947\H,0,2.5286989743,-5.238267933
 7,-1.7272581077\H,0,4.6258178148,-0.9022513885,0.8839081269\H,0,5.4271
 070561,0.4627923179,1.7664844515\H,0,4.1458951151,4.9188923056,0.21275
 99042\H,0,5.3736804597,3.5569032235,-0.0833925497\H,0,4.4172187545,4.0
 033858107,1.5952752444\H,0,1.633304109,5.0797871561,0.7386649417\H,0,-
 7.5908806564,-3.1137964631,0.9146427339\H,0,-6.6814922131,-4.613077689
 9,1.4691927597\H,0,-6.3523509321,-3.7674441605,-0.3946573773\H,0,-6.81
 63761599,-0.3718980983,0.6977577769\H,0,-4.5861375859,1.3675215731,0.1
 821009488\H,0,-6.3987282502,1.5038594609,-0.5846527814\H,0,-4.90803011
 5,0.5013602982,-1.3642831931\H,0,-3.5556175473,6.3923736425,0.39298617
 51\H,0,-4.0775491931,4.8953118631,1.3180878351\H,0,-0.0196411086,6.444
 6150269,1.9100708487\H,0,-1.5872148318,7.1174251972,1.0829576475\H,0,0
 .0687260406,6.9703793236,0.2897499321\H,0,-3.9035582628,5.8596835941,-
 2.0676609686\H,0,-5.2190846157,5.854218538,-0.8590357808\H,0,-4.449998
 4767,4.2149916695,-1.3988693949\H,0,3.6990983103,-4.7504712596,1.62020
 28027\H,0,7.8954975744,-1.9504744364,1.8617135544\\Version=ES64L-G16Re
 vA.03\State=1-A\HF=-1949.0597031\RMSD=7.309e-09\PG=C01 [X(C33H38N4O6)]
 \\@


 THE MORE PROGRESS PHYSICAL SCIENCES MAKE, THE MORE THEY TEND TO ENTER
 THE DOMAIN OF MATHEMATICS, WHICH IS A KIND OF CENTRE TO WHICH THEY ALL
 CONVERGE.  WE MAY EVEN JUDGE THE DEGREE OF PERFECTION TO WHICH A 
 SCIENCE HAS ARRIVED BY THE FACILITY WITH WHICH IT MAY BE SUBMITTED
 TO CALCULATION.

                               -- ADOLPHE QUETELET, 1796-1874
 Job cpu time:       0 days  3 hours 42 minutes  6.2 seconds.
 Elapsed time:       0 days  2 hours 28 minutes  0.3 seconds.
 File lengths (MBytes):  RWF=   2591 Int=      0 D2E=      0 Chk=     65 Scr=      1
 Normal termination of Gaussian 16 at Thu Jun 27 01:51:32 2019.
