 Entering Gaussian System, Link 0=g16
 Input=Geometria-219-.com
 Output=Geometria-219-.log
 Initial command:
 /usr/local/g16/l1.exe "/home/padawan/israel-mol/phycocyanobilin/spectra/emi/Gau-4572.inp" -scrdir="/home/padawan/israel-mol/phycocyanobilin/spectra/emi/"
 Entering Link 1 = /usr/local/g16/l1.exe PID=      4574.
  
 Copyright (c) 1988,1990,1992,1993,1995,1998,2003,2009,2016,
            Gaussian, Inc.  All Rights Reserved.
  
 This is part of the Gaussian(R) 16 program.  It is based on
 the Gaussian(R) 09 system (copyright 2009, Gaussian, Inc.),
 the Gaussian(R) 03 system (copyright 2003, Gaussian, Inc.),
 the Gaussian(R) 98 system (copyright 1998, Gaussian, Inc.),
 the Gaussian(R) 94 system (copyright 1995, Gaussian, Inc.),
 the Gaussian 92(TM) system (copyright 1992, Gaussian, Inc.),
 the Gaussian 90(TM) system (copyright 1990, Gaussian, Inc.),
 the Gaussian 88(TM) system (copyright 1988, Gaussian, Inc.),
 the Gaussian 86(TM) system (copyright 1986, Carnegie Mellon
 University), and the Gaussian 82(TM) system (copyright 1983,
 Carnegie Mellon University). Gaussian is a federally registered
 trademark of Gaussian, Inc.
  
 This software contains proprietary and confidential information,
 including trade secrets, belonging to Gaussian, Inc.
  
 This software is provided under written license and may be
 used, copied, transmitted, or stored only in accord with that
 written license.
  
 The following legend is applicable only to US Government
 contracts under FAR:
  
                    RESTRICTED RIGHTS LEGEND
  
 Use, reproduction and disclosure by the US Government is
 subject to restrictions as set forth in subparagraphs (a)
 and (c) of the Commercial Computer Software - Restricted
 Rights clause in FAR 52.227-19.
  
 Gaussian, Inc.
 340 Quinnipiac St., Bldg. 40, Wallingford CT 06492
  
  
 ---------------------------------------------------------------
 Warning -- This program may not be used in any manner that
 competes with the business of Gaussian, Inc. or will provide
 assistance to any competitor of Gaussian, Inc.  The licensee
 of this program is prohibited from giving any competitor of
 Gaussian, Inc. access to this program.  By using this program,
 the user acknowledges that Gaussian, Inc. is engaged in the
 business of creating and licensing software in the field of
 computational chemistry and represents and warrants to the
 licensee that it is not a competitor of Gaussian, Inc. and that
 it will not use this program in any manner prohibited above.
 ---------------------------------------------------------------
  

 Cite this work as:
 Gaussian 16, Revision A.03,
 M. J. Frisch, G. W. Trucks, H. B. Schlegel, G. E. Scuseria, 
 M. A. Robb, J. R. Cheeseman, G. Scalmani, V. Barone, 
 G. A. Petersson, H. Nakatsuji, X. Li, M. Caricato, A. V. Marenich, 
 J. Bloino, B. G. Janesko, R. Gomperts, B. Mennucci, H. P. Hratchian, 
 J. V. Ortiz, A. F. Izmaylov, J. L. Sonnenberg, D. Williams-Young, 
 F. Ding, F. Lipparini, F. Egidi, J. Goings, B. Peng, A. Petrone, 
 T. Henderson, D. Ranasinghe, V. G. Zakrzewski, J. Gao, N. Rega, 
 G. Zheng, W. Liang, M. Hada, M. Ehara, K. Toyota, R. Fukuda, 
 J. Hasegawa, M. Ishida, T. Nakajima, Y. Honda, O. Kitao, H. Nakai, 
 T. Vreven, K. Throssell, J. A. Montgomery, Jr., J. E. Peralta, 
 F. Ogliaro, M. J. Bearpark, J. J. Heyd, E. N. Brothers, K. N. Kudin, 
 V. N. Staroverov, T. A. Keith, R. Kobayashi, J. Normand, 
 K. Raghavachari, A. P. Rendell, J. C. Burant, S. S. Iyengar, 
 J. Tomasi, M. Cossi, J. M. Millam, M. Klene, C. Adamo, R. Cammi, 
 J. W. Ochterski, R. L. Martin, K. Morokuma, O. Farkas, 
 J. B. Foresman, and D. J. Fox, Gaussian, Inc., Wallingford CT, 2016.
 
 ******************************************
 Gaussian 16:  ES64L-G16RevA.03 25-Dec-2016
                29-Jun-2019 
 ******************************************
 %nproc=4
 Will use up to    4 processors via shared memory.
 %Mem=2GB
 --------------------------
 # td=(NStates=1) B3LYP/SVP
 --------------------------
 1/38=1,172=1/1;
 2/12=2,17=6,18=5,40=1/2;
 3/5=18,7=101,11=9,25=1,30=1,74=-5/1,2,3,8;
 4//1;
 5/5=2,38=5/2;
 8/6=1,10=1,108=1/1;
 9/41=1,42=1,70=2/14;
 6/7=2,8=2,9=2,10=2/1;
 99/5=1,9=1/99;
 --
 TD
 --
 Symbolic Z-matrix:
 Charge =  0 Multiplicity = 1
 8                    -4.3054   -4.86389   1.73989 
 8                     3.02829  -4.76523   1.24461 
 8                     7.05098  -1.4342    1.8319 
 8                     3.78707  -3.16229  -0.0797 
 8                     7.6333   -0.38758  -0.0832 
 8                    -3.01652   2.36813  -0.39346 
 7                    -0.27936  -0.52171  -0.51123 
 7                     1.48046   1.74081  -0.21841 
 7                    -3.37666  -3.06542   0.57493 
 7                    -0.76351   2.84783   0.12897 
 6                     0.6895   -2.39571  -1.32992 
 6                     0.93656  -1.09265  -0.94198 
 6                    -0.78491  -2.61301  -1.31959 
 6                    -1.35634  -1.39294  -0.71008 
 6                     3.76495   1.51766  -0.32888 
 6                     2.5533    0.82278  -0.5454 
 6                     2.28836  -0.43246  -0.83799 
 6                     3.56503   2.76317   0.01756 
 6                     1.69311  -3.32007  -1.88767 
 6                    -5.55255  -2.81447   1.34789 
 6                    -3.6536   -1.79303   0.15062 
 6                     2.10943   2.99193   0.01855 
 6                    -5.08402  -1.55556   0.48748 
 6                     5.10293   0.80625  -0.47728 
 6                    -2.66884  -0.93974  -0.39603 
 6                    -1.51944  -3.84164  -1.78998 
 6                    -4.35686  -3.7099    1.30581 
 6                     2.13692  -4.49617  -0.99597 
 6                     5.36943  -0.13129   0.81301 
 6                     4.45135   3.96344   0.2158 
 6                     1.30992   4.07298   0.30532 
 6                    -6.86717  -3.4619    0.83058 
 6                    -5.84571  -0.49464   0.14606 
 6                    -0.12513   3.93024   0.41853 
 6                    -1.08412   5.10052   0.51355 
 6                    -2.24042   4.56381   0.36318 
 6                     3.0337   -4.09017   0.09862 
 6                    -5.55392   0.59952  -0.92485 
 6                     6.80608  -0.66772   0.73714 
 6                    -3.62964   5.21962   0.31176 
 6                    -2.20402   3.13221  -0.00215 
 6                    -0.69282   6.43949   0.89258 
 6                    -4.181     5.45311  -1.10013 
 1                    -0.35069   0.52902  -0.36326 
 1                     3.01192  -1.09698  -0.88212 
 1                     2.52619  -2.84182  -2.15034 
 1                     1.25494  -3.82887  -2.72583 
 1                    -5.6638   -2.34047   2.49072 
 1                     5.09405   0.33328  -1.41541 
 1                     5.95431   1.36482  -0.70436 
 1                    -3.11039  -0.04457  -0.60094 
 1                     0.54326   1.78602  -0.57662 
 1                    -1.41341  -4.86685  -1.31325 
 1                    -2.59707  -3.50266  -1.82256 
 1                    -1.09162  -3.83794  -2.77946 
 1                    -2.43276  -3.44277   0.25426 
 1                     1.29815  -4.88459  -0.59221 
 1                     2.78474  -5.33429  -1.4339 
 1                     4.71248  -1.11525   0.94342 
 1                     5.34252   0.38552   1.70555 
 1                     4.11888   4.76398  -0.49038 
 1                     5.64885   3.96072   0.24099 
 1                     4.28835   4.57139   1.10277 
 1                     1.95045   5.16628   0.44775 
 1                    -7.62143  -2.73381   0.73597 
 1                    -7.13289  -4.42597   1.29916 
 1                    -6.67706  -3.78627  -0.18589 
 1                    -6.91203  -0.27618   0.41657 
 1                    -4.90867   1.29184  -0.3209 
 1                    -6.26099   1.16049  -1.29688 
 1                    -4.67483   0.04614  -1.72875 
 1                    -3.59873   6.02365   0.84529 
 1                    -4.22067   4.53242   1.00352 
 1                     0.00535   6.33168   1.77756 
 1                    -1.54458   7.1064    1.47741 
 1                    -0.34198   6.79505   0.06927 
 1                    -3.50679   6.04283  -1.818 
 1                    -5.15888   6.14673  -1.02428 
 1                    -4.4379    4.48906  -1.55871 
 1                     3.7211   -4.36492   1.79428 
 1                     7.9921   -1.66057   1.75383 
 
 Stoichiometry    C33H38N4O6
 Framework group  C1[X(C33H38N4O6)]
 Deg. of freedom   237
 Full point group                 C1      NOp   1
 Largest Abelian subgroup         C1      NOp   1
 Largest concise Abelian subgroup C1      NOp   1
                         Standard orientation:                         
 ---------------------------------------------------------------------
 Center     Atomic      Atomic             Coordinates (Angstroms)
 Number     Number       Type             X           Y           Z
 ---------------------------------------------------------------------
      1          8           0        4.397070   -4.776955   -1.757129
      2          8           0       -2.937363   -4.818688   -1.264806
      3          8           0       -7.022166   -1.562567   -1.843410
      4          8           0       -3.726868   -3.234585    0.064198
      5          8           0       -7.624934   -0.533196    0.074712
      6          8           0        2.970692    2.422620    0.398368
      7          7           0        0.288689   -0.518871    0.505833
      8          7           0       -1.513533    1.710845    0.219348
      9          7           0        3.434000   -3.000064   -0.586941
     10          7           0        0.709214    2.861222   -0.123554
     11          6           0       -0.644844   -2.413447    1.318194
     12          6           0       -0.916372   -1.114079    0.934250
     13          6           0        0.833423   -2.602768    1.307846
     14          6           0        1.381883   -1.370185    0.702425
     15          6           0       -3.793441    1.444146    0.328093
     16          6           0       -2.568930    0.771645    0.542969
     17          6           0       -2.280395   -0.479275    0.831734
     18          6           0       -3.616992    2.694294   -0.014338
     19          6           0       -1.630990   -3.358397    1.872590
     20          6           0        5.605052   -2.705537   -1.358138
     21          6           0        3.686640   -1.724010   -0.158508
     22          6           0       -2.165981    2.950570   -0.013961
     23          6           0        5.112440   -1.458446   -0.493985
     24          6           0       -5.117761    0.707064    0.473661
     25          6           0        2.685696   -0.891238    0.390381
     26          6           0        1.590897   -3.818754    1.774694
     27          6           0        4.426501   -3.623566   -1.319399
     28          6           0       -2.052118   -4.539866    0.977003
     29          6           0       -5.365969   -0.231279   -0.819689
     30          6           0       -4.525802    3.878193   -0.209202
     31          6           0       -1.386973    4.047461   -0.296978
     32          6           0        6.931490   -3.329598   -0.842281
     33          6           0        5.853782   -0.384370   -0.148891
     34          6           0        0.050566    3.932267   -0.409999
     35          6           0        0.987270    5.120780   -0.500909
     36          6           0        2.153465    4.605582   -0.351715
     37          6           0       -2.955996   -4.147470   -0.116701
     38          6           0        5.540914    0.700681    0.925328
     39          6           0       -6.792241   -0.795044   -0.746146
     40          6           0        3.529998    5.287411   -0.297609
     41          6           0        2.144027    3.172406    0.009095
     42          6           0        0.570836    6.453293   -0.875901
     43          6           0        4.076293    5.526843    1.115248
     44          1           0        0.340165    0.533478    0.361196
     45          1           0       -2.991257   -1.157505    0.873448
     46          1           0       -2.473077   -2.896824    2.136397
     47          1           0       -1.183586   -3.861444    2.709346
     48          1           0        5.707743   -2.225923   -2.499421
     49          1           0       -5.100298    0.231400    1.410308
     50          1           0       -5.979658    1.248700    0.702124
     51          1           0        3.110137    0.011485    0.598304
     52          1           0       -0.577500    1.772651    0.578107
     53          1           0        1.504471   -4.844278    1.294698
     54          1           0        2.661903   -3.459538    1.808820
     55          1           0        1.162705   -3.826268    2.763994
     56          1           0        2.497285   -3.396228   -0.267873
     57          1           0       -1.205986   -4.911068    0.572403
     58          1           0       -2.684125   -5.391473    1.412008
     59          1           0       -4.690461   -1.202213   -0.952899
     60          1           0       -5.348506    0.288764   -1.710583
     61          1           0       -4.208819    4.682651    0.499643
     62          1           0       -5.723023    3.852891   -0.234930
     63          1           0       -4.373993    4.491915   -1.094176
     64          1           0       -2.048025    5.128878   -0.436249
     65          1           0        7.671798   -2.587660   -0.745050
     66          1           0        7.215588   -4.286982   -1.313764
     67          1           0        6.747164   -3.660705    0.173078
     68          1           0        6.915871   -0.144918   -0.418237
     69          1           0        4.882907    1.382571    0.323266
     70          1           0        6.237100    1.273759    1.299434
     71          1           0        4.672145    0.128239    1.727089
     72          1           0        3.484081    6.092382   -0.828628
     73          1           0        4.134201    4.613697   -0.991263
     74          1           0       -0.124828    6.335080   -1.761525
     75          1           0        1.410045    7.138050   -1.458251
     76          1           0        0.213006    6.799554   -0.051633
     77          1           0        3.390764    6.101431    1.834665
     78          1           0        5.040897    6.239081    1.042017
     79          1           0        4.351219    4.566386    1.570906
     80          1           0       -3.637418   -4.429838   -1.813525
     81          1           0       -7.958859   -1.806951   -1.766477
 ---------------------------------------------------------------------
 Rotational constants (GHZ):           0.0775197           0.0547194           0.0342139
 Standard basis: SVP (5D, 7F)
 There are   835 symmetry adapted cartesian basis functions of A   symmetry.
 There are   792 symmetry adapted basis functions of A   symmetry.
   792 basis functions,  1341 primitive gaussians,   835 cartesian basis functions
   156 alpha electrons      156 beta electrons
       nuclear repulsion energy      5060.3974591911 Hartrees.
 NAtoms=   81 NActive=   81 NUniq=   81 SFac= 1.00D+00 NAtFMM=   60 NAOKFM=T Big=T
 Integral buffers will be    131072 words long.
 Regular integral format.
 Two-electron integral symmetry is turned on.
 One-electron integrals computed using PRISM.
 NBasis=   792 RedAO= T EigKep=  3.13D-04  NBF=   792
 NBsUse=   792 1.00D-06 EigRej= -1.00D+00 NBFU=   792
 ExpMin= 1.22D-01 ExpMax= 2.27D+03 ExpMxC= 3.41D+02 IAcc=3 IRadAn=         5 AccDes= 0.00D+00
 Harris functional with IExCor=  402 and IRadAn=       5 diagonalized for initial guess.
 HarFok:  IExCor=  402 AccDes= 0.00D+00 IRadAn=         5 IDoV= 1 UseB2=F ITyADJ=14
 ICtDFT=  3500011 ScaDFX=  1.000000  1.000000  1.000000  1.000000
 FoFCou: FMM=F IPFlag=           0 FMFlag=      100000 FMFlg1=        2001
         NFxFlg=           0 DoJE=T BraDBF=F KetDBF=T FulRan=T
         wScrn=  0.000000 ICntrl=       500 IOpCl=  0 I1Cent=   200000004 NGrid=           0
         NMat0=    1 NMatS0=      1 NMatT0=    0 NMatD0=    1 NMtDS0=    0 NMtDT0=    0
 Petite list used in FoFCou.
 Requested convergence on RMS density matrix=1.00D-08 within 128 cycles.
 Requested convergence on MAX density matrix=1.00D-06.
 Requested convergence on             energy=1.00D-06.
 No special actions if energy rises.
 Integral accuracy reduced to 1.0D-05 until final iterations.
 Initial convergence to 1.0D-05 achieved.  Increase integral accuracy.
 SCF Done:  E(RB3LYP) =  -1949.07252502     A.U. after   16 cycles
            NFock= 16  Conv=0.31D-08     -V/T= 2.0101
 DoSCS=F DFT=T ScalE2(SS,OS)=  1.000000  1.000000
 ExpMin= 1.22D-01 ExpMax= 2.27D+03 ExpMxC= 3.41D+02 IAcc=3 IRadAn=         5 AccDes= 0.00D+00
 HarFok:  IExCor=  205 AccDes= 0.00D+00 IRadAn=         5 IDoV=-2 UseB2=F ITyADJ=14
 ICtDFT= 12500011 ScaDFX=  1.000000  1.000000  1.000000  1.000000
 GSVD:  LWork=       -2193 too small for GESVD, short by        9890 words or        9890 for optimal perf.
 Range of M.O.s used for correlation:    44   792
 NBasis=   792 NAE=   156 NBE=   156 NFC=    43 NFV=     0
 NROrb=    749 NOA=   113 NOB=   113 NVA=   636 NVB=   636

 **** Warning!!: The smallest alpha delta epsilon is  0.77460400D-01

 Orbital symmetries:
       Occupied  (A) (A) (A) (A) (A) (A) (A) (A) (A) (A) (A) (A)
                 (A) (A) (A) (A) (A) (A) (A) (A) (A) (A) (A) (A)
                 (A) (A) (A) (A) (A) (A) (A) (A) (A) (A) (A) (A)
                 (A) (A) (A) (A) (A) (A) (A) (A) (A) (A) (A) (A)
                 (A) (A) (A) (A) (A) (A) (A) (A) (A) (A) (A) (A)
                 (A) (A) (A) (A) (A) (A) (A) (A) (A) (A) (A) (A)
                 (A) (A) (A) (A) (A) (A) (A) (A) (A) (A) (A) (A)
                 (A) (A) (A) (A) (A) (A) (A) (A) (A) (A) (A) (A)
                 (A) (A) (A) (A) (A) (A) (A) (A) (A) (A) (A) (A)
                 (A) (A) (A) (A) (A) (A) (A) (A) (A) (A) (A) (A)
                 (A) (A) (A) (A) (A) (A) (A) (A) (A) (A) (A) (A)
                 (A) (A) (A) (A) (A) (A) (A) (A) (A) (A) (A) (A)
                 (A) (A) (A) (A) (A) (A) (A) (A) (A) (A) (A) (A)
       Virtual   (A) (A) (A) (A) (A) (A) (A) (A) (A) (A) (A) (A)
                 (A) (A) (A) (A) (A) (A) (A) (A) (A) (A) (A) (A)
                 (A) (A) (A) (A) (A) (A) (A) (A) (A) (A) (A) (A)
                 (A) (A) (A) (A) (A) (A) (A) (A) (A) (A) (A) (A)
                 (A) (A) (A) (A) (A) (A) (A) (A) (A) (A) (A) (A)
                 (A) (A) (A) (A) (A) (A) (A) (A) (A) (A) (A) (A)
                 (A) (A) (A) (A) (A) (A) (A) (A) (A) (A) (A) (A)
                 (A) (A) (A) (A) (A) (A) (A) (A) (A) (A) (A) (A)
                 (A) (A) (A) (A) (A) (A) (A) (A) (A) (A) (A) (A)
                 (A) (A) (A) (A) (A) (A) (A) (A) (A) (A) (A) (A)
                 (A) (A) (A) (A) (A) (A) (A) (A) (A) (A) (A) (A)
                 (A) (A) (A) (A) (A) (A) (A) (A) (A) (A) (A) (A)
                 (A) (A) (A) (A) (A) (A) (A) (A) (A) (A) (A) (A)
                 (A) (A) (A) (A) (A) (A) (A) (A) (A) (A) (A) (A)
                 (A) (A) (A) (A) (A) (A) (A) (A) (A) (A) (A) (A)
                 (A) (A) (A) (A) (A) (A) (A) (A) (A) (A) (A) (A)
                 (A) (A) (A) (A) (A) (A) (A) (A) (A) (A) (A) (A)
                 (A) (A) (A) (A) (A) (A) (A) (A) (A) (A) (A) (A)
                 (A) (A) (A) (A) (A) (A) (A) (A) (A) (A) (A) (A)
                 (A) (A) (A) (A) (A) (A) (A) (A) (A) (A) (A) (A)
                 (A) (A) (A) (A) (A) (A) (A) (A) (A) (A) (A) (A)
                 (A) (A) (A) (A) (A) (A) (A) (A) (A) (A) (A) (A)
                 (A) (A) (A) (A) (A) (A) (A) (A) (A) (A) (A) (A)
                 (A) (A) (A) (A) (A) (A) (A) (A) (A) (A) (A) (A)
                 (A) (A) (A) (A) (A) (A) (A) (A) (A) (A) (A) (A)
                 (A) (A) (A) (A) (A) (A) (A) (A) (A) (A) (A) (A)
                 (A) (A) (A) (A) (A) (A) (A) (A) (A) (A) (A) (A)
                 (A) (A) (A) (A) (A) (A) (A) (A) (A) (A) (A) (A)
                 (A) (A) (A) (A) (A) (A) (A) (A) (A) (A) (A) (A)
                 (A) (A) (A) (A) (A) (A) (A) (A) (A) (A) (A) (A)
                 (A) (A) (A) (A) (A) (A) (A) (A) (A) (A) (A) (A)
                 (A) (A) (A) (A) (A) (A) (A) (A) (A) (A) (A) (A)
                 (A) (A) (A) (A) (A) (A) (A) (A) (A) (A) (A) (A)
                 (A) (A) (A) (A) (A) (A) (A) (A) (A) (A) (A) (A)
                 (A) (A) (A) (A) (A) (A) (A) (A) (A) (A) (A) (A)
                 (A) (A) (A) (A) (A) (A) (A) (A) (A) (A) (A) (A)
                 (A) (A) (A) (A) (A) (A) (A) (A) (A) (A) (A) (A)
                 (A) (A) (A) (A) (A) (A) (A) (A) (A) (A) (A) (A)
                 (A) (A) (A) (A) (A) (A) (A) (A) (A) (A) (A) (A)
                 (A) (A) (A) (A) (A) (A) (A) (A) (A) (A) (A) (A)
                 (A) (A) (A) (A) (A) (A) (A) (A) (A) (A) (A) (A)
                 (A) (A) (A) (A) (A) (A) (A) (A) (A) (A) (A) (A)
                 (A) (A) (A) (A) (A) (A) (A) (A) (A) (A) (A) (A)
                 (A) (A) (A) (A) (A) (A) (A) (A) (A) (A) (A) (A)
                 (A) (A) (A) (A) (A) (A) (A) (A) (A) (A) (A) (A)
                 (A) (A) (A) (A) (A) (A) (A) (A) (A) (A) (A) (A)
                 (A) (A) (A) (A) (A) (A) (A) (A) (A) (A) (A) (A)
                 (A) (A) (A) (A) (A) (A) (A) (A) (A) (A) (A) (A)
                 (A) (A) (A) (A) (A) (A) (A) (A) (A) (A) (A) (A)
                 (A) (A) (A) (A) (A) (A) (A) (A) (A) (A) (A) (A)
                 (A) (A) (A) (A) (A) (A) (A) (A) (A) (A) (A) (A)
                 (A) (A) (A) (A) (A) (A) (A) (A) (A) (A) (A) (A)
                 (A) (A) (A) (A) (A) (A) (A) (A) (A) (A) (A) (A)
     4 initial guesses have been made.
 Convergence on wavefunction:    0.001000000000000
 Iteration     1 Dimension     4 NMult     0 NNew      4
 CISAX will form     4 AO SS matrices at one time.
 Iteration     2 Dimension     6 NMult     4 NNew      2
 Iteration     3 Dimension     8 NMult     6 NNew      2
 Iteration     4 Dimension    10 NMult     8 NNew      2
 Iteration     5 Dimension    12 NMult    10 NNew      2
 Iteration     6 Dimension    14 NMult    12 NNew      2
 ***********************************************************************
 Excited states from <AA,BB:AA,BB> singles matrix:
 ***********************************************************************
 
 Ground to excited state transition densities written to RWF  633
 Ground to excited state transition electric dipole moments (Au):
       state          X           Y           Z        Dip. S.      Osc.
         1        -0.6521      1.9253     -0.1487      4.1543      0.1807
 Ground to excited state transition velocity dipole moments (Au):
       state          X           Y           Z        Dip. S.      Osc.
         1         0.0426     -0.1208      0.0094      0.0165      0.1686
 Ground to excited state transition magnetic dipole moments (Au):
       state          X           Y           Z
         1         0.2289      0.4676      1.8386
 Ground to excited state transition velocity quadrupole moments (Au):
       state          XX          YY          ZZ          XY          XZ          YZ
         1         0.3369     -0.4167      0.0408     -0.3169     -0.0458      0.0212
 <0|del|b> * <b|rxdel|0> + <0|del|b> * <b|delr+rdel|0>
 Rotatory Strengths (R) in cgs (10**-40 erg-esu-cm/Gauss)
       state          XX          YY          ZZ    R(velocity)    E-M Angle
         1      -258.6362    167.5770   -228.3252   -106.4615       96.89
 1/2[<0|r|b>*<b|rxdel|0> + (<0|rxdel|b>*<b|r|0>)*]
 Rotatory Strengths (R) in cgs (10**-40 erg-esu-cm/Gauss)
       state          XX          YY          ZZ     R(length)
         1       105.5753   -636.5848    193.3246   -112.5616
  1/2[<0|del|b>*<b|r|0> + (<0|r|b>*<b|del|0>)*] (Au)
       state          X           Y           Z        Dip. S.   Osc.(frdel)
         1        -0.0278     -0.2327     -0.0014      0.2618      0.1745

 Excitation energies and oscillator strengths:
 
 Excited State   1:      Singlet-A      1.7752 eV  698.40 nm  f=0.1807  <S**2>=0.000
     156 ->157         0.70461
 This state for optimization and/or second-order correction.
 Total Energy, E(TD-HF/TD-DFT) =  -1949.00728585    
 Copying the excited state density for this state as the 1-particle RhoCI density.
 SavETr:  write IOETrn=   770 NScale= 10 NData=  16 NLR=1 NState=    1 LETran=      28.

 **********************************************************************

            Population analysis using the SCF density.

 **********************************************************************

 Orbital symmetries:
       Occupied  (A) (A) (A) (A) (A) (A) (A) (A) (A) (A) (A) (A)
                 (A) (A) (A) (A) (A) (A) (A) (A) (A) (A) (A) (A)
                 (A) (A) (A) (A) (A) (A) (A) (A) (A) (A) (A) (A)
                 (A) (A) (A) (A) (A) (A) (A) (A) (A) (A) (A) (A)
                 (A) (A) (A) (A) (A) (A) (A) (A) (A) (A) (A) (A)
                 (A) (A) (A) (A) (A) (A) (A) (A) (A) (A) (A) (A)
                 (A) (A) (A) (A) (A) (A) (A) (A) (A) (A) (A) (A)
                 (A) (A) (A) (A) (A) (A) (A) (A) (A) (A) (A) (A)
                 (A) (A) (A) (A) (A) (A) (A) (A) (A) (A) (A) (A)
                 (A) (A) (A) (A) (A) (A) (A) (A) (A) (A) (A) (A)
                 (A) (A) (A) (A) (A) (A) (A) (A) (A) (A) (A) (A)
                 (A) (A) (A) (A) (A) (A) (A) (A) (A) (A) (A) (A)
                 (A) (A) (A) (A) (A) (A) (A) (A) (A) (A) (A) (A)
       Virtual   (A) (A) (A) (A) (A) (A) (A) (A) (A) (A) (A) (A)
                 (A) (A) (A) (A) (A) (A) (A) (A) (A) (A) (A) (A)
                 (A) (A) (A) (A) (A) (A) (A) (A) (A) (A) (A) (A)
                 (A) (A) (A) (A) (A) (A) (A) (A) (A) (A) (A) (A)
                 (A) (A) (A) (A) (A) (A) (A) (A) (A) (A) (A) (A)
                 (A) (A) (A) (A) (A) (A) (A) (A) (A) (A) (A) (A)
                 (A) (A) (A) (A) (A) (A) (A) (A) (A) (A) (A) (A)
                 (A) (A) (A) (A) (A) (A) (A) (A) (A) (A) (A) (A)
                 (A) (A) (A) (A) (A) (A) (A) (A) (A) (A) (A) (A)
                 (A) (A) (A) (A) (A) (A) (A) (A) (A) (A) (A) (A)
                 (A) (A) (A) (A) (A) (A) (A) (A) (A) (A) (A) (A)
                 (A) (A) (A) (A) (A) (A) (A) (A) (A) (A) (A) (A)
                 (A) (A) (A) (A) (A) (A) (A) (A) (A) (A) (A) (A)
                 (A) (A) (A) (A) (A) (A) (A) (A) (A) (A) (A) (A)
                 (A) (A) (A) (A) (A) (A) (A) (A) (A) (A) (A) (A)
                 (A) (A) (A) (A) (A) (A) (A) (A) (A) (A) (A) (A)
                 (A) (A) (A) (A) (A) (A) (A) (A) (A) (A) (A) (A)
                 (A) (A) (A) (A) (A) (A) (A) (A) (A) (A) (A) (A)
                 (A) (A) (A) (A) (A) (A) (A) (A) (A) (A) (A) (A)
                 (A) (A) (A) (A) (A) (A) (A) (A) (A) (A) (A) (A)
                 (A) (A) (A) (A) (A) (A) (A) (A) (A) (A) (A) (A)
                 (A) (A) (A) (A) (A) (A) (A) (A) (A) (A) (A) (A)
                 (A) (A) (A) (A) (A) (A) (A) (A) (A) (A) (A) (A)
                 (A) (A) (A) (A) (A) (A) (A) (A) (A) (A) (A) (A)
                 (A) (A) (A) (A) (A) (A) (A) (A) (A) (A) (A) (A)
                 (A) (A) (A) (A) (A) (A) (A) (A) (A) (A) (A) (A)
                 (A) (A) (A) (A) (A) (A) (A) (A) (A) (A) (A) (A)
                 (A) (A) (A) (A) (A) (A) (A) (A) (A) (A) (A) (A)
                 (A) (A) (A) (A) (A) (A) (A) (A) (A) (A) (A) (A)
                 (A) (A) (A) (A) (A) (A) (A) (A) (A) (A) (A) (A)
                 (A) (A) (A) (A) (A) (A) (A) (A) (A) (A) (A) (A)
                 (A) (A) (A) (A) (A) (A) (A) (A) (A) (A) (A) (A)
                 (A) (A) (A) (A) (A) (A) (A) (A) (A) (A) (A) (A)
                 (A) (A) (A) (A) (A) (A) (A) (A) (A) (A) (A) (A)
                 (A) (A) (A) (A) (A) (A) (A) (A) (A) (A) (A) (A)
                 (A) (A) (A) (A) (A) (A) (A) (A) (A) (A) (A) (A)
                 (A) (A) (A) (A) (A) (A) (A) (A) (A) (A) (A) (A)
                 (A) (A) (A) (A) (A) (A) (A) (A) (A) (A) (A) (A)
                 (A) (A) (A) (A) (A) (A) (A) (A) (A) (A) (A) (A)
                 (A) (A) (A) (A) (A) (A) (A) (A) (A) (A) (A) (A)
                 (A) (A) (A) (A) (A) (A) (A) (A) (A) (A) (A) (A)
                 (A) (A) (A) (A) (A) (A) (A) (A) (A) (A) (A) (A)
                 (A) (A) (A) (A) (A) (A) (A) (A) (A) (A) (A) (A)
                 (A) (A) (A) (A) (A) (A) (A) (A) (A) (A) (A) (A)
                 (A) (A) (A) (A) (A) (A) (A) (A) (A) (A) (A) (A)
                 (A) (A) (A) (A) (A) (A) (A) (A) (A) (A) (A) (A)
                 (A) (A) (A) (A) (A) (A) (A) (A) (A) (A) (A) (A)
                 (A) (A) (A) (A) (A) (A) (A) (A) (A) (A) (A) (A)
                 (A) (A) (A) (A) (A) (A) (A) (A) (A) (A) (A) (A)
                 (A) (A) (A) (A) (A) (A) (A) (A) (A) (A) (A) (A)
                 (A) (A) (A) (A) (A) (A) (A) (A) (A) (A) (A) (A)
                 (A) (A) (A) (A) (A) (A) (A) (A) (A) (A) (A) (A)
                 (A) (A) (A) (A) (A) (A) (A) (A) (A) (A) (A) (A)
 The electronic state is 1-A.
 Alpha  occ. eigenvalues --  -19.19516 -19.18276 -19.13512 -19.13063 -19.12866
 Alpha  occ. eigenvalues --  -19.09934 -14.36526 -14.36484 -14.34934 -14.29338
 Alpha  occ. eigenvalues --  -10.32318 -10.31870 -10.28580 -10.28255 -10.24367
 Alpha  occ. eigenvalues --  -10.23794 -10.23677 -10.23036 -10.22363 -10.22212
 Alpha  occ. eigenvalues --  -10.21738 -10.21115 -10.20964 -10.20740 -10.20530
 Alpha  occ. eigenvalues --  -10.20451 -10.20339 -10.20288 -10.20209 -10.20069
 Alpha  occ. eigenvalues --  -10.20032 -10.19880 -10.19645 -10.19636 -10.19581
 Alpha  occ. eigenvalues --  -10.19425 -10.18923 -10.18842 -10.18466 -10.18251
 Alpha  occ. eigenvalues --  -10.18216 -10.18162 -10.17616  -1.11650  -1.09966
 Alpha  occ. eigenvalues --   -1.05689  -1.01737  -1.01607  -1.01273  -0.96668
 Alpha  occ. eigenvalues --   -0.95093  -0.94462  -0.93346  -0.82916  -0.82173
 Alpha  occ. eigenvalues --   -0.81277  -0.80668  -0.79965  -0.78183  -0.77289
 Alpha  occ. eigenvalues --   -0.76956  -0.76557  -0.75366  -0.73837  -0.72552
 Alpha  occ. eigenvalues --   -0.71748  -0.70206  -0.69203  -0.68657  -0.68043
 Alpha  occ. eigenvalues --   -0.67442  -0.65060  -0.64376  -0.62436  -0.61854
 Alpha  occ. eigenvalues --   -0.60979  -0.59281  -0.59103  -0.57736  -0.57562
 Alpha  occ. eigenvalues --   -0.56197  -0.55971  -0.53986  -0.53577  -0.52509
 Alpha  occ. eigenvalues --   -0.52343  -0.51944  -0.51116  -0.49748  -0.49549
 Alpha  occ. eigenvalues --   -0.49455  -0.48973  -0.48555  -0.48354  -0.48002
 Alpha  occ. eigenvalues --   -0.47397  -0.47131  -0.46954  -0.45788  -0.45332
 Alpha  occ. eigenvalues --   -0.44995  -0.44568  -0.44312  -0.44162  -0.43568
 Alpha  occ. eigenvalues --   -0.43544  -0.43355  -0.42789  -0.42636  -0.42161
 Alpha  occ. eigenvalues --   -0.41747  -0.41380  -0.41227  -0.41081  -0.40849
 Alpha  occ. eigenvalues --   -0.40599  -0.40322  -0.40258  -0.40066  -0.40007
 Alpha  occ. eigenvalues --   -0.39515  -0.39242  -0.38941  -0.38607  -0.38331
 Alpha  occ. eigenvalues --   -0.38285  -0.37653  -0.37295  -0.36820  -0.36705
 Alpha  occ. eigenvalues --   -0.36535  -0.36206  -0.35951  -0.35398  -0.34862
 Alpha  occ. eigenvalues --   -0.34580  -0.34319  -0.33873  -0.33260  -0.33226
 Alpha  occ. eigenvalues --   -0.32900  -0.32555  -0.30903  -0.30117  -0.29252
 Alpha  occ. eigenvalues --   -0.28715  -0.28461  -0.26773  -0.25767  -0.25164
 Alpha  occ. eigenvalues --   -0.25013  -0.24535  -0.24328  -0.23246  -0.21412
 Alpha  occ. eigenvalues --   -0.17731
 Alpha virt. eigenvalues --   -0.09985  -0.05482  -0.03763  -0.00066   0.00087
 Alpha virt. eigenvalues --    0.01010   0.02226   0.03329   0.03727   0.04391
 Alpha virt. eigenvalues --    0.04718   0.05105   0.05353   0.06095   0.06135
 Alpha virt. eigenvalues --    0.07243   0.07283   0.07491   0.08321   0.08507
 Alpha virt. eigenvalues --    0.08791   0.08940   0.09067   0.09393   0.09633
 Alpha virt. eigenvalues --    0.10005   0.10401   0.10514   0.10773   0.10942
 Alpha virt. eigenvalues --    0.11225   0.11541   0.11809   0.12218   0.12579
 Alpha virt. eigenvalues --    0.12886   0.13283   0.13907   0.14380   0.14643
 Alpha virt. eigenvalues --    0.14835   0.15321   0.15676   0.15726   0.16516
 Alpha virt. eigenvalues --    0.16881   0.17073   0.17262   0.17504   0.18020
 Alpha virt. eigenvalues --    0.18476   0.18839   0.19234   0.19363   0.19896
 Alpha virt. eigenvalues --    0.20274   0.20823   0.21173   0.21719   0.22026
 Alpha virt. eigenvalues --    0.22562   0.23114   0.23209   0.23422   0.23846
 Alpha virt. eigenvalues --    0.24283   0.24741   0.25168   0.25962   0.26286
 Alpha virt. eigenvalues --    0.26527   0.26707   0.27801   0.28509   0.28606
 Alpha virt. eigenvalues --    0.28808   0.29931   0.30288   0.30428   0.31267
 Alpha virt. eigenvalues --    0.31352   0.31637   0.32562   0.32785   0.33525
 Alpha virt. eigenvalues --    0.33828   0.34465   0.35084   0.35447   0.36806
 Alpha virt. eigenvalues --    0.37401   0.37530   0.37799   0.38131   0.38506
 Alpha virt. eigenvalues --    0.38907   0.39588   0.40394   0.40550   0.40888
 Alpha virt. eigenvalues --    0.41683   0.42060   0.42271   0.43191   0.43659
 Alpha virt. eigenvalues --    0.43780   0.44558   0.44859   0.45007   0.45187
 Alpha virt. eigenvalues --    0.45284   0.45577   0.45918   0.46348   0.46657
 Alpha virt. eigenvalues --    0.46908   0.47359   0.47711   0.48093   0.48452
 Alpha virt. eigenvalues --    0.49022   0.49346   0.49653   0.49841   0.50124
 Alpha virt. eigenvalues --    0.50560   0.50754   0.50906   0.51825   0.52105
 Alpha virt. eigenvalues --    0.52228   0.52779   0.53050   0.53239   0.53598
 Alpha virt. eigenvalues --    0.54484   0.54670   0.55251   0.55629   0.55944
 Alpha virt. eigenvalues --    0.56286   0.56850   0.56991   0.57743   0.58003
 Alpha virt. eigenvalues --    0.58118   0.58510   0.58950   0.59063   0.59481
 Alpha virt. eigenvalues --    0.59525   0.59819   0.60252   0.60538   0.60881
 Alpha virt. eigenvalues --    0.61018   0.61423   0.61511   0.61651   0.61951
 Alpha virt. eigenvalues --    0.62143   0.62326   0.62580   0.63281   0.63743
 Alpha virt. eigenvalues --    0.63881   0.64023   0.64313   0.64484   0.64933
 Alpha virt. eigenvalues --    0.65163   0.65366   0.65644   0.65822   0.66249
 Alpha virt. eigenvalues --    0.66432   0.66846   0.67095   0.67230   0.67332
 Alpha virt. eigenvalues --    0.67497   0.67647   0.68077   0.68336   0.68684
 Alpha virt. eigenvalues --    0.68888   0.69109   0.69343   0.69939   0.70297
 Alpha virt. eigenvalues --    0.70414   0.70653   0.70903   0.71086   0.71596
 Alpha virt. eigenvalues --    0.71740   0.71834   0.72266   0.72733   0.72941
 Alpha virt. eigenvalues --    0.73211   0.73874   0.74025   0.74358   0.74770
 Alpha virt. eigenvalues --    0.75112   0.75215   0.75506   0.75795   0.76225
 Alpha virt. eigenvalues --    0.76496   0.76770   0.77247   0.77442   0.77779
 Alpha virt. eigenvalues --    0.78172   0.79109   0.79254   0.79462   0.80064
 Alpha virt. eigenvalues --    0.80580   0.81183   0.81570   0.81693   0.82874
 Alpha virt. eigenvalues --    0.83351   0.83849   0.84774   0.85383   0.85560
 Alpha virt. eigenvalues --    0.86259   0.87016   0.87525   0.88306   0.89006
 Alpha virt. eigenvalues --    0.89927   0.90387   0.90967   0.91920   0.92456
 Alpha virt. eigenvalues --    0.92599   0.93142   0.93724   0.94405   0.95072
 Alpha virt. eigenvalues --    0.95554   0.95977   0.96432   0.96508   0.96671
 Alpha virt. eigenvalues --    0.97611   0.98785   0.99459   1.00380   1.00746
 Alpha virt. eigenvalues --    1.01269   1.01455   1.02170   1.02776   1.03644
 Alpha virt. eigenvalues --    1.03768   1.04468   1.04880   1.05384   1.07344
 Alpha virt. eigenvalues --    1.07875   1.08262   1.08956   1.09701   1.10342
 Alpha virt. eigenvalues --    1.10580   1.11361   1.12081   1.12954   1.13809
 Alpha virt. eigenvalues --    1.14399   1.15418   1.16079   1.16801   1.17681
 Alpha virt. eigenvalues --    1.18053   1.18422   1.19067   1.19383   1.19935
 Alpha virt. eigenvalues --    1.22040   1.22361   1.22907   1.24077   1.24602
 Alpha virt. eigenvalues --    1.24979   1.25415   1.25988   1.26289   1.27163
 Alpha virt. eigenvalues --    1.27393   1.27682   1.28222   1.29413   1.30047
 Alpha virt. eigenvalues --    1.30321   1.30732   1.31305   1.32080   1.33326
 Alpha virt. eigenvalues --    1.33480   1.34063   1.34489   1.36343   1.36553
 Alpha virt. eigenvalues --    1.37675   1.38014   1.38652   1.39501   1.39583
 Alpha virt. eigenvalues --    1.40022   1.40751   1.41199   1.41984   1.42186
 Alpha virt. eigenvalues --    1.43293   1.43757   1.44538   1.45219   1.45392
 Alpha virt. eigenvalues --    1.46551   1.48306   1.48808   1.48998   1.50018
 Alpha virt. eigenvalues --    1.50351   1.50710   1.51115   1.51436   1.52037
 Alpha virt. eigenvalues --    1.52754   1.53337   1.53431   1.54161   1.54609
 Alpha virt. eigenvalues --    1.55377   1.56180   1.56566   1.57246   1.57491
 Alpha virt. eigenvalues --    1.58827   1.59183   1.59987   1.60586   1.61115
 Alpha virt. eigenvalues --    1.61468   1.62241   1.62464   1.62926   1.63126
 Alpha virt. eigenvalues --    1.63157   1.63809   1.64204   1.64942   1.65366
 Alpha virt. eigenvalues --    1.66082   1.66950   1.67322   1.67864   1.68298
 Alpha virt. eigenvalues --    1.69149   1.69550   1.69645   1.69963   1.70302
 Alpha virt. eigenvalues --    1.71238   1.71708   1.72279   1.72306   1.73012
 Alpha virt. eigenvalues --    1.73075   1.73298   1.73408   1.73768   1.74267
 Alpha virt. eigenvalues --    1.74529   1.75022   1.75076   1.75925   1.75997
 Alpha virt. eigenvalues --    1.76040   1.76444   1.76718   1.77071   1.77846
 Alpha virt. eigenvalues --    1.78212   1.78512   1.78891   1.79211   1.79389
 Alpha virt. eigenvalues --    1.80312   1.80394   1.80556   1.80967   1.81044
 Alpha virt. eigenvalues --    1.81524   1.82363   1.82399   1.83365   1.83693
 Alpha virt. eigenvalues --    1.83753   1.84584   1.85008   1.85365   1.85459
 Alpha virt. eigenvalues --    1.86079   1.86485   1.87390   1.87719   1.88221
 Alpha virt. eigenvalues --    1.88592   1.88825   1.89678   1.90057   1.90257
 Alpha virt. eigenvalues --    1.91153   1.91381   1.91757   1.92387   1.92706
 Alpha virt. eigenvalues --    1.93299   1.93415   1.93996   1.94680   1.95351
 Alpha virt. eigenvalues --    1.95714   1.96043   1.96348   1.97017   1.97671
 Alpha virt. eigenvalues --    1.97909   1.98686   1.98837   1.99386   1.99894
 Alpha virt. eigenvalues --    2.00757   2.01442   2.01750   2.02277   2.03069
 Alpha virt. eigenvalues --    2.03730   2.04022   2.04341   2.04692   2.04926
 Alpha virt. eigenvalues --    2.05229   2.06299   2.06730   2.07725   2.08082
 Alpha virt. eigenvalues --    2.08675   2.09314   2.09426   2.09784   2.10757
 Alpha virt. eigenvalues --    2.11067   2.11277   2.11733   2.12401   2.12694
 Alpha virt. eigenvalues --    2.13482   2.13953   2.14681   2.15438   2.16175
 Alpha virt. eigenvalues --    2.17287   2.17948   2.18310   2.18845   2.19153
 Alpha virt. eigenvalues --    2.19753   2.20345   2.21804   2.22923   2.23536
 Alpha virt. eigenvalues --    2.25224   2.25550   2.25627   2.25997   2.27312
 Alpha virt. eigenvalues --    2.27852   2.28913   2.29748   2.30136   2.30335
 Alpha virt. eigenvalues --    2.30772   2.31832   2.32481   2.32924   2.33400
 Alpha virt. eigenvalues --    2.34371   2.34962   2.35410   2.36022   2.36644
 Alpha virt. eigenvalues --    2.37647   2.38414   2.38682   2.39532   2.40131
 Alpha virt. eigenvalues --    2.40697   2.40955   2.41084   2.42623   2.42974
 Alpha virt. eigenvalues --    2.43135   2.43639   2.44082   2.44639   2.45141
 Alpha virt. eigenvalues --    2.45787   2.47448   2.47716   2.48398   2.48572
 Alpha virt. eigenvalues --    2.48893   2.50985   2.51103   2.51814   2.52204
 Alpha virt. eigenvalues --    2.52788   2.53097   2.54859   2.55861   2.56573
 Alpha virt. eigenvalues --    2.57031   2.58918   2.59129   2.59385   2.60928
 Alpha virt. eigenvalues --    2.61259   2.61598   2.62130   2.63283   2.63811
 Alpha virt. eigenvalues --    2.64347   2.64460   2.65683   2.66216   2.66978
 Alpha virt. eigenvalues --    2.67953   2.68220   2.68983   2.69421   2.69795
 Alpha virt. eigenvalues --    2.70774   2.71234   2.71674   2.72161   2.72700
 Alpha virt. eigenvalues --    2.72993   2.73638   2.73907   2.74804   2.75368
 Alpha virt. eigenvalues --    2.75769   2.77844   2.78753   2.80636   2.81088
 Alpha virt. eigenvalues --    2.81486   2.82700   2.83216   2.83423   2.83872
 Alpha virt. eigenvalues --    2.84041   2.85183   2.86052   2.87067   2.88026
 Alpha virt. eigenvalues --    2.88416   2.88440   2.88748   2.89945   2.91238
 Alpha virt. eigenvalues --    2.91693   2.91919   2.92897   2.93613   2.94958
 Alpha virt. eigenvalues --    2.95794   2.96120   2.96972   2.97809   2.98459
 Alpha virt. eigenvalues --    3.00018   3.01456   3.02616   3.03551   3.04757
 Alpha virt. eigenvalues --    3.06017   3.07518   3.07998   3.10095   3.10570
 Alpha virt. eigenvalues --    3.12166   3.13134   3.13881   3.14646   3.16774
 Alpha virt. eigenvalues --    3.18042   3.18919   3.19517   3.20530   3.21094
 Alpha virt. eigenvalues --    3.21353   3.22620   3.23050   3.23251   3.24011
 Alpha virt. eigenvalues --    3.24235   3.25849   3.28105   3.29646   3.31292
 Alpha virt. eigenvalues --    3.32059   3.38284   3.44674   3.45899   3.49005
 Alpha virt. eigenvalues --    3.49469   3.52531   3.53805   3.55814   3.57437
 Alpha virt. eigenvalues --    3.63968   3.66213   3.66925   3.74293   3.76439
 Alpha virt. eigenvalues --    3.77566
          Condensed to atoms (all electrons):
 Mulliken charges:
               1
     1  O   -0.234467
     2  O   -0.150144
     3  O   -0.191668
     4  O   -0.247141
     5  O   -0.217620
     6  O   -0.127622
     7  N   -0.125179
     8  N   -0.169109
     9  N   -0.123890
    10  N   -0.315365
    11  C   -0.142199
    12  C    0.039516
    13  C   -0.194207
    14  C    0.122345
    15  C   -0.101624
    16  C    0.168483
    17  C   -0.003617
    18  C   -0.025888
    19  C    0.223750
    20  C   -0.092545
    21  C   -0.014129
    22  C    0.072061
    23  C    0.030313
    24  C    0.175147
    25  C    0.010223
    26  C    0.039023
    27  C    0.149683
    28  C    0.077541
    29  C   -0.009981
    30  C    0.046230
    31  C   -0.171131
    32  C    0.102131
    33  C   -0.203077
    34  C    0.071436
    35  C   -0.106378
    36  C   -0.238836
    37  C    0.074689
    38  C    0.027567
    39  C    0.123930
    40  C    0.208090
    41  C    0.182232
    42  C    0.124925
    43  C   -0.036002
    44  H    0.143333
    45  H   -0.084587
    46  H   -0.036605
    47  H   -0.016882
    48  H    0.068350
    49  H   -0.007283
    50  H   -0.018590
    51  H   -0.079345
    52  H    0.145807
    53  H    0.058915
    54  H    0.038086
    55  H    0.027174
    56  H    0.153400
    57  H   -0.019266
    58  H    0.053147
    59  H    0.081484
    60  H    0.014980
    61  H    0.020022
    62  H    0.044295
    63  H    0.003485
    64  H    0.022272
    65  H    0.005867
    66  H    0.037003
    67  H   -0.004570
    68  H    0.005001
    69  H    0.067138
    70  H   -0.032459
    71  H    0.053673
    72  H   -0.088729
    73  H    0.004928
    74  H    0.037749
    75  H    0.041042
    76  H   -0.008886
    77  H    0.024257
    78  H    0.023215
    79  H    0.038193
    80  H    0.185440
    81  H    0.171453
 Sum of Mulliken charges =  -0.00000
 Mulliken charges with hydrogens summed into heavy atoms:
               1
     1  O   -0.234467
     2  O    0.035296
     3  O   -0.020215
     4  O   -0.247141
     5  O   -0.217620
     6  O   -0.127622
     7  N    0.018153
     8  N   -0.023301
     9  N    0.029510
    10  N   -0.315365
    11  C   -0.142199
    12  C    0.039516
    13  C   -0.194207
    14  C    0.122345
    15  C   -0.101624
    16  C    0.168483
    17  C   -0.088204
    18  C   -0.025888
    19  C    0.170263
    20  C   -0.024194
    21  C   -0.014129
    22  C    0.072061
    23  C    0.030313
    24  C    0.149274
    25  C   -0.069123
    26  C    0.163198
    27  C    0.149683
    28  C    0.111422
    29  C    0.086483
    30  C    0.114031
    31  C   -0.148859
    32  C    0.140431
    33  C   -0.198076
    34  C    0.071436
    35  C   -0.106378
    36  C   -0.238836
    37  C    0.074689
    38  C    0.115919
    39  C    0.123930
    40  C    0.124289
    41  C    0.182232
    42  C    0.194830
    43  C    0.049663
 Electronic spatial extent (au):  <R**2>=          30259.5154
 Charge=              0.0000 electrons
 Dipole moment (field-independent basis, Debye):
    X=             -2.7410    Y=              3.4897    Z=              0.0306  Tot=              4.4376
 Quadrupole moment (field-independent basis, Debye-Ang):
   XX=           -246.3522   YY=           -235.0941   ZZ=           -254.6609
   XY=             19.6350   XZ=             15.9445   YZ=            -14.3364
 Traceless Quadrupole moment (field-independent basis, Debye-Ang):
   XX=             -0.9831   YY=             10.2749   ZZ=             -9.2918
   XY=             19.6350   XZ=             15.9445   YZ=            -14.3364
 Octapole moment (field-independent basis, Debye-Ang**2):
  XXX=              3.6679  YYY=            147.2599  ZZZ=            -23.8204  XYY=           -180.7069
  XXY=             12.0181  XXZ=           -101.9920  XZZ=            -58.4233  YZZ=            -11.6668
  YYZ=             40.2027  XYZ=            -63.0853
 Hexadecapole moment (field-independent basis, Debye-Ang**3):
 XXXX=         -21950.1627 YYYY=         -15810.4406 ZZZZ=          -1580.6110 XXXY=            714.1559
 XXXZ=            960.5606 YYYX=            923.9682 YYYZ=           -462.2864 ZZZX=             78.0890
 ZZZY=             48.9000 XXYY=          -6350.7050 XXZZ=          -3992.6500 YYZZ=          -2989.2459
 XXYZ=             16.1840 YYXZ=            300.6166 ZZXY=            225.2170
 N-N= 5.060397459191D+03 E-N=-1.465310119513D+04  KE= 1.929538594335D+03
 1\1\GINC-PADAWAN\SP\RB3LYP TD-FC\SVP\C33H38N4O6\PADAWAN\29-Jun-2019\0\
 \# td=(NStates=1) B3LYP/SVP\\TD\\0,1\O,0,-4.305402051,-4.8638907603,1.
 7398880172\O,0,3.0282868574,-4.7652278296,1.2446085982\O,0,7.050981402
 4,-1.4342006898,1.8318958691\O,0,3.7870737649,-3.1622942544,-0.0797013
 095\O,0,7.6333028669,-0.387578653,-0.0832043531\O,0,-3.0165172378,2.36
 81348643,-0.3934609075\N,0,-0.2793649312,-0.5217063637,-0.5112281357\N
 ,0,1.4804565384,1.740814514,-0.2184134189\N,0,-3.376659655,-3.06541765
 48,0.574933812\N,0,-0.7635148472,2.847825932,0.1289690511\C,0,0.689501
 2144,-2.3957075292,-1.3299152866\C,0,0.936556558,-1.0926464963,-0.9419
 830472\C,0,-0.78491262,-2.6130096632,-1.3195940221\C,0,-1.3563360556,-
 1.3929396054,-0.710080138\C,0,3.7649549563,1.517664933,-0.3288771545\C
 ,0,2.5532974355,0.8227841039,-0.5453987249\C,0,2.2883640866,-0.4324605
 04,-0.8379932739\C,0,3.5650271428,2.7631661188,0.0175597463\C,0,1.6931
 107162,-3.3200737087,-1.8876661122\C,0,-5.5525541621,-2.8144670616,1.3
 478920535\C,0,-3.6535992192,-1.7930342793,0.1506209939\C,0,2.109425254
 6,2.9919291871,0.0185494783\C,0,-5.0840210984,-1.5555645204,0.48748279
 22\C,0,5.1029255545,0.8062455415,-0.4772766864\C,0,-2.6688416999,-0.93
 97425297,-0.3960260764\C,0,-1.5194416063,-3.8416439175,-1.7899793147\C
 ,0,-4.3568553539,-3.7098952213,1.3058057062\C,0,2.1369248262,-4.496168
 6406,-0.9959688237\C,0,5.369425745,-0.1312912526,0.8130138486\C,0,4.45
 13511964,3.9634391932,0.2158037807\C,0,1.3099196704,4.0729818485,0.305
 3222528\C,0,-6.8671713677,-3.4619009699,0.8305821203\C,0,-5.845714152,
 -0.4946352475,0.1460617731\C,0,-0.1251304323,3.9302412739,0.4185336653
 \C,0,-1.084123511,5.1005175855,0.5135498205\C,0,-2.2404235161,4.563807
 8822,0.3631822242\C,0,3.033699952,-4.0901716874,0.098617551\C,0,-5.553
 9191014,0.5995152401,-0.9248539502\C,0,6.806080487,-0.6677222418,0.737
 1446127\C,0,-3.629640507,5.2196230208,0.3117556863\C,0,-2.2040199536,3
 .1322081818,-0.0021459844\C,0,-0.6928198731,6.439489619,0.8925783094\C
 ,0,-4.1809976624,5.4531112678,-1.1001291044\H,0,-0.3506866536,0.529019
 7678,-0.3632560653\H,0,3.0119185529,-1.096977839,-0.8821182992\H,0,2.5
 261925006,-2.8418157782,-2.1503415813\H,0,1.2549364998,-3.8288669976,-
 2.7258309432\H,0,-5.6637981071,-2.340472672,2.4907196119\H,0,5.0940519
 177,0.3332827097,-1.4154118885\H,0,5.9543139988,1.3648160097,-0.704364
 011\H,0,-3.1103872564,-0.0445666664,-0.6009404915\H,0,0.5432615568,1.7
 860184457,-0.576615107\H,0,-1.4134060764,-4.8668512556,-1.3132508349\H
 ,0,-2.597069818,-3.5026608525,-1.8225603891\H,0,-1.0916243423,-3.83794
 08629,-2.7794635357\H,0,-2.4327556619,-3.4427740081,0.254258091\H,0,1.
 2981506444,-4.8845911574,-0.5922146114\H,0,2.7847445789,-5.3342875357,
 -1.4338987718\H,0,4.7124764806,-1.1152526887,0.9434240785\H,0,5.342518
 5973,0.3855245912,1.7055483579\H,0,4.1188824138,4.7639768141,-0.490380
 4098\H,0,5.6488479765,3.9607236056,0.2409898886\H,0,4.2883458672,4.571
 3926114,1.1027659935\H,0,1.9504458232,5.166275805,0.4477458498\H,0,-7.
 6214337117,-2.7338084643,0.7359748671\H,0,-7.1328873526,-4.425968979,1
 .299155756\H,0,-6.6770634033,-3.7862660427,-0.1858865003\H,0,-6.912025
 7249,-0.2761785264,0.4165696581\H,0,-4.9086698391,1.2918440053,-0.3208
 993512\H,0,-6.2609944768,1.1604851235,-1.2968840045\H,0,-4.6748267947,
 0.0461447767,-1.7287496398\H,0,-3.5987318587,6.0236467698,0.8452914056
 \H,0,-4.2206735056,4.5324155735,1.0035163779\H,0,0.0053513906,6.331683
 7338,1.7775575974\H,0,-1.5445805684,7.1064040951,1.4774070924\H,0,-0.3
 419750295,6.7950517909,0.0692678839\H,0,-3.5067885859,6.0428319089,-1.
 8179960021\H,0,-5.1588785951,6.1467277889,-1.0242823054\H,0,-4.4378972
 666,4.4890590762,-1.5587053785\H,0,3.7211005106,-4.3649227048,1.794280
 2104\H,0,7.9920972343,-1.6605654455,1.7538327663\\Version=ES64L-G16Rev
 A.03\State=1-A\HF=-1949.072525\RMSD=3.087e-09\PG=C01 [X(C33H38N4O6)]\\
 @


 THERE'S NOTHING WRONG WITH FOLLOWING A TRAIN OF THOUGHT...
 AS LONG AS IT ULTIMATELY PULLS INTO THE STATION.
 Job cpu time:       0 days  3 hours 43 minutes 53.7 seconds.
 Elapsed time:       0 days  2 hours 29 minutes 15.9 seconds.
 File lengths (MBytes):  RWF=   2591 Int=      0 D2E=      0 Chk=     65 Scr=      1
 Normal termination of Gaussian 16 at Sat Jun 29 22:06:46 2019.
