 Entering Gaussian System, Link 0=g16
 Input=Geometria-50-.com
 Output=Geometria-50-.log
 Initial command:
 /usr/local/g16/l1.exe "/home/padawan/israel-mol/phycocyanobilin/spectra/emi/Gau-19591.inp" -scrdir="/home/padawan/israel-mol/phycocyanobilin/spectra/emi/"
 Entering Link 1 = /usr/local/g16/l1.exe PID=     19593.
  
 Copyright (c) 1988,1990,1992,1993,1995,1998,2003,2009,2016,
            Gaussian, Inc.  All Rights Reserved.
  
 This is part of the Gaussian(R) 16 program.  It is based on
 the Gaussian(R) 09 system (copyright 2009, Gaussian, Inc.),
 the Gaussian(R) 03 system (copyright 2003, Gaussian, Inc.),
 the Gaussian(R) 98 system (copyright 1998, Gaussian, Inc.),
 the Gaussian(R) 94 system (copyright 1995, Gaussian, Inc.),
 the Gaussian 92(TM) system (copyright 1992, Gaussian, Inc.),
 the Gaussian 90(TM) system (copyright 1990, Gaussian, Inc.),
 the Gaussian 88(TM) system (copyright 1988, Gaussian, Inc.),
 the Gaussian 86(TM) system (copyright 1986, Carnegie Mellon
 University), and the Gaussian 82(TM) system (copyright 1983,
 Carnegie Mellon University). Gaussian is a federally registered
 trademark of Gaussian, Inc.
  
 This software contains proprietary and confidential information,
 including trade secrets, belonging to Gaussian, Inc.
  
 This software is provided under written license and may be
 used, copied, transmitted, or stored only in accord with that
 written license.
  
 The following legend is applicable only to US Government
 contracts under FAR:
  
                    RESTRICTED RIGHTS LEGEND
  
 Use, reproduction and disclosure by the US Government is
 subject to restrictions as set forth in subparagraphs (a)
 and (c) of the Commercial Computer Software - Restricted
 Rights clause in FAR 52.227-19.
  
 Gaussian, Inc.
 340 Quinnipiac St., Bldg. 40, Wallingford CT 06492
  
  
 ---------------------------------------------------------------
 Warning -- This program may not be used in any manner that
 competes with the business of Gaussian, Inc. or will provide
 assistance to any competitor of Gaussian, Inc.  The licensee
 of this program is prohibited from giving any competitor of
 Gaussian, Inc. access to this program.  By using this program,
 the user acknowledges that Gaussian, Inc. is engaged in the
 business of creating and licensing software in the field of
 computational chemistry and represents and warrants to the
 licensee that it is not a competitor of Gaussian, Inc. and that
 it will not use this program in any manner prohibited above.
 ---------------------------------------------------------------
  

 Cite this work as:
 Gaussian 16, Revision A.03,
 M. J. Frisch, G. W. Trucks, H. B. Schlegel, G. E. Scuseria, 
 M. A. Robb, J. R. Cheeseman, G. Scalmani, V. Barone, 
 G. A. Petersson, H. Nakatsuji, X. Li, M. Caricato, A. V. Marenich, 
 J. Bloino, B. G. Janesko, R. Gomperts, B. Mennucci, H. P. Hratchian, 
 J. V. Ortiz, A. F. Izmaylov, J. L. Sonnenberg, D. Williams-Young, 
 F. Ding, F. Lipparini, F. Egidi, J. Goings, B. Peng, A. Petrone, 
 T. Henderson, D. Ranasinghe, V. G. Zakrzewski, J. Gao, N. Rega, 
 G. Zheng, W. Liang, M. Hada, M. Ehara, K. Toyota, R. Fukuda, 
 J. Hasegawa, M. Ishida, T. Nakajima, Y. Honda, O. Kitao, H. Nakai, 
 T. Vreven, K. Throssell, J. A. Montgomery, Jr., J. E. Peralta, 
 F. Ogliaro, M. J. Bearpark, J. J. Heyd, E. N. Brothers, K. N. Kudin, 
 V. N. Staroverov, T. A. Keith, R. Kobayashi, J. Normand, 
 K. Raghavachari, A. P. Rendell, J. C. Burant, S. S. Iyengar, 
 J. Tomasi, M. Cossi, J. M. Millam, M. Klene, C. Adamo, R. Cammi, 
 J. W. Ochterski, R. L. Martin, K. Morokuma, O. Farkas, 
 J. B. Foresman, and D. J. Fox, Gaussian, Inc., Wallingford CT, 2016.
 
 ******************************************
 Gaussian 16:  ES64L-G16RevA.03 25-Dec-2016
                27-Jun-2019 
 ******************************************
 %nproc=4
 Will use up to    4 processors via shared memory.
 %Mem=2GB
 --------------------------
 # td=(NStates=1) B3LYP/SVP
 --------------------------
 1/38=1,172=1/1;
 2/12=2,17=6,18=5,40=1/2;
 3/5=18,7=101,11=9,25=1,30=1,74=-5/1,2,3,8;
 4//1;
 5/5=2,38=5/2;
 8/6=1,10=1,108=1/1;
 9/41=1,42=1,70=2/14;
 6/7=2,8=2,9=2,10=2/1;
 99/5=1,9=1/99;
 --
 TD
 --
 Symbolic Z-matrix:
 Charge =  0 Multiplicity = 1
 8                    -4.18999  -4.85702   1.69371 
 8                     2.9212   -4.75277   1.21435 
 8                     7.16718  -1.46907   1.90355 
 8                     3.67601  -2.9748   -0.08353 
 8                     7.52366  -0.66308  -0.26881 
 8                    -3.02431   2.29966  -0.3208 
 7                    -0.25174  -0.60514  -0.3747 
 7                     1.5083    1.8186   -0.22181 
 7                    -3.29066  -3.12453   0.65216 
 7                    -0.74926   2.89589  -0.15115 
 6                     0.61222  -2.28641  -1.43973 
 6                     0.94652  -1.09427  -0.87696 
 6                    -0.78482  -2.56048  -1.37896 
 6                    -1.30893  -1.41604  -0.67029 
 6                     3.8085    1.48517  -0.17403 
 6                     2.49944   0.84332  -0.47335 
 6                     2.2465   -0.45548  -0.82344 
 6                     3.52393   2.88676   0.07627 
 6                     1.57535  -3.27996  -1.95006 
 6                    -5.48983  -2.80153   1.32036 
 6                    -3.56967  -1.91404   0.16503 
 6                     2.12356   3.00677   0.09492 
 6                    -5.06372  -1.64449   0.44381 
 6                     5.06587   0.7925   -0.26687 
 6                    -2.68164  -1.03829  -0.36979 
 6                    -1.50424  -3.86985  -1.93765 
 6                    -4.3179   -3.75491   1.25823 
 6                     2.04155  -4.47947  -1.03604 
 6                     5.42598  -0.02128   0.9649 
 6                     4.56251   3.86931   0.48229 
 6                     1.30701   4.06292   0.35942 
 6                    -6.76398  -3.45807   0.9341 
 6                    -5.76871  -0.54539   0.09371 
 6                    -0.15147   4.05471   0.14754 
 6                    -1.00285   5.18554   0.32747 
 6                    -2.32305   4.60875   0.26044 
 6                     3.04481  -3.99947   0.07729 
 6                    -5.44654   0.62196  -0.67258 
 6                     6.77681  -0.70395   0.74803 
 6                    -3.69493   5.27086   0.34202 
 6                    -2.19039   3.19327  -0.10396 
 6                    -0.49774   6.44688   0.73553 
 6                    -4.49928   5.46179  -1.07752 
 1                    -0.42817   0.43069  -0.07563 
 1                     3.02522  -1.07551  -1.53531 
 1                     2.35531  -2.73059  -2.62919 
 1                     0.96176  -3.88488  -2.80891 
 1                    -5.54456  -2.51347   2.46758 
 1                     5.11007   0.19931  -1.22379 
 1                     5.93219   1.50697  -0.57591 
 1                    -3.02537  -0.02861  -0.386 
 1                     0.73251   1.84468  -0.70737 
 1                    -1.82678  -4.74948  -1.15569 
 1                    -2.56635  -3.4023   -2.35055 
 1                    -0.84466  -4.10147  -2.87086 
 1                    -2.41047  -3.74496   0.73601 
 1                     1.11295  -4.77225  -0.59961 
 1                     2.46295  -5.35465  -1.55608 
 1                     4.73203  -0.91944   0.79614 
 1                     5.20986   0.46166   1.9371 
 1                     4.41187   4.95036   0.10166 
 1                     5.50077   3.43922   0.20251 
 1                     4.2008    4.15749   1.7405 
 1                     1.75599   5.23862   0.44054 
 1                    -7.75934  -2.98458   1.2379 
 1                    -6.8003   -4.52788   1.40176 
 1                    -6.84905  -3.83637  -0.08566 
 1                    -6.78629  -0.35992   0.43779 
 1                    -4.72419   1.40646  -0.03103 
 1                    -6.32776   1.15046  -1.07241 
 1                    -5.02006   0.1754   -1.61163 
 1                    -3.42947   6.29103   0.80032 
 1                    -4.19263   4.59789   1.04022 
 1                     0.17427   6.39734   1.60068 
 1                    -1.36449   7.27385   0.97363 
 1                     0.23068   7.06421   0.16889 
 1                    -3.85855   6.09025  -1.76288 
 1                    -5.5435    5.5362   -0.92094 
 1                    -4.61756   4.41299  -1.65811 
 1                     3.59905  -4.34913   1.86236 
 1                     7.97626  -2.03628   1.5982 
 
 Stoichiometry    C33H38N4O6
 Framework group  C1[X(C33H38N4O6)]
 Deg. of freedom   237
 Full point group                 C1      NOp   1
 Largest Abelian subgroup         C1      NOp   1
 Largest concise Abelian subgroup C1      NOp   1
                         Standard orientation:                         
 ---------------------------------------------------------------------
 Center     Atomic      Atomic             Coordinates (Angstroms)
 Number     Number       Type             X           Y           Z
 ---------------------------------------------------------------------
      1          8           0        4.294186   -4.752597   -1.723098
      2          8           0       -2.815431   -4.815744   -1.214183
      3          8           0       -7.139844   -1.630648   -1.878009
      4          8           0       -3.606169   -3.058901    0.091055
      5          8           0       -7.505989   -0.838209    0.297735
      6          8           0        2.969981    2.370213    0.313369
      7          7           0        0.266312   -0.598738    0.371725
      8          7           0       -1.550519    1.783540    0.231903
      9          7           0        3.358969   -3.044014   -0.673696
     10          7           0        0.680935    2.913478    0.154521
     11          6           0       -0.553670   -2.302188    1.436261
     12          6           0       -0.918081   -1.116898    0.877735
     13          6           0        0.849135   -2.543386    1.369081
     14          6           0        1.343389   -1.385374    0.661002
     15          6           0       -3.842477    1.396530    0.192800
     16          6           0       -2.517538    0.784770    0.485182
     17          6           0       -2.232850   -0.508563    0.831110
     18          6           0       -3.591793    2.804959   -0.055305
     19          6           0       -1.491172   -3.319161    1.948177
     20          6           0        5.547176   -2.668138   -1.350173
     21          6           0        3.611642   -1.828449   -0.184818
     22          6           0       -2.194694    2.957724   -0.079438
     23          6           0        5.097806   -1.523405   -0.469100
     24          6           0       -5.082919    0.674440    0.289152
     25          6           0        2.705631   -0.974941    0.355762
     26          6           0        1.601284   -3.836852    1.921664
     27          6           0        4.398122   -3.648802   -1.285503
     28          6           0       -1.933019   -4.527133    1.033211
     29          6           0       -5.429051   -0.144703   -0.943067
     30          6           0       -4.654739    3.763891   -0.454688
     31          6           0       -1.404165    4.033283   -0.344767
     32          6           0        6.837928   -3.295599   -0.970746
     33          6           0        5.778369   -0.408928   -0.119270
     34          6           0        0.054982    4.058692   -0.138918
     35          6           0        0.878934    5.209522   -0.319645
     36          6           0        2.212529    4.663612   -0.259441
     37          6           0       -2.951869   -4.068166   -0.074819
     38          6           0        5.432208    0.748801    0.651134
     39          6           0       -6.762636   -0.859264   -0.722268
     40          6           0        3.568202    5.357799   -0.345081
     41          6           0        2.114506    3.244584    0.102104
     42          6           0        0.342788    6.459648   -0.722595
     43          6           0        4.373793    5.564219    1.071582
     44          1           0        0.417237    0.441624    0.074409
     45          1           0       -2.993887   -1.148261    1.544695
     46          1           0       -2.280912   -2.789748    2.631828
     47          1           0       -0.860029   -3.911548    2.803034
     48          1           0        5.590367   -2.376241   -2.496912
     49          1           0       -5.109248    0.078173    1.244827
     50          1           0       -5.964402    1.367742    0.603478
     51          1           0        3.025729    0.042467    0.372974
     52          1           0       -0.773531    1.826636    0.714318
     53          1           0        1.941024   -4.706901    1.136264
     54          1           0        2.653888   -3.345552    2.331303
     55          1           0        0.951199   -4.085979    2.857024
     56          1           0        2.493179   -3.684660   -0.755401
     57          1           0       -0.999667   -4.797119    0.592249
     58          1           0       -2.331681   -5.413125    1.552880
     59          1           0       -4.713597   -1.026781   -0.779324
     60          1           0       -5.228332    0.345397   -1.914990
     61          1           0       -4.527817    4.847284   -0.072088
     62          1           0       -5.581515    3.311339   -0.172073
     63          1           0       -4.305115    4.063346   -1.713682
     64          1           0       -1.880833    5.198350   -0.421213
     65          1           0        7.820669   -2.798271   -1.277500
     66          1           0        6.897291   -4.363186   -1.441110
     67          1           0        6.936073   -3.674154    0.047744
     68          1           0        6.789897   -0.198921   -0.467100
     69          1           0        4.689051    1.517670    0.014452
     70          1           0        6.302500    1.296845    1.048599
     71          1           0        5.020209    0.290231    1.590859
     72          1           0        3.277068    6.372541   -0.799833
     73          1           0        4.078579    4.698263   -1.046940
     74          1           0       -0.331486    6.396401   -1.585082
     75          1           0        1.188974    7.307204   -0.962274
     76          1           0       -0.397491    7.058470   -0.151474
     77          1           0        3.721422    6.175941    1.761086
     78          1           0        5.415323    5.663379    0.910885
     79          1           0        4.518972    4.517137    1.649161
     80          1           0       -3.505231   -4.426578   -1.858426
     81          1           0       -7.934157   -2.217321   -1.570684
 ---------------------------------------------------------------------
 Rotational constants (GHZ):           0.0769964           0.0551241           0.0343144
 Standard basis: SVP (5D, 7F)
 There are   835 symmetry adapted cartesian basis functions of A   symmetry.
 There are   792 symmetry adapted basis functions of A   symmetry.
   792 basis functions,  1341 primitive gaussians,   835 cartesian basis functions
   156 alpha electrons      156 beta electrons
       nuclear repulsion energy      5051.1531420591 Hartrees.
 NAtoms=   81 NActive=   81 NUniq=   81 SFac= 1.00D+00 NAtFMM=   60 NAOKFM=T Big=T
 Integral buffers will be    131072 words long.
 Regular integral format.
 Two-electron integral symmetry is turned on.
 One-electron integrals computed using PRISM.
 NBasis=   792 RedAO= T EigKep=  3.70D-04  NBF=   792
 NBsUse=   792 1.00D-06 EigRej= -1.00D+00 NBFU=   792
 ExpMin= 1.22D-01 ExpMax= 2.27D+03 ExpMxC= 3.41D+02 IAcc=3 IRadAn=         5 AccDes= 0.00D+00
 Harris functional with IExCor=  402 and IRadAn=       5 diagonalized for initial guess.
 HarFok:  IExCor=  402 AccDes= 0.00D+00 IRadAn=         5 IDoV= 1 UseB2=F ITyADJ=14
 ICtDFT=  3500011 ScaDFX=  1.000000  1.000000  1.000000  1.000000
 FoFCou: FMM=F IPFlag=           0 FMFlag=      100000 FMFlg1=        2001
         NFxFlg=           0 DoJE=T BraDBF=F KetDBF=T FulRan=T
         wScrn=  0.000000 ICntrl=       500 IOpCl=  0 I1Cent=   200000004 NGrid=           0
         NMat0=    1 NMatS0=      1 NMatT0=    0 NMatD0=    1 NMtDS0=    0 NMtDT0=    0
 Petite list used in FoFCou.
 Requested convergence on RMS density matrix=1.00D-08 within 128 cycles.
 Requested convergence on MAX density matrix=1.00D-06.
 Requested convergence on             energy=1.00D-06.
 No special actions if energy rises.
 Integral accuracy reduced to 1.0D-05 until final iterations.
 Initial convergence to 1.0D-05 achieved.  Increase integral accuracy.
 SCF Done:  E(RB3LYP) =  -1949.06776630     A.U. after   17 cycles
            NFock= 17  Conv=0.52D-08     -V/T= 2.0114
 DoSCS=F DFT=T ScalE2(SS,OS)=  1.000000  1.000000
 ExpMin= 1.22D-01 ExpMax= 2.27D+03 ExpMxC= 3.41D+02 IAcc=3 IRadAn=         5 AccDes= 0.00D+00
 HarFok:  IExCor=  205 AccDes= 0.00D+00 IRadAn=         5 IDoV=-2 UseB2=F ITyADJ=14
 ICtDFT= 12500011 ScaDFX=  1.000000  1.000000  1.000000  1.000000
 GSVD:  LWork=       -2193 too small for GESVD, short by        9890 words or        9890 for optimal perf.
 Range of M.O.s used for correlation:    44   792
 NBasis=   792 NAE=   156 NBE=   156 NFC=    43 NFV=     0
 NROrb=    749 NOA=   113 NOB=   113 NVA=   636 NVB=   636

 **** Warning!!: The smallest alpha delta epsilon is  0.64713529D-01

 Orbital symmetries:
       Occupied  (A) (A) (A) (A) (A) (A) (A) (A) (A) (A) (A) (A)
                 (A) (A) (A) (A) (A) (A) (A) (A) (A) (A) (A) (A)
                 (A) (A) (A) (A) (A) (A) (A) (A) (A) (A) (A) (A)
                 (A) (A) (A) (A) (A) (A) (A) (A) (A) (A) (A) (A)
                 (A) (A) (A) (A) (A) (A) (A) (A) (A) (A) (A) (A)
                 (A) (A) (A) (A) (A) (A) (A) (A) (A) (A) (A) (A)
                 (A) (A) (A) (A) (A) (A) (A) (A) (A) (A) (A) (A)
                 (A) (A) (A) (A) (A) (A) (A) (A) (A) (A) (A) (A)
                 (A) (A) (A) (A) (A) (A) (A) (A) (A) (A) (A) (A)
                 (A) (A) (A) (A) (A) (A) (A) (A) (A) (A) (A) (A)
                 (A) (A) (A) (A) (A) (A) (A) (A) (A) (A) (A) (A)
                 (A) (A) (A) (A) (A) (A) (A) (A) (A) (A) (A) (A)
                 (A) (A) (A) (A) (A) (A) (A) (A) (A) (A) (A) (A)
       Virtual   (A) (A) (A) (A) (A) (A) (A) (A) (A) (A) (A) (A)
                 (A) (A) (A) (A) (A) (A) (A) (A) (A) (A) (A) (A)
                 (A) (A) (A) (A) (A) (A) (A) (A) (A) (A) (A) (A)
                 (A) (A) (A) (A) (A) (A) (A) (A) (A) (A) (A) (A)
                 (A) (A) (A) (A) (A) (A) (A) (A) (A) (A) (A) (A)
                 (A) (A) (A) (A) (A) (A) (A) (A) (A) (A) (A) (A)
                 (A) (A) (A) (A) (A) (A) (A) (A) (A) (A) (A) (A)
                 (A) (A) (A) (A) (A) (A) (A) (A) (A) (A) (A) (A)
                 (A) (A) (A) (A) (A) (A) (A) (A) (A) (A) (A) (A)
                 (A) (A) (A) (A) (A) (A) (A) (A) (A) (A) (A) (A)
                 (A) (A) (A) (A) (A) (A) (A) (A) (A) (A) (A) (A)
                 (A) (A) (A) (A) (A) (A) (A) (A) (A) (A) (A) (A)
                 (A) (A) (A) (A) (A) (A) (A) (A) (A) (A) (A) (A)
                 (A) (A) (A) (A) (A) (A) (A) (A) (A) (A) (A) (A)
                 (A) (A) (A) (A) (A) (A) (A) (A) (A) (A) (A) (A)
                 (A) (A) (A) (A) (A) (A) (A) (A) (A) (A) (A) (A)
                 (A) (A) (A) (A) (A) (A) (A) (A) (A) (A) (A) (A)
                 (A) (A) (A) (A) (A) (A) (A) (A) (A) (A) (A) (A)
                 (A) (A) (A) (A) (A) (A) (A) (A) (A) (A) (A) (A)
                 (A) (A) (A) (A) (A) (A) (A) (A) (A) (A) (A) (A)
                 (A) (A) (A) (A) (A) (A) (A) (A) (A) (A) (A) (A)
                 (A) (A) (A) (A) (A) (A) (A) (A) (A) (A) (A) (A)
                 (A) (A) (A) (A) (A) (A) (A) (A) (A) (A) (A) (A)
                 (A) (A) (A) (A) (A) (A) (A) (A) (A) (A) (A) (A)
                 (A) (A) (A) (A) (A) (A) (A) (A) (A) (A) (A) (A)
                 (A) (A) (A) (A) (A) (A) (A) (A) (A) (A) (A) (A)
                 (A) (A) (A) (A) (A) (A) (A) (A) (A) (A) (A) (A)
                 (A) (A) (A) (A) (A) (A) (A) (A) (A) (A) (A) (A)
                 (A) (A) (A) (A) (A) (A) (A) (A) (A) (A) (A) (A)
                 (A) (A) (A) (A) (A) (A) (A) (A) (A) (A) (A) (A)
                 (A) (A) (A) (A) (A) (A) (A) (A) (A) (A) (A) (A)
                 (A) (A) (A) (A) (A) (A) (A) (A) (A) (A) (A) (A)
                 (A) (A) (A) (A) (A) (A) (A) (A) (A) (A) (A) (A)
                 (A) (A) (A) (A) (A) (A) (A) (A) (A) (A) (A) (A)
                 (A) (A) (A) (A) (A) (A) (A) (A) (A) (A) (A) (A)
                 (A) (A) (A) (A) (A) (A) (A) (A) (A) (A) (A) (A)
                 (A) (A) (A) (A) (A) (A) (A) (A) (A) (A) (A) (A)
                 (A) (A) (A) (A) (A) (A) (A) (A) (A) (A) (A) (A)
                 (A) (A) (A) (A) (A) (A) (A) (A) (A) (A) (A) (A)
                 (A) (A) (A) (A) (A) (A) (A) (A) (A) (A) (A) (A)
                 (A) (A) (A) (A) (A) (A) (A) (A) (A) (A) (A) (A)
                 (A) (A) (A) (A) (A) (A) (A) (A) (A) (A) (A) (A)
                 (A) (A) (A) (A) (A) (A) (A) (A) (A) (A) (A) (A)
                 (A) (A) (A) (A) (A) (A) (A) (A) (A) (A) (A) (A)
                 (A) (A) (A) (A) (A) (A) (A) (A) (A) (A) (A) (A)
                 (A) (A) (A) (A) (A) (A) (A) (A) (A) (A) (A) (A)
                 (A) (A) (A) (A) (A) (A) (A) (A) (A) (A) (A) (A)
                 (A) (A) (A) (A) (A) (A) (A) (A) (A) (A) (A) (A)
                 (A) (A) (A) (A) (A) (A) (A) (A) (A) (A) (A) (A)
                 (A) (A) (A) (A) (A) (A) (A) (A) (A) (A) (A) (A)
                 (A) (A) (A) (A) (A) (A) (A) (A) (A) (A) (A) (A)
                 (A) (A) (A) (A) (A) (A) (A) (A) (A) (A) (A) (A)
                 (A) (A) (A) (A) (A) (A) (A) (A) (A) (A) (A) (A)
     4 initial guesses have been made.
 Convergence on wavefunction:    0.001000000000000
 Iteration     1 Dimension     4 NMult     0 NNew      4
 CISAX will form     4 AO SS matrices at one time.
 Iteration     2 Dimension     6 NMult     4 NNew      2
 Iteration     3 Dimension     8 NMult     6 NNew      2
 Iteration     4 Dimension    10 NMult     8 NNew      2
 Iteration     5 Dimension    12 NMult    10 NNew      2
 Iteration     6 Dimension    14 NMult    12 NNew      2
 Iteration     7 Dimension    16 NMult    14 NNew      2
 ***********************************************************************
 Excited states from <AA,BB:AA,BB> singles matrix:
 ***********************************************************************
 
 Ground to excited state transition densities written to RWF  633
 Ground to excited state transition electric dipole moments (Au):
       state          X           Y           Z        Dip. S.      Osc.
         1         0.2327     -2.3231      0.1633      5.4778      0.2101
 Ground to excited state transition velocity dipole moments (Au):
       state          X           Y           Z        Dip. S.      Osc.
         1        -0.0162      0.1289     -0.0089      0.0170      0.1964
 Ground to excited state transition magnetic dipole moments (Au):
       state          X           Y           Z
         1        -0.1739     -0.4027     -2.0023
 Ground to excited state transition velocity quadrupole moments (Au):
       state          XX          YY          ZZ          XY          XZ          YZ
         1        -0.2864      0.5511     -0.0560      0.3528      0.0550      0.0172
 <0|del|b> * <b|rxdel|0> + <0|del|b> * <b|delr+rdel|0>
 Rotatory Strengths (R) in cgs (10**-40 erg-esu-cm/Gauss)
       state          XX          YY          ZZ    R(velocity)    E-M Angle
         1      -272.3410    144.3299   -256.3708   -128.1273       96.73
 1/2[<0|r|b>*<b|rxdel|0> + (<0|rxdel|b>*<b|r|0>)*]
 Rotatory Strengths (R) in cgs (10**-40 erg-esu-cm/Gauss)
       state          XX          YY          ZZ     R(length)
         1        28.6210   -661.5309    231.2509   -133.8863
  1/2[<0|del|b>*<b|r|0> + (<0|r|b>*<b|del|0>)*] (Au)
       state          X           Y           Z        Dip. S.   Osc.(frdel)
         1        -0.0038     -0.2994     -0.0015      0.3047      0.2031

 Excitation energies and oscillator strengths:
 
 Excited State   1:      Singlet-A      1.5658 eV  791.85 nm  f=0.2101  <S**2>=0.000
     156 ->157         0.70452
     156 <-157        -0.12092
 This state for optimization and/or second-order correction.
 Total Energy, E(TD-HF/TD-DFT) =  -1949.01022563    
 Copying the excited state density for this state as the 1-particle RhoCI density.
 SavETr:  write IOETrn=   770 NScale= 10 NData=  16 NLR=1 NState=    1 LETran=      28.

 **********************************************************************

            Population analysis using the SCF density.

 **********************************************************************

 Orbital symmetries:
       Occupied  (A) (A) (A) (A) (A) (A) (A) (A) (A) (A) (A) (A)
                 (A) (A) (A) (A) (A) (A) (A) (A) (A) (A) (A) (A)
                 (A) (A) (A) (A) (A) (A) (A) (A) (A) (A) (A) (A)
                 (A) (A) (A) (A) (A) (A) (A) (A) (A) (A) (A) (A)
                 (A) (A) (A) (A) (A) (A) (A) (A) (A) (A) (A) (A)
                 (A) (A) (A) (A) (A) (A) (A) (A) (A) (A) (A) (A)
                 (A) (A) (A) (A) (A) (A) (A) (A) (A) (A) (A) (A)
                 (A) (A) (A) (A) (A) (A) (A) (A) (A) (A) (A) (A)
                 (A) (A) (A) (A) (A) (A) (A) (A) (A) (A) (A) (A)
                 (A) (A) (A) (A) (A) (A) (A) (A) (A) (A) (A) (A)
                 (A) (A) (A) (A) (A) (A) (A) (A) (A) (A) (A) (A)
                 (A) (A) (A) (A) (A) (A) (A) (A) (A) (A) (A) (A)
                 (A) (A) (A) (A) (A) (A) (A) (A) (A) (A) (A) (A)
       Virtual   (A) (A) (A) (A) (A) (A) (A) (A) (A) (A) (A) (A)
                 (A) (A) (A) (A) (A) (A) (A) (A) (A) (A) (A) (A)
                 (A) (A) (A) (A) (A) (A) (A) (A) (A) (A) (A) (A)
                 (A) (A) (A) (A) (A) (A) (A) (A) (A) (A) (A) (A)
                 (A) (A) (A) (A) (A) (A) (A) (A) (A) (A) (A) (A)
                 (A) (A) (A) (A) (A) (A) (A) (A) (A) (A) (A) (A)
                 (A) (A) (A) (A) (A) (A) (A) (A) (A) (A) (A) (A)
                 (A) (A) (A) (A) (A) (A) (A) (A) (A) (A) (A) (A)
                 (A) (A) (A) (A) (A) (A) (A) (A) (A) (A) (A) (A)
                 (A) (A) (A) (A) (A) (A) (A) (A) (A) (A) (A) (A)
                 (A) (A) (A) (A) (A) (A) (A) (A) (A) (A) (A) (A)
                 (A) (A) (A) (A) (A) (A) (A) (A) (A) (A) (A) (A)
                 (A) (A) (A) (A) (A) (A) (A) (A) (A) (A) (A) (A)
                 (A) (A) (A) (A) (A) (A) (A) (A) (A) (A) (A) (A)
                 (A) (A) (A) (A) (A) (A) (A) (A) (A) (A) (A) (A)
                 (A) (A) (A) (A) (A) (A) (A) (A) (A) (A) (A) (A)
                 (A) (A) (A) (A) (A) (A) (A) (A) (A) (A) (A) (A)
                 (A) (A) (A) (A) (A) (A) (A) (A) (A) (A) (A) (A)
                 (A) (A) (A) (A) (A) (A) (A) (A) (A) (A) (A) (A)
                 (A) (A) (A) (A) (A) (A) (A) (A) (A) (A) (A) (A)
                 (A) (A) (A) (A) (A) (A) (A) (A) (A) (A) (A) (A)
                 (A) (A) (A) (A) (A) (A) (A) (A) (A) (A) (A) (A)
                 (A) (A) (A) (A) (A) (A) (A) (A) (A) (A) (A) (A)
                 (A) (A) (A) (A) (A) (A) (A) (A) (A) (A) (A) (A)
                 (A) (A) (A) (A) (A) (A) (A) (A) (A) (A) (A) (A)
                 (A) (A) (A) (A) (A) (A) (A) (A) (A) (A) (A) (A)
                 (A) (A) (A) (A) (A) (A) (A) (A) (A) (A) (A) (A)
                 (A) (A) (A) (A) (A) (A) (A) (A) (A) (A) (A) (A)
                 (A) (A) (A) (A) (A) (A) (A) (A) (A) (A) (A) (A)
                 (A) (A) (A) (A) (A) (A) (A) (A) (A) (A) (A) (A)
                 (A) (A) (A) (A) (A) (A) (A) (A) (A) (A) (A) (A)
                 (A) (A) (A) (A) (A) (A) (A) (A) (A) (A) (A) (A)
                 (A) (A) (A) (A) (A) (A) (A) (A) (A) (A) (A) (A)
                 (A) (A) (A) (A) (A) (A) (A) (A) (A) (A) (A) (A)
                 (A) (A) (A) (A) (A) (A) (A) (A) (A) (A) (A) (A)
                 (A) (A) (A) (A) (A) (A) (A) (A) (A) (A) (A) (A)
                 (A) (A) (A) (A) (A) (A) (A) (A) (A) (A) (A) (A)
                 (A) (A) (A) (A) (A) (A) (A) (A) (A) (A) (A) (A)
                 (A) (A) (A) (A) (A) (A) (A) (A) (A) (A) (A) (A)
                 (A) (A) (A) (A) (A) (A) (A) (A) (A) (A) (A) (A)
                 (A) (A) (A) (A) (A) (A) (A) (A) (A) (A) (A) (A)
                 (A) (A) (A) (A) (A) (A) (A) (A) (A) (A) (A) (A)
                 (A) (A) (A) (A) (A) (A) (A) (A) (A) (A) (A) (A)
                 (A) (A) (A) (A) (A) (A) (A) (A) (A) (A) (A) (A)
                 (A) (A) (A) (A) (A) (A) (A) (A) (A) (A) (A) (A)
                 (A) (A) (A) (A) (A) (A) (A) (A) (A) (A) (A) (A)
                 (A) (A) (A) (A) (A) (A) (A) (A) (A) (A) (A) (A)
                 (A) (A) (A) (A) (A) (A) (A) (A) (A) (A) (A) (A)
                 (A) (A) (A) (A) (A) (A) (A) (A) (A) (A) (A) (A)
                 (A) (A) (A) (A) (A) (A) (A) (A) (A) (A) (A) (A)
                 (A) (A) (A) (A) (A) (A) (A) (A) (A) (A) (A) (A)
                 (A) (A) (A) (A) (A) (A) (A) (A) (A) (A) (A) (A)
                 (A) (A) (A) (A) (A) (A) (A) (A) (A) (A) (A) (A)
 The electronic state is 1-A.
 Alpha  occ. eigenvalues --  -19.20555 -19.17937 -19.14865 -19.13814 -19.11791
 Alpha  occ. eigenvalues --  -19.10791 -14.37194 -14.37131 -14.34738 -14.28368
 Alpha  occ. eigenvalues --  -10.33804 -10.33422 -10.28271 -10.27265 -10.23905
 Alpha  occ. eigenvalues --  -10.23357 -10.23272 -10.23255 -10.22924 -10.22509
 Alpha  occ. eigenvalues --  -10.22150 -10.22144 -10.22102 -10.22097 -10.21730
 Alpha  occ. eigenvalues --  -10.21620 -10.21340 -10.21063 -10.21048 -10.20924
 Alpha  occ. eigenvalues --  -10.20755 -10.20704 -10.20436 -10.20383 -10.20018
 Alpha  occ. eigenvalues --  -10.19929 -10.19795 -10.19597 -10.19117 -10.18907
 Alpha  occ. eigenvalues --  -10.18682 -10.17626 -10.17349  -1.09993  -1.05654
 Alpha  occ. eigenvalues --   -1.05441  -1.02353  -1.01222  -0.98175  -0.97990
 Alpha  occ. eigenvalues --   -0.97229  -0.96376  -0.91071  -0.82978  -0.81510
 Alpha  occ. eigenvalues --   -0.81397  -0.80674  -0.79352  -0.78756  -0.77620
 Alpha  occ. eigenvalues --   -0.76572  -0.75895  -0.75626  -0.74078  -0.71640
 Alpha  occ. eigenvalues --   -0.70334  -0.69328  -0.68596  -0.67858  -0.66861
 Alpha  occ. eigenvalues --   -0.66797  -0.65041  -0.63906  -0.62868  -0.61764
 Alpha  occ. eigenvalues --   -0.60279  -0.58775  -0.58292  -0.57087  -0.56301
 Alpha  occ. eigenvalues --   -0.55958  -0.54982  -0.53370  -0.53337  -0.52998
 Alpha  occ. eigenvalues --   -0.51822  -0.51270  -0.50641  -0.50089  -0.49845
 Alpha  occ. eigenvalues --   -0.49496  -0.48738  -0.48370  -0.47826  -0.47495
 Alpha  occ. eigenvalues --   -0.47184  -0.46409  -0.46251  -0.45700  -0.45326
 Alpha  occ. eigenvalues --   -0.44681  -0.44304  -0.44159  -0.43905  -0.43657
 Alpha  occ. eigenvalues --   -0.43478  -0.42638  -0.42371  -0.41793  -0.41481
 Alpha  occ. eigenvalues --   -0.41413  -0.41152  -0.40958  -0.40822  -0.40681
 Alpha  occ. eigenvalues --   -0.40051  -0.39806  -0.39605  -0.39531  -0.39414
 Alpha  occ. eigenvalues --   -0.39306  -0.38725  -0.38382  -0.38106  -0.37961
 Alpha  occ. eigenvalues --   -0.37495  -0.37413  -0.36915  -0.36667  -0.36431
 Alpha  occ. eigenvalues --   -0.36400  -0.36291  -0.35252  -0.34879  -0.34814
 Alpha  occ. eigenvalues --   -0.34359  -0.33446  -0.33198  -0.32677  -0.32663
 Alpha  occ. eigenvalues --   -0.32173  -0.31642  -0.30377  -0.29936  -0.29294
 Alpha  occ. eigenvalues --   -0.28509  -0.28051  -0.26535  -0.25922  -0.25018
 Alpha  occ. eigenvalues --   -0.24947  -0.24446  -0.24089  -0.22517  -0.21112
 Alpha  occ. eigenvalues --   -0.17578
 Alpha virt. eigenvalues --   -0.11106  -0.07086  -0.03309  -0.01940  -0.01398
 Alpha virt. eigenvalues --    0.00115   0.01726   0.01920   0.02206   0.02799
 Alpha virt. eigenvalues --    0.03656   0.04406   0.04773   0.04985   0.05564
 Alpha virt. eigenvalues --    0.05943   0.06365   0.07043   0.07192   0.07817
 Alpha virt. eigenvalues --    0.07865   0.08561   0.08588   0.08692   0.09216
 Alpha virt. eigenvalues --    0.09330   0.09743   0.09923   0.10156   0.10271
 Alpha virt. eigenvalues --    0.10427   0.10664   0.11334   0.11454   0.12169
 Alpha virt. eigenvalues --    0.12776   0.13021   0.13494   0.13862   0.14128
 Alpha virt. eigenvalues --    0.14315   0.14601   0.14693   0.15178   0.15397
 Alpha virt. eigenvalues --    0.15851   0.16516   0.16593   0.17202   0.17673
 Alpha virt. eigenvalues --    0.18023   0.18588   0.19011   0.19148   0.19505
 Alpha virt. eigenvalues --    0.20089   0.20711   0.20906   0.21422   0.21705
 Alpha virt. eigenvalues --    0.22068   0.22529   0.22633   0.23071   0.23571
 Alpha virt. eigenvalues --    0.24243   0.25266   0.25531   0.25872   0.26014
 Alpha virt. eigenvalues --    0.26508   0.27190   0.27585   0.27810   0.28667
 Alpha virt. eigenvalues --    0.28824   0.29571   0.29959   0.30085   0.30433
 Alpha virt. eigenvalues --    0.30858   0.31322   0.32504   0.33565   0.33781
 Alpha virt. eigenvalues --    0.34604   0.34908   0.35120   0.35803   0.36573
 Alpha virt. eigenvalues --    0.36810   0.36910   0.37218   0.37682   0.38696
 Alpha virt. eigenvalues --    0.39326   0.39843   0.40330   0.40808   0.41490
 Alpha virt. eigenvalues --    0.41940   0.42146   0.42441   0.42661   0.42739
 Alpha virt. eigenvalues --    0.43014   0.43588   0.43977   0.44597   0.44816
 Alpha virt. eigenvalues --    0.44999   0.45164   0.45861   0.46349   0.46646
 Alpha virt. eigenvalues --    0.46978   0.47330   0.47838   0.48019   0.48296
 Alpha virt. eigenvalues --    0.48679   0.49145   0.49392   0.49653   0.49909
 Alpha virt. eigenvalues --    0.50041   0.50162   0.50750   0.50775   0.50974
 Alpha virt. eigenvalues --    0.51538   0.52007   0.52334   0.52738   0.52940
 Alpha virt. eigenvalues --    0.53737   0.53921   0.54266   0.54840   0.55044
 Alpha virt. eigenvalues --    0.55154   0.55457   0.55787   0.56430   0.56849
 Alpha virt. eigenvalues --    0.56960   0.57281   0.57631   0.57839   0.58457
 Alpha virt. eigenvalues --    0.58585   0.59023   0.59524   0.59701   0.59949
 Alpha virt. eigenvalues --    0.60096   0.60228   0.60865   0.61118   0.61486
 Alpha virt. eigenvalues --    0.61714   0.61955   0.62424   0.62531   0.62875
 Alpha virt. eigenvalues --    0.63032   0.63103   0.63510   0.63767   0.64100
 Alpha virt. eigenvalues --    0.64124   0.64365   0.64780   0.64847   0.64943
 Alpha virt. eigenvalues --    0.65176   0.65509   0.65665   0.66186   0.66289
 Alpha virt. eigenvalues --    0.66376   0.66533   0.66806   0.67513   0.67822
 Alpha virt. eigenvalues --    0.68015   0.68156   0.68398   0.68438   0.68914
 Alpha virt. eigenvalues --    0.69220   0.69268   0.69288   0.69825   0.70068
 Alpha virt. eigenvalues --    0.70223   0.70280   0.70685   0.70985   0.71185
 Alpha virt. eigenvalues --    0.71624   0.72150   0.72312   0.72587   0.73116
 Alpha virt. eigenvalues --    0.73310   0.73576   0.73985   0.74204   0.75009
 Alpha virt. eigenvalues --    0.75307   0.75937   0.76485   0.76991   0.77305
 Alpha virt. eigenvalues --    0.77523   0.77825   0.78316   0.78456   0.79057
 Alpha virt. eigenvalues --    0.80105   0.80418   0.81327   0.81436   0.82069
 Alpha virt. eigenvalues --    0.82390   0.83498   0.83575   0.84021   0.84653
 Alpha virt. eigenvalues --    0.84992   0.85579   0.86439   0.86818   0.87382
 Alpha virt. eigenvalues --    0.89152   0.89345   0.90063   0.91115   0.91635
 Alpha virt. eigenvalues --    0.92183   0.92889   0.94401   0.94596   0.95364
 Alpha virt. eigenvalues --    0.95696   0.96287   0.96355   0.96833   0.97551
 Alpha virt. eigenvalues --    0.97858   0.98055   0.98690   0.99033   1.00071
 Alpha virt. eigenvalues --    1.00402   1.01270   1.01871   1.02731   1.03270
 Alpha virt. eigenvalues --    1.03395   1.04022   1.04144   1.05599   1.06164
 Alpha virt. eigenvalues --    1.06796   1.07943   1.08325   1.08956   1.09696
 Alpha virt. eigenvalues --    1.09970   1.10469   1.10925   1.11546   1.12456
 Alpha virt. eigenvalues --    1.13206   1.13776   1.14977   1.15622   1.16951
 Alpha virt. eigenvalues --    1.17192   1.18224   1.18719   1.18873   1.19483
 Alpha virt. eigenvalues --    1.20317   1.21291   1.22198   1.23020   1.23825
 Alpha virt. eigenvalues --    1.24257   1.24444   1.25230   1.25961   1.26072
 Alpha virt. eigenvalues --    1.26960   1.27235   1.27996   1.28437   1.29458
 Alpha virt. eigenvalues --    1.29761   1.30325   1.32062   1.32807   1.33558
 Alpha virt. eigenvalues --    1.33734   1.34485   1.35417   1.35791   1.36353
 Alpha virt. eigenvalues --    1.36830   1.37910   1.38025   1.39572   1.39795
 Alpha virt. eigenvalues --    1.40621   1.40700   1.41265   1.41656   1.43581
 Alpha virt. eigenvalues --    1.43933   1.44292   1.45218   1.45869   1.46505
 Alpha virt. eigenvalues --    1.46849   1.47040   1.47901   1.48078   1.48443
 Alpha virt. eigenvalues --    1.49098   1.49401   1.50780   1.51061   1.51707
 Alpha virt. eigenvalues --    1.51976   1.52849   1.53579   1.54713   1.54975
 Alpha virt. eigenvalues --    1.55526   1.55645   1.56299   1.56348   1.57620
 Alpha virt. eigenvalues --    1.58089   1.58516   1.58880   1.58936   1.59529
 Alpha virt. eigenvalues --    1.60180   1.61349   1.61773   1.62045   1.62511
 Alpha virt. eigenvalues --    1.62844   1.63082   1.63522   1.64174   1.64675
 Alpha virt. eigenvalues --    1.65012   1.65537   1.66438   1.66783   1.66927
 Alpha virt. eigenvalues --    1.67590   1.68030   1.68546   1.68885   1.69150
 Alpha virt. eigenvalues --    1.69328   1.69915   1.70007   1.70992   1.71471
 Alpha virt. eigenvalues --    1.71603   1.72016   1.72464   1.72907   1.73166
 Alpha virt. eigenvalues --    1.73353   1.74290   1.74619   1.75122   1.75418
 Alpha virt. eigenvalues --    1.75741   1.76282   1.76533   1.76857   1.76934
 Alpha virt. eigenvalues --    1.77328   1.77564   1.77841   1.78029   1.78341
 Alpha virt. eigenvalues --    1.79524   1.79931   1.80092   1.80199   1.80604
 Alpha virt. eigenvalues --    1.81097   1.81420   1.81442   1.81856   1.82054
 Alpha virt. eigenvalues --    1.82657   1.83119   1.83459   1.84287   1.84388
 Alpha virt. eigenvalues --    1.84763   1.85453   1.85614   1.85755   1.86063
 Alpha virt. eigenvalues --    1.86464   1.86881   1.87232   1.88421   1.88659
 Alpha virt. eigenvalues --    1.89153   1.89299   1.89376   1.90300   1.90371
 Alpha virt. eigenvalues --    1.90836   1.91043   1.91449   1.92162   1.92873
 Alpha virt. eigenvalues --    1.93197   1.93255   1.94046   1.94170   1.94861
 Alpha virt. eigenvalues --    1.95190   1.95595   1.96016   1.96811   1.96968
 Alpha virt. eigenvalues --    1.97628   1.98145   1.98946   1.99453   1.99695
 Alpha virt. eigenvalues --    2.00426   2.01041   2.01476   2.01764   2.02273
 Alpha virt. eigenvalues --    2.02914   2.03143   2.03481   2.04479   2.04637
 Alpha virt. eigenvalues --    2.04896   2.05242   2.05658   2.05929   2.06832
 Alpha virt. eigenvalues --    2.07465   2.08043   2.08719   2.09630   2.09894
 Alpha virt. eigenvalues --    2.10331   2.11037   2.11277   2.11838   2.12526
 Alpha virt. eigenvalues --    2.12871   2.14077   2.15140   2.16097   2.16959
 Alpha virt. eigenvalues --    2.18312   2.18534   2.18969   2.19675   2.20244
 Alpha virt. eigenvalues --    2.20428   2.21208   2.21526   2.22247   2.22326
 Alpha virt. eigenvalues --    2.23383   2.23619   2.25149   2.25551   2.25618
 Alpha virt. eigenvalues --    2.26888   2.27212   2.27506   2.27892   2.28658
 Alpha virt. eigenvalues --    2.29214   2.30071   2.30636   2.31002   2.32507
 Alpha virt. eigenvalues --    2.33169   2.33997   2.34943   2.35566   2.35735
 Alpha virt. eigenvalues --    2.36546   2.37166   2.37404   2.37955   2.38545
 Alpha virt. eigenvalues --    2.39295   2.39883   2.40478   2.41159   2.41388
 Alpha virt. eigenvalues --    2.41896   2.43106   2.43889   2.44911   2.45818
 Alpha virt. eigenvalues --    2.46431   2.46706   2.47263   2.48793   2.49097
 Alpha virt. eigenvalues --    2.49497   2.50088   2.50804   2.51406   2.52988
 Alpha virt. eigenvalues --    2.53686   2.54469   2.56723   2.57852   2.58339
 Alpha virt. eigenvalues --    2.58829   2.59051   2.59300   2.60112   2.61138
 Alpha virt. eigenvalues --    2.61585   2.63019   2.63441   2.63821   2.64735
 Alpha virt. eigenvalues --    2.65418   2.66355   2.66800   2.67401   2.68916
 Alpha virt. eigenvalues --    2.68953   2.69449   2.70596   2.70740   2.71304
 Alpha virt. eigenvalues --    2.71496   2.72319   2.73204   2.74038   2.74554
 Alpha virt. eigenvalues --    2.75015   2.75663   2.76479   2.77161   2.78064
 Alpha virt. eigenvalues --    2.79250   2.79391   2.80038   2.80196   2.80768
 Alpha virt. eigenvalues --    2.80978   2.81665   2.82208   2.82583   2.82884
 Alpha virt. eigenvalues --    2.83726   2.84150   2.85010   2.85459   2.85756
 Alpha virt. eigenvalues --    2.86141   2.86504   2.87632   2.88238   2.88902
 Alpha virt. eigenvalues --    2.89362   2.90953   2.92659   2.93974   2.94532
 Alpha virt. eigenvalues --    2.94962   2.95500   2.96192   2.96277   2.96521
 Alpha virt. eigenvalues --    2.98919   3.00808   3.00993   3.02230   3.03873
 Alpha virt. eigenvalues --    3.05893   3.07024   3.07815   3.08670   3.09108
 Alpha virt. eigenvalues --    3.09826   3.10747   3.11192   3.11641   3.13740
 Alpha virt. eigenvalues --    3.13890   3.13980   3.14937   3.14967   3.18261
 Alpha virt. eigenvalues --    3.18791   3.21340   3.22317   3.22892   3.29684
 Alpha virt. eigenvalues --    3.33031   3.39488   3.39667   3.40630   3.44789
 Alpha virt. eigenvalues --    3.48262   3.51139   3.51306   3.54250   3.59330
 Alpha virt. eigenvalues --    3.61983   3.65075   3.67731   3.68470   3.70005
 Alpha virt. eigenvalues --    3.70322
          Condensed to atoms (all electrons):
 Mulliken charges:
               1
     1  O   -0.191592
     2  O   -0.206457
     3  O   -0.282908
     4  O   -0.216312
     5  O   -0.261218
     6  O   -0.209529
     7  N   -0.106020
     8  N   -0.033787
     9  N   -0.071411
    10  N   -0.336894
    11  C   -0.094655
    12  C    0.015068
    13  C   -0.135794
    14  C    0.051018
    15  C   -0.063365
    16  C    0.076276
    17  C   -0.070291
    18  C   -0.102480
    19  C   -0.009175
    20  C   -0.028353
    21  C    0.078008
    22  C    0.137809
    23  C    0.042199
    24  C    0.005340
    25  C   -0.098846
    26  C   -0.029802
    27  C    0.042864
    28  C    0.066862
    29  C    0.003848
    30  C    0.035452
    31  C   -0.162049
    32  C    0.015596
    33  C   -0.198572
    34  C    0.024259
    35  C   -0.010747
    36  C   -0.211523
    37  C    0.154020
    38  C    0.013808
    39  C    0.197646
    40  C    0.063517
    41  C    0.199689
    42  C    0.016162
    43  C   -0.018457
    44  H    0.172355
    45  H    0.064826
    46  H    0.027584
    47  H    0.003862
    48  H    0.062021
    49  H    0.028526
    50  H    0.024384
    51  H   -0.015942
    52  H    0.099087
    53  H    0.064703
    54  H    0.051771
    55  H    0.046393
    56  H    0.164616
    57  H    0.018668
    58  H    0.046102
    59  H    0.078376
    60  H    0.058060
    61  H    0.034270
    62  H    0.026291
    63  H    0.045403
    64  H    0.005912
    65  H    0.029737
    66  H    0.023151
    67  H    0.001407
    68  H   -0.011755
    69  H    0.126075
    70  H   -0.004829
    71  H    0.026244
    72  H    0.011146
    73  H    0.018804
    74  H    0.027425
    75  H    0.035052
    76  H    0.021981
    77  H    0.042211
    78  H    0.014513
    79  H    0.027287
    80  H    0.205369
    81  H    0.209714
 Sum of Mulliken charges =  -0.00000
 Mulliken charges with hydrogens summed into heavy atoms:
               1
     1  O   -0.191592
     2  O   -0.001089
     3  O   -0.073195
     4  O   -0.216312
     5  O   -0.261218
     6  O   -0.209529
     7  N    0.066336
     8  N    0.065300
     9  N    0.093206
    10  N   -0.336894
    11  C   -0.094655
    12  C    0.015068
    13  C   -0.135794
    14  C    0.051018
    15  C   -0.063365
    16  C    0.076276
    17  C   -0.005465
    18  C   -0.102480
    19  C    0.022272
    20  C    0.033668
    21  C    0.078008
    22  C    0.137809
    23  C    0.042199
    24  C    0.058250
    25  C   -0.114788
    26  C    0.133064
    27  C    0.042864
    28  C    0.131632
    29  C    0.140285
    30  C    0.141415
    31  C   -0.156137
    32  C    0.069892
    33  C   -0.210327
    34  C    0.024259
    35  C   -0.010747
    36  C   -0.211523
    37  C    0.154020
    38  C    0.161298
    39  C    0.197646
    40  C    0.093467
    41  C    0.199689
    42  C    0.100620
    43  C    0.065553
 Electronic spatial extent (au):  <R**2>=          30228.1211
 Charge=             -0.0000 electrons
 Dipole moment (field-independent basis, Debye):
    X=             -1.8578    Y=              1.4699    Z=             -0.5559  Tot=              2.4333
 Quadrupole moment (field-independent basis, Debye-Ang):
   XX=           -254.4844   YY=           -235.9077   ZZ=           -256.3376
   XY=             16.1545   XZ=             11.3782   YZ=             -9.4995
 Traceless Quadrupole moment (field-independent basis, Debye-Ang):
   XX=             -5.5745   YY=             13.0023   ZZ=             -7.4277
   XY=             16.1545   XZ=             11.3782   YZ=             -9.4995
 Octapole moment (field-independent basis, Debye-Ang**2):
  XXX=             81.4707  YYY=            122.4217  ZZZ=            -17.6503  XYY=           -182.5246
  XXY=            -13.5490  XXZ=            -76.3616  XZZ=            -31.9921  YZZ=            -27.4910
  YYZ=             26.7870  XYZ=            -53.6127
 Hexadecapole moment (field-independent basis, Debye-Ang**3):
 XXXX=         -22451.4437 YYYY=         -15954.1614 ZZZZ=          -1635.2477 XXXY=            761.1534
 XXXZ=            650.3410 YYYX=            783.2130 YYYZ=           -339.3021 ZZZX=             26.1901
 ZZZY=             84.8740 XXYY=          -6355.5423 XXZZ=          -4094.6818 YYZZ=          -3075.9657
 XXYZ=            106.1335 YYXZ=            307.8002 ZZXY=            181.9636
 N-N= 5.051153142059D+03 E-N=-1.463302298673D+04  KE= 1.927123021749D+03
 1\1\GINC-PADAWAN\SP\RB3LYP TD-FC\SVP\C33H38N4O6\PADAWAN\27-Jun-2019\0\
 \# td=(NStates=1) B3LYP/SVP\\TD\\0,1\O,0,-4.1899905099,-4.8570200732,1
 .6937133997\O,0,2.9211961483,-4.7527665835,1.2143455719\O,0,7.16718302
 26,-1.4690741771,1.9035530348\O,0,3.6760126588,-2.9747955046,-0.083531
 6926\O,0,7.5236619028,-0.6630762027,-0.268812914\O,0,-3.0243080169,2.2
 996580166,-0.3208036418\N,0,-0.2517421689,-0.6051447076,-0.3747044833\
 N,0,1.5082993226,1.8186022927,-0.221813759\N,0,-3.2906610551,-3.124533
 5664,0.6521615348\N,0,-0.749263422,2.8958907385,-0.1511489607\C,0,0.61
 22234866,-2.2864065991,-1.4397262677\C,0,0.9465175541,-1.0942666584,-0
 .8769565446\C,0,-0.784822611,-2.5604844106,-1.3789599587\C,0,-1.308931
 3151,-1.4160419156,-0.6702861586\C,0,3.8084993107,1.4851716837,-0.1740
 3167\C,0,2.49944205,0.8433161571,-0.4733515202\C,0,2.2464999002,-0.455
 4828062,-0.8234418188\C,0,3.5239330334,2.886758478,0.0762656169\C,0,1.
 57534894,-3.2799596973,-1.9500623518\C,0,-5.4898278895,-2.8015257675,1
 .3203593002\C,0,-3.5696708264,-1.9140363795,0.165032435\C,0,2.12355666
 78,3.0067706713,0.0949171151\C,0,-5.0637190682,-1.6444934132,0.4438084
 247\C,0,5.0658718491,0.7925041673,-0.2668656453\C,0,-2.68164298,-1.038
 2923846,-0.3697934531\C,0,-1.5042400861,-3.8698467378,-1.9376540822\C,
 0,-4.3179014585,-3.7549097228,1.2582309487\C,0,2.0415452882,-4.4794669
 704,-1.0360428311\C,0,5.4259814005,-0.0212802515,0.9648990371\C,0,4.56
 25123125,3.8693097803,0.4822904293\C,0,1.3070093793,4.0629208424,0.359
 4176624\C,0,-6.7639810487,-3.4580705869,0.9341024723\C,0,-5.7687064512
 ,-0.545390323,0.0937065376\C,0,-0.1514730666,4.0547137212,0.1475365656
 \C,0,-1.0028453831,5.1855360873,0.3274712126\C,0,-2.3230517789,4.60875
 23766,0.2604419502\C,0,3.0448110631,-3.9994726175,0.0772854177\C,0,-5.
 4465383633,0.6219574843,-0.6725787227\C,0,6.7768075598,-0.7039458642,0
 .7480257008\C,0,-3.6949270356,5.2708581443,0.3420187126\C,0,-2.1903885
 905,3.1932742884,-0.1039561654\C,0,-0.4977403651,6.446880358,0.7355326
 049\C,0,-4.4992794905,5.4617921359,-1.0775168432\H,0,-0.4281744023,0.4
 306899348,-0.0756273024\H,0,3.025219883,-1.0755056918,-1.5353136188\H,
 0,2.3553054118,-2.7305946561,-2.629189466\H,0,0.9617571819,-3.88488259
 92,-2.808909251\H,0,-5.5445561829,-2.5134699717,2.4675772976\H,0,5.110
 0735199,0.1993093123,-1.2237927266\H,0,5.9321917866,1.5069702251,-0.57
 59111657\H,0,-3.0253687546,-0.0286050702,-0.3859989974\H,0,0.732510481
 6,1.8446843123,-0.7073681823\H,0,-1.8267774135,-4.7494795185,-1.155685
 0783\H,0,-2.5663467457,-3.4023008165,-2.3505531884\H,0,-0.8446596459,-
 4.1014672155,-2.8708626756\H,0,-2.4104734336,-3.7449642271,0.736006265
 8\H,0,1.1129521245,-4.7722499233,-0.5996053504\H,0,2.4629523996,-5.354
 6495719,-1.55608099\H,0,4.7320284358,-0.9194431077,0.79613935\H,0,5.20
 98553309,0.4616622049,1.9371015133\H,0,4.4118717128,4.9503554519,0.101
 6587941\H,0,5.500773169,3.4392214553,0.2025060402\H,0,4.2007971123,4.1
 574912212,1.7404997669\H,0,1.7559863772,5.2386230397,0.4405351287\H,0,
 -7.7593375021,-2.9845835419,1.2378950591\H,0,-6.8003040943,-4.52787917
 ,1.401756016\H,0,-6.8490506021,-3.8363710532,-0.0856564772\H,0,-6.7862
 931516,-0.3599169002,0.4377917803\H,0,-4.7241913912,1.4064554664,-0.03
 10303643\H,0,-6.3277611535,1.1504641214,-1.0724115573\H,0,-5.020061318
 1,0.175397702,-1.6116279276\H,0,-3.429474933,6.2910335085,0.8003169082
 \H,0,-4.1926307013,4.5978921211,1.0402200483\H,0,0.1742682823,6.397340
 2994,1.6006799096\H,0,-1.3644925596,7.2738508398,0.9736267144\H,0,0.23
 06822362,7.0642087066,0.1688878459\H,0,-3.8585537624,6.0902466504,-1.7
 628804905\H,0,-5.5434970569,5.5361967358,-0.9209419714\H,0,-4.61755523
 24,4.4129914694,-1.6581053185\H,0,3.5990483053,-4.3491311256,1.8623570
 181\H,0,7.9762556502,-2.0362830173,1.5981972027\\Version=ES64L-G16RevA
 .03\State=1-A\HF=-1949.0677663\RMSD=5.233e-09\PG=C01 [X(C33H38N4O6)]\\
 @


 If your ship doesn't come in, swim out to it!
                          -- Jonathan Winters
 Job cpu time:       0 days  4 hours 16 minutes 17.2 seconds.
 Elapsed time:       0 days  2 hours 51 minutes 12.7 seconds.
 File lengths (MBytes):  RWF=   2591 Int=      0 D2E=      0 Chk=     65 Scr=      1
 Normal termination of Gaussian 16 at Thu Jun 27 12:59:10 2019.
