 Entering Gaussian System, Link 0=g16
 Input=Geometria-202-.com
 Output=Geometria-202-.log
 Initial command:
 /usr/local/g16/l1.exe "/home/padawan/israel-mol/phycocyanobilin/spectra/emi/Gau-3105.inp" -scrdir="/home/padawan/israel-mol/phycocyanobilin/spectra/emi/"
 Entering Link 1 = /usr/local/g16/l1.exe PID=      3107.
  
 Copyright (c) 1988,1990,1992,1993,1995,1998,2003,2009,2016,
            Gaussian, Inc.  All Rights Reserved.
  
 This is part of the Gaussian(R) 16 program.  It is based on
 the Gaussian(R) 09 system (copyright 2009, Gaussian, Inc.),
 the Gaussian(R) 03 system (copyright 2003, Gaussian, Inc.),
 the Gaussian(R) 98 system (copyright 1998, Gaussian, Inc.),
 the Gaussian(R) 94 system (copyright 1995, Gaussian, Inc.),
 the Gaussian 92(TM) system (copyright 1992, Gaussian, Inc.),
 the Gaussian 90(TM) system (copyright 1990, Gaussian, Inc.),
 the Gaussian 88(TM) system (copyright 1988, Gaussian, Inc.),
 the Gaussian 86(TM) system (copyright 1986, Carnegie Mellon
 University), and the Gaussian 82(TM) system (copyright 1983,
 Carnegie Mellon University). Gaussian is a federally registered
 trademark of Gaussian, Inc.
  
 This software contains proprietary and confidential information,
 including trade secrets, belonging to Gaussian, Inc.
  
 This software is provided under written license and may be
 used, copied, transmitted, or stored only in accord with that
 written license.
  
 The following legend is applicable only to US Government
 contracts under FAR:
  
                    RESTRICTED RIGHTS LEGEND
  
 Use, reproduction and disclosure by the US Government is
 subject to restrictions as set forth in subparagraphs (a)
 and (c) of the Commercial Computer Software - Restricted
 Rights clause in FAR 52.227-19.
  
 Gaussian, Inc.
 340 Quinnipiac St., Bldg. 40, Wallingford CT 06492
  
  
 ---------------------------------------------------------------
 Warning -- This program may not be used in any manner that
 competes with the business of Gaussian, Inc. or will provide
 assistance to any competitor of Gaussian, Inc.  The licensee
 of this program is prohibited from giving any competitor of
 Gaussian, Inc. access to this program.  By using this program,
 the user acknowledges that Gaussian, Inc. is engaged in the
 business of creating and licensing software in the field of
 computational chemistry and represents and warrants to the
 licensee that it is not a competitor of Gaussian, Inc. and that
 it will not use this program in any manner prohibited above.
 ---------------------------------------------------------------
  

 Cite this work as:
 Gaussian 16, Revision A.03,
 M. J. Frisch, G. W. Trucks, H. B. Schlegel, G. E. Scuseria, 
 M. A. Robb, J. R. Cheeseman, G. Scalmani, V. Barone, 
 G. A. Petersson, H. Nakatsuji, X. Li, M. Caricato, A. V. Marenich, 
 J. Bloino, B. G. Janesko, R. Gomperts, B. Mennucci, H. P. Hratchian, 
 J. V. Ortiz, A. F. Izmaylov, J. L. Sonnenberg, D. Williams-Young, 
 F. Ding, F. Lipparini, F. Egidi, J. Goings, B. Peng, A. Petrone, 
 T. Henderson, D. Ranasinghe, V. G. Zakrzewski, J. Gao, N. Rega, 
 G. Zheng, W. Liang, M. Hada, M. Ehara, K. Toyota, R. Fukuda, 
 J. Hasegawa, M. Ishida, T. Nakajima, Y. Honda, O. Kitao, H. Nakai, 
 T. Vreven, K. Throssell, J. A. Montgomery, Jr., J. E. Peralta, 
 F. Ogliaro, M. J. Bearpark, J. J. Heyd, E. N. Brothers, K. N. Kudin, 
 V. N. Staroverov, T. A. Keith, R. Kobayashi, J. Normand, 
 K. Raghavachari, A. P. Rendell, J. C. Burant, S. S. Iyengar, 
 J. Tomasi, M. Cossi, J. M. Millam, M. Klene, C. Adamo, R. Cammi, 
 J. W. Ochterski, R. L. Martin, K. Morokuma, O. Farkas, 
 J. B. Foresman, and D. J. Fox, Gaussian, Inc., Wallingford CT, 2016.
 
 ******************************************
 Gaussian 16:  ES64L-G16RevA.03 25-Dec-2016
                29-Jun-2019 
 ******************************************
 %nproc=4
 Will use up to    4 processors via shared memory.
 %Mem=2GB
 --------------------------
 # td=(NStates=1) B3LYP/SVP
 --------------------------
 1/38=1,172=1/1;
 2/12=2,17=6,18=5,40=1/2;
 3/5=18,7=101,11=9,25=1,30=1,74=-5/1,2,3,8;
 4//1;
 5/5=2,38=5/2;
 8/6=1,10=1,108=1/1;
 9/41=1,42=1,70=2/14;
 6/7=2,8=2,9=2,10=2/1;
 99/5=1,9=1/99;
 --
 TD
 --
 Symbolic Z-matrix:
 Charge =  0 Multiplicity = 1
 8                    -4.16826  -4.94471   1.80345 
 8                     3.23516  -4.85752   1.03409 
 8                     6.90506  -1.48174   1.95364 
 8                     3.98283  -3.17836  -0.20537 
 8                     7.52993  -0.55286   0.06275 
 8                    -3.02708   2.42901  -0.41372 
 7                    -0.40008  -0.46869  -0.72911 
 7                     1.54287   1.78818  -0.38413 
 7                    -3.23994  -3.22891   0.63656 
 7                    -0.8607    2.93139  -0.14119 
 6                     0.56317  -2.40125  -1.4095 
 6                     0.86075  -1.09793  -0.99607 
 6                    -0.78363  -2.64125  -1.21066 
 6                    -1.37869  -1.4097   -0.83433 
 6                     3.76685   1.47663  -0.20642 
 6                     2.53334   0.87739  -0.55431 
 6                     2.16019  -0.44405  -0.94861 
 6                     3.53353   2.76865   0.22477 
 6                     1.50461  -3.38328  -2.04182 
 6                    -5.48157  -2.85484   1.32762 
 6                    -3.63818  -1.88686   0.12373 
 6                     2.08229   3.04476   0.02421 
 6                    -4.9868   -1.60032   0.5347 
 6                     5.04088   0.79084  -0.26032 
 6                    -2.62066  -0.99705  -0.41335 
 6                    -1.59442  -3.75631  -1.89204 
 6                    -4.28187  -3.75124   1.36077 
 6                     2.07601  -4.49313  -0.98996 
 6                     5.34133  -0.13541   0.9091 
 6                     4.49393   3.87498   0.58971 
 6                     1.25778   4.16835   0.32462 
 6                    -6.8465   -3.63114   1.02833 
 6                    -5.73802  -0.60179   0.26693 
 6                    -0.09297   4.0114    0.21462 
 6                    -1.02552   5.18383   0.4601 
 6                    -2.29764   4.80696   0.15077 
 6                     3.194    -4.06455  -0.0664 
 6                    -5.40923   0.64874  -0.53607 
 6                     6.68958  -0.7852    0.85102 
 6                    -3.66621   5.39588   0.17768 
 6                    -2.13839   3.32796  -0.12823 
 6                    -0.62824   6.53391   0.81523 
 6                    -4.27165   5.54798  -1.15183 
 1                    -0.39138   0.42548  -0.26353 
 1                     2.95396  -1.04741  -1.29844 
 1                     2.47349  -2.99721  -2.70768 
 1                     0.84367  -4.02468  -2.71453 
 1                    -5.56391  -2.37344   2.44257 
 1                     5.0565    0.09394  -1.19385 
 1                     5.78238   1.5077   -0.42649 
 1                    -2.90421   0.18804  -0.42047 
 1                     0.50859   1.80859  -0.4085 
 1                    -1.26981  -4.89192  -1.40954 
 1                    -2.75622  -3.43839  -1.54111 
 1                    -1.43291  -4.00296  -3.04104 
 1                    -2.21511  -3.67383   0.76141 
 1                     1.20993  -4.83678  -0.39343 
 1                     2.36305  -5.28435  -1.69077 
 1                     4.62163  -0.95853   1.06924 
 1                     5.05002   0.42487   1.76146 
 1                     4.90219   4.54326  -0.36214 
 1                     5.67763   3.43963   1.05083 
 1                     3.97907   4.82681   1.41133 
 1                     1.5062    5.15405   0.60288 
 1                    -7.4953   -2.92493   1.30382 
 1                    -7.02452  -4.49512   1.81664 
 1                    -7.15145  -3.89962  -0.05554 
 1                    -6.6212   -0.44842   0.66907 
 1                    -4.97049   1.48986   0.10871 
 1                    -6.32349   1.09662  -0.82749 
 1                    -4.49503   0.6216   -1.2977 
 1                    -3.62645   6.22982   0.71309 
 1                    -4.35752   4.73079   0.8401 
 1                    -0.16093   6.56827   1.75485 
 1                    -1.51349   7.31109   1.01459 
 1                     0.29134   6.8825    0.18832 
 1                    -3.49057   6.13821  -1.86566 
 1                    -5.31054   6.08234  -0.99461 
 1                    -4.47209   4.53732  -1.66749 
 1                     3.95016  -4.41377   1.60744 
 1                     7.85161  -1.71832   1.99254 
 
 Stoichiometry    C33H38N4O6
 Framework group  C1[X(C33H38N4O6)]
 Deg. of freedom   237
 Full point group                 C1      NOp   1
 Largest Abelian subgroup         C1      NOp   1
 Largest concise Abelian subgroup C1      NOp   1
                         Standard orientation:                         
 ---------------------------------------------------------------------
 Center     Atomic      Atomic             Coordinates (Angstroms)
 Number     Number       Type             X           Y           Z
 ---------------------------------------------------------------------
      1          8           0        4.137996   -4.965085   -1.815841
      2          8           0       -3.262272   -4.843120   -1.021333
      3          8           0       -6.919372   -1.450120   -1.928417
      4          8           0       -3.997836   -3.160483    0.220659
      5          8           0       -7.533450   -0.518341   -0.035419
      6          8           0        3.039012    2.413883    0.405190
      7          7           0        0.399511   -0.471449    0.729502
      8          7           0       -1.533974    1.794530    0.391120
      9          7           0        3.221715   -3.244964   -0.645803
     10          7           0        0.874109    2.926443    0.140014
     11          6           0       -0.570488   -2.399469    1.413165
     12          6           0       -0.863344   -1.094758    1.000742
     13          6           0        0.774488   -2.645796    1.209752
     14          6           0        1.374042   -1.417048    0.831401
     15          6           0       -3.759976    1.493437    0.220970
     16          6           0       -2.528121    0.888402    0.564664
     17          6           0       -2.159853   -0.434784    0.957701
     18          6           0       -3.522063    2.784349   -0.211016
     19          6           0       -1.514381   -3.377076    2.048679
     20          6           0        5.462719   -2.881417   -1.344473
     21          6           0        3.627997   -1.904807   -0.134328
     22          6           0       -2.068868    3.053642   -0.015387
     23          6           0        4.976549   -1.624596   -0.549876
     24          6           0       -5.037028    0.813643    0.279198
     25          6           0        2.616498   -1.010229    0.406200
     26          6           0        1.582336   -3.764656    1.888372
     27          6           0        4.258715   -3.772169   -1.373548
     28          6           0       -2.094556   -4.484212    0.998763
     29          6           0       -5.345801   -0.111173   -0.889202
     30          6           0       -4.478480    3.895188   -0.572694
     31          6           0       -1.240115    4.173347   -0.318601
     32          6           0        6.824997   -3.664123   -1.049822
     33          6           0        5.733359   -0.629608   -0.284667
     34          6           0        0.110251    4.010049   -0.213188
     35          6           0        1.047460    5.178085   -0.461837
     36          6           0        2.318840    4.795243   -0.156826
     37          6           0       -3.213648   -4.050371    0.079006
     38          6           0        5.413179    0.622437    0.519443
     39          6           0       -6.696880   -0.754624   -0.826534
     40          6           0        3.690068    5.377726   -0.188386
     41          6           0        2.153596    3.316999    0.122715
     42          6           0        0.655330    6.530025   -0.815613
     43          6           0        4.300721    5.526960    1.139066
     44          1           0        0.393435    0.422759    0.263949
     45          1           0       -2.955258   -1.034414    1.310221
     46          1           0       -2.479165   -2.986469    2.717821
     47          1           0       -0.854175   -4.021581    2.719139
     48          1           0        5.543533   -2.400388   -2.459702
     49          1           0       -5.052751    0.116805    1.212772
     50          1           0       -5.774581    1.533973    0.447876
     51          1           0        2.905636    0.173510    0.412360
     52          1           0       -0.499528    1.810082    0.411975
     53          1           0        1.250760   -4.898729    1.406980
     54          1           0        2.744415   -3.452202    1.533500
     55          1           0        1.423572   -4.010563    3.037914
     56          1           0        2.194395   -3.685055   -0.767169
     57          1           0       -1.232134   -4.831916    0.399302
     58          1           0       -2.382932   -5.274089    1.700552
     59          1           0       -4.630519   -0.937659   -1.051777
     60          1           0       -5.054755    0.447745   -1.742547
     61          1           0       -4.880366    4.565370    0.380535
     62          1           0       -5.665777    3.465413   -1.029790
     63          1           0       -3.961957    4.844599   -1.396055
     64          1           0       -1.484841    5.160211   -0.596014
     65          1           0        7.476170   -2.960965   -1.327514
     66          1           0        6.996274   -4.528916   -1.838726
     67          1           0        7.132363   -3.934049    0.033012
     68          1           0        6.615872   -0.480383   -0.689805
     69          1           0        4.976200    1.465623   -0.123843
     70          1           0        6.330514    1.066011    0.807757
     71          1           0        4.501448    0.599584    1.284175
     72          1           0        3.652409    6.211848   -0.723655
     73          1           0        4.375984    4.709399   -0.853147
     74          1           0        0.184989    6.566592   -1.753635
     75          1           0        1.543533    7.303045   -1.017980
     76          1           0       -0.260469    6.882924   -0.185583
     77          1           0        3.524852    6.120843    1.855541
     78          1           0        5.341577    6.056436    0.978313
     79          1           0        4.498164    4.515365    1.654036
     80          1           0       -3.977128   -4.396008   -1.592256
     81          1           0       -7.867156   -1.682255   -1.964100
 ---------------------------------------------------------------------
 Rotational constants (GHZ):           0.0745628           0.0553769           0.0340305
 Standard basis: SVP (5D, 7F)
 There are   835 symmetry adapted cartesian basis functions of A   symmetry.
 There are   792 symmetry adapted basis functions of A   symmetry.
   792 basis functions,  1341 primitive gaussians,   835 cartesian basis functions
   156 alpha electrons      156 beta electrons
       nuclear repulsion energy      5036.9250405490 Hartrees.
 NAtoms=   81 NActive=   81 NUniq=   81 SFac= 1.00D+00 NAtFMM=   60 NAOKFM=T Big=T
 Integral buffers will be    131072 words long.
 Regular integral format.
 Two-electron integral symmetry is turned on.
 One-electron integrals computed using PRISM.
 NBasis=   792 RedAO= T EigKep=  3.62D-04  NBF=   792
 NBsUse=   792 1.00D-06 EigRej= -1.00D+00 NBFU=   792
 ExpMin= 1.22D-01 ExpMax= 2.27D+03 ExpMxC= 3.41D+02 IAcc=3 IRadAn=         5 AccDes= 0.00D+00
 Harris functional with IExCor=  402 and IRadAn=       5 diagonalized for initial guess.
 HarFok:  IExCor=  402 AccDes= 0.00D+00 IRadAn=         5 IDoV= 1 UseB2=F ITyADJ=14
 ICtDFT=  3500011 ScaDFX=  1.000000  1.000000  1.000000  1.000000
 FoFCou: FMM=F IPFlag=           0 FMFlag=      100000 FMFlg1=        2001
         NFxFlg=           0 DoJE=T BraDBF=F KetDBF=T FulRan=T
         wScrn=  0.000000 ICntrl=       500 IOpCl=  0 I1Cent=   200000004 NGrid=           0
         NMat0=    1 NMatS0=      1 NMatT0=    0 NMatD0=    1 NMtDS0=    0 NMtDT0=    0
 Petite list used in FoFCou.
 Requested convergence on RMS density matrix=1.00D-08 within 128 cycles.
 Requested convergence on MAX density matrix=1.00D-06.
 Requested convergence on             energy=1.00D-06.
 No special actions if energy rises.
 Integral accuracy reduced to 1.0D-05 until final iterations.
 EnCoef did     2 forward-backward iterations
 Problem detected with inexpensive integrals.
 Switching to full accuracy and repeating last cycle.
 EnCoef did     5 forward-backward iterations
 SCF Done:  E(RB3LYP) =  -1949.05046726     A.U. after   23 cycles
            NFock= 23  Conv=0.71D-08     -V/T= 2.0111
 DoSCS=F DFT=T ScalE2(SS,OS)=  1.000000  1.000000
 ExpMin= 1.22D-01 ExpMax= 2.27D+03 ExpMxC= 3.41D+02 IAcc=3 IRadAn=         5 AccDes= 0.00D+00
 HarFok:  IExCor=  205 AccDes= 0.00D+00 IRadAn=         5 IDoV=-2 UseB2=F ITyADJ=14
 ICtDFT= 12500011 ScaDFX=  1.000000  1.000000  1.000000  1.000000
 GSVD:  LWork=       -2193 too small for GESVD, short by        9890 words or        9890 for optimal perf.
 Range of M.O.s used for correlation:    44   792
 NBasis=   792 NAE=   156 NBE=   156 NFC=    43 NFV=     0
 NROrb=    749 NOA=   113 NOB=   113 NVA=   636 NVB=   636

 **** Warning!!: The smallest alpha delta epsilon is  0.66532189D-01

 Orbital symmetries:
       Occupied  (A) (A) (A) (A) (A) (A) (A) (A) (A) (A) (A) (A)
                 (A) (A) (A) (A) (A) (A) (A) (A) (A) (A) (A) (A)
                 (A) (A) (A) (A) (A) (A) (A) (A) (A) (A) (A) (A)
                 (A) (A) (A) (A) (A) (A) (A) (A) (A) (A) (A) (A)
                 (A) (A) (A) (A) (A) (A) (A) (A) (A) (A) (A) (A)
                 (A) (A) (A) (A) (A) (A) (A) (A) (A) (A) (A) (A)
                 (A) (A) (A) (A) (A) (A) (A) (A) (A) (A) (A) (A)
                 (A) (A) (A) (A) (A) (A) (A) (A) (A) (A) (A) (A)
                 (A) (A) (A) (A) (A) (A) (A) (A) (A) (A) (A) (A)
                 (A) (A) (A) (A) (A) (A) (A) (A) (A) (A) (A) (A)
                 (A) (A) (A) (A) (A) (A) (A) (A) (A) (A) (A) (A)
                 (A) (A) (A) (A) (A) (A) (A) (A) (A) (A) (A) (A)
                 (A) (A) (A) (A) (A) (A) (A) (A) (A) (A) (A) (A)
       Virtual   (A) (A) (A) (A) (A) (A) (A) (A) (A) (A) (A) (A)
                 (A) (A) (A) (A) (A) (A) (A) (A) (A) (A) (A) (A)
                 (A) (A) (A) (A) (A) (A) (A) (A) (A) (A) (A) (A)
                 (A) (A) (A) (A) (A) (A) (A) (A) (A) (A) (A) (A)
                 (A) (A) (A) (A) (A) (A) (A) (A) (A) (A) (A) (A)
                 (A) (A) (A) (A) (A) (A) (A) (A) (A) (A) (A) (A)
                 (A) (A) (A) (A) (A) (A) (A) (A) (A) (A) (A) (A)
                 (A) (A) (A) (A) (A) (A) (A) (A) (A) (A) (A) (A)
                 (A) (A) (A) (A) (A) (A) (A) (A) (A) (A) (A) (A)
                 (A) (A) (A) (A) (A) (A) (A) (A) (A) (A) (A) (A)
                 (A) (A) (A) (A) (A) (A) (A) (A) (A) (A) (A) (A)
                 (A) (A) (A) (A) (A) (A) (A) (A) (A) (A) (A) (A)
                 (A) (A) (A) (A) (A) (A) (A) (A) (A) (A) (A) (A)
                 (A) (A) (A) (A) (A) (A) (A) (A) (A) (A) (A) (A)
                 (A) (A) (A) (A) (A) (A) (A) (A) (A) (A) (A) (A)
                 (A) (A) (A) (A) (A) (A) (A) (A) (A) (A) (A) (A)
                 (A) (A) (A) (A) (A) (A) (A) (A) (A) (A) (A) (A)
                 (A) (A) (A) (A) (A) (A) (A) (A) (A) (A) (A) (A)
                 (A) (A) (A) (A) (A) (A) (A) (A) (A) (A) (A) (A)
                 (A) (A) (A) (A) (A) (A) (A) (A) (A) (A) (A) (A)
                 (A) (A) (A) (A) (A) (A) (A) (A) (A) (A) (A) (A)
                 (A) (A) (A) (A) (A) (A) (A) (A) (A) (A) (A) (A)
                 (A) (A) (A) (A) (A) (A) (A) (A) (A) (A) (A) (A)
                 (A) (A) (A) (A) (A) (A) (A) (A) (A) (A) (A) (A)
                 (A) (A) (A) (A) (A) (A) (A) (A) (A) (A) (A) (A)
                 (A) (A) (A) (A) (A) (A) (A) (A) (A) (A) (A) (A)
                 (A) (A) (A) (A) (A) (A) (A) (A) (A) (A) (A) (A)
                 (A) (A) (A) (A) (A) (A) (A) (A) (A) (A) (A) (A)
                 (A) (A) (A) (A) (A) (A) (A) (A) (A) (A) (A) (A)
                 (A) (A) (A) (A) (A) (A) (A) (A) (A) (A) (A) (A)
                 (A) (A) (A) (A) (A) (A) (A) (A) (A) (A) (A) (A)
                 (A) (A) (A) (A) (A) (A) (A) (A) (A) (A) (A) (A)
                 (A) (A) (A) (A) (A) (A) (A) (A) (A) (A) (A) (A)
                 (A) (A) (A) (A) (A) (A) (A) (A) (A) (A) (A) (A)
                 (A) (A) (A) (A) (A) (A) (A) (A) (A) (A) (A) (A)
                 (A) (A) (A) (A) (A) (A) (A) (A) (A) (A) (A) (A)
                 (A) (A) (A) (A) (A) (A) (A) (A) (A) (A) (A) (A)
                 (A) (A) (A) (A) (A) (A) (A) (A) (A) (A) (A) (A)
                 (A) (A) (A) (A) (A) (A) (A) (A) (A) (A) (A) (A)
                 (A) (A) (A) (A) (A) (A) (A) (A) (A) (A) (A) (A)
                 (A) (A) (A) (A) (A) (A) (A) (A) (A) (A) (A) (A)
                 (A) (A) (A) (A) (A) (A) (A) (A) (A) (A) (A) (A)
                 (A) (A) (A) (A) (A) (A) (A) (A) (A) (A) (A) (A)
                 (A) (A) (A) (A) (A) (A) (A) (A) (A) (A) (A) (A)
                 (A) (A) (A) (A) (A) (A) (A) (A) (A) (A) (A) (A)
                 (A) (A) (A) (A) (A) (A) (A) (A) (A) (A) (A) (A)
                 (A) (A) (A) (A) (A) (A) (A) (A) (A) (A) (A) (A)
                 (A) (A) (A) (A) (A) (A) (A) (A) (A) (A) (A) (A)
                 (A) (A) (A) (A) (A) (A) (A) (A) (A) (A) (A) (A)
                 (A) (A) (A) (A) (A) (A) (A) (A) (A) (A) (A) (A)
                 (A) (A) (A) (A) (A) (A) (A) (A) (A) (A) (A) (A)
                 (A) (A) (A) (A) (A) (A) (A) (A) (A) (A) (A) (A)
                 (A) (A) (A) (A) (A) (A) (A) (A) (A) (A) (A) (A)
     4 initial guesses have been made.
 Convergence on wavefunction:    0.001000000000000
 Iteration     1 Dimension     4 NMult     0 NNew      4
 CISAX will form     4 AO SS matrices at one time.
 Iteration     2 Dimension     6 NMult     4 NNew      2
 Iteration     3 Dimension     8 NMult     6 NNew      2
 Iteration     4 Dimension    10 NMult     8 NNew      2
 Iteration     5 Dimension    12 NMult    10 NNew      2
 Iteration     6 Dimension    14 NMult    12 NNew      2
 Iteration     7 Dimension    16 NMult    14 NNew      2
 ***********************************************************************
 Excited states from <AA,BB:AA,BB> singles matrix:
 ***********************************************************************
 
 Ground to excited state transition densities written to RWF  633
 Ground to excited state transition electric dipole moments (Au):
       state          X           Y           Z        Dip. S.      Osc.
         1         1.3074     -2.5591      0.0919      8.2668      0.3359
 Ground to excited state transition velocity dipole moments (Au):
       state          X           Y           Z        Dip. S.      Osc.
         1        -0.0808      0.1496     -0.0064      0.0290      0.3168
 Ground to excited state transition magnetic dipole moments (Au):
       state          X           Y           Z
         1        -0.3537     -0.5992     -2.4455
 Ground to excited state transition velocity quadrupole moments (Au):
       state          XX          YY          ZZ          XY          XZ          YZ
         1        -0.4210      0.4414     -0.0662      0.3501      0.1120     -0.0184
 <0|del|b> * <b|rxdel|0> + <0|del|b> * <b|delr+rdel|0>
 Rotatory Strengths (R) in cgs (10**-40 erg-esu-cm/Gauss)
       state          XX          YY          ZZ    R(velocity)    E-M Angle
         1      -539.1602    278.8399   -265.7125   -175.3443       96.01
 1/2[<0|r|b>*<b|rxdel|0> + (<0|rxdel|b>*<b|r|0>)*]
 Rotatory Strengths (R) in cgs (10**-40 erg-esu-cm/Gauss)
       state          XX          YY          ZZ     R(length)
         1       326.9908  -1084.3845    158.9318   -199.4873
  1/2[<0|del|b>*<b|r|0> + (<0|r|b>*<b|del|0>)*] (Au)
       state          X           Y           Z        Dip. S.   Osc.(frdel)
         1        -0.1057     -0.3829     -0.0006      0.4892      0.3261

 Excitation energies and oscillator strengths:
 
 Excited State   1:      Singlet-A      1.6583 eV  747.67 nm  f=0.3359  <S**2>=0.000
     156 ->157         0.70850
     156 <-157        -0.12997
 This state for optimization and/or second-order correction.
 Total Energy, E(TD-HF/TD-DFT) =  -1948.98952642    
 Copying the excited state density for this state as the 1-particle RhoCI density.
 SavETr:  write IOETrn=   770 NScale= 10 NData=  16 NLR=1 NState=    1 LETran=      28.

 **********************************************************************

            Population analysis using the SCF density.

 **********************************************************************

 Orbital symmetries:
       Occupied  (A) (A) (A) (A) (A) (A) (A) (A) (A) (A) (A) (A)
                 (A) (A) (A) (A) (A) (A) (A) (A) (A) (A) (A) (A)
                 (A) (A) (A) (A) (A) (A) (A) (A) (A) (A) (A) (A)
                 (A) (A) (A) (A) (A) (A) (A) (A) (A) (A) (A) (A)
                 (A) (A) (A) (A) (A) (A) (A) (A) (A) (A) (A) (A)
                 (A) (A) (A) (A) (A) (A) (A) (A) (A) (A) (A) (A)
                 (A) (A) (A) (A) (A) (A) (A) (A) (A) (A) (A) (A)
                 (A) (A) (A) (A) (A) (A) (A) (A) (A) (A) (A) (A)
                 (A) (A) (A) (A) (A) (A) (A) (A) (A) (A) (A) (A)
                 (A) (A) (A) (A) (A) (A) (A) (A) (A) (A) (A) (A)
                 (A) (A) (A) (A) (A) (A) (A) (A) (A) (A) (A) (A)
                 (A) (A) (A) (A) (A) (A) (A) (A) (A) (A) (A) (A)
                 (A) (A) (A) (A) (A) (A) (A) (A) (A) (A) (A) (A)
       Virtual   (A) (A) (A) (A) (A) (A) (A) (A) (A) (A) (A) (A)
                 (A) (A) (A) (A) (A) (A) (A) (A) (A) (A) (A) (A)
                 (A) (A) (A) (A) (A) (A) (A) (A) (A) (A) (A) (A)
                 (A) (A) (A) (A) (A) (A) (A) (A) (A) (A) (A) (A)
                 (A) (A) (A) (A) (A) (A) (A) (A) (A) (A) (A) (A)
                 (A) (A) (A) (A) (A) (A) (A) (A) (A) (A) (A) (A)
                 (A) (A) (A) (A) (A) (A) (A) (A) (A) (A) (A) (A)
                 (A) (A) (A) (A) (A) (A) (A) (A) (A) (A) (A) (A)
                 (A) (A) (A) (A) (A) (A) (A) (A) (A) (A) (A) (A)
                 (A) (A) (A) (A) (A) (A) (A) (A) (A) (A) (A) (A)
                 (A) (A) (A) (A) (A) (A) (A) (A) (A) (A) (A) (A)
                 (A) (A) (A) (A) (A) (A) (A) (A) (A) (A) (A) (A)
                 (A) (A) (A) (A) (A) (A) (A) (A) (A) (A) (A) (A)
                 (A) (A) (A) (A) (A) (A) (A) (A) (A) (A) (A) (A)
                 (A) (A) (A) (A) (A) (A) (A) (A) (A) (A) (A) (A)
                 (A) (A) (A) (A) (A) (A) (A) (A) (A) (A) (A) (A)
                 (A) (A) (A) (A) (A) (A) (A) (A) (A) (A) (A) (A)
                 (A) (A) (A) (A) (A) (A) (A) (A) (A) (A) (A) (A)
                 (A) (A) (A) (A) (A) (A) (A) (A) (A) (A) (A) (A)
                 (A) (A) (A) (A) (A) (A) (A) (A) (A) (A) (A) (A)
                 (A) (A) (A) (A) (A) (A) (A) (A) (A) (A) (A) (A)
                 (A) (A) (A) (A) (A) (A) (A) (A) (A) (A) (A) (A)
                 (A) (A) (A) (A) (A) (A) (A) (A) (A) (A) (A) (A)
                 (A) (A) (A) (A) (A) (A) (A) (A) (A) (A) (A) (A)
                 (A) (A) (A) (A) (A) (A) (A) (A) (A) (A) (A) (A)
                 (A) (A) (A) (A) (A) (A) (A) (A) (A) (A) (A) (A)
                 (A) (A) (A) (A) (A) (A) (A) (A) (A) (A) (A) (A)
                 (A) (A) (A) (A) (A) (A) (A) (A) (A) (A) (A) (A)
                 (A) (A) (A) (A) (A) (A) (A) (A) (A) (A) (A) (A)
                 (A) (A) (A) (A) (A) (A) (A) (A) (A) (A) (A) (A)
                 (A) (A) (A) (A) (A) (A) (A) (A) (A) (A) (A) (A)
                 (A) (A) (A) (A) (A) (A) (A) (A) (A) (A) (A) (A)
                 (A) (A) (A) (A) (A) (A) (A) (A) (A) (A) (A) (A)
                 (A) (A) (A) (A) (A) (A) (A) (A) (A) (A) (A) (A)
                 (A) (A) (A) (A) (A) (A) (A) (A) (A) (A) (A) (A)
                 (A) (A) (A) (A) (A) (A) (A) (A) (A) (A) (A) (A)
                 (A) (A) (A) (A) (A) (A) (A) (A) (A) (A) (A) (A)
                 (A) (A) (A) (A) (A) (A) (A) (A) (A) (A) (A) (A)
                 (A) (A) (A) (A) (A) (A) (A) (A) (A) (A) (A) (A)
                 (A) (A) (A) (A) (A) (A) (A) (A) (A) (A) (A) (A)
                 (A) (A) (A) (A) (A) (A) (A) (A) (A) (A) (A) (A)
                 (A) (A) (A) (A) (A) (A) (A) (A) (A) (A) (A) (A)
                 (A) (A) (A) (A) (A) (A) (A) (A) (A) (A) (A) (A)
                 (A) (A) (A) (A) (A) (A) (A) (A) (A) (A) (A) (A)
                 (A) (A) (A) (A) (A) (A) (A) (A) (A) (A) (A) (A)
                 (A) (A) (A) (A) (A) (A) (A) (A) (A) (A) (A) (A)
                 (A) (A) (A) (A) (A) (A) (A) (A) (A) (A) (A) (A)
                 (A) (A) (A) (A) (A) (A) (A) (A) (A) (A) (A) (A)
                 (A) (A) (A) (A) (A) (A) (A) (A) (A) (A) (A) (A)
                 (A) (A) (A) (A) (A) (A) (A) (A) (A) (A) (A) (A)
                 (A) (A) (A) (A) (A) (A) (A) (A) (A) (A) (A) (A)
                 (A) (A) (A) (A) (A) (A) (A) (A) (A) (A) (A) (A)
                 (A) (A) (A) (A) (A) (A) (A) (A) (A) (A) (A) (A)
 The electronic state is 1-A.
 Alpha  occ. eigenvalues --  -19.19398 -19.18266 -19.14678 -19.12532 -19.09494
 Alpha  occ. eigenvalues --  -19.08612 -14.37973 -14.37941 -14.36577 -14.28649
 Alpha  occ. eigenvalues --  -10.33612 -10.31607 -10.28582 -10.26111 -10.25443
 Alpha  occ. eigenvalues --  -10.25164 -10.25131 -10.24345 -10.24164 -10.23901
 Alpha  occ. eigenvalues --  -10.23558 -10.23239 -10.22715 -10.22616 -10.22492
 Alpha  occ. eigenvalues --  -10.22458 -10.21179 -10.20972 -10.20550 -10.20480
 Alpha  occ. eigenvalues --  -10.20354 -10.20279 -10.20176 -10.19976 -10.19760
 Alpha  occ. eigenvalues --  -10.19678 -10.19642 -10.19228 -10.19182 -10.18879
 Alpha  occ. eigenvalues --  -10.18598 -10.18069 -10.17826  -1.11410  -1.11312
 Alpha  occ. eigenvalues --   -1.02008  -1.01999  -1.00189  -0.98873  -0.97962
 Alpha  occ. eigenvalues --   -0.97371  -0.92108  -0.90402  -0.83208  -0.82835
 Alpha  occ. eigenvalues --   -0.82320  -0.81204  -0.80267  -0.79120  -0.77744
 Alpha  occ. eigenvalues --   -0.77613  -0.76750  -0.75889  -0.74658  -0.72319
 Alpha  occ. eigenvalues --   -0.70573  -0.69592  -0.68877  -0.68458  -0.68225
 Alpha  occ. eigenvalues --   -0.66886  -0.65504  -0.64945  -0.62203  -0.61360
 Alpha  occ. eigenvalues --   -0.60548  -0.60006  -0.58835  -0.57491  -0.56591
 Alpha  occ. eigenvalues --   -0.55930  -0.55831  -0.54549  -0.54214  -0.53163
 Alpha  occ. eigenvalues --   -0.52814  -0.51985  -0.51466  -0.51098  -0.49925
 Alpha  occ. eigenvalues --   -0.49510  -0.49209  -0.48740  -0.48439  -0.48009
 Alpha  occ. eigenvalues --   -0.47300  -0.46747  -0.46213  -0.45813  -0.45627
 Alpha  occ. eigenvalues --   -0.44985  -0.44507  -0.44226  -0.44032  -0.43580
 Alpha  occ. eigenvalues --   -0.43258  -0.42979  -0.42389  -0.42235  -0.42086
 Alpha  occ. eigenvalues --   -0.41596  -0.41230  -0.41070  -0.40939  -0.40280
 Alpha  occ. eigenvalues --   -0.39828  -0.39610  -0.39563  -0.39431  -0.38988
 Alpha  occ. eigenvalues --   -0.38776  -0.38355  -0.38247  -0.38172  -0.37975
 Alpha  occ. eigenvalues --   -0.37669  -0.37479  -0.37233  -0.36972  -0.36541
 Alpha  occ. eigenvalues --   -0.36309  -0.36117  -0.35606  -0.34926  -0.34847
 Alpha  occ. eigenvalues --   -0.34198  -0.33767  -0.33575  -0.33400  -0.33086
 Alpha  occ. eigenvalues --   -0.32784  -0.32184  -0.31540  -0.30184  -0.29574
 Alpha  occ. eigenvalues --   -0.28659  -0.26898  -0.26572  -0.26007  -0.25716
 Alpha  occ. eigenvalues --   -0.25450  -0.24652  -0.23432  -0.23325  -0.21760
 Alpha  occ. eigenvalues --   -0.17970
 Alpha virt. eigenvalues --   -0.11317  -0.06494  -0.05079  -0.01663  -0.00969
 Alpha virt. eigenvalues --    0.00642   0.01381   0.01630   0.01959   0.03030
 Alpha virt. eigenvalues --    0.03291   0.03837   0.04650   0.04953   0.05531
 Alpha virt. eigenvalues --    0.05868   0.05995   0.06563   0.06679   0.07337
 Alpha virt. eigenvalues --    0.08014   0.08105   0.08690   0.09063   0.09221
 Alpha virt. eigenvalues --    0.09327   0.09554   0.09850   0.09964   0.10387
 Alpha virt. eigenvalues --    0.10619   0.11018   0.11141   0.11835   0.12281
 Alpha virt. eigenvalues --    0.12669   0.12807   0.13178   0.13242   0.13854
 Alpha virt. eigenvalues --    0.14198   0.14648   0.14947   0.15083   0.15520
 Alpha virt. eigenvalues --    0.15910   0.16628   0.16782   0.17647   0.17666
 Alpha virt. eigenvalues --    0.17909   0.18510   0.19286   0.19391   0.19524
 Alpha virt. eigenvalues --    0.19989   0.20495   0.20642   0.20967   0.21424
 Alpha virt. eigenvalues --    0.22068   0.22478   0.22846   0.23496   0.23678
 Alpha virt. eigenvalues --    0.24055   0.24706   0.25016   0.25763   0.26086
 Alpha virt. eigenvalues --    0.26440   0.26893   0.27046   0.27572   0.27986
 Alpha virt. eigenvalues --    0.28730   0.29786   0.30008   0.30860   0.30933
 Alpha virt. eigenvalues --    0.31404   0.31789   0.31907   0.32858   0.33353
 Alpha virt. eigenvalues --    0.34145   0.34623   0.35383   0.35704   0.36075
 Alpha virt. eigenvalues --    0.36464   0.36952   0.37597   0.38427   0.38866
 Alpha virt. eigenvalues --    0.39372   0.39826   0.39959   0.40566   0.40818
 Alpha virt. eigenvalues --    0.41007   0.41251   0.41458   0.41767   0.42246
 Alpha virt. eigenvalues --    0.42335   0.42818   0.43104   0.43286   0.43712
 Alpha virt. eigenvalues --    0.44579   0.44598   0.44961   0.45536   0.45701
 Alpha virt. eigenvalues --    0.46060   0.46660   0.46955   0.47573   0.47980
 Alpha virt. eigenvalues --    0.48336   0.48677   0.48965   0.49313   0.49691
 Alpha virt. eigenvalues --    0.49982   0.50582   0.50705   0.50981   0.51079
 Alpha virt. eigenvalues --    0.51242   0.51735   0.52561   0.52866   0.53178
 Alpha virt. eigenvalues --    0.53571   0.53867   0.54120   0.54320   0.54861
 Alpha virt. eigenvalues --    0.55019   0.55327   0.56004   0.56390   0.56629
 Alpha virt. eigenvalues --    0.56765   0.57287   0.57720   0.57948   0.58412
 Alpha virt. eigenvalues --    0.58478   0.58621   0.59055   0.59471   0.59554
 Alpha virt. eigenvalues --    0.60144   0.60313   0.60420   0.60800   0.60943
 Alpha virt. eigenvalues --    0.61324   0.61846   0.62129   0.62483   0.62795
 Alpha virt. eigenvalues --    0.63071   0.63329   0.63487   0.63874   0.63939
 Alpha virt. eigenvalues --    0.64020   0.64343   0.64490   0.64670   0.64906
 Alpha virt. eigenvalues --    0.65110   0.65501   0.65999   0.66383   0.66725
 Alpha virt. eigenvalues --    0.66832   0.67121   0.67194   0.67709   0.68063
 Alpha virt. eigenvalues --    0.68226   0.68596   0.68791   0.69075   0.69432
 Alpha virt. eigenvalues --    0.69757   0.70004   0.70156   0.70389   0.70700
 Alpha virt. eigenvalues --    0.70782   0.71179   0.71685   0.71843   0.72092
 Alpha virt. eigenvalues --    0.72344   0.72907   0.73296   0.73429   0.73836
 Alpha virt. eigenvalues --    0.74087   0.74921   0.75050   0.75195   0.75668
 Alpha virt. eigenvalues --    0.76049   0.76520   0.76883   0.77292   0.77676
 Alpha virt. eigenvalues --    0.77993   0.78080   0.78264   0.78834   0.79015
 Alpha virt. eigenvalues --    0.79697   0.79826   0.80582   0.80660   0.81599
 Alpha virt. eigenvalues --    0.82281   0.82941   0.83591   0.83992   0.85308
 Alpha virt. eigenvalues --    0.85480   0.85514   0.86893   0.87551   0.88872
 Alpha virt. eigenvalues --    0.89510   0.89749   0.90794   0.91111   0.91758
 Alpha virt. eigenvalues --    0.92673   0.93258   0.93942   0.94105   0.94667
 Alpha virt. eigenvalues --    0.95386   0.95749   0.96159   0.96504   0.96758
 Alpha virt. eigenvalues --    0.97209   0.97656   0.98920   0.99264   0.99849
 Alpha virt. eigenvalues --    1.00439   1.00876   1.01636   1.02175   1.02798
 Alpha virt. eigenvalues --    1.03642   1.04783   1.04966   1.06007   1.06906
 Alpha virt. eigenvalues --    1.07332   1.07871   1.08562   1.08943   1.09980
 Alpha virt. eigenvalues --    1.10420   1.10556   1.11302   1.11963   1.12387
 Alpha virt. eigenvalues --    1.13088   1.13957   1.14973   1.16003   1.16567
 Alpha virt. eigenvalues --    1.17118   1.17634   1.18643   1.19110   1.19911
 Alpha virt. eigenvalues --    1.19989   1.21236   1.22063   1.23111   1.23611
 Alpha virt. eigenvalues --    1.24015   1.24343   1.25258   1.25410   1.26296
 Alpha virt. eigenvalues --    1.27277   1.27487   1.28373   1.28785   1.29372
 Alpha virt. eigenvalues --    1.29799   1.30955   1.31787   1.31919   1.32444
 Alpha virt. eigenvalues --    1.33117   1.34224   1.34263   1.35078   1.36161
 Alpha virt. eigenvalues --    1.36913   1.37336   1.37647   1.37890   1.38619
 Alpha virt. eigenvalues --    1.38994   1.39980   1.41304   1.41652   1.42021
 Alpha virt. eigenvalues --    1.42339   1.42917   1.43231   1.44174   1.44756
 Alpha virt. eigenvalues --    1.45096   1.45185   1.46543   1.46747   1.47235
 Alpha virt. eigenvalues --    1.48078   1.48744   1.49049   1.50106   1.50484
 Alpha virt. eigenvalues --    1.50988   1.51374   1.52070   1.52525   1.52867
 Alpha virt. eigenvalues --    1.53544   1.53794   1.53875   1.54565   1.55657
 Alpha virt. eigenvalues --    1.55991   1.57332   1.57651   1.58489   1.59409
 Alpha virt. eigenvalues --    1.60083   1.60718   1.60767   1.60906   1.61438
 Alpha virt. eigenvalues --    1.61683   1.62499   1.62841   1.63294   1.63933
 Alpha virt. eigenvalues --    1.64876   1.65295   1.65461   1.65846   1.66750
 Alpha virt. eigenvalues --    1.67195   1.67523   1.67630   1.68129   1.68765
 Alpha virt. eigenvalues --    1.69092   1.69645   1.69907   1.69955   1.70434
 Alpha virt. eigenvalues --    1.70723   1.70900   1.71065   1.71521   1.72314
 Alpha virt. eigenvalues --    1.72900   1.73274   1.73521   1.74140   1.74279
 Alpha virt. eigenvalues --    1.74904   1.75258   1.75384   1.76066   1.76798
 Alpha virt. eigenvalues --    1.77003   1.77289   1.77867   1.77994   1.78298
 Alpha virt. eigenvalues --    1.78528   1.79013   1.79236   1.79488   1.80283
 Alpha virt. eigenvalues --    1.80647   1.81039   1.81107   1.81378   1.81590
 Alpha virt. eigenvalues --    1.82320   1.82678   1.82853   1.82884   1.83284
 Alpha virt. eigenvalues --    1.84283   1.84619   1.85239   1.85326   1.85880
 Alpha virt. eigenvalues --    1.86272   1.86417   1.86661   1.86991   1.87341
 Alpha virt. eigenvalues --    1.87647   1.88552   1.89215   1.89882   1.90399
 Alpha virt. eigenvalues --    1.91074   1.91259   1.91695   1.92389   1.92828
 Alpha virt. eigenvalues --    1.93616   1.94060   1.94573   1.94992   1.95146
 Alpha virt. eigenvalues --    1.95498   1.95948   1.96824   1.96934   1.97101
 Alpha virt. eigenvalues --    1.97874   1.98206   1.98481   1.99297   2.00223
 Alpha virt. eigenvalues --    2.00644   2.01542   2.01610   2.01957   2.02455
 Alpha virt. eigenvalues --    2.03413   2.03835   2.04117   2.04820   2.05181
 Alpha virt. eigenvalues --    2.06032   2.06464   2.06917   2.07124   2.07992
 Alpha virt. eigenvalues --    2.08705   2.09027   2.09202   2.09842   2.10306
 Alpha virt. eigenvalues --    2.11219   2.12225   2.12627   2.12908   2.13078
 Alpha virt. eigenvalues --    2.14064   2.14346   2.14805   2.15492   2.16845
 Alpha virt. eigenvalues --    2.17109   2.17359   2.18268   2.18523   2.18819
 Alpha virt. eigenvalues --    2.19321   2.19924   2.20500   2.20730   2.22102
 Alpha virt. eigenvalues --    2.22759   2.23679   2.24758   2.24999   2.25313
 Alpha virt. eigenvalues --    2.25870   2.26769   2.28142   2.29655   2.30275
 Alpha virt. eigenvalues --    2.30787   2.30926   2.31500   2.32046   2.33190
 Alpha virt. eigenvalues --    2.34052   2.34555   2.35489   2.36020   2.36764
 Alpha virt. eigenvalues --    2.37243   2.38169   2.38983   2.39291   2.40138
 Alpha virt. eigenvalues --    2.41037   2.41135   2.41781   2.42699   2.42874
 Alpha virt. eigenvalues --    2.44208   2.44409   2.45193   2.45893   2.46510
 Alpha virt. eigenvalues --    2.46922   2.47308   2.47960   2.48531   2.49340
 Alpha virt. eigenvalues --    2.50002   2.51388   2.51783   2.52230   2.53292
 Alpha virt. eigenvalues --    2.55150   2.55915   2.57045   2.57575   2.58579
 Alpha virt. eigenvalues --    2.59388   2.59715   2.60091   2.60309   2.61557
 Alpha virt. eigenvalues --    2.62369   2.62946   2.63811   2.64355   2.64387
 Alpha virt. eigenvalues --    2.65004   2.65918   2.66264   2.67504   2.67991
 Alpha virt. eigenvalues --    2.68609   2.68806   2.69342   2.69496   2.70075
 Alpha virt. eigenvalues --    2.71386   2.71608   2.72652   2.72856   2.73844
 Alpha virt. eigenvalues --    2.74253   2.75110   2.75826   2.76414   2.76616
 Alpha virt. eigenvalues --    2.76678   2.77478   2.78697   2.79784   2.80624
 Alpha virt. eigenvalues --    2.80718   2.81284   2.81747   2.83111   2.83382
 Alpha virt. eigenvalues --    2.83840   2.84278   2.85448   2.86342   2.86753
 Alpha virt. eigenvalues --    2.87681   2.88081   2.88169   2.88539   2.89249
 Alpha virt. eigenvalues --    2.89480   2.90191   2.90804   2.91543   2.93497
 Alpha virt. eigenvalues --    2.94026   2.95618   2.97071   2.99255   3.01597
 Alpha virt. eigenvalues --    3.02166   3.02495   3.03423   3.04013   3.05544
 Alpha virt. eigenvalues --    3.06535   3.07228   3.10039   3.10232   3.11469
 Alpha virt. eigenvalues --    3.11959   3.13242   3.13937   3.15347   3.16148
 Alpha virt. eigenvalues --    3.16552   3.17467   3.18814   3.20642   3.22058
 Alpha virt. eigenvalues --    3.22922   3.24341   3.25268   3.27266   3.28694
 Alpha virt. eigenvalues --    3.31249   3.36358   3.40554   3.46517   3.48184
 Alpha virt. eigenvalues --    3.50533   3.53886   3.55318   3.56106   3.60312
 Alpha virt. eigenvalues --    3.61535   3.64020   3.66002   3.69129   3.72274
 Alpha virt. eigenvalues --    3.77520
          Condensed to atoms (all electrons):
 Mulliken charges:
               1
     1  O   -0.282405
     2  O   -0.207816
     3  O   -0.171598
     4  O   -0.208350
     5  O   -0.192522
     6  O   -0.307346
     7  N   -0.082383
     8  N   -0.127455
     9  N   -0.199438
    10  N   -0.258960
    11  C   -0.030679
    12  C    0.031061
    13  C   -0.151293
    14  C    0.143921
    15  C   -0.074985
    16  C    0.095970
    17  C   -0.011072
    18  C   -0.057310
    19  C    0.011786
    20  C   -0.110966
    21  C    0.077979
    22  C    0.131190
    23  C    0.084789
    24  C    0.121321
    25  C   -0.164826
    26  C   -0.089638
    27  C    0.143684
    28  C   -0.007631
    29  C    0.002785
    30  C   -0.132476
    31  C   -0.090433
    32  C    0.090460
    33  C   -0.134773
    34  C    0.095839
    35  C   -0.127936
    36  C   -0.182778
    37  C    0.146729
    38  C    0.013378
    39  C    0.135326
    40  C    0.182583
    41  C    0.138281
    42  C    0.081746
    43  C   -0.066139
    44  H    0.126460
    45  H   -0.027109
    46  H    0.060922
    47  H    0.012355
    48  H    0.065462
    49  H    0.022564
    50  H   -0.009071
    51  H    0.103980
    52  H    0.136766
    53  H    0.030686
    54  H    0.088645
    55  H    0.065745
    56  H    0.197844
    57  H    0.041694
    58  H    0.053363
    59  H    0.022977
    60  H    0.013544
    61  H    0.066998
    62  H    0.051239
    63  H    0.058200
    64  H   -0.061015
    65  H   -0.026356
    66  H    0.053949
    67  H    0.044156
    68  H   -0.064798
    69  H    0.065577
    70  H   -0.009703
    71  H    0.065351
    72  H   -0.067572
    73  H    0.016333
    74  H   -0.007312
    75  H    0.039298
    76  H    0.032358
    77  H    0.027275
    78  H    0.023419
    79  H    0.048778
    80  H    0.201556
    81  H    0.177822
 Sum of Mulliken charges =  -0.00000
 Mulliken charges with hydrogens summed into heavy atoms:
               1
     1  O   -0.282405
     2  O   -0.006259
     3  O    0.006224
     4  O   -0.208350
     5  O   -0.192522
     6  O   -0.307346
     7  N    0.044077
     8  N    0.009312
     9  N   -0.001594
    10  N   -0.258960
    11  C   -0.030679
    12  C    0.031061
    13  C   -0.151293
    14  C    0.143921
    15  C   -0.074985
    16  C    0.095970
    17  C   -0.038181
    18  C   -0.057310
    19  C    0.085064
    20  C   -0.045504
    21  C    0.077979
    22  C    0.131190
    23  C    0.084789
    24  C    0.134813
    25  C   -0.060846
    26  C    0.095437
    27  C    0.143684
    28  C    0.087426
    29  C    0.039306
    30  C    0.043961
    31  C   -0.151448
    32  C    0.162210
    33  C   -0.199572
    34  C    0.095839
    35  C   -0.127936
    36  C   -0.182778
    37  C    0.146729
    38  C    0.134604
    39  C    0.135326
    40  C    0.131344
    41  C    0.138281
    42  C    0.146090
    43  C    0.033332
 Electronic spatial extent (au):  <R**2>=          30501.8183
 Charge=             -0.0000 electrons
 Dipole moment (field-independent basis, Debye):
    X=             -2.3043    Y=              1.1026    Z=             -1.2660  Tot=              2.8510
 Quadrupole moment (field-independent basis, Debye-Ang):
   XX=           -245.0987   YY=           -250.4279   ZZ=           -254.6422
   XY=             16.2150   XZ=             10.4708   YZ=            -18.6953
 Traceless Quadrupole moment (field-independent basis, Debye-Ang):
   XX=              4.9576   YY=             -0.3716   ZZ=             -4.5859
   XY=             16.2150   XZ=             10.4708   YZ=            -18.6953
 Octapole moment (field-independent basis, Debye-Ang**2):
  XXX=             74.4628  YYY=            164.6196  ZZZ=            -18.1245  XYY=           -179.7308
  XXY=            -24.2265  XXZ=           -144.9370  XZZ=            -58.3263  YZZ=            -34.0702
  YYZ=             35.8622  XYZ=            -64.4105
 Hexadecapole moment (field-independent basis, Debye-Ang**3):
 XXXX=         -21151.6903 YYYY=         -17074.2972 ZZZZ=          -1687.8334 XXXY=            576.4600
 XXXZ=            824.3627 YYYX=            970.2228 YYYZ=           -668.2979 ZZZX=             60.6728
 ZZZY=             22.2398 XXYY=          -6532.4478 XXZZ=          -3859.1592 YYZZ=          -3150.7684
 XXYZ=             80.8888 YYXZ=            205.7086 ZZXY=            207.6796
 N-N= 5.036925040549D+03 E-N=-1.460427122194D+04  KE= 1.927618657966D+03
 1\1\GINC-PADAWAN\SP\RB3LYP TD-FC\SVP\C33H38N4O6\PADAWAN\29-Jun-2019\0\
 \# td=(NStates=1) B3LYP/SVP\\TD\\0,1\O,0,-4.1682583366,-4.9447088421,1
 .8034543738\O,0,3.2351575445,-4.8575170585,1.0340875461\O,0,6.90505681
 ,-1.4817354432,1.9536380433\O,0,3.9828333408,-3.1783558606,-0.20537387
 68\O,0,7.5299325299,-0.5528551806,0.0627502423\O,0,-3.0270782939,2.429
 0109519,-0.4137229337\N,0,-0.4000770024,-0.4686910622,-0.7291099239\N,
 0,1.54287278,1.7881792504,-0.3841299906\N,0,-3.2399359826,-3.228914004
 4,0.6365599746\N,0,-0.8607045662,2.9313942888,-0.1411879646\C,0,0.5631
 685812,-2.4012480832,-1.4095032454\C,0,0.8607489772,-1.0979270244,-0.9
 960684557\C,0,-0.7836324919,-2.6412524874,-1.210663129\C,0,-1.37868829
 08,-1.4097012815,-0.8343325633\C,0,3.7668451453,1.4766308296,-0.206424
 9093\C,0,2.5333354393,0.8773895645,-0.554309616\C,0,2.1601912693,-0.44
 40516631,-0.948614336\C,0,3.5335339935,2.7686466669,0.2247704673\C,0,1
 .5046118663,-3.3832800293,-2.0418215278\C,0,-5.4815670634,-2.854841099
 ,1.3276200263\C,0,-3.6381776771,-1.8868636623,0.1237283046\C,0,2.08229
 25414,3.0447644706,0.0242100444\C,0,-4.9868013764,-1.6003189958,0.5346
 975137\C,0,5.0408793498,0.7908440013,-0.2603249912\C,0,-2.6206568814,-
 0.9970482602,-0.4133478086\C,0,-1.594419104,-3.7563053836,-1.892039520
 8\C,0,-4.2818678552,-3.7512393557,1.3607712027\C,0,2.0760087346,-4.493
 1283365,-0.9899582226\C,0,5.3413329357,-0.1354116647,0.9091034575\C,0,
 4.4939254538,3.8749803473,0.5897111714\C,0,1.2577844568,4.1683513854,0
 .324624183\C,0,-6.8464993005,-3.6311378936,1.0283318953\C,0,-5.7380233
 829,-0.6017859626,0.2669338603\C,0,-0.092967216,4.0113993897,0.2146232
 742\C,0,-1.0255176504,5.1838259163,0.4601044759\C,0,-2.2976392376,4.80
 69621976,0.1507709831\C,0,3.1939959816,-4.0645491251,-0.0663989507\C,0
 ,-5.409234633,0.6487401626,-0.5360650713\C,0,6.6895788369,-0.78520399,
 0.8510159998\C,0,-3.6662141643,5.3958806466,0.1776822789\C,0,-2.138393
 3909,3.3279577568,-0.1282285927\C,0,-0.6282434154,6.5339090609,0.81523
 05747\C,0,-4.2716467273,5.5479807548,-1.1518342749\H,0,-0.391380723,0.
 4254794137,-0.2635260923\H,0,2.9539627573,-1.0474128825,-1.2984399314\
 H,0,2.47348723,-2.9972113177,-2.7076773148\H,0,0.8436653727,-4.0246765
 786,-2.7145298131\H,0,-5.5639081181,-2.3734359683,2.4425747974\H,0,5.0
 564981623,0.0939387753,-1.1938497323\H,0,5.7823768051,1.5077002981,-0.
 4264862232\H,0,-2.9042066384,0.188036594,-0.4204724447\H,0,0.508588089
 4,1.808590703,-0.4084982953\H,0,-1.269811717,-4.8919237629,-1.40954046
 38\H,0,-2.7562157326,-3.4383944258,-1.5411122443\H,0,-1.4329084707,-4.
 0029573645,-3.0410396933\H,0,-2.2151138977,-3.6738271134,0.7614088061\
 H,0,1.2099318225,-4.8367763759,-0.3934347334\H,0,2.3630524096,-5.28435
 25422,-1.6907744593\H,0,4.6216273957,-0.9585270161,1.0692366598\H,0,5.
 0500193473,0.4248685256,1.7614639495\H,0,4.9021907447,4.5432647429,-0.
 3621375856\H,0,5.6776308548,3.4396314963,1.0508308727\H,0,3.9790749401
 ,4.8268081529,1.4113268496\H,0,1.5062013987,5.1540545829,0.6028813633\
 H,0,-7.4953010984,-2.9249275763,1.3038216518\H,0,-7.0245165156,-4.4951
 158937,1.8166375042\H,0,-7.1514508421,-3.8996173778,-0.0555434659\H,0,
 -6.621196642,-0.4484157501,0.6690749086\H,0,-4.9704860207,1.4898638073
 ,0.1087136101\H,0,-6.3234907265,1.0966187369,-0.8274870648\H,0,-4.4950
 288149,0.6216023224,-1.2976965345\H,0,-3.626454631,6.2298173868,0.7130
 881853\H,0,-4.3575171899,4.7307854104,0.8401000363\H,0,-0.160925237,6.
 5682673921,1.7548453261\H,0,-1.513487459,7.3110945642,1.0145908108\H,0
 ,0.2913383018,6.8825005358,0.1883197891\H,0,-3.4905669637,6.1382114468
 ,-1.8656607686\H,0,-5.3105437616,6.0823413502,-0.9946093381\H,0,-4.472
 090686,4.5373239027,-1.6674862566\H,0,3.9501634168,-4.4137675893,1.607
 4415266\H,0,7.8516131859,-1.7183212211,1.9925366367\\Version=ES64L-G16
 RevA.03\State=1-A\HF=-1949.0504673\RMSD=7.068e-09\PG=C01 [X(C33H38N4O6
 )]\\@


 WOE UNTO THEM THAT CALL EVIL GOOD, AND GOOD EVIL      
 Job cpu time:       0 days  5 hours 20 minutes 37.8 seconds.
 Elapsed time:       0 days  3 hours 33 minutes 34.1 seconds.
 File lengths (MBytes):  RWF=   2591 Int=      0 D2E=      0 Chk=     65 Scr=      1
 Normal termination of Gaussian 16 at Sat Jun 29 16:54:24 2019.
