 Entering Gaussian System, Link 0=g16
 Input=Geometria-479-.com
 Output=Geometria-479-.log
 Initial command:
 /usr/local/g16/l1.exe "/home/padawan/israel-mol/phycocyanobilin/spectra/emi/Gau-6897.inp" -scrdir="/home/padawan/israel-mol/phycocyanobilin/spectra/emi/"
 Entering Link 1 = /usr/local/g16/l1.exe PID=      6899.
  
 Copyright (c) 1988,1990,1992,1993,1995,1998,2003,2009,2016,
            Gaussian, Inc.  All Rights Reserved.
  
 This is part of the Gaussian(R) 16 program.  It is based on
 the Gaussian(R) 09 system (copyright 2009, Gaussian, Inc.),
 the Gaussian(R) 03 system (copyright 2003, Gaussian, Inc.),
 the Gaussian(R) 98 system (copyright 1998, Gaussian, Inc.),
 the Gaussian(R) 94 system (copyright 1995, Gaussian, Inc.),
 the Gaussian 92(TM) system (copyright 1992, Gaussian, Inc.),
 the Gaussian 90(TM) system (copyright 1990, Gaussian, Inc.),
 the Gaussian 88(TM) system (copyright 1988, Gaussian, Inc.),
 the Gaussian 86(TM) system (copyright 1986, Carnegie Mellon
 University), and the Gaussian 82(TM) system (copyright 1983,
 Carnegie Mellon University). Gaussian is a federally registered
 trademark of Gaussian, Inc.
  
 This software contains proprietary and confidential information,
 including trade secrets, belonging to Gaussian, Inc.
  
 This software is provided under written license and may be
 used, copied, transmitted, or stored only in accord with that
 written license.
  
 The following legend is applicable only to US Government
 contracts under FAR:
  
                    RESTRICTED RIGHTS LEGEND
  
 Use, reproduction and disclosure by the US Government is
 subject to restrictions as set forth in subparagraphs (a)
 and (c) of the Commercial Computer Software - Restricted
 Rights clause in FAR 52.227-19.
  
 Gaussian, Inc.
 340 Quinnipiac St., Bldg. 40, Wallingford CT 06492
  
  
 ---------------------------------------------------------------
 Warning -- This program may not be used in any manner that
 competes with the business of Gaussian, Inc. or will provide
 assistance to any competitor of Gaussian, Inc.  The licensee
 of this program is prohibited from giving any competitor of
 Gaussian, Inc. access to this program.  By using this program,
 the user acknowledges that Gaussian, Inc. is engaged in the
 business of creating and licensing software in the field of
 computational chemistry and represents and warrants to the
 licensee that it is not a competitor of Gaussian, Inc. and that
 it will not use this program in any manner prohibited above.
 ---------------------------------------------------------------
  

 Cite this work as:
 Gaussian 16, Revision A.03,
 M. J. Frisch, G. W. Trucks, H. B. Schlegel, G. E. Scuseria, 
 M. A. Robb, J. R. Cheeseman, G. Scalmani, V. Barone, 
 G. A. Petersson, H. Nakatsuji, X. Li, M. Caricato, A. V. Marenich, 
 J. Bloino, B. G. Janesko, R. Gomperts, B. Mennucci, H. P. Hratchian, 
 J. V. Ortiz, A. F. Izmaylov, J. L. Sonnenberg, D. Williams-Young, 
 F. Ding, F. Lipparini, F. Egidi, J. Goings, B. Peng, A. Petrone, 
 T. Henderson, D. Ranasinghe, V. G. Zakrzewski, J. Gao, N. Rega, 
 G. Zheng, W. Liang, M. Hada, M. Ehara, K. Toyota, R. Fukuda, 
 J. Hasegawa, M. Ishida, T. Nakajima, Y. Honda, O. Kitao, H. Nakai, 
 T. Vreven, K. Throssell, J. A. Montgomery, Jr., J. E. Peralta, 
 F. Ogliaro, M. J. Bearpark, J. J. Heyd, E. N. Brothers, K. N. Kudin, 
 V. N. Staroverov, T. A. Keith, R. Kobayashi, J. Normand, 
 K. Raghavachari, A. P. Rendell, J. C. Burant, S. S. Iyengar, 
 J. Tomasi, M. Cossi, J. M. Millam, M. Klene, C. Adamo, R. Cammi, 
 J. W. Ochterski, R. L. Martin, K. Morokuma, O. Farkas, 
 J. B. Foresman, and D. J. Fox, Gaussian, Inc., Wallingford CT, 2016.
 
 ******************************************
 Gaussian 16:  ES64L-G16RevA.03 25-Dec-2016
                 3-Jul-2019 
 ******************************************
 %nproc=4
 Will use up to    4 processors via shared memory.
 %Mem=2GB
 --------------------------
 # td=(NStates=1) B3LYP/SVP
 --------------------------
 1/38=1,172=1/1;
 2/12=2,17=6,18=5,40=1/2;
 3/5=18,7=101,11=9,25=1,30=1,74=-5/1,2,3,8;
 4//1;
 5/5=2,38=5/2;
 8/6=1,10=1,108=1/1;
 9/41=1,42=1,70=2/14;
 6/7=2,8=2,9=2,10=2/1;
 99/5=1,9=1/99;
 --
 TD
 --
 Symbolic Z-matrix:
 Charge =  0 Multiplicity = 1
 8                    -4.34985  -4.97307   1.77734 
 8                     3.07191  -4.83821   1.02638 
 8                     6.96794  -1.7838    1.66008 
 8                     3.89872  -3.25462  -0.30087 
 8                     7.61539  -0.21304  -0.0414 
 8                    -2.99215   2.44714  -0.35554 
 7                    -0.26765  -0.48909  -0.43505 
 7                     1.57902   1.91356  -0.40661 
 7                    -3.3784   -3.21899   0.61496 
 7                    -0.75078   2.94511  -0.052 
 6                     0.67869  -2.40847  -1.30888 
 6                     0.92274  -1.08887  -0.77285 
 6                    -0.67375  -2.61662  -1.15048 
 6                    -1.3147   -1.42611  -0.53207 
 6                     3.82636   1.55068  -0.25878 
 6                     2.52916   0.91433  -0.46757 
 6                     2.19396  -0.45976  -0.64278 
 6                     3.46586   2.86121   0.06301 
 6                     1.61228  -3.28022  -1.8875 
 6                    -5.61551  -2.86804   1.27783 
 6                    -3.63525  -1.91567   0.2582 
 6                     2.06725   3.0549    0.01828 
 6                    -5.07529  -1.62289   0.53445 
 6                     5.11487   0.81254  -0.30883 
 6                    -2.64687  -1.05891  -0.2815 
 6                    -1.4479   -3.72017  -1.69707 
 6                    -4.48412  -3.84276   1.30704 
 6                     2.0322   -4.52591  -1.05046 
 6                     5.39883  -0.22125   0.88712 
 6                     4.4844    3.98588   0.38508 
 6                     1.28753   4.16623   0.38437 
 6                    -6.9069   -3.55673   0.77953 
 6                    -5.79625  -0.59177   0.1256 
 6                    -0.07058   4.15442   0.28373 
 6                    -1.03061   5.24791   0.36181 
 6                    -2.28976   4.66177   0.29721 
 6                     3.06104  -4.12461  -0.05723 
 6                    -5.39413   0.48711  -0.82694 
 6                     6.77279  -0.81938   0.79087 
 6                    -3.7462    5.25621   0.27587 
 6                    -2.10928   3.2719   -0.07598 
 6                    -0.65818   6.69668   0.71768 
 6                    -4.23355   5.47149  -1.18658 
 1                    -0.31249   0.4438    0.03202 
 1                     3.17352  -0.98524  -0.78432 
 1                     2.58774  -3.01124  -2.15589 
 1                     1.42058  -3.67397  -2.99435 
 1                    -5.76573  -2.43678   2.40233 
 1                     5.26448   0.29821  -1.28218 
 1                     5.84291   1.39308  -0.52763 
 1                    -2.77957  -0.01172  -0.48577 
 1                     0.52071   2.01974  -0.49526 
 1                    -1.50518  -4.60194  -1.01074 
 1                    -2.48628  -3.44543  -1.71594 
 1                    -0.89584  -4.09227  -2.61132 
 1                    -2.53971  -3.70693   0.76744 
 1                     1.04654  -5.07322  -0.70574 
 1                     2.6923   -5.16944  -1.69602 
 1                     4.48476  -1.03889   1.0969 
 1                     5.33569   0.51935   1.65607 
 1                     4.75382   4.78494  -0.43165 
 1                     5.53745   3.65156   0.53833 
 1                     4.14887   4.24596   1.49167 
 1                     1.80157   5.14064   0.44468 
 1                    -7.86917  -2.91147   1.11576 
 1                    -7.01332  -4.44912   1.50525 
 1                    -7.1827   -3.78256  -0.22607 
 1                    -6.92043  -0.66754   0.35939 
 1                    -5.07605   1.51335  -0.30419 
 1                    -6.30192   0.88499  -1.37181 
 1                    -4.6715    0.06337  -1.65632 
 1                    -3.76402   6.23143   0.91318 
 1                    -4.52076   4.68667   0.89559 
 1                    -0.42397   6.85531   1.86578 
 1                    -1.57987   7.2298    0.55413 
 1                     0.11839   7.04455   0.14241 
 1                    -3.49705   6.13077  -1.7068 
 1                    -5.0739    6.00153  -0.93186 
 1                    -4.65303   4.57655  -1.71987 
 1                     3.84382  -4.42246   1.59474 
 1                     7.97265  -1.93562   1.51522 
 
 Stoichiometry    C33H38N4O6
 Framework group  C1[X(C33H38N4O6)]
 Deg. of freedom   237
 Full point group                 C1      NOp   1
 Largest Abelian subgroup         C1      NOp   1
 Largest concise Abelian subgroup C1      NOp   1
                         Standard orientation:                         
 ---------------------------------------------------------------------
 Center     Atomic      Atomic             Coordinates (Angstroms)
 Number     Number       Type             X           Y           Z
 ---------------------------------------------------------------------
      1          8           0        4.492646   -4.855933   -1.744401
      2          8           0       -2.932599   -4.926617   -1.019578
      3          8           0       -6.910491   -1.985100   -1.678295
      4          8           0       -3.808221   -3.361974    0.298800
      5          8           0       -7.607791   -0.426864    0.014975
      6          8           0        2.919782    2.531081    0.355648
      7          7           0        0.278445   -0.480140    0.436880
      8          7           0       -1.634777    1.869627    0.392963
      9          7           0        3.468253   -3.125528   -0.592032
     10          7           0        0.666420    2.964827    0.042489
     11          6           0       -0.616793   -2.422078    1.314707
     12          6           0       -0.895846   -1.111830    0.772834
     13          6           0        0.741510   -2.592778    1.161760
     14          6           0        1.351012   -1.387044    0.541066
     15          6           0       -3.870519    1.443278    0.238750
     16          6           0       -2.556725    0.844361    0.454427
     17          6           0       -2.183751   -0.519132    0.636001
     18          6           0       -3.545773    2.762210   -0.086761
     19          6           0       -1.527619   -3.317542    1.893392
     20          6           0        5.696984   -2.714387   -1.248497
     21          6           0        3.687172   -1.814199   -0.239332
     22          6           0       -2.153318    2.995234   -0.037933
     23          6           0        5.119410   -1.482151   -0.511712
     24          6           0       -5.137983    0.669459    0.287147
     25          6           0        2.673239   -0.983534    0.293709
     26          6           0        1.544363   -3.672146    1.715200
     27          6           0        4.593487   -3.720569   -1.277920
     28          6           0       -1.909455   -4.577608    1.059641
     29          6           0       -5.388581   -0.376296   -0.905851
     30          6           0       -4.594313    3.856664   -0.416601
     31          6           0       -1.403775    4.126654   -0.405538
     32          6           0        7.005397   -3.364721   -0.743138
     33          6           0        5.809705   -0.429707   -0.104288
     34          6           0       -0.046232    4.153334   -0.300166
     35          6           0        0.883014    5.273036   -0.379078
     36          6           0        2.157871    4.722699   -0.307902
     37          6           0       -2.945605   -4.208999    0.061346
     38          6           0        5.374100    0.640981    0.842767
     39          6           0       -6.745556   -1.012384   -0.812078
     40          6           0        3.596984    5.357849   -0.283793
     41          6           0        2.015122    3.329703    0.069925
     42          6           0        0.471361    6.709454   -0.741715
     43          6           0        4.072899    5.592122    1.179504
     44          1           0        0.298762    0.451915   -0.033568
     45          1           0       -3.148684   -1.071361    0.776144
     46          1           0       -2.511184   -3.075055    2.157398
     47          1           0       -1.328889   -3.701672    3.002383
     48          1           0        5.839045   -2.283234   -2.374104
     49          1           0       -5.276572    0.154732    1.261916
     50          1           0       -5.882800    1.230146    0.501228
     51          1           0        2.775792    0.067715    0.494461
     52          1           0       -0.580186    2.005789    0.484858
     53          1           0        1.628785   -4.554492    1.032418
     54          1           0        2.574548   -3.368301    1.736613
     55          1           0        0.999708   -4.056209    2.628939
     56          1           0        2.644123   -3.637368   -0.745558
     57          1           0       -0.907602   -5.098310    0.720394
     58          1           0       -2.553528   -5.237020    1.705353
     59          1           0       -4.451202   -1.168727   -1.109373
     60          1           0       -5.343503    0.362940   -1.677381
     61          1           0       -4.888935    4.650855    0.396166
     62          1           0       -5.637012    3.492363   -0.572217
     63          1           0       -4.262273    4.121970   -1.523008
     64          1           0       -1.944730    5.086028   -0.471309
     65          1           0        7.950382   -2.693954   -1.078493
     66          1           0        7.139386   -4.256447   -1.465099
     67          1           0        7.283852   -3.579005    0.264254
     68          1           0        6.936390   -0.474756   -0.333911
     69          1           0        5.029216    1.655947    0.315031
     70          1           0        6.268424    1.066180    1.389254
     71          1           0        4.660688    0.200186    1.671246
     72          1           0        3.589706    6.330827   -0.924725
     73          1           0        4.389415    4.807990   -0.898667
     74          1           0        0.236884    6.857212   -1.891205
     75          1           0        1.377155    7.268830   -0.577009
     76          1           0       -0.316700    7.037518   -0.170446
     77          1           0        3.316346    6.232388    1.694684
     78          1           0        4.898949    6.144592    0.925685
     79          1           0        4.515412    4.711275    1.717630
     80          1           0       -3.713841   -4.534796   -1.592174
     81          1           0       -7.911049   -2.164526   -1.536330
 ---------------------------------------------------------------------
 Rotational constants (GHZ):           0.0748633           0.0549150           0.0335751
 Standard basis: SVP (5D, 7F)
 There are   835 symmetry adapted cartesian basis functions of A   symmetry.
 There are   792 symmetry adapted basis functions of A   symmetry.
   792 basis functions,  1341 primitive gaussians,   835 cartesian basis functions
   156 alpha electrons      156 beta electrons
       nuclear repulsion energy      5032.4649700504 Hartrees.
 NAtoms=   81 NActive=   81 NUniq=   81 SFac= 1.00D+00 NAtFMM=   60 NAOKFM=T Big=T
 Integral buffers will be    131072 words long.
 Regular integral format.
 Two-electron integral symmetry is turned on.
 One-electron integrals computed using PRISM.
 NBasis=   792 RedAO= T EigKep=  3.59D-04  NBF=   792
 NBsUse=   792 1.00D-06 EigRej= -1.00D+00 NBFU=   792
 ExpMin= 1.22D-01 ExpMax= 2.27D+03 ExpMxC= 3.41D+02 IAcc=3 IRadAn=         5 AccDes= 0.00D+00
 Harris functional with IExCor=  402 and IRadAn=       5 diagonalized for initial guess.
 HarFok:  IExCor=  402 AccDes= 0.00D+00 IRadAn=         5 IDoV= 1 UseB2=F ITyADJ=14
 ICtDFT=  3500011 ScaDFX=  1.000000  1.000000  1.000000  1.000000
 FoFCou: FMM=F IPFlag=           0 FMFlag=      100000 FMFlg1=        2001
         NFxFlg=           0 DoJE=T BraDBF=F KetDBF=T FulRan=T
         wScrn=  0.000000 ICntrl=       500 IOpCl=  0 I1Cent=   200000004 NGrid=           0
         NMat0=    1 NMatS0=      1 NMatT0=    0 NMatD0=    1 NMtDS0=    0 NMtDT0=    0
 Petite list used in FoFCou.
 Requested convergence on RMS density matrix=1.00D-08 within 128 cycles.
 Requested convergence on MAX density matrix=1.00D-06.
 Requested convergence on             energy=1.00D-06.
 No special actions if energy rises.
 Integral accuracy reduced to 1.0D-05 until final iterations.
 Initial convergence to 1.0D-05 achieved.  Increase integral accuracy.
 SCF Done:  E(RB3LYP) =  -1949.12335832     A.U. after   19 cycles
            NFock= 19  Conv=0.70D-08     -V/T= 2.0110
 DoSCS=F DFT=T ScalE2(SS,OS)=  1.000000  1.000000
 ExpMin= 1.22D-01 ExpMax= 2.27D+03 ExpMxC= 3.41D+02 IAcc=3 IRadAn=         5 AccDes= 0.00D+00
 HarFok:  IExCor=  205 AccDes= 0.00D+00 IRadAn=         5 IDoV=-2 UseB2=F ITyADJ=14
 ICtDFT= 12500011 ScaDFX=  1.000000  1.000000  1.000000  1.000000
 GSVD:  LWork=       -2193 too small for GESVD, short by        9890 words or        9890 for optimal perf.
 Range of M.O.s used for correlation:    44   792
 NBasis=   792 NAE=   156 NBE=   156 NFC=    43 NFV=     0
 NROrb=    749 NOA=   113 NOB=   113 NVA=   636 NVB=   636

 **** Warning!!: The smallest alpha delta epsilon is  0.70151013D-01

 Orbital symmetries:
       Occupied  (A) (A) (A) (A) (A) (A) (A) (A) (A) (A) (A) (A)
                 (A) (A) (A) (A) (A) (A) (A) (A) (A) (A) (A) (A)
                 (A) (A) (A) (A) (A) (A) (A) (A) (A) (A) (A) (A)
                 (A) (A) (A) (A) (A) (A) (A) (A) (A) (A) (A) (A)
                 (A) (A) (A) (A) (A) (A) (A) (A) (A) (A) (A) (A)
                 (A) (A) (A) (A) (A) (A) (A) (A) (A) (A) (A) (A)
                 (A) (A) (A) (A) (A) (A) (A) (A) (A) (A) (A) (A)
                 (A) (A) (A) (A) (A) (A) (A) (A) (A) (A) (A) (A)
                 (A) (A) (A) (A) (A) (A) (A) (A) (A) (A) (A) (A)
                 (A) (A) (A) (A) (A) (A) (A) (A) (A) (A) (A) (A)
                 (A) (A) (A) (A) (A) (A) (A) (A) (A) (A) (A) (A)
                 (A) (A) (A) (A) (A) (A) (A) (A) (A) (A) (A) (A)
                 (A) (A) (A) (A) (A) (A) (A) (A) (A) (A) (A) (A)
       Virtual   (A) (A) (A) (A) (A) (A) (A) (A) (A) (A) (A) (A)
                 (A) (A) (A) (A) (A) (A) (A) (A) (A) (A) (A) (A)
                 (A) (A) (A) (A) (A) (A) (A) (A) (A) (A) (A) (A)
                 (A) (A) (A) (A) (A) (A) (A) (A) (A) (A) (A) (A)
                 (A) (A) (A) (A) (A) (A) (A) (A) (A) (A) (A) (A)
                 (A) (A) (A) (A) (A) (A) (A) (A) (A) (A) (A) (A)
                 (A) (A) (A) (A) (A) (A) (A) (A) (A) (A) (A) (A)
                 (A) (A) (A) (A) (A) (A) (A) (A) (A) (A) (A) (A)
                 (A) (A) (A) (A) (A) (A) (A) (A) (A) (A) (A) (A)
                 (A) (A) (A) (A) (A) (A) (A) (A) (A) (A) (A) (A)
                 (A) (A) (A) (A) (A) (A) (A) (A) (A) (A) (A) (A)
                 (A) (A) (A) (A) (A) (A) (A) (A) (A) (A) (A) (A)
                 (A) (A) (A) (A) (A) (A) (A) (A) (A) (A) (A) (A)
                 (A) (A) (A) (A) (A) (A) (A) (A) (A) (A) (A) (A)
                 (A) (A) (A) (A) (A) (A) (A) (A) (A) (A) (A) (A)
                 (A) (A) (A) (A) (A) (A) (A) (A) (A) (A) (A) (A)
                 (A) (A) (A) (A) (A) (A) (A) (A) (A) (A) (A) (A)
                 (A) (A) (A) (A) (A) (A) (A) (A) (A) (A) (A) (A)
                 (A) (A) (A) (A) (A) (A) (A) (A) (A) (A) (A) (A)
                 (A) (A) (A) (A) (A) (A) (A) (A) (A) (A) (A) (A)
                 (A) (A) (A) (A) (A) (A) (A) (A) (A) (A) (A) (A)
                 (A) (A) (A) (A) (A) (A) (A) (A) (A) (A) (A) (A)
                 (A) (A) (A) (A) (A) (A) (A) (A) (A) (A) (A) (A)
                 (A) (A) (A) (A) (A) (A) (A) (A) (A) (A) (A) (A)
                 (A) (A) (A) (A) (A) (A) (A) (A) (A) (A) (A) (A)
                 (A) (A) (A) (A) (A) (A) (A) (A) (A) (A) (A) (A)
                 (A) (A) (A) (A) (A) (A) (A) (A) (A) (A) (A) (A)
                 (A) (A) (A) (A) (A) (A) (A) (A) (A) (A) (A) (A)
                 (A) (A) (A) (A) (A) (A) (A) (A) (A) (A) (A) (A)
                 (A) (A) (A) (A) (A) (A) (A) (A) (A) (A) (A) (A)
                 (A) (A) (A) (A) (A) (A) (A) (A) (A) (A) (A) (A)
                 (A) (A) (A) (A) (A) (A) (A) (A) (A) (A) (A) (A)
                 (A) (A) (A) (A) (A) (A) (A) (A) (A) (A) (A) (A)
                 (A) (A) (A) (A) (A) (A) (A) (A) (A) (A) (A) (A)
                 (A) (A) (A) (A) (A) (A) (A) (A) (A) (A) (A) (A)
                 (A) (A) (A) (A) (A) (A) (A) (A) (A) (A) (A) (A)
                 (A) (A) (A) (A) (A) (A) (A) (A) (A) (A) (A) (A)
                 (A) (A) (A) (A) (A) (A) (A) (A) (A) (A) (A) (A)
                 (A) (A) (A) (A) (A) (A) (A) (A) (A) (A) (A) (A)
                 (A) (A) (A) (A) (A) (A) (A) (A) (A) (A) (A) (A)
                 (A) (A) (A) (A) (A) (A) (A) (A) (A) (A) (A) (A)
                 (A) (A) (A) (A) (A) (A) (A) (A) (A) (A) (A) (A)
                 (A) (A) (A) (A) (A) (A) (A) (A) (A) (A) (A) (A)
                 (A) (A) (A) (A) (A) (A) (A) (A) (A) (A) (A) (A)
                 (A) (A) (A) (A) (A) (A) (A) (A) (A) (A) (A) (A)
                 (A) (A) (A) (A) (A) (A) (A) (A) (A) (A) (A) (A)
                 (A) (A) (A) (A) (A) (A) (A) (A) (A) (A) (A) (A)
                 (A) (A) (A) (A) (A) (A) (A) (A) (A) (A) (A) (A)
                 (A) (A) (A) (A) (A) (A) (A) (A) (A) (A) (A) (A)
                 (A) (A) (A) (A) (A) (A) (A) (A) (A) (A) (A) (A)
                 (A) (A) (A) (A) (A) (A) (A) (A) (A) (A) (A) (A)
                 (A) (A) (A) (A) (A) (A) (A) (A) (A) (A) (A) (A)
                 (A) (A) (A) (A) (A) (A) (A) (A) (A) (A) (A) (A)
     4 initial guesses have been made.
 Convergence on wavefunction:    0.001000000000000
 Iteration     1 Dimension     4 NMult     0 NNew      4
 CISAX will form     4 AO SS matrices at one time.
 Iteration     2 Dimension     6 NMult     4 NNew      2
 Iteration     3 Dimension     8 NMult     6 NNew      2
 Iteration     4 Dimension    10 NMult     8 NNew      2
 Iteration     5 Dimension    12 NMult    10 NNew      2
 Iteration     6 Dimension    14 NMult    12 NNew      2
 ***********************************************************************
 Excited states from <AA,BB:AA,BB> singles matrix:
 ***********************************************************************
 
 Ground to excited state transition densities written to RWF  633
 Ground to excited state transition electric dipole moments (Au):
       state          X           Y           Z        Dip. S.      Osc.
         1        -1.1645      2.6479     -0.1164      8.3812      0.3638
 Ground to excited state transition velocity dipole moments (Au):
       state          X           Y           Z        Dip. S.      Osc.
         1         0.0770     -0.1651      0.0069      0.0333      0.3404
 Ground to excited state transition magnetic dipole moments (Au):
       state          X           Y           Z
         1         0.2496      0.4959      2.2589
 Ground to excited state transition velocity quadrupole moments (Au):
       state          XX          YY          ZZ          XY          XZ          YZ
         1         0.5077     -0.5702      0.0608     -0.4054     -0.0905      0.0305
 <0|del|b> * <b|rxdel|0> + <0|del|b> * <b|delr+rdel|0>
 Rotatory Strengths (R) in cgs (10**-40 erg-esu-cm/Gauss)
       state          XX          YY          ZZ    R(velocity)    E-M Angle
         1      -456.1634    217.3810   -271.8760   -170.2195       96.36
 1/2[<0|r|b>*<b|rxdel|0> + (<0|rxdel|b>*<b|r|0>)*]
 Rotatory Strengths (R) in cgs (10**-40 erg-esu-cm/Gauss)
       state          XX          YY          ZZ     R(length)
         1       205.5375   -928.6634    185.9807   -179.0484
  1/2[<0|del|b>*<b|r|0> + (<0|r|b>*<b|del|0>)*] (Au)
       state          X           Y           Z        Dip. S.   Osc.(frdel)
         1        -0.0897     -0.4373     -0.0008      0.5278      0.3519

 Excitation energies and oscillator strengths:
 
 Excited State   1:      Singlet-A      1.7719 eV  699.71 nm  f=0.3638  <S**2>=0.000
     156 ->157         0.70679
     156 <-157        -0.12680
 This state for optimization and/or second-order correction.
 Total Energy, E(TD-HF/TD-DFT) =  -1949.05824081    
 Copying the excited state density for this state as the 1-particle RhoCI density.
 SavETr:  write IOETrn=   770 NScale= 10 NData=  16 NLR=1 NState=    1 LETran=      28.

 **********************************************************************

            Population analysis using the SCF density.

 **********************************************************************

 Orbital symmetries:
       Occupied  (A) (A) (A) (A) (A) (A) (A) (A) (A) (A) (A) (A)
                 (A) (A) (A) (A) (A) (A) (A) (A) (A) (A) (A) (A)
                 (A) (A) (A) (A) (A) (A) (A) (A) (A) (A) (A) (A)
                 (A) (A) (A) (A) (A) (A) (A) (A) (A) (A) (A) (A)
                 (A) (A) (A) (A) (A) (A) (A) (A) (A) (A) (A) (A)
                 (A) (A) (A) (A) (A) (A) (A) (A) (A) (A) (A) (A)
                 (A) (A) (A) (A) (A) (A) (A) (A) (A) (A) (A) (A)
                 (A) (A) (A) (A) (A) (A) (A) (A) (A) (A) (A) (A)
                 (A) (A) (A) (A) (A) (A) (A) (A) (A) (A) (A) (A)
                 (A) (A) (A) (A) (A) (A) (A) (A) (A) (A) (A) (A)
                 (A) (A) (A) (A) (A) (A) (A) (A) (A) (A) (A) (A)
                 (A) (A) (A) (A) (A) (A) (A) (A) (A) (A) (A) (A)
                 (A) (A) (A) (A) (A) (A) (A) (A) (A) (A) (A) (A)
       Virtual   (A) (A) (A) (A) (A) (A) (A) (A) (A) (A) (A) (A)
                 (A) (A) (A) (A) (A) (A) (A) (A) (A) (A) (A) (A)
                 (A) (A) (A) (A) (A) (A) (A) (A) (A) (A) (A) (A)
                 (A) (A) (A) (A) (A) (A) (A) (A) (A) (A) (A) (A)
                 (A) (A) (A) (A) (A) (A) (A) (A) (A) (A) (A) (A)
                 (A) (A) (A) (A) (A) (A) (A) (A) (A) (A) (A) (A)
                 (A) (A) (A) (A) (A) (A) (A) (A) (A) (A) (A) (A)
                 (A) (A) (A) (A) (A) (A) (A) (A) (A) (A) (A) (A)
                 (A) (A) (A) (A) (A) (A) (A) (A) (A) (A) (A) (A)
                 (A) (A) (A) (A) (A) (A) (A) (A) (A) (A) (A) (A)
                 (A) (A) (A) (A) (A) (A) (A) (A) (A) (A) (A) (A)
                 (A) (A) (A) (A) (A) (A) (A) (A) (A) (A) (A) (A)
                 (A) (A) (A) (A) (A) (A) (A) (A) (A) (A) (A) (A)
                 (A) (A) (A) (A) (A) (A) (A) (A) (A) (A) (A) (A)
                 (A) (A) (A) (A) (A) (A) (A) (A) (A) (A) (A) (A)
                 (A) (A) (A) (A) (A) (A) (A) (A) (A) (A) (A) (A)
                 (A) (A) (A) (A) (A) (A) (A) (A) (A) (A) (A) (A)
                 (A) (A) (A) (A) (A) (A) (A) (A) (A) (A) (A) (A)
                 (A) (A) (A) (A) (A) (A) (A) (A) (A) (A) (A) (A)
                 (A) (A) (A) (A) (A) (A) (A) (A) (A) (A) (A) (A)
                 (A) (A) (A) (A) (A) (A) (A) (A) (A) (A) (A) (A)
                 (A) (A) (A) (A) (A) (A) (A) (A) (A) (A) (A) (A)
                 (A) (A) (A) (A) (A) (A) (A) (A) (A) (A) (A) (A)
                 (A) (A) (A) (A) (A) (A) (A) (A) (A) (A) (A) (A)
                 (A) (A) (A) (A) (A) (A) (A) (A) (A) (A) (A) (A)
                 (A) (A) (A) (A) (A) (A) (A) (A) (A) (A) (A) (A)
                 (A) (A) (A) (A) (A) (A) (A) (A) (A) (A) (A) (A)
                 (A) (A) (A) (A) (A) (A) (A) (A) (A) (A) (A) (A)
                 (A) (A) (A) (A) (A) (A) (A) (A) (A) (A) (A) (A)
                 (A) (A) (A) (A) (A) (A) (A) (A) (A) (A) (A) (A)
                 (A) (A) (A) (A) (A) (A) (A) (A) (A) (A) (A) (A)
                 (A) (A) (A) (A) (A) (A) (A) (A) (A) (A) (A) (A)
                 (A) (A) (A) (A) (A) (A) (A) (A) (A) (A) (A) (A)
                 (A) (A) (A) (A) (A) (A) (A) (A) (A) (A) (A) (A)
                 (A) (A) (A) (A) (A) (A) (A) (A) (A) (A) (A) (A)
                 (A) (A) (A) (A) (A) (A) (A) (A) (A) (A) (A) (A)
                 (A) (A) (A) (A) (A) (A) (A) (A) (A) (A) (A) (A)
                 (A) (A) (A) (A) (A) (A) (A) (A) (A) (A) (A) (A)
                 (A) (A) (A) (A) (A) (A) (A) (A) (A) (A) (A) (A)
                 (A) (A) (A) (A) (A) (A) (A) (A) (A) (A) (A) (A)
                 (A) (A) (A) (A) (A) (A) (A) (A) (A) (A) (A) (A)
                 (A) (A) (A) (A) (A) (A) (A) (A) (A) (A) (A) (A)
                 (A) (A) (A) (A) (A) (A) (A) (A) (A) (A) (A) (A)
                 (A) (A) (A) (A) (A) (A) (A) (A) (A) (A) (A) (A)
                 (A) (A) (A) (A) (A) (A) (A) (A) (A) (A) (A) (A)
                 (A) (A) (A) (A) (A) (A) (A) (A) (A) (A) (A) (A)
                 (A) (A) (A) (A) (A) (A) (A) (A) (A) (A) (A) (A)
                 (A) (A) (A) (A) (A) (A) (A) (A) (A) (A) (A) (A)
                 (A) (A) (A) (A) (A) (A) (A) (A) (A) (A) (A) (A)
                 (A) (A) (A) (A) (A) (A) (A) (A) (A) (A) (A) (A)
                 (A) (A) (A) (A) (A) (A) (A) (A) (A) (A) (A) (A)
                 (A) (A) (A) (A) (A) (A) (A) (A) (A) (A) (A) (A)
                 (A) (A) (A) (A) (A) (A) (A) (A) (A) (A) (A) (A)
 The electronic state is 1-A.
 Alpha  occ. eigenvalues --  -19.22328 -19.21119 -19.13520 -19.12742 -19.12616
 Alpha  occ. eigenvalues --  -19.08276 -14.38089 -14.37391 -14.34496 -14.27182
 Alpha  occ. eigenvalues --  -10.33631 -10.33287 -10.30503 -10.25568 -10.24365
 Alpha  occ. eigenvalues --  -10.24008 -10.23448 -10.23172 -10.22575 -10.22482
 Alpha  occ. eigenvalues --  -10.22286 -10.21632 -10.21411 -10.21293 -10.20986
 Alpha  occ. eigenvalues --  -10.20606 -10.20403 -10.20342 -10.20299 -10.20001
 Alpha  occ. eigenvalues --  -10.19800 -10.19701 -10.19648 -10.19609 -10.19411
 Alpha  occ. eigenvalues --  -10.19290 -10.19102 -10.18964 -10.18895 -10.18504
 Alpha  occ. eigenvalues --  -10.18469 -10.18052 -10.17312  -1.12491  -1.11637
 Alpha  occ. eigenvalues --   -1.03864  -1.01315  -0.98850  -0.98434  -0.97298
 Alpha  occ. eigenvalues --   -0.96763  -0.95476  -0.88977  -0.83540  -0.82129
 Alpha  occ. eigenvalues --   -0.81391  -0.80444  -0.78663  -0.78171  -0.77543
 Alpha  occ. eigenvalues --   -0.76475  -0.76141  -0.74766  -0.73903  -0.72649
 Alpha  occ. eigenvalues --   -0.70711  -0.69851  -0.68796  -0.68254  -0.68237
 Alpha  occ. eigenvalues --   -0.67046  -0.65579  -0.64709  -0.62424  -0.61531
 Alpha  occ. eigenvalues --   -0.60881  -0.59967  -0.58379  -0.57602  -0.57233
 Alpha  occ. eigenvalues --   -0.56368  -0.54932  -0.54860  -0.53519  -0.52727
 Alpha  occ. eigenvalues --   -0.51519  -0.51244  -0.50826  -0.50674  -0.50320
 Alpha  occ. eigenvalues --   -0.50228  -0.49543  -0.49166  -0.48250  -0.47564
 Alpha  occ. eigenvalues --   -0.46992  -0.46812  -0.46392  -0.45532  -0.44869
 Alpha  occ. eigenvalues --   -0.44787  -0.44258  -0.44053  -0.43803  -0.43548
 Alpha  occ. eigenvalues --   -0.43168  -0.42529  -0.42494  -0.42129  -0.42007
 Alpha  occ. eigenvalues --   -0.41572  -0.41346  -0.41089  -0.40559  -0.40298
 Alpha  occ. eigenvalues --   -0.40170  -0.39955  -0.39766  -0.39444  -0.39262
 Alpha  occ. eigenvalues --   -0.39215  -0.38665  -0.38445  -0.38020  -0.37875
 Alpha  occ. eigenvalues --   -0.37653  -0.37585  -0.37282  -0.36740  -0.36487
 Alpha  occ. eigenvalues --   -0.36266  -0.35964  -0.35172  -0.34214  -0.34178
 Alpha  occ. eigenvalues --   -0.33844  -0.33406  -0.33349  -0.32678  -0.32399
 Alpha  occ. eigenvalues --   -0.32108  -0.31488  -0.31264  -0.29549  -0.29091
 Alpha  occ. eigenvalues --   -0.27543  -0.27449  -0.26667  -0.26207  -0.25466
 Alpha  occ. eigenvalues --   -0.25129  -0.24356  -0.22814  -0.22501  -0.20613
 Alpha  occ. eigenvalues --   -0.17254
 Alpha virt. eigenvalues --   -0.10239  -0.05722  -0.03860  -0.02578  -0.02048
 Alpha virt. eigenvalues --   -0.01095   0.01473   0.01815   0.02851   0.03250
 Alpha virt. eigenvalues --    0.04530   0.04947   0.05043   0.05396   0.05527
 Alpha virt. eigenvalues --    0.06482   0.07102   0.07544   0.07877   0.08028
 Alpha virt. eigenvalues --    0.08711   0.08927   0.09124   0.09593   0.09844
 Alpha virt. eigenvalues --    0.10144   0.10504   0.10947   0.11070   0.11462
 Alpha virt. eigenvalues --    0.11516   0.11910   0.12131   0.12755   0.12868
 Alpha virt. eigenvalues --    0.13430   0.13850   0.13898   0.14192   0.14352
 Alpha virt. eigenvalues --    0.14507   0.14980   0.15213   0.16059   0.16385
 Alpha virt. eigenvalues --    0.16581   0.16650   0.17071   0.17607   0.18284
 Alpha virt. eigenvalues --    0.18677   0.18827   0.19332   0.19721   0.20149
 Alpha virt. eigenvalues --    0.20259   0.20605   0.20738   0.21023   0.21447
 Alpha virt. eigenvalues --    0.22149   0.22475   0.22955   0.23179   0.23653
 Alpha virt. eigenvalues --    0.24663   0.24731   0.25347   0.25744   0.26378
 Alpha virt. eigenvalues --    0.26760   0.27164   0.27591   0.28175   0.28243
 Alpha virt. eigenvalues --    0.29104   0.29615   0.30223   0.30646   0.31272
 Alpha virt. eigenvalues --    0.31606   0.32258   0.32866   0.33068   0.33485
 Alpha virt. eigenvalues --    0.34310   0.34947   0.35555   0.35803   0.36472
 Alpha virt. eigenvalues --    0.37404   0.37589   0.37882   0.38788   0.38973
 Alpha virt. eigenvalues --    0.39502   0.40050   0.40406   0.40987   0.41094
 Alpha virt. eigenvalues --    0.41545   0.42271   0.42442   0.42741   0.43111
 Alpha virt. eigenvalues --    0.43220   0.43567   0.43991   0.44403   0.44827
 Alpha virt. eigenvalues --    0.45050   0.45261   0.45473   0.45808   0.46356
 Alpha virt. eigenvalues --    0.46609   0.46887   0.47417   0.47757   0.47936
 Alpha virt. eigenvalues --    0.48142   0.48697   0.49281   0.49473   0.49818
 Alpha virt. eigenvalues --    0.49899   0.50584   0.50681   0.50945   0.51726
 Alpha virt. eigenvalues --    0.51872   0.52169   0.52606   0.53078   0.53307
 Alpha virt. eigenvalues --    0.54094   0.54284   0.54390   0.54693   0.55312
 Alpha virt. eigenvalues --    0.55553   0.56066   0.56447   0.56901   0.57207
 Alpha virt. eigenvalues --    0.57553   0.57989   0.58530   0.58668   0.59046
 Alpha virt. eigenvalues --    0.59200   0.59402   0.59696   0.59838   0.60382
 Alpha virt. eigenvalues --    0.60441   0.60804   0.60990   0.61190   0.61301
 Alpha virt. eigenvalues --    0.61566   0.61718   0.62123   0.62587   0.62937
 Alpha virt. eigenvalues --    0.63288   0.63939   0.64131   0.64210   0.64814
 Alpha virt. eigenvalues --    0.64949   0.65376   0.65463   0.65656   0.65724
 Alpha virt. eigenvalues --    0.66011   0.66367   0.66552   0.66870   0.67001
 Alpha virt. eigenvalues --    0.67082   0.67560   0.67616   0.67864   0.68144
 Alpha virt. eigenvalues --    0.68629   0.68784   0.69006   0.69395   0.69684
 Alpha virt. eigenvalues --    0.69986   0.70177   0.70270   0.70359   0.70842
 Alpha virt. eigenvalues --    0.71151   0.71377   0.71530   0.71684   0.71918
 Alpha virt. eigenvalues --    0.72306   0.72846   0.73221   0.73486   0.73955
 Alpha virt. eigenvalues --    0.74334   0.74447   0.74889   0.75668   0.75907
 Alpha virt. eigenvalues --    0.76314   0.76574   0.76936   0.77564   0.77667
 Alpha virt. eigenvalues --    0.78040   0.78539   0.78781   0.79050   0.79708
 Alpha virt. eigenvalues --    0.80366   0.80598   0.80690   0.81399   0.81840
 Alpha virt. eigenvalues --    0.82412   0.83250   0.83879   0.84688   0.85558
 Alpha virt. eigenvalues --    0.86613   0.86944   0.87853   0.88476   0.88889
 Alpha virt. eigenvalues --    0.89700   0.89874   0.90628   0.91206   0.91965
 Alpha virt. eigenvalues --    0.92694   0.92896   0.93387   0.94051   0.94111
 Alpha virt. eigenvalues --    0.94601   0.95680   0.96046   0.96164   0.97153
 Alpha virt. eigenvalues --    0.97544   0.98120   0.98834   0.99118   0.99254
 Alpha virt. eigenvalues --    1.00362   1.01475   1.01611   1.02209   1.02861
 Alpha virt. eigenvalues --    1.03699   1.04207   1.04609   1.05794   1.06298
 Alpha virt. eigenvalues --    1.06776   1.07504   1.08978   1.09137   1.10280
 Alpha virt. eigenvalues --    1.10836   1.11664   1.12360   1.12616   1.13890
 Alpha virt. eigenvalues --    1.14280   1.14427   1.14936   1.15793   1.16859
 Alpha virt. eigenvalues --    1.17525   1.18117   1.19180   1.19987   1.20606
 Alpha virt. eigenvalues --    1.21026   1.21383   1.22296   1.23162   1.23266
 Alpha virt. eigenvalues --    1.23833   1.24639   1.25635   1.25994   1.26448
 Alpha virt. eigenvalues --    1.26922   1.27614   1.28544   1.29099   1.30374
 Alpha virt. eigenvalues --    1.30633   1.30988   1.32248   1.32805   1.33522
 Alpha virt. eigenvalues --    1.34325   1.34630   1.35705   1.36062   1.36340
 Alpha virt. eigenvalues --    1.36372   1.37394   1.37949   1.38350   1.39100
 Alpha virt. eigenvalues --    1.39463   1.39962   1.40737   1.42249   1.42989
 Alpha virt. eigenvalues --    1.43623   1.44012   1.44661   1.44885   1.45159
 Alpha virt. eigenvalues --    1.46015   1.46746   1.47127   1.48187   1.48570
 Alpha virt. eigenvalues --    1.49010   1.49605   1.49869   1.50992   1.52099
 Alpha virt. eigenvalues --    1.52162   1.52742   1.52882   1.53519   1.54175
 Alpha virt. eigenvalues --    1.54307   1.54806   1.54884   1.54927   1.56613
 Alpha virt. eigenvalues --    1.58159   1.58581   1.58993   1.59488   1.60195
 Alpha virt. eigenvalues --    1.61185   1.61589   1.61899   1.62706   1.63081
 Alpha virt. eigenvalues --    1.63580   1.64239   1.64837   1.64969   1.65635
 Alpha virt. eigenvalues --    1.66137   1.66936   1.67506   1.67733   1.68354
 Alpha virt. eigenvalues --    1.68888   1.69048   1.69997   1.70343   1.70458
 Alpha virt. eigenvalues --    1.70685   1.71324   1.71500   1.71948   1.72269
 Alpha virt. eigenvalues --    1.72601   1.72878   1.72983   1.73517   1.73862
 Alpha virt. eigenvalues --    1.74103   1.74346   1.74633   1.74749   1.75379
 Alpha virt. eigenvalues --    1.75890   1.76294   1.76755   1.77005   1.77531
 Alpha virt. eigenvalues --    1.78049   1.78389   1.78576   1.79137   1.79783
 Alpha virt. eigenvalues --    1.80447   1.80761   1.81127   1.81229   1.81680
 Alpha virt. eigenvalues --    1.82252   1.82481   1.82584   1.82935   1.83473
 Alpha virt. eigenvalues --    1.83854   1.84328   1.84579   1.85094   1.85309
 Alpha virt. eigenvalues --    1.85614   1.85804   1.86293   1.86445   1.87065
 Alpha virt. eigenvalues --    1.87543   1.87915   1.88021   1.88415   1.88780
 Alpha virt. eigenvalues --    1.88964   1.89724   1.89876   1.90662   1.91216
 Alpha virt. eigenvalues --    1.91254   1.92316   1.92705   1.92972   1.93467
 Alpha virt. eigenvalues --    1.94463   1.95137   1.95568   1.96120   1.96380
 Alpha virt. eigenvalues --    1.97254   1.98061   1.98653   1.99114   1.99457
 Alpha virt. eigenvalues --    1.99857   2.00123   2.00606   2.00841   2.01913
 Alpha virt. eigenvalues --    2.02385   2.02937   2.04292   2.04375   2.05117
 Alpha virt. eigenvalues --    2.05390   2.05793   2.06053   2.06187   2.06978
 Alpha virt. eigenvalues --    2.07336   2.07955   2.08285   2.09094   2.09527
 Alpha virt. eigenvalues --    2.09870   2.10145   2.10695   2.11227   2.11590
 Alpha virt. eigenvalues --    2.12380   2.12636   2.13632   2.14448   2.14700
 Alpha virt. eigenvalues --    2.14972   2.16628   2.17124   2.18094   2.18276
 Alpha virt. eigenvalues --    2.18438   2.19653   2.20281   2.21085   2.21738
 Alpha virt. eigenvalues --    2.22046   2.22541   2.22726   2.23628   2.23973
 Alpha virt. eigenvalues --    2.24288   2.24754   2.25236   2.26190   2.27330
 Alpha virt. eigenvalues --    2.27770   2.28243   2.29596   2.29796   2.30826
 Alpha virt. eigenvalues --    2.31232   2.31850   2.32613   2.33278   2.33655
 Alpha virt. eigenvalues --    2.34184   2.34621   2.35141   2.35271   2.35620
 Alpha virt. eigenvalues --    2.37739   2.38349   2.39638   2.39900   2.40618
 Alpha virt. eigenvalues --    2.41320   2.41885   2.42663   2.43612   2.44257
 Alpha virt. eigenvalues --    2.45222   2.45479   2.46313   2.47127   2.47618
 Alpha virt. eigenvalues --    2.48943   2.49091   2.49301   2.50141   2.51568
 Alpha virt. eigenvalues --    2.52153   2.53099   2.54379   2.54723   2.55246
 Alpha virt. eigenvalues --    2.55647   2.57122   2.57383   2.57793   2.58934
 Alpha virt. eigenvalues --    2.60377   2.60641   2.61835   2.62243   2.63280
 Alpha virt. eigenvalues --    2.64187   2.65326   2.65776   2.66267   2.66384
 Alpha virt. eigenvalues --    2.66838   2.68180   2.68729   2.69003   2.69789
 Alpha virt. eigenvalues --    2.69967   2.70416   2.71492   2.71806   2.72270
 Alpha virt. eigenvalues --    2.72888   2.73178   2.73774   2.74089   2.74633
 Alpha virt. eigenvalues --    2.75363   2.75776   2.76396   2.76841   2.77678
 Alpha virt. eigenvalues --    2.77981   2.78993   2.79220   2.79452   2.79890
 Alpha virt. eigenvalues --    2.80503   2.81539   2.81702   2.83782   2.84881
 Alpha virt. eigenvalues --    2.85221   2.86003   2.86229   2.87362   2.87637
 Alpha virt. eigenvalues --    2.88101   2.88560   2.88879   2.90436   2.92530
 Alpha virt. eigenvalues --    2.93195   2.94105   2.94521   2.95494   2.96116
 Alpha virt. eigenvalues --    2.96746   2.97928   2.99538   2.99798   3.00317
 Alpha virt. eigenvalues --    3.00882   3.01188   3.02652   3.04654   3.05112
 Alpha virt. eigenvalues --    3.06018   3.07100   3.07993   3.09304   3.09678
 Alpha virt. eigenvalues --    3.10392   3.12244   3.12745   3.13520   3.15571
 Alpha virt. eigenvalues --    3.16745   3.17311   3.17598   3.18022   3.22687
 Alpha virt. eigenvalues --    3.22886   3.24558   3.24658   3.27378   3.28609
 Alpha virt. eigenvalues --    3.30678   3.35011   3.42750   3.44446   3.44553
 Alpha virt. eigenvalues --    3.47833   3.48764   3.55735   3.56023   3.57037
 Alpha virt. eigenvalues --    3.63715   3.63995   3.65504   3.70577   3.70802
 Alpha virt. eigenvalues --    3.71237
          Condensed to atoms (all electrons):
 Mulliken charges:
               1
     1  O   -0.212087
     2  O   -0.153168
     3  O   -0.143913
     4  O   -0.268669
     5  O   -0.339851
     6  O   -0.245350
     7  N   -0.088247
     8  N   -0.046675
     9  N   -0.131325
    10  N   -0.384964
    11  C    0.054209
    12  C    0.086360
    13  C   -0.188488
    14  C    0.095888
    15  C   -0.042903
    16  C   -0.017384
    17  C   -0.047995
    18  C   -0.147692
    19  C    0.002270
    20  C   -0.077372
    21  C    0.115905
    22  C    0.035107
    23  C    0.006108
    24  C    0.181540
    25  C   -0.127746
    26  C    0.118995
    27  C    0.142627
    28  C   -0.007248
    29  C   -0.032413
    30  C    0.014981
    31  C   -0.107600
    32  C    0.011079
    33  C   -0.160698
    34  C    0.120072
    35  C   -0.128316
    36  C   -0.141100
    37  C    0.107931
    38  C    0.004373
    39  C    0.200128
    40  C   -0.006486
    41  C    0.161154
    42  C    0.126927
    43  C    0.052684
    44  H    0.152661
    45  H    0.031085
    46  H   -0.018936
    47  H    0.017396
    48  H    0.082049
    49  H    0.002456
    50  H   -0.074072
    51  H    0.021945
    52  H    0.146252
    53  H    0.006904
    54  H    0.015886
    55  H    0.027600
    56  H    0.121543
    57  H    0.049351
    58  H    0.046754
    59  H    0.069346
    60  H    0.041271
    61  H    0.050472
    62  H    0.003640
    63  H    0.041193
    64  H   -0.016307
    65  H    0.019662
    66  H    0.047157
    67  H    0.031163
    68  H    0.007093
    69  H    0.090657
    70  H    0.001750
    71  H    0.054245
    72  H   -0.000143
    73  H    0.015756
    74  H    0.040884
    75  H    0.003603
    76  H    0.003091
    77  H    0.024138
    78  H   -0.018907
    79  H    0.043081
    80  H    0.217672
    81  H    0.209959
 Sum of Mulliken charges =  -0.00000
 Mulliken charges with hydrogens summed into heavy atoms:
               1
     1  O   -0.212087
     2  O    0.064504
     3  O    0.066046
     4  O   -0.268669
     5  O   -0.339851
     6  O   -0.245350
     7  N    0.064414
     8  N    0.099577
     9  N   -0.009782
    10  N   -0.384964
    11  C    0.054209
    12  C    0.086360
    13  C   -0.188488
    14  C    0.095888
    15  C   -0.042903
    16  C   -0.017384
    17  C   -0.016910
    18  C   -0.147692
    19  C    0.000729
    20  C    0.004677
    21  C    0.115905
    22  C    0.035107
    23  C    0.006108
    24  C    0.109923
    25  C   -0.105801
    26  C    0.169385
    27  C    0.142627
    28  C    0.088857
    29  C    0.078205
    30  C    0.110286
    31  C   -0.123906
    32  C    0.109061
    33  C   -0.153605
    34  C    0.120072
    35  C   -0.128316
    36  C   -0.141100
    37  C    0.107931
    38  C    0.151025
    39  C    0.200128
    40  C    0.009128
    41  C    0.161154
    42  C    0.174506
    43  C    0.100997
 Electronic spatial extent (au):  <R**2>=          30742.5138
 Charge=             -0.0000 electrons
 Dipole moment (field-independent basis, Debye):
    X=             -1.3518    Y=             -1.6303    Z=             -1.5363  Tot=              2.6163
 Quadrupole moment (field-independent basis, Debye-Ang):
   XX=           -237.5066   YY=           -241.7025   ZZ=           -252.8192
   XY=             20.2504   XZ=             15.7032   YZ=             -9.0180
 Traceless Quadrupole moment (field-independent basis, Debye-Ang):
   XX=              6.5028   YY=              2.3070   ZZ=             -8.8098
   XY=             20.2504   XZ=             15.7032   YZ=             -9.0180
 Octapole moment (field-independent basis, Debye-Ang**2):
  XXX=             80.6871  YYY=             96.5366  ZZZ=            -18.2844  XYY=           -165.5661
  XXY=            -80.2609  XXZ=           -122.3046  XZZ=            -54.9573  YZZ=            -32.2377
  YYZ=             36.0465  XYZ=            -62.2367
 Hexadecapole moment (field-independent basis, Debye-Ang**3):
 XXXX=         -21661.6342 YYYY=         -16786.8857 ZZZZ=          -1473.6152 XXXY=            968.7630
 XXXZ=            951.1398 YYYX=           1021.6742 YYYZ=           -336.0255 ZZZX=             51.5265
 ZZZY=             46.0223 XXYY=          -6354.9554 XXZZ=          -3901.0413 YYZZ=          -3099.4581
 XXYZ=            133.6369 YYXZ=            232.4819 ZZXY=            193.5163
 N-N= 5.032464970050D+03 E-N=-1.459646145435D+04  KE= 1.927883311606D+03
 1\1\GINC-PADAWAN\SP\RB3LYP TD-FC\SVP\C33H38N4O6\PADAWAN\03-Jul-2019\0\
 \# td=(NStates=1) B3LYP/SVP\\TD\\0,1\O,0,-4.3498464954,-4.9730716784,1
 .7773417626\O,0,3.0719112198,-4.8382051273,1.026376775\O,0,6.967943098
 6,-1.7837956493,1.6600786874\O,0,3.89872493,-3.2546234873,-0.300873426
 7\O,0,7.6153910757,-0.2130411992,-0.0414001727\O,0,-2.9921548016,2.447
 1427651,-0.3555371151\N,0,-0.2676537601,-0.4890931024,-0.435050518\N,0
 ,1.5790163943,1.9135617887,-0.4066122388\N,0,-3.378399829,-3.218993012
 3,0.6149578144\N,0,-0.7507835741,2.94510566,-0.0519990457\C,0,0.678690
 1333,-2.4084688053,-1.3088831834\C,0,0.9227351758,-1.0888661183,-0.772
 8461335\C,0,-0.6737515039,-2.6166200242,-1.1504771104\C,0,-1.314701892
 2,-1.4261129227,-0.5320723372\C,0,3.8263610969,1.5506782343,-0.2587801
 448\C,0,2.5291550213,0.9143332588,-0.4675709421\C,0,2.1939646467,-0.45
 97632342,-0.642783753\C,0,3.4658572258,2.8612059228,0.0630142917\C,0,1
 .6122826334,-3.2802197233,-1.8874960952\C,0,-5.6155104577,-2.868042419
 1,1.2778250468\C,0,-3.635247384,-1.9156665426,0.258201752\C,0,2.067251
 0372,3.0548954837,0.0182794513\C,0,-5.0752902253,-1.622891253,0.534447
 4886\C,0,5.1148667486,0.8125361705,-0.3088298417\C,0,-2.6468695027,-1.
 0589144468,-0.2815046243\C,0,-1.4479044525,-3.7201717703,-1.6970700238
 \C,0,-4.4841180802,-3.8427585077,1.3070358292\C,0,2.0322043541,-4.5259
 116149,-1.0504642732\C,0,5.3988286853,-0.2212502485,0.8871212593\C,0,4
 .4844045018,3.9858814374,0.3850807084\C,0,1.2875274311,4.1662311734,0.
 3843701576\C,0,-6.9068953401,-3.5567304528,0.7795270148\C,0,-5.7962492
 055,-0.5917749615,0.1255997269\C,0,-0.0705849778,4.1544236922,0.283730
 1849\C,0,-1.0306081594,5.2479123249,0.361814647\C,0,-2.2897584495,4.66
 17676782,0.2972056266\C,0,3.0610426863,-4.1246051307,-0.0572280336\C,0
 ,-5.3941331228,0.487114,-0.8269441592\C,0,6.7727871577,-0.8193774073,0
 .7908699852\C,0,-3.7462021631,5.2562066792,0.2758720979\C,0,-2.1092804
 796,3.2719021512,-0.0759833681\C,0,-0.6581764087,6.6966753375,0.717680
 8197\C,0,-4.2335529179,5.471493106,-1.1865777493\H,0,-0.3124928342,0.4
 438012459,0.0320234626\H,0,3.1735247135,-0.9852366649,-0.7843185193\H,
 0,2.5877386552,-3.0112427209,-2.1558921363\H,0,1.4205830645,-3.6739715
 081,-2.9943477949\H,0,-5.7657283001,-2.4367823029,2.402330773\H,0,5.26
 44789604,0.2982092023,-1.2821785652\H,0,5.8429128587,1.393078836,-0.52
 76263372\H,0,-2.7795741751,-0.011723382,-0.4857689744\H,0,0.5207093015
 ,2.0197418181,-0.4952569712\H,0,-1.5051752533,-4.601944765,-1.01074058
 39\H,0,-2.4862787389,-3.4454251289,-1.7159397271\H,0,-0.8958447644,-4.
 0922662954,-2.611316721\H,0,-2.5397063569,-3.7069304237,0.7674394091\H
 ,0,1.0465354828,-5.0732200203,-0.7057359635\H,0,2.6922953339,-5.169441
 051,-1.6960249844\H,0,4.4847637094,-1.0388850519,1.096899426\H,0,5.335
 6879142,0.5193479735,1.6560734104\H,0,4.7538159072,4.7849389103,-0.431
 6545373\H,0,5.5374468364,3.6515626895,0.5383296226\H,0,4.1488719198,4.
 2459600681,1.4916748844\H,0,1.8015709357,5.1406432417,0.4446755428\H,0
 ,-7.8691684851,-2.9114662301,1.1157628459\H,0,-7.0133153954,-4.4491212
 942,1.505246365\H,0,-7.1827039674,-3.7825556717,-0.2260705187\H,0,-6.9
 20426565,-0.6675376623,0.3593939405\H,0,-5.0760465768,1.5133461555,-0.
 3041876801\H,0,-6.3019185693,0.8849875738,-1.3718114972\H,0,-4.6714964
 616,0.0633664988,-1.656322397\H,0,-3.7640183873,6.2314275479,0.9131781
 943\H,0,-4.5207635146,4.686670999,0.8955855849\H,0,-0.4239715417,6.855
 306096,1.8657764192\H,0,-1.5798740977,7.2297964343,0.5541347652\H,0,0.
 1183910071,7.0445467404,0.1424051976\H,0,-3.4970476118,6.1307707028,-1
 .706804883\H,0,-5.0739000972,6.0015332694,-0.9318630635\H,0,-4.6530287
 798,4.5765478251,-1.7198714951\H,0,3.8438227828,-4.4224584583,1.594740
 2564\H,0,7.9726452891,-1.9356229513,1.5152189049\\Version=ES64L-G16Rev
 A.03\State=1-A\HF=-1949.1233583\RMSD=7.003e-09\PG=C01 [X(C33H38N4O6)]\
 \@


 I LOVE THOSE WHO LONG FOR THE IMPOSSIBLE.

                                 -- GOETHE
 Job cpu time:       0 days  3 hours 45 minutes 25.9 seconds.
 Elapsed time:       0 days  2 hours 30 minutes 11.9 seconds.
 File lengths (MBytes):  RWF=   2591 Int=      0 D2E=      0 Chk=     65 Scr=      1
 Normal termination of Gaussian 16 at Wed Jul  3 13:12:55 2019.
