 Entering Gaussian System, Link 0=g16
 Input=Geometria-340-.com
 Output=Geometria-340-.log
 Initial command:
 /usr/local/g16/l1.exe "/home/padawan/israel-mol/phycocyanobilin/spectra/emi/Gau-25901.inp" -scrdir="/home/padawan/israel-mol/phycocyanobilin/spectra/emi/"
 Entering Link 1 = /usr/local/g16/l1.exe PID=     25903.
  
 Copyright (c) 1988,1990,1992,1993,1995,1998,2003,2009,2016,
            Gaussian, Inc.  All Rights Reserved.
  
 This is part of the Gaussian(R) 16 program.  It is based on
 the Gaussian(R) 09 system (copyright 2009, Gaussian, Inc.),
 the Gaussian(R) 03 system (copyright 2003, Gaussian, Inc.),
 the Gaussian(R) 98 system (copyright 1998, Gaussian, Inc.),
 the Gaussian(R) 94 system (copyright 1995, Gaussian, Inc.),
 the Gaussian 92(TM) system (copyright 1992, Gaussian, Inc.),
 the Gaussian 90(TM) system (copyright 1990, Gaussian, Inc.),
 the Gaussian 88(TM) system (copyright 1988, Gaussian, Inc.),
 the Gaussian 86(TM) system (copyright 1986, Carnegie Mellon
 University), and the Gaussian 82(TM) system (copyright 1983,
 Carnegie Mellon University). Gaussian is a federally registered
 trademark of Gaussian, Inc.
  
 This software contains proprietary and confidential information,
 including trade secrets, belonging to Gaussian, Inc.
  
 This software is provided under written license and may be
 used, copied, transmitted, or stored only in accord with that
 written license.
  
 The following legend is applicable only to US Government
 contracts under FAR:
  
                    RESTRICTED RIGHTS LEGEND
  
 Use, reproduction and disclosure by the US Government is
 subject to restrictions as set forth in subparagraphs (a)
 and (c) of the Commercial Computer Software - Restricted
 Rights clause in FAR 52.227-19.
  
 Gaussian, Inc.
 340 Quinnipiac St., Bldg. 40, Wallingford CT 06492
  
  
 ---------------------------------------------------------------
 Warning -- This program may not be used in any manner that
 competes with the business of Gaussian, Inc. or will provide
 assistance to any competitor of Gaussian, Inc.  The licensee
 of this program is prohibited from giving any competitor of
 Gaussian, Inc. access to this program.  By using this program,
 the user acknowledges that Gaussian, Inc. is engaged in the
 business of creating and licensing software in the field of
 computational chemistry and represents and warrants to the
 licensee that it is not a competitor of Gaussian, Inc. and that
 it will not use this program in any manner prohibited above.
 ---------------------------------------------------------------
  

 Cite this work as:
 Gaussian 16, Revision A.03,
 M. J. Frisch, G. W. Trucks, H. B. Schlegel, G. E. Scuseria, 
 M. A. Robb, J. R. Cheeseman, G. Scalmani, V. Barone, 
 G. A. Petersson, H. Nakatsuji, X. Li, M. Caricato, A. V. Marenich, 
 J. Bloino, B. G. Janesko, R. Gomperts, B. Mennucci, H. P. Hratchian, 
 J. V. Ortiz, A. F. Izmaylov, J. L. Sonnenberg, D. Williams-Young, 
 F. Ding, F. Lipparini, F. Egidi, J. Goings, B. Peng, A. Petrone, 
 T. Henderson, D. Ranasinghe, V. G. Zakrzewski, J. Gao, N. Rega, 
 G. Zheng, W. Liang, M. Hada, M. Ehara, K. Toyota, R. Fukuda, 
 J. Hasegawa, M. Ishida, T. Nakajima, Y. Honda, O. Kitao, H. Nakai, 
 T. Vreven, K. Throssell, J. A. Montgomery, Jr., J. E. Peralta, 
 F. Ogliaro, M. J. Bearpark, J. J. Heyd, E. N. Brothers, K. N. Kudin, 
 V. N. Staroverov, T. A. Keith, R. Kobayashi, J. Normand, 
 K. Raghavachari, A. P. Rendell, J. C. Burant, S. S. Iyengar, 
 J. Tomasi, M. Cossi, J. M. Millam, M. Klene, C. Adamo, R. Cammi, 
 J. W. Ochterski, R. L. Martin, K. Morokuma, O. Farkas, 
 J. B. Foresman, and D. J. Fox, Gaussian, Inc., Wallingford CT, 2016.
 
 ******************************************
 Gaussian 16:  ES64L-G16RevA.03 25-Dec-2016
                 1-Jul-2019 
 ******************************************
 %nproc=4
 Will use up to    4 processors via shared memory.
 %Mem=2GB
 --------------------------
 # td=(NStates=1) B3LYP/SVP
 --------------------------
 1/38=1,172=1/1;
 2/12=2,17=6,18=5,40=1/2;
 3/5=18,7=101,11=9,25=1,30=1,74=-5/1,2,3,8;
 4//1;
 5/5=2,38=5/2;
 8/6=1,10=1,108=1/1;
 9/41=1,42=1,70=2/14;
 6/7=2,8=2,9=2,10=2/1;
 99/5=1,9=1/99;
 --
 TD
 --
 Symbolic Z-matrix:
 Charge =  0 Multiplicity = 1
 8                    -4.15101  -4.94356   1.71154 
 8                     2.77342  -4.82688   1.10998 
 8                     6.8033   -1.74866   1.86477 
 8                     3.79332  -3.1027    0.045 
 8                     7.47302  -0.76679  -0.04991 
 8                    -3.02328   2.39982  -0.40142 
 7                    -0.27976  -0.41442  -0.46453 
 7                     1.52892   1.87893  -0.32228 
 7                    -3.12152  -3.05087   0.58415 
 7                    -0.79744   2.84374  -0.0138 
 6                     0.59667  -2.25871  -1.43837 
 6                     1.00557  -0.94577  -0.92822 
 6                    -0.73823  -2.54752  -1.22054 
 6                    -1.33402  -1.36056  -0.62982 
 6                     3.83059   1.59809  -0.26728 
 6                     2.47393   0.92143  -0.57315 
 6                     2.17037  -0.41562  -0.9832 
 6                     3.528     2.85393   0.13593 
 6                     1.64072  -3.17559  -2.05789 
 6                    -5.30469  -2.80647   1.47482 
 6                    -3.60618  -1.82708   0.29997 
 6                     2.08242   3.01772   0.07898 
 6                    -4.97722  -1.63005   0.51705 
 6                     5.18218   0.89699  -0.33713 
 6                    -2.66621  -1.05744  -0.3394 
 6                    -1.49125  -3.78289  -1.85329 
 6                    -4.20368  -3.7681    1.34674 
 6                     2.05668  -4.34824  -1.14663 
 6                     5.2997   -0.23167   0.79927 
 6                     4.51557   3.88864   0.53451 
 6                     1.30209   4.13608   0.32008 
 6                    -6.5481   -3.59335   1.09027 
 6                    -5.79001  -0.61681   0.12299 
 6                    -0.08125   3.94802   0.27263 
 6                    -1.0444    5.18922   0.4304 
 6                    -2.35505   4.6044    0.19236 
 6                     3.02532  -4.05649   0.07565 
 6                    -5.48501   0.41397  -0.82326 
 6                     6.65284  -0.85549   0.79146 
 6                    -3.6774    5.33902   0.22588 
 6                    -2.12047   3.17728  -0.07684 
 6                    -0.67474   6.66041   0.70456 
 6                    -4.39321   5.47803  -1.15129 
 1                    -0.61616   0.49162  -0.05468 
 1                     3.25085  -1.03772  -1.20316 
 1                     2.52031  -2.45738  -2.3709 
 1                     1.26637  -3.69777  -2.85603 
 1                    -5.36961  -2.42398   2.39616 
 1                     5.34237   0.59587  -1.49302 
 1                     6.08676   1.68441   0.12674 
 1                    -2.80462  -0.00288  -0.61513 
 1                     0.68493   1.77232  -0.64463 
 1                    -1.52734  -4.47471  -0.91271 
 1                    -2.47023  -3.52448  -2.45361 
 1                    -0.85113  -4.11763  -2.77753 
 1                    -2.07763  -3.33118   0.32512 
 1                     1.10405  -4.68006  -0.7592 
 1                     2.68275  -5.0629   -1.94541 
 1                     4.71025  -1.19123   0.38843 
 1                     5.07324  -0.02934   1.9564 
 1                     4.46633   4.79544  -0.0963 
 1                     5.57558   3.71001   0.36507 
 1                     4.37445   4.00058   1.60879 
 1                     1.66269   5.18848   0.79831 
 1                    -7.49239  -2.95921   1.22332 
 1                    -6.72175  -4.48574   1.65608 
 1                    -6.44569  -3.7042    0.02427 
 1                    -6.81239  -0.72114   0.41021 
 1                    -5.03317   1.26255  -0.42469 
 1                    -6.29212   1.16217  -1.24197 
 1                    -4.76355   0.21689  -1.62172 
 1                    -3.44524   6.37438   0.62549 
 1                    -4.45597   4.76584   0.84577 
 1                    -0.27171   6.75587   1.74178 
 1                    -1.67542   7.04887   0.82991 
 1                    -0.20512   6.95322  -0.16799 
 1                    -3.79344   5.99429  -2.0312 
 1                    -5.36122   6.08948  -1.14334 
 1                    -4.45268   4.39546  -1.518 
 1                     3.33468  -4.38384   1.86826 
 1                     7.75905  -1.99987   1.5987 
 
 Stoichiometry    C33H38N4O6
 Framework group  C1[X(C33H38N4O6)]
 Deg. of freedom   237
 Full point group                 C1      NOp   1
 Largest Abelian subgroup         C1      NOp   1
 Largest concise Abelian subgroup C1      NOp   1
                         Standard orientation:                         
 ---------------------------------------------------------------------
 Center     Atomic      Atomic             Coordinates (Angstroms)
 Number     Number       Type             X           Y           Z
 ---------------------------------------------------------------------
      1          8           0        4.075975   -5.022727   -1.680497
      2          8           0       -2.845210   -4.795726   -1.073160
      3          8           0       -6.828524   -1.662471   -1.848392
      4          8           0       -3.837555   -3.047827   -0.020882
      5          8           0       -7.481113   -0.655398    0.059103
      6          8           0        3.062602    2.353460    0.375346
      7          7           0        0.276587   -0.418025    0.463400
      8          7           0       -1.497091    1.901438    0.304752
      9          7           0        3.076689   -3.105707   -0.567139
     10          7           0        0.843365    2.828190   -0.013623
     11          6           0       -0.626794   -2.240991    1.452654
     12          6           0       -1.016194   -0.926038    0.932527
     13          6           0        0.703311   -2.551835    1.235830
     14          6           0        1.316483   -1.378796    0.635151
     15          6           0       -3.802833    1.655307    0.254208
     16          6           0       -2.456308    0.960477    0.564109
     17          6           0       -2.172717   -0.377767    0.984434
     18          6           0       -3.481580    2.903154   -0.159229
     19          6           0       -1.684014   -3.136915    2.080434
     20          6           0        5.262352   -2.901672   -1.461834
     21          6           0        3.580254   -1.887244   -0.293118
     22          6           0       -2.033610    3.045333   -0.104974
     23          6           0        4.953896   -1.712869   -0.513082
     24          6           0       -5.164876    0.975474    0.330920
     25          6           0        2.652818   -1.098338    0.341046
     26          6           0        1.438106   -3.793500    1.877602
     27          6           0        4.146955   -3.845363   -1.325071
     28          6           0       -2.118793   -4.310254    1.178892
     29          6           0       -5.300819   -0.160213   -0.796399
     30          6           0       -4.453694    3.949627   -0.565024
     31          6           0       -1.236585    4.149720   -0.355687
     32          6           0        6.494044   -3.704365   -1.072266
     33          6           0        5.782461   -0.709054   -0.127849
     34          6           0        0.143774    3.940973   -0.308087
     35          6           0        1.125559    5.166049   -0.476616
     36          6           0        2.427408    4.563216   -0.235219
     37          6           0       -3.084209   -4.013430   -0.044719
     38          6           0        5.494243    0.333696    0.810509
     39          6           0       -6.663297   -0.763245   -0.782335
     40          6           0        3.760754    5.277302   -0.275839
     41          6           0        2.171396    3.142012    0.045498
     42          6           0        0.778064    6.640498   -0.762055
     43          6           0        4.480105    5.416257    1.099493
     44          1           0        0.626307    0.479505    0.046054
     45          1           0       -3.262312   -0.981564    1.210364
     46          1           0       -2.552220   -2.402923    2.388601
     47          1           0       -1.316797   -3.658424    2.882320
     48          1           0        5.332088   -2.527513   -2.386231
     49          1           0       -5.328369    0.685969    1.489309
     50          1           0       -6.057850    1.772900   -0.138294
     51          1           0        2.807580   -0.043863    0.608285
     52          1           0       -0.654467    1.784519    0.627115
     53          1           0        1.462620   -4.493205    0.942500
     54          1           0        2.421563   -3.545318    2.474915
     55          1           0        0.793969   -4.111127    2.805092
     56          1           0        2.028927   -3.368017   -0.304875
     57          1           0       -1.171758   -4.659610    0.793174
     58          1           0       -2.754818   -5.008947    1.983908
     59          1           0       -4.725612   -1.125372   -0.378543
     60          1           0       -5.072567    0.029495   -1.955315
     61          1           0       -4.389951    4.860526    0.058535
     62          1           0       -5.516121    3.788524   -0.393154
     63          1           0       -4.312063    4.050904   -1.640294
     64          1           0       -1.581624    5.203684   -0.841881
     65          1           0        7.447745   -3.085767   -1.211254
     66          1           0        6.653452   -4.603744   -1.631164
     67          1           0        6.391120   -3.805208   -0.005329
     68          1           0        6.802816   -0.831234   -0.415226
     69          1           0        5.054954    1.185896    0.405667
     70          1           0        6.313114    1.072785    1.222493
     71          1           0        4.770728    0.153961    1.611199
     72          1           0        3.543966    6.312888   -0.683411
     73          1           0        4.529823    4.687429   -0.891930
     74          1           0        0.375403    6.733888   -1.799611
     75          1           0        1.784417    7.012648   -0.891451
     76          1           0        0.313917    6.947317    0.108600
     77          1           0        3.889232    5.948533    1.975863
     78          1           0        5.457312    6.012791    1.085763
     79          1           0        4.523469    4.335833    1.474702
     80          1           0       -3.400480   -4.350185   -1.834382
     81          1           0       -7.787708   -1.896964   -1.579412
 ---------------------------------------------------------------------
 Rotational constants (GHZ):           0.0759562           0.0564930           0.0346978
 Standard basis: SVP (5D, 7F)
 There are   835 symmetry adapted cartesian basis functions of A   symmetry.
 There are   792 symmetry adapted basis functions of A   symmetry.
   792 basis functions,  1341 primitive gaussians,   835 cartesian basis functions
   156 alpha electrons      156 beta electrons
       nuclear repulsion energy      5068.8425006159 Hartrees.
 NAtoms=   81 NActive=   81 NUniq=   81 SFac= 1.00D+00 NAtFMM=   60 NAOKFM=T Big=T
 Integral buffers will be    131072 words long.
 Regular integral format.
 Two-electron integral symmetry is turned on.
 One-electron integrals computed using PRISM.
 NBasis=   792 RedAO= T EigKep=  3.46D-04  NBF=   792
 NBsUse=   792 1.00D-06 EigRej= -1.00D+00 NBFU=   792
 ExpMin= 1.22D-01 ExpMax= 2.27D+03 ExpMxC= 3.41D+02 IAcc=3 IRadAn=         5 AccDes= 0.00D+00
 Harris functional with IExCor=  402 and IRadAn=       5 diagonalized for initial guess.
 HarFok:  IExCor=  402 AccDes= 0.00D+00 IRadAn=         5 IDoV= 1 UseB2=F ITyADJ=14
 ICtDFT=  3500011 ScaDFX=  1.000000  1.000000  1.000000  1.000000
 FoFCou: FMM=F IPFlag=           0 FMFlag=      100000 FMFlg1=        2001
         NFxFlg=           0 DoJE=T BraDBF=F KetDBF=T FulRan=T
         wScrn=  0.000000 ICntrl=       500 IOpCl=  0 I1Cent=   200000004 NGrid=           0
         NMat0=    1 NMatS0=      1 NMatT0=    0 NMatD0=    1 NMtDS0=    0 NMtDT0=    0
 Petite list used in FoFCou.
 Requested convergence on RMS density matrix=1.00D-08 within 128 cycles.
 Requested convergence on MAX density matrix=1.00D-06.
 Requested convergence on             energy=1.00D-06.
 No special actions if energy rises.
 Integral accuracy reduced to 1.0D-05 until final iterations.
 Initial convergence to 1.0D-05 achieved.  Increase integral accuracy.
 SCF Done:  E(RB3LYP) =  -1949.04837890     A.U. after   19 cycles
            NFock= 19  Conv=0.64D-08     -V/T= 2.0110
 DoSCS=F DFT=T ScalE2(SS,OS)=  1.000000  1.000000
 ExpMin= 1.22D-01 ExpMax= 2.27D+03 ExpMxC= 3.41D+02 IAcc=3 IRadAn=         5 AccDes= 0.00D+00
 HarFok:  IExCor=  205 AccDes= 0.00D+00 IRadAn=         5 IDoV=-2 UseB2=F ITyADJ=14
 ICtDFT= 12500011 ScaDFX=  1.000000  1.000000  1.000000  1.000000
 GSVD:  LWork=       -2193 too small for GESVD, short by        9890 words or        9890 for optimal perf.
 Range of M.O.s used for correlation:    44   792
 NBasis=   792 NAE=   156 NBE=   156 NFC=    43 NFV=     0
 NROrb=    749 NOA=   113 NOB=   113 NVA=   636 NVB=   636

 **** Warning!!: The smallest alpha delta epsilon is  0.67087661D-01

 Orbital symmetries:
       Occupied  (A) (A) (A) (A) (A) (A) (A) (A) (A) (A) (A) (A)
                 (A) (A) (A) (A) (A) (A) (A) (A) (A) (A) (A) (A)
                 (A) (A) (A) (A) (A) (A) (A) (A) (A) (A) (A) (A)
                 (A) (A) (A) (A) (A) (A) (A) (A) (A) (A) (A) (A)
                 (A) (A) (A) (A) (A) (A) (A) (A) (A) (A) (A) (A)
                 (A) (A) (A) (A) (A) (A) (A) (A) (A) (A) (A) (A)
                 (A) (A) (A) (A) (A) (A) (A) (A) (A) (A) (A) (A)
                 (A) (A) (A) (A) (A) (A) (A) (A) (A) (A) (A) (A)
                 (A) (A) (A) (A) (A) (A) (A) (A) (A) (A) (A) (A)
                 (A) (A) (A) (A) (A) (A) (A) (A) (A) (A) (A) (A)
                 (A) (A) (A) (A) (A) (A) (A) (A) (A) (A) (A) (A)
                 (A) (A) (A) (A) (A) (A) (A) (A) (A) (A) (A) (A)
                 (A) (A) (A) (A) (A) (A) (A) (A) (A) (A) (A) (A)
       Virtual   (A) (A) (A) (A) (A) (A) (A) (A) (A) (A) (A) (A)
                 (A) (A) (A) (A) (A) (A) (A) (A) (A) (A) (A) (A)
                 (A) (A) (A) (A) (A) (A) (A) (A) (A) (A) (A) (A)
                 (A) (A) (A) (A) (A) (A) (A) (A) (A) (A) (A) (A)
                 (A) (A) (A) (A) (A) (A) (A) (A) (A) (A) (A) (A)
                 (A) (A) (A) (A) (A) (A) (A) (A) (A) (A) (A) (A)
                 (A) (A) (A) (A) (A) (A) (A) (A) (A) (A) (A) (A)
                 (A) (A) (A) (A) (A) (A) (A) (A) (A) (A) (A) (A)
                 (A) (A) (A) (A) (A) (A) (A) (A) (A) (A) (A) (A)
                 (A) (A) (A) (A) (A) (A) (A) (A) (A) (A) (A) (A)
                 (A) (A) (A) (A) (A) (A) (A) (A) (A) (A) (A) (A)
                 (A) (A) (A) (A) (A) (A) (A) (A) (A) (A) (A) (A)
                 (A) (A) (A) (A) (A) (A) (A) (A) (A) (A) (A) (A)
                 (A) (A) (A) (A) (A) (A) (A) (A) (A) (A) (A) (A)
                 (A) (A) (A) (A) (A) (A) (A) (A) (A) (A) (A) (A)
                 (A) (A) (A) (A) (A) (A) (A) (A) (A) (A) (A) (A)
                 (A) (A) (A) (A) (A) (A) (A) (A) (A) (A) (A) (A)
                 (A) (A) (A) (A) (A) (A) (A) (A) (A) (A) (A) (A)
                 (A) (A) (A) (A) (A) (A) (A) (A) (A) (A) (A) (A)
                 (A) (A) (A) (A) (A) (A) (A) (A) (A) (A) (A) (A)
                 (A) (A) (A) (A) (A) (A) (A) (A) (A) (A) (A) (A)
                 (A) (A) (A) (A) (A) (A) (A) (A) (A) (A) (A) (A)
                 (A) (A) (A) (A) (A) (A) (A) (A) (A) (A) (A) (A)
                 (A) (A) (A) (A) (A) (A) (A) (A) (A) (A) (A) (A)
                 (A) (A) (A) (A) (A) (A) (A) (A) (A) (A) (A) (A)
                 (A) (A) (A) (A) (A) (A) (A) (A) (A) (A) (A) (A)
                 (A) (A) (A) (A) (A) (A) (A) (A) (A) (A) (A) (A)
                 (A) (A) (A) (A) (A) (A) (A) (A) (A) (A) (A) (A)
                 (A) (A) (A) (A) (A) (A) (A) (A) (A) (A) (A) (A)
                 (A) (A) (A) (A) (A) (A) (A) (A) (A) (A) (A) (A)
                 (A) (A) (A) (A) (A) (A) (A) (A) (A) (A) (A) (A)
                 (A) (A) (A) (A) (A) (A) (A) (A) (A) (A) (A) (A)
                 (A) (A) (A) (A) (A) (A) (A) (A) (A) (A) (A) (A)
                 (A) (A) (A) (A) (A) (A) (A) (A) (A) (A) (A) (A)
                 (A) (A) (A) (A) (A) (A) (A) (A) (A) (A) (A) (A)
                 (A) (A) (A) (A) (A) (A) (A) (A) (A) (A) (A) (A)
                 (A) (A) (A) (A) (A) (A) (A) (A) (A) (A) (A) (A)
                 (A) (A) (A) (A) (A) (A) (A) (A) (A) (A) (A) (A)
                 (A) (A) (A) (A) (A) (A) (A) (A) (A) (A) (A) (A)
                 (A) (A) (A) (A) (A) (A) (A) (A) (A) (A) (A) (A)
                 (A) (A) (A) (A) (A) (A) (A) (A) (A) (A) (A) (A)
                 (A) (A) (A) (A) (A) (A) (A) (A) (A) (A) (A) (A)
                 (A) (A) (A) (A) (A) (A) (A) (A) (A) (A) (A) (A)
                 (A) (A) (A) (A) (A) (A) (A) (A) (A) (A) (A) (A)
                 (A) (A) (A) (A) (A) (A) (A) (A) (A) (A) (A) (A)
                 (A) (A) (A) (A) (A) (A) (A) (A) (A) (A) (A) (A)
                 (A) (A) (A) (A) (A) (A) (A) (A) (A) (A) (A) (A)
                 (A) (A) (A) (A) (A) (A) (A) (A) (A) (A) (A) (A)
                 (A) (A) (A) (A) (A) (A) (A) (A) (A) (A) (A) (A)
                 (A) (A) (A) (A) (A) (A) (A) (A) (A) (A) (A) (A)
                 (A) (A) (A) (A) (A) (A) (A) (A) (A) (A) (A) (A)
                 (A) (A) (A) (A) (A) (A) (A) (A) (A) (A) (A) (A)
                 (A) (A) (A) (A) (A) (A) (A) (A) (A) (A) (A) (A)
     4 initial guesses have been made.
 Convergence on wavefunction:    0.001000000000000
 Iteration     1 Dimension     4 NMult     0 NNew      4
 CISAX will form     4 AO SS matrices at one time.
 Iteration     2 Dimension     6 NMult     4 NNew      2
 Iteration     3 Dimension     8 NMult     6 NNew      2
 Iteration     4 Dimension    10 NMult     8 NNew      2
 Iteration     5 Dimension    12 NMult    10 NNew      2
 Iteration     6 Dimension    14 NMult    12 NNew      2
 ***********************************************************************
 Excited states from <AA,BB:AA,BB> singles matrix:
 ***********************************************************************
 
 Ground to excited state transition densities written to RWF  633
 Ground to excited state transition electric dipole moments (Au):
       state          X           Y           Z        Dip. S.      Osc.
         1        -1.1325      2.7406     -0.1671      8.8214      0.3737
 Ground to excited state transition velocity dipole moments (Au):
       state          X           Y           Z        Dip. S.      Osc.
         1         0.0740     -0.1684      0.0101      0.0339      0.3559
 Ground to excited state transition magnetic dipole moments (Au):
       state          X           Y           Z
         1         0.3550      0.6077      2.3610
 Ground to excited state transition velocity quadrupole moments (Au):
       state          XX          YY          ZZ          XY          XZ          YZ
         1         0.4825     -0.5664      0.0721     -0.4449     -0.0826      0.0390
 <0|del|b> * <b|rxdel|0> + <0|del|b> * <b|delr+rdel|0>
 Rotatory Strengths (R) in cgs (10**-40 erg-esu-cm/Gauss)
       state          XX          YY          ZZ    R(velocity)    E-M Angle
         1      -539.2000    319.5902   -361.7495   -193.7865       96.61
 1/2[<0|r|b>*<b|rxdel|0> + (<0|rxdel|b>*<b|r|0>)*]
 Rotatory Strengths (R) in cgs (10**-40 erg-esu-cm/Gauss)
       state          XX          YY          ZZ     R(length)
         1       284.3359  -1177.8190    278.9133   -204.8566
  1/2[<0|del|b>*<b|r|0> + (<0|r|b>*<b|del|0>)*] (Au)
       state          X           Y           Z        Dip. S.   Osc.(frdel)
         1        -0.0838     -0.4614     -0.0017      0.5469      0.3646

 Excitation energies and oscillator strengths:
 
 Excited State   1:      Singlet-A      1.7294 eV  716.94 nm  f=0.3737  <S**2>=0.000
     156 ->157         0.71366
     156 <-157        -0.14195
 This state for optimization and/or second-order correction.
 Total Energy, E(TD-HF/TD-DFT) =  -1948.98482643    
 Copying the excited state density for this state as the 1-particle RhoCI density.
 SavETr:  write IOETrn=   770 NScale= 10 NData=  16 NLR=1 NState=    1 LETran=      28.

 **********************************************************************

            Population analysis using the SCF density.

 **********************************************************************

 Orbital symmetries:
       Occupied  (A) (A) (A) (A) (A) (A) (A) (A) (A) (A) (A) (A)
                 (A) (A) (A) (A) (A) (A) (A) (A) (A) (A) (A) (A)
                 (A) (A) (A) (A) (A) (A) (A) (A) (A) (A) (A) (A)
                 (A) (A) (A) (A) (A) (A) (A) (A) (A) (A) (A) (A)
                 (A) (A) (A) (A) (A) (A) (A) (A) (A) (A) (A) (A)
                 (A) (A) (A) (A) (A) (A) (A) (A) (A) (A) (A) (A)
                 (A) (A) (A) (A) (A) (A) (A) (A) (A) (A) (A) (A)
                 (A) (A) (A) (A) (A) (A) (A) (A) (A) (A) (A) (A)
                 (A) (A) (A) (A) (A) (A) (A) (A) (A) (A) (A) (A)
                 (A) (A) (A) (A) (A) (A) (A) (A) (A) (A) (A) (A)
                 (A) (A) (A) (A) (A) (A) (A) (A) (A) (A) (A) (A)
                 (A) (A) (A) (A) (A) (A) (A) (A) (A) (A) (A) (A)
                 (A) (A) (A) (A) (A) (A) (A) (A) (A) (A) (A) (A)
       Virtual   (A) (A) (A) (A) (A) (A) (A) (A) (A) (A) (A) (A)
                 (A) (A) (A) (A) (A) (A) (A) (A) (A) (A) (A) (A)
                 (A) (A) (A) (A) (A) (A) (A) (A) (A) (A) (A) (A)
                 (A) (A) (A) (A) (A) (A) (A) (A) (A) (A) (A) (A)
                 (A) (A) (A) (A) (A) (A) (A) (A) (A) (A) (A) (A)
                 (A) (A) (A) (A) (A) (A) (A) (A) (A) (A) (A) (A)
                 (A) (A) (A) (A) (A) (A) (A) (A) (A) (A) (A) (A)
                 (A) (A) (A) (A) (A) (A) (A) (A) (A) (A) (A) (A)
                 (A) (A) (A) (A) (A) (A) (A) (A) (A) (A) (A) (A)
                 (A) (A) (A) (A) (A) (A) (A) (A) (A) (A) (A) (A)
                 (A) (A) (A) (A) (A) (A) (A) (A) (A) (A) (A) (A)
                 (A) (A) (A) (A) (A) (A) (A) (A) (A) (A) (A) (A)
                 (A) (A) (A) (A) (A) (A) (A) (A) (A) (A) (A) (A)
                 (A) (A) (A) (A) (A) (A) (A) (A) (A) (A) (A) (A)
                 (A) (A) (A) (A) (A) (A) (A) (A) (A) (A) (A) (A)
                 (A) (A) (A) (A) (A) (A) (A) (A) (A) (A) (A) (A)
                 (A) (A) (A) (A) (A) (A) (A) (A) (A) (A) (A) (A)
                 (A) (A) (A) (A) (A) (A) (A) (A) (A) (A) (A) (A)
                 (A) (A) (A) (A) (A) (A) (A) (A) (A) (A) (A) (A)
                 (A) (A) (A) (A) (A) (A) (A) (A) (A) (A) (A) (A)
                 (A) (A) (A) (A) (A) (A) (A) (A) (A) (A) (A) (A)
                 (A) (A) (A) (A) (A) (A) (A) (A) (A) (A) (A) (A)
                 (A) (A) (A) (A) (A) (A) (A) (A) (A) (A) (A) (A)
                 (A) (A) (A) (A) (A) (A) (A) (A) (A) (A) (A) (A)
                 (A) (A) (A) (A) (A) (A) (A) (A) (A) (A) (A) (A)
                 (A) (A) (A) (A) (A) (A) (A) (A) (A) (A) (A) (A)
                 (A) (A) (A) (A) (A) (A) (A) (A) (A) (A) (A) (A)
                 (A) (A) (A) (A) (A) (A) (A) (A) (A) (A) (A) (A)
                 (A) (A) (A) (A) (A) (A) (A) (A) (A) (A) (A) (A)
                 (A) (A) (A) (A) (A) (A) (A) (A) (A) (A) (A) (A)
                 (A) (A) (A) (A) (A) (A) (A) (A) (A) (A) (A) (A)
                 (A) (A) (A) (A) (A) (A) (A) (A) (A) (A) (A) (A)
                 (A) (A) (A) (A) (A) (A) (A) (A) (A) (A) (A) (A)
                 (A) (A) (A) (A) (A) (A) (A) (A) (A) (A) (A) (A)
                 (A) (A) (A) (A) (A) (A) (A) (A) (A) (A) (A) (A)
                 (A) (A) (A) (A) (A) (A) (A) (A) (A) (A) (A) (A)
                 (A) (A) (A) (A) (A) (A) (A) (A) (A) (A) (A) (A)
                 (A) (A) (A) (A) (A) (A) (A) (A) (A) (A) (A) (A)
                 (A) (A) (A) (A) (A) (A) (A) (A) (A) (A) (A) (A)
                 (A) (A) (A) (A) (A) (A) (A) (A) (A) (A) (A) (A)
                 (A) (A) (A) (A) (A) (A) (A) (A) (A) (A) (A) (A)
                 (A) (A) (A) (A) (A) (A) (A) (A) (A) (A) (A) (A)
                 (A) (A) (A) (A) (A) (A) (A) (A) (A) (A) (A) (A)
                 (A) (A) (A) (A) (A) (A) (A) (A) (A) (A) (A) (A)
                 (A) (A) (A) (A) (A) (A) (A) (A) (A) (A) (A) (A)
                 (A) (A) (A) (A) (A) (A) (A) (A) (A) (A) (A) (A)
                 (A) (A) (A) (A) (A) (A) (A) (A) (A) (A) (A) (A)
                 (A) (A) (A) (A) (A) (A) (A) (A) (A) (A) (A) (A)
                 (A) (A) (A) (A) (A) (A) (A) (A) (A) (A) (A) (A)
                 (A) (A) (A) (A) (A) (A) (A) (A) (A) (A) (A) (A)
                 (A) (A) (A) (A) (A) (A) (A) (A) (A) (A) (A) (A)
                 (A) (A) (A) (A) (A) (A) (A) (A) (A) (A) (A) (A)
                 (A) (A) (A) (A) (A) (A) (A) (A) (A) (A) (A) (A)
 The electronic state is 1-A.
 Alpha  occ. eigenvalues --  -19.21719 -19.17043 -19.14536 -19.12935 -19.12799
 Alpha  occ. eigenvalues --  -19.08941 -14.37560 -14.37127 -14.35993 -14.27896
 Alpha  occ. eigenvalues --  -10.34151 -10.31112 -10.30689 -10.25145 -10.24359
 Alpha  occ. eigenvalues --  -10.23900 -10.23551 -10.23517 -10.23334 -10.23264
 Alpha  occ. eigenvalues --  -10.23109 -10.23054 -10.22238 -10.22105 -10.21757
 Alpha  occ. eigenvalues --  -10.20866 -10.20827 -10.20651 -10.20602 -10.20598
 Alpha  occ. eigenvalues --  -10.20518 -10.20403 -10.20212 -10.19509 -10.19438
 Alpha  occ. eigenvalues --  -10.19195 -10.19084 -10.19061 -10.19030 -10.18584
 Alpha  occ. eigenvalues --  -10.18300 -10.17541 -10.17525  -1.12190  -1.09207
 Alpha  occ. eigenvalues --   -1.03278  -1.02260  -1.00120  -0.99975  -0.99636
 Alpha  occ. eigenvalues --   -0.96147  -0.94907  -0.90071  -0.83259  -0.82570
 Alpha  occ. eigenvalues --   -0.82032  -0.81371  -0.79206  -0.77964  -0.77768
 Alpha  occ. eigenvalues --   -0.76968  -0.76422  -0.74981  -0.73727  -0.71838
 Alpha  occ. eigenvalues --   -0.71382  -0.70281  -0.68706  -0.67854  -0.67413
 Alpha  occ. eigenvalues --   -0.67086  -0.65806  -0.64736  -0.61923  -0.60629
 Alpha  occ. eigenvalues --   -0.59820  -0.59103  -0.58479  -0.57524  -0.55897
 Alpha  occ. eigenvalues --   -0.55646  -0.55124  -0.54331  -0.53499  -0.53038
 Alpha  occ. eigenvalues --   -0.51822  -0.51506  -0.51115  -0.50495  -0.50236
 Alpha  occ. eigenvalues --   -0.49078  -0.48670  -0.48362  -0.48262  -0.47871
 Alpha  occ. eigenvalues --   -0.46787  -0.46732  -0.46472  -0.45992  -0.45583
 Alpha  occ. eigenvalues --   -0.45362  -0.44998  -0.44540  -0.44421  -0.43866
 Alpha  occ. eigenvalues --   -0.43378  -0.43157  -0.42829  -0.42659  -0.42234
 Alpha  occ. eigenvalues --   -0.42147  -0.41910  -0.41572  -0.41416  -0.40709
 Alpha  occ. eigenvalues --   -0.40448  -0.40282  -0.40085  -0.39554  -0.39336
 Alpha  occ. eigenvalues --   -0.39006  -0.38513  -0.38190  -0.37992  -0.37710
 Alpha  occ. eigenvalues --   -0.37650  -0.37388  -0.36812  -0.36679  -0.36389
 Alpha  occ. eigenvalues --   -0.36214  -0.35913  -0.35182  -0.34829  -0.34653
 Alpha  occ. eigenvalues --   -0.34532  -0.34333  -0.33475  -0.32860  -0.32436
 Alpha  occ. eigenvalues --   -0.32399  -0.31705  -0.31579  -0.30134  -0.29463
 Alpha  occ. eigenvalues --   -0.28260  -0.27559  -0.26462  -0.26214  -0.25881
 Alpha  occ. eigenvalues --   -0.25555  -0.24804  -0.23217  -0.22140  -0.21453
 Alpha  occ. eigenvalues --   -0.16870
 Alpha virt. eigenvalues --   -0.10161  -0.05856  -0.03898  -0.02107  -0.01524
 Alpha virt. eigenvalues --    0.00630   0.01661   0.01855   0.02223   0.03400
 Alpha virt. eigenvalues --    0.03923   0.04872   0.05265   0.05490   0.05809
 Alpha virt. eigenvalues --    0.06241   0.06681   0.07095   0.07231   0.07610
 Alpha virt. eigenvalues --    0.07987   0.08390   0.08497   0.08798   0.09135
 Alpha virt. eigenvalues --    0.09538   0.10039   0.10419   0.10745   0.11186
 Alpha virt. eigenvalues --    0.11527   0.11763   0.12419   0.12568   0.12865
 Alpha virt. eigenvalues --    0.13114   0.13438   0.13739   0.14120   0.14163
 Alpha virt. eigenvalues --    0.14509   0.14721   0.14977   0.15868   0.16086
 Alpha virt. eigenvalues --    0.16695   0.16857   0.17605   0.17683   0.18428
 Alpha virt. eigenvalues --    0.18646   0.18949   0.19117   0.19373   0.19603
 Alpha virt. eigenvalues --    0.19787   0.20522   0.20618   0.20717   0.20967
 Alpha virt. eigenvalues --    0.21562   0.21858   0.22493   0.23087   0.23561
 Alpha virt. eigenvalues --    0.23995   0.24100   0.24291   0.24792   0.25221
 Alpha virt. eigenvalues --    0.26157   0.26504   0.27031   0.27727   0.28045
 Alpha virt. eigenvalues --    0.28671   0.29160   0.29856   0.30201   0.31470
 Alpha virt. eigenvalues --    0.31772   0.31869   0.32013   0.32226   0.32686
 Alpha virt. eigenvalues --    0.34222   0.34617   0.35354   0.35634   0.35983
 Alpha virt. eigenvalues --    0.37075   0.37552   0.38117   0.38910   0.39449
 Alpha virt. eigenvalues --    0.39618   0.40085   0.40381   0.41010   0.41132
 Alpha virt. eigenvalues --    0.41884   0.42140   0.42598   0.42971   0.43353
 Alpha virt. eigenvalues --    0.43549   0.44054   0.44404   0.44661   0.44886
 Alpha virt. eigenvalues --    0.44959   0.45837   0.46197   0.46523   0.46577
 Alpha virt. eigenvalues --    0.47120   0.47372   0.47821   0.48334   0.48458
 Alpha virt. eigenvalues --    0.48616   0.48991   0.49283   0.49795   0.49980
 Alpha virt. eigenvalues --    0.50215   0.50232   0.50908   0.51128   0.51311
 Alpha virt. eigenvalues --    0.51468   0.51725   0.52222   0.52747   0.53090
 Alpha virt. eigenvalues --    0.53527   0.53734   0.54081   0.54737   0.55173
 Alpha virt. eigenvalues --    0.55642   0.55911   0.56086   0.56780   0.56879
 Alpha virt. eigenvalues --    0.57182   0.57496   0.57973   0.58153   0.58588
 Alpha virt. eigenvalues --    0.58974   0.59263   0.59394   0.59625   0.60005
 Alpha virt. eigenvalues --    0.60444   0.60607   0.60674   0.61044   0.61263
 Alpha virt. eigenvalues --    0.61528   0.61831   0.62587   0.62787   0.63016
 Alpha virt. eigenvalues --    0.63284   0.63479   0.63738   0.63818   0.64057
 Alpha virt. eigenvalues --    0.64418   0.64651   0.64757   0.65048   0.65303
 Alpha virt. eigenvalues --    0.65494   0.65859   0.66225   0.66382   0.67040
 Alpha virt. eigenvalues --    0.67068   0.67717   0.67991   0.68060   0.68266
 Alpha virt. eigenvalues --    0.68316   0.68638   0.68804   0.69098   0.69247
 Alpha virt. eigenvalues --    0.69533   0.69618   0.69973   0.70145   0.70527
 Alpha virt. eigenvalues --    0.70778   0.71054   0.71410   0.71421   0.71916
 Alpha virt. eigenvalues --    0.72307   0.72482   0.72671   0.72913   0.73439
 Alpha virt. eigenvalues --    0.73740   0.74531   0.75107   0.75382   0.75418
 Alpha virt. eigenvalues --    0.76230   0.76578   0.76965   0.77533   0.77960
 Alpha virt. eigenvalues --    0.78217   0.78616   0.79444   0.79837   0.80477
 Alpha virt. eigenvalues --    0.80653   0.81142   0.81504   0.81972   0.82643
 Alpha virt. eigenvalues --    0.83530   0.84126   0.84834   0.85668   0.85679
 Alpha virt. eigenvalues --    0.86472   0.86867   0.87089   0.87363   0.88023
 Alpha virt. eigenvalues --    0.89660   0.90582   0.90820   0.91756   0.92085
 Alpha virt. eigenvalues --    0.92884   0.93835   0.94553   0.95206   0.95376
 Alpha virt. eigenvalues --    0.95733   0.96286   0.96784   0.97218   0.97675
 Alpha virt. eigenvalues --    0.97915   0.98215   0.98680   0.99765   0.99914
 Alpha virt. eigenvalues --    1.00689   1.01268   1.01756   1.02479   1.02647
 Alpha virt. eigenvalues --    1.03421   1.04047   1.04824   1.05359   1.06524
 Alpha virt. eigenvalues --    1.07359   1.08345   1.08739   1.09224   1.10366
 Alpha virt. eigenvalues --    1.11247   1.12014   1.12164   1.12622   1.13473
 Alpha virt. eigenvalues --    1.13724   1.14477   1.14881   1.15654   1.15798
 Alpha virt. eigenvalues --    1.16424   1.17177   1.17709   1.18995   1.19375
 Alpha virt. eigenvalues --    1.20896   1.20967   1.21585   1.22408   1.22809
 Alpha virt. eigenvalues --    1.23987   1.24224   1.25259   1.25513   1.25776
 Alpha virt. eigenvalues --    1.27241   1.27926   1.28224   1.28954   1.29969
 Alpha virt. eigenvalues --    1.30453   1.31103   1.31762   1.33015   1.33972
 Alpha virt. eigenvalues --    1.34612   1.35053   1.35526   1.36322   1.36903
 Alpha virt. eigenvalues --    1.37701   1.38121   1.38676   1.39080   1.40158
 Alpha virt. eigenvalues --    1.40644   1.40769   1.41383   1.42214   1.42886
 Alpha virt. eigenvalues --    1.43512   1.45169   1.45831   1.46246   1.46900
 Alpha virt. eigenvalues --    1.47143   1.47510   1.47958   1.48255   1.49266
 Alpha virt. eigenvalues --    1.49436   1.49521   1.50869   1.51314   1.51506
 Alpha virt. eigenvalues --    1.51645   1.52241   1.52661   1.53326   1.53431
 Alpha virt. eigenvalues --    1.53541   1.54548   1.55553   1.56192   1.56691
 Alpha virt. eigenvalues --    1.56978   1.57668   1.58687   1.59637   1.59886
 Alpha virt. eigenvalues --    1.61299   1.61661   1.61809   1.62143   1.62720
 Alpha virt. eigenvalues --    1.63014   1.63405   1.63710   1.64671   1.64871
 Alpha virt. eigenvalues --    1.65341   1.65525   1.66270   1.66457   1.67223
 Alpha virt. eigenvalues --    1.67441   1.67927   1.68113   1.69064   1.69319
 Alpha virt. eigenvalues --    1.69603   1.69966   1.70223   1.70727   1.70793
 Alpha virt. eigenvalues --    1.71467   1.72334   1.72688   1.73433   1.73563
 Alpha virt. eigenvalues --    1.73755   1.73992   1.74126   1.74469   1.74895
 Alpha virt. eigenvalues --    1.75572   1.75973   1.76240   1.76328   1.76650
 Alpha virt. eigenvalues --    1.77083   1.77523   1.78054   1.78655   1.79038
 Alpha virt. eigenvalues --    1.79272   1.79442   1.79907   1.80541   1.80718
 Alpha virt. eigenvalues --    1.80868   1.81159   1.81279   1.81782   1.82116
 Alpha virt. eigenvalues --    1.82352   1.83109   1.83431   1.83961   1.84088
 Alpha virt. eigenvalues --    1.85210   1.85451   1.85948   1.86182   1.86840
 Alpha virt. eigenvalues --    1.87509   1.87681   1.88167   1.88782   1.89428
 Alpha virt. eigenvalues --    1.90082   1.90223   1.90485   1.91057   1.91248
 Alpha virt. eigenvalues --    1.91744   1.92052   1.92898   1.93145   1.93191
 Alpha virt. eigenvalues --    1.94203   1.94384   1.94499   1.95151   1.95799
 Alpha virt. eigenvalues --    1.95961   1.96511   1.96641   1.97099   1.97523
 Alpha virt. eigenvalues --    1.98375   1.98875   1.99666   2.00368   2.00580
 Alpha virt. eigenvalues --    2.01104   2.01443   2.02547   2.02787   2.03546
 Alpha virt. eigenvalues --    2.04128   2.04813   2.05119   2.05569   2.06091
 Alpha virt. eigenvalues --    2.06292   2.06673   2.07351   2.07911   2.08885
 Alpha virt. eigenvalues --    2.09136   2.09737   2.09900   2.10299   2.11211
 Alpha virt. eigenvalues --    2.11350   2.12157   2.12867   2.13877   2.14054
 Alpha virt. eigenvalues --    2.14602   2.15503   2.16070   2.16908   2.17411
 Alpha virt. eigenvalues --    2.18017   2.18699   2.19053   2.19662   2.20340
 Alpha virt. eigenvalues --    2.21248   2.21503   2.22409   2.22664   2.22937
 Alpha virt. eigenvalues --    2.23391   2.24319   2.25247   2.26277   2.27453
 Alpha virt. eigenvalues --    2.27710   2.27989   2.29087   2.29648   2.30029
 Alpha virt. eigenvalues --    2.30801   2.31199   2.32037   2.32324   2.33090
 Alpha virt. eigenvalues --    2.33528   2.34742   2.34959   2.35670   2.36450
 Alpha virt. eigenvalues --    2.36774   2.37581   2.37989   2.38384   2.39213
 Alpha virt. eigenvalues --    2.39381   2.41630   2.42252   2.43087   2.44424
 Alpha virt. eigenvalues --    2.45266   2.45890   2.46286   2.47106   2.47794
 Alpha virt. eigenvalues --    2.48340   2.48628   2.49268   2.49990   2.50959
 Alpha virt. eigenvalues --    2.51957   2.54371   2.54697   2.55155   2.55753
 Alpha virt. eigenvalues --    2.55856   2.56504   2.58172   2.58854   2.59639
 Alpha virt. eigenvalues --    2.59957   2.61124   2.61388   2.62396   2.63213
 Alpha virt. eigenvalues --    2.63347   2.63582   2.63788   2.64497   2.65307
 Alpha virt. eigenvalues --    2.65604   2.66357   2.66986   2.67411   2.68258
 Alpha virt. eigenvalues --    2.68315   2.68965   2.69413   2.69771   2.70372
 Alpha virt. eigenvalues --    2.73029   2.73614   2.73974   2.74714   2.75090
 Alpha virt. eigenvalues --    2.75710   2.75872   2.76213   2.77176   2.78168
 Alpha virt. eigenvalues --    2.78638   2.78884   2.79415   2.80187   2.80248
 Alpha virt. eigenvalues --    2.80646   2.81978   2.82417   2.83045   2.83695
 Alpha virt. eigenvalues --    2.84952   2.85292   2.85938   2.86631   2.87629
 Alpha virt. eigenvalues --    2.88259   2.88538   2.89217   2.90245   2.90694
 Alpha virt. eigenvalues --    2.90940   2.91168   2.92691   2.92912   2.93192
 Alpha virt. eigenvalues --    2.94426   2.94896   2.96386   2.98012   2.99315
 Alpha virt. eigenvalues --    3.00138   3.01813   3.03774   3.05348   3.05949
 Alpha virt. eigenvalues --    3.06555   3.08638   3.09139   3.09317   3.11776
 Alpha virt. eigenvalues --    3.12010   3.12851   3.12952   3.14889   3.15661
 Alpha virt. eigenvalues --    3.16401   3.17688   3.18204   3.19420   3.20578
 Alpha virt. eigenvalues --    3.21503   3.21619   3.23835   3.26482   3.28257
 Alpha virt. eigenvalues --    3.33015   3.37856   3.39903   3.43840   3.45350
 Alpha virt. eigenvalues --    3.49221   3.51476   3.55883   3.58007   3.63115
 Alpha virt. eigenvalues --    3.65150   3.65737   3.68954   3.70381   3.71378
 Alpha virt. eigenvalues --    3.75722
          Condensed to atoms (all electrons):
 Mulliken charges:
               1
     1  O   -0.205999
     2  O   -0.164306
     3  O   -0.257839
     4  O   -0.237896
     5  O   -0.202206
     6  O   -0.241682
     7  N   -0.200084
     8  N    0.064841
     9  N   -0.211678
    10  N   -0.284513
    11  C   -0.123208
    12  C    0.242720
    13  C   -0.201755
    14  C    0.062067
    15  C   -0.037086
    16  C   -0.060095
    17  C   -0.156775
    18  C   -0.128180
    19  C    0.147397
    20  C   -0.001422
    21  C    0.142095
    22  C    0.115432
    23  C   -0.013483
    24  C   -0.029464
    25  C   -0.180728
    26  C    0.012513
    27  C    0.180328
    28  C   -0.035440
    29  C   -0.072931
    30  C    0.109124
    31  C   -0.189853
    32  C    0.055600
    33  C   -0.062802
    34  C    0.055943
    35  C   -0.210732
    36  C   -0.145710
    37  C    0.143487
    38  C    0.079494
    39  C    0.127164
    40  C    0.068615
    41  C    0.137137
    42  C    0.186263
    43  C   -0.082530
    44  H    0.159107
    45  H    0.085752
    46  H    0.030646
    47  H   -0.031833
    48  H    0.012791
    49  H    0.073082
    50  H    0.047072
    51  H    0.021382
    52  H    0.066993
    53  H    0.059697
    54  H    0.064923
    55  H    0.037162
    56  H    0.180637
    57  H    0.024128
    58  H    0.067885
    59  H    0.106182
    60  H    0.069252
    61  H    0.022398
    62  H   -0.002944
    63  H    0.027079
    64  H    0.028765
    65  H    0.012307
    66  H    0.036034
    67  H    0.012144
    68  H   -0.021431
    69  H    0.020354
    70  H    0.009058
    71  H    0.032956
    72  H    0.002878
    73  H    0.025720
    74  H    0.033791
    75  H   -0.016675
    76  H    0.030468
    77  H    0.009301
    78  H    0.025982
    79  H    0.042425
    80  H    0.219936
    81  H    0.182771
 Sum of Mulliken charges =  -0.00000
 Mulliken charges with hydrogens summed into heavy atoms:
               1
     1  O   -0.205999
     2  O    0.055630
     3  O   -0.075068
     4  O   -0.237896
     5  O   -0.202206
     6  O   -0.241682
     7  N   -0.040977
     8  N    0.131835
     9  N   -0.031040
    10  N   -0.284513
    11  C   -0.123208
    12  C    0.242720
    13  C   -0.201755
    14  C    0.062067
    15  C   -0.037086
    16  C   -0.060095
    17  C   -0.071023
    18  C   -0.128180
    19  C    0.146210
    20  C    0.011369
    21  C    0.142095
    22  C    0.115432
    23  C   -0.013483
    24  C    0.090690
    25  C   -0.159346
    26  C    0.174295
    27  C    0.180328
    28  C    0.056573
    29  C    0.102503
    30  C    0.155658
    31  C   -0.161087
    32  C    0.116085
    33  C   -0.084233
    34  C    0.055943
    35  C   -0.210732
    36  C   -0.145710
    37  C    0.143487
    38  C    0.141862
    39  C    0.127164
    40  C    0.097213
    41  C    0.137137
    42  C    0.233847
    43  C   -0.004822
 Electronic spatial extent (au):  <R**2>=          29935.5788
 Charge=             -0.0000 electrons
 Dipole moment (field-independent basis, Debye):
    X=             -1.2766    Y=             -0.2461    Z=             -0.5080  Tot=              1.3959
 Quadrupole moment (field-independent basis, Debye-Ang):
   XX=           -251.6708   YY=           -248.7054   ZZ=           -250.0475
   XY=              6.4646   XZ=              6.8185   YZ=            -12.2330
 Traceless Quadrupole moment (field-independent basis, Debye-Ang):
   XX=             -1.5296   YY=              1.4358   ZZ=              0.0937
   XY=              6.4646   XZ=              6.8185   YZ=            -12.2330
 Octapole moment (field-independent basis, Debye-Ang**2):
  XXX=            111.3342  YYY=            117.2384  ZZZ=            -20.4891  XYY=           -155.4095
  XXY=            -12.8400  XXZ=            -97.8572  XZZ=            -36.3307  YZZ=            -40.0689
  YYZ=             24.4884  XYZ=            -29.8417
 Hexadecapole moment (field-independent basis, Debye-Ang**3):
 XXXX=         -21724.6479 YYYY=         -16779.1707 ZZZZ=          -1627.8913 XXXY=            213.3756
 XXXZ=            440.7119 YYYX=            806.0917 YYYZ=           -340.9191 ZZZX=             35.0477
 ZZZY=             42.0928 XXYY=          -6331.9085 XXZZ=          -3874.8672 YYZZ=          -2996.1480
 XXYZ=             63.0883 YYXZ=            205.2418 ZZXY=            111.2697
 N-N= 5.068842500616D+03 E-N=-1.466870626489D+04  KE= 1.927899624081D+03
 1\1\GINC-PADAWAN\SP\RB3LYP TD-FC\SVP\C33H38N4O6\PADAWAN\01-Jul-2019\0\
 \# td=(NStates=1) B3LYP/SVP\\TD\\0,1\O,0,-4.1510066115,-4.9435587271,1
 .7115351819\O,0,2.7734213708,-4.8268839952,1.1099751348\O,0,6.80329663
 4,-1.7486621359,1.8647691564\O,0,3.7933243899,-3.1026982948,0.04500116
 07\O,0,7.4730168383,-0.7667865738,-0.0499110238\O,0,-3.0232779139,2.39
 98180326,-0.4014217036\N,0,-0.2797649712,-0.4144156347,-0.4645334662\N
 ,0,1.5289213848,1.8789283253,-0.322283806\N,0,-3.1215241414,-3.0508661
 996,0.5841547341\N,0,-0.7974382395,2.843735523,-0.0137952253\C,0,0.596
 6719315,-2.2587138298,-1.4383661317\C,0,1.0055734596,-0.9457718089,-0.
 9282216711\C,0,-0.7382279515,-2.5475231145,-1.2205441171\C,0,-1.334023
 8244,-1.360556367,-0.6298221122\C,0,3.83059152,1.5980929758,-0.2672809
 949\C,0,2.4739294987,0.9214339689,-0.5731515002\C,0,2.1703722874,-0.41
 56188198,-0.9831977944\C,0,3.5280034404,2.8539251947,0.1359315835\C,0,
 1.6407154766,-3.1755892602,-2.0578931349\C,0,-5.3046893756,-2.80646626
 15,1.4748247468\C,0,-3.6061844777,-1.8270776837,0.2999659284\C,0,2.082
 4225544,3.0177217664,0.078975521\C,0,-4.9772204183,-1.6300519691,0.517
 0457485\C,0,5.1821834802,0.8969946164,-0.337132672\C,0,-2.6662114368,-
 1.0574442998,-0.3394004138\C,0,-1.491248787,-3.7828880419,-1.853285645
 4\C,0,-4.2036800364,-3.7681010419,1.3467397996\C,0,2.0566768014,-4.348
 2438481,-1.1466338902\C,0,5.2996987723,-0.2316712906,0.7992724744\C,0,
 4.5155676181,3.8886417135,0.5345056509\C,0,1.3020888873,4.1360781581,0
 .320083729\C,0,-6.5480994605,-3.5933541152,1.0902680889\C,0,-5.7900085
 815,-0.6168074647,0.1229894658\C,0,-0.0812460439,3.9480230521,0.272629
 0748\C,0,-1.0443995386,5.1892164553,0.4304015057\C,0,-2.3550549792,4.6
 044019416,0.1923551415\C,0,3.0253191139,-4.056488319,0.0756452537\C,0,
 -5.4850122107,0.4139666853,-0.8232637912\C,0,6.6528351625,-0.855491018
 7,0.7914600442\C,0,-3.6773952824,5.339024961,0.2258770984\C,0,-2.12047
 15988,3.1772826893,-0.0768434541\C,0,-0.6747380649,6.6604117112,0.7045
 595076\C,0,-4.3932088835,5.4780337601,-1.1512942209\H,0,-0.6161632012,
 0.4916160274,-0.0546752072\H,0,3.2508524462,-1.0377219134,-1.203160403
 4\H,0,2.5203119125,-2.4573773343,-2.3709036375\H,0,1.266367643,-3.6977
 738883,-2.8560339635\H,0,-5.3696086882,-2.4239810228,2.3961601559\H,0,
 5.3423667492,0.5958689683,-1.4930196493\H,0,6.0867572431,1.6844079689,
 0.1267390993\H,0,-2.8046166794,-0.0028824979,-0.6151319107\H,0,0.68492
 57232,1.7723170756,-0.6446319087\H,0,-1.5273374695,-4.4747120417,-0.91
 27107809\H,0,-2.4702271337,-3.5244830347,-2.4536134944\H,0,-0.85113029
 29,-4.1176288317,-2.7775333426\H,0,-2.0776301493,-3.331182849,0.325115
 1767\H,0,1.1040512344,-4.6800607044,-0.75920131\H,0,2.6827543798,-5.06
 29003969,-1.9454099229\H,0,4.7102462576,-1.1912302864,0.388428579\H,0,
 5.0732416696,-0.029336895,1.9564034434\H,0,4.4663271583,4.7954399604,-
 0.0963010019\H,0,5.5755806498,3.7100085341,0.3650722968\H,0,4.37445447
 8,4.0005755297,1.6087865956\H,0,1.6626870473,5.1884780252,0.7983109063
 \H,0,-7.4923908074,-2.9592110046,1.223323602\H,0,-6.7217462385,-4.4857
 449566,1.6560814485\H,0,-6.445690266,-3.7041978359,0.0242745159\H,0,-6
 .8123857609,-0.7211430228,0.410209022\H,0,-5.0331722893,1.262551076,-0
 .4246897303\H,0,-6.2921175892,1.1621652915,-1.241968513\H,0,-4.7635456
 666,0.2168918514,-1.6217189367\H,0,-3.4452365092,6.3743818433,0.625489
 4254\H,0,-4.4559670349,4.7658389158,0.8457706034\H,0,-0.2717063151,6.7
 55866152,1.74178402\H,0,-1.6754236527,7.0488683415,0.8299123429\H,0,-0
 .2051213441,6.9532176075,-0.1679858415\H,0,-3.7934372507,5.9942870544,
 -2.0311973222\H,0,-5.3612188291,6.0894820643,-1.1433442116\H,0,-4.4526
 787448,4.3954597163,-1.5180013081\H,0,3.3346818687,-4.383844597,1.8682
 576082\H,0,7.75905393,-1.9998693759,1.5986972527\\Version=ES64L-G16Rev
 A.03\State=1-A\HF=-1949.0483789\RMSD=6.410e-09\PG=C01 [X(C33H38N4O6)]\
 \@


 IF AT FIRST YOU DON'T SUCCEED, TRY, TRY AGAIN.
 THEN GIVE UP;
 THERE'S NO USE BEING A DAMN FOOL ABOUT IT.

                                 -- W. C. FIELDS
 Job cpu time:       0 days  3 hours 59 minutes 12.9 seconds.
 Elapsed time:       0 days  2 hours 40 minutes  0.3 seconds.
 File lengths (MBytes):  RWF=   2591 Int=      0 D2E=      0 Chk=     65 Scr=      1
 Normal termination of Gaussian 16 at Mon Jul  1 14:12:43 2019.
