 Entering Gaussian System, Link 0=g16
 Input=Geometria-131-.com
 Output=Geometria-131-.log
 Initial command:
 /usr/local/g16/l1.exe "/home/padawan/israel-mol/phycocyanobilin/spectra/emi/Gau-28522.inp" -scrdir="/home/padawan/israel-mol/phycocyanobilin/spectra/emi/"
 Entering Link 1 = /usr/local/g16/l1.exe PID=     28524.
  
 Copyright (c) 1988,1990,1992,1993,1995,1998,2003,2009,2016,
            Gaussian, Inc.  All Rights Reserved.
  
 This is part of the Gaussian(R) 16 program.  It is based on
 the Gaussian(R) 09 system (copyright 2009, Gaussian, Inc.),
 the Gaussian(R) 03 system (copyright 2003, Gaussian, Inc.),
 the Gaussian(R) 98 system (copyright 1998, Gaussian, Inc.),
 the Gaussian(R) 94 system (copyright 1995, Gaussian, Inc.),
 the Gaussian 92(TM) system (copyright 1992, Gaussian, Inc.),
 the Gaussian 90(TM) system (copyright 1990, Gaussian, Inc.),
 the Gaussian 88(TM) system (copyright 1988, Gaussian, Inc.),
 the Gaussian 86(TM) system (copyright 1986, Carnegie Mellon
 University), and the Gaussian 82(TM) system (copyright 1983,
 Carnegie Mellon University). Gaussian is a federally registered
 trademark of Gaussian, Inc.
  
 This software contains proprietary and confidential information,
 including trade secrets, belonging to Gaussian, Inc.
  
 This software is provided under written license and may be
 used, copied, transmitted, or stored only in accord with that
 written license.
  
 The following legend is applicable only to US Government
 contracts under FAR:
  
                    RESTRICTED RIGHTS LEGEND
  
 Use, reproduction and disclosure by the US Government is
 subject to restrictions as set forth in subparagraphs (a)
 and (c) of the Commercial Computer Software - Restricted
 Rights clause in FAR 52.227-19.
  
 Gaussian, Inc.
 340 Quinnipiac St., Bldg. 40, Wallingford CT 06492
  
  
 ---------------------------------------------------------------
 Warning -- This program may not be used in any manner that
 competes with the business of Gaussian, Inc. or will provide
 assistance to any competitor of Gaussian, Inc.  The licensee
 of this program is prohibited from giving any competitor of
 Gaussian, Inc. access to this program.  By using this program,
 the user acknowledges that Gaussian, Inc. is engaged in the
 business of creating and licensing software in the field of
 computational chemistry and represents and warrants to the
 licensee that it is not a competitor of Gaussian, Inc. and that
 it will not use this program in any manner prohibited above.
 ---------------------------------------------------------------
  

 Cite this work as:
 Gaussian 16, Revision A.03,
 M. J. Frisch, G. W. Trucks, H. B. Schlegel, G. E. Scuseria, 
 M. A. Robb, J. R. Cheeseman, G. Scalmani, V. Barone, 
 G. A. Petersson, H. Nakatsuji, X. Li, M. Caricato, A. V. Marenich, 
 J. Bloino, B. G. Janesko, R. Gomperts, B. Mennucci, H. P. Hratchian, 
 J. V. Ortiz, A. F. Izmaylov, J. L. Sonnenberg, D. Williams-Young, 
 F. Ding, F. Lipparini, F. Egidi, J. Goings, B. Peng, A. Petrone, 
 T. Henderson, D. Ranasinghe, V. G. Zakrzewski, J. Gao, N. Rega, 
 G. Zheng, W. Liang, M. Hada, M. Ehara, K. Toyota, R. Fukuda, 
 J. Hasegawa, M. Ishida, T. Nakajima, Y. Honda, O. Kitao, H. Nakai, 
 T. Vreven, K. Throssell, J. A. Montgomery, Jr., J. E. Peralta, 
 F. Ogliaro, M. J. Bearpark, J. J. Heyd, E. N. Brothers, K. N. Kudin, 
 V. N. Staroverov, T. A. Keith, R. Kobayashi, J. Normand, 
 K. Raghavachari, A. P. Rendell, J. C. Burant, S. S. Iyengar, 
 J. Tomasi, M. Cossi, J. M. Millam, M. Klene, C. Adamo, R. Cammi, 
 J. W. Ochterski, R. L. Martin, K. Morokuma, O. Farkas, 
 J. B. Foresman, and D. J. Fox, Gaussian, Inc., Wallingford CT, 2016.
 
 ******************************************
 Gaussian 16:  ES64L-G16RevA.03 25-Dec-2016
                28-Jun-2019 
 ******************************************
 %nproc=4
 Will use up to    4 processors via shared memory.
 %Mem=2GB
 --------------------------
 # td=(NStates=1) B3LYP/SVP
 --------------------------
 1/38=1,172=1/1;
 2/12=2,17=6,18=5,40=1/2;
 3/5=18,7=101,11=9,25=1,30=1,74=-5/1,2,3,8;
 4//1;
 5/5=2,38=5/2;
 8/6=1,10=1,108=1/1;
 9/41=1,42=1,70=2/14;
 6/7=2,8=2,9=2,10=2/1;
 99/5=1,9=1/99;
 --
 TD
 --
 Symbolic Z-matrix:
 Charge =  0 Multiplicity = 1
 8                    -4.28837  -4.98306   1.65053 
 8                     2.83142  -4.88563   1.19898 
 8                     6.85222  -1.69128   1.82449 
 8                     3.8473   -3.17613   0.08581 
 8                     7.62649  -0.24224   0.23939 
 8                    -3.00827   2.35704  -0.40688 
 7                    -0.28878  -0.54071  -0.69192 
 7                     1.54729   1.89091  -0.45535 
 7                    -3.15403  -3.13975   0.64569 
 7                    -0.81359   2.84298  -0.18302 
 6                     0.65201  -2.43675  -1.47592 
 6                     0.99615  -1.03405  -1.08948 
 6                    -0.74198  -2.58223  -1.27064 
 6                    -1.29434  -1.34662  -0.75296 
 6                     3.78278   1.5202   -0.35123 
 6                     2.4988    0.88783  -0.62782 
 6                     2.20677  -0.40921  -1.0605 
 6                     3.47002   2.79389   0.08748 
 6                     1.67992  -3.40956  -1.98915 
 6                    -5.46509  -2.75352   1.49619 
 6                    -3.49203  -1.84619   0.19163 
 6                     2.09136   3.06221  -0.07557 
 6                    -4.9048   -1.57043   0.56747 
 6                     5.11134   0.84026  -0.3799 
 6                    -2.57243  -1.01061  -0.42264 
 6                    -1.42065  -3.91195  -1.73226 
 6                    -4.24833  -3.83754   1.28762 
 6                     2.096    -4.46456  -0.96337 
 6                     5.24909  -0.22082   0.69023 
 6                     4.54024   3.83769   0.51431 
 6                     1.28929   4.13083   0.14138 
 6                    -6.78621  -3.41026   1.07341 
 6                    -5.7143   -0.58227   0.17887 
 6                    -0.09704   4.03679   0.1374 
 6                    -1.0903    5.13981   0.47164 
 6                    -2.30348   4.68252   0.32766 
 6                     2.93661  -4.11432   0.12251 
 6                    -5.56346   0.38995  -0.7916 
 6                     6.65362  -0.66009   0.87804 
 6                    -3.65284   5.35442   0.4245 
 6                    -2.21498   3.25298  -0.12153 
 6                    -0.72358   6.56633   1.01675 
 6                    -4.22139   5.80608  -0.9163 
 1                    -0.46845   0.40661  -0.32333 
 1                     3.0312   -0.90833  -1.22785 
 1                     2.54791  -2.90068  -2.42567 
 1                     1.25132  -3.79132  -2.86033 
 1                    -5.42714  -2.53281   2.43246 
 1                     5.15583   0.23649  -1.55994 
 1                     6.04951   1.66474  -0.39192 
 1                    -2.89225  -0.01696  -0.54085 
 1                     0.53079   1.83489  -0.7089 
 1                    -1.34413  -4.64757  -0.95391 
 1                    -2.54007  -3.8277   -2.02198 
 1                    -0.95578  -4.33467  -2.61769 
 1                    -2.38274  -3.73224   0.50096 
 1                     1.05365  -4.99889  -0.76241 
 1                     2.75857  -5.06162  -1.6705 
 1                     4.6122   -1.00364   0.42867 
 1                     4.93895   0.04935   1.81198 
 1                     4.66326   4.79463  -0.15604 
 1                     5.64614   3.45596   0.61554 
 1                     4.293     4.39421   1.47436 
 1                     1.9539    5.07689   0.16567 
 1                    -7.64544  -2.70756   1.33538 
 1                    -7.13088  -4.28248   1.63797 
 1                    -7.17637  -3.69977   0.06851 
 1                    -6.79686  -1.01817   0.57145 
 1                    -4.77169   1.19757  -0.28852 
 1                    -6.41976   0.9459   -1.35426 
 1                    -4.79767   0.14586  -1.65159 
 1                    -3.75682   6.18087   1.0059 
 1                    -4.3734    4.45026   0.75844 
 1                     0.03691   6.24629   1.89133 
 1                    -1.59788   7.10602   1.29019 
 1                    -0.18813   7.06117   0.15404 
 1                    -3.7223    6.66229  -1.17047 
 1                    -5.38344   6.13904  -0.81211 
 1                    -4.30978   4.89456  -1.79459 
 1                     3.39312  -4.56117   1.83542 
 1                     7.75045  -1.89183   1.59509 
 
 Stoichiometry    C33H38N4O6
 Framework group  C1[X(C33H38N4O6)]
 Deg. of freedom   237
 Full point group                 C1      NOp   1
 Largest Abelian subgroup         C1      NOp   1
 Largest concise Abelian subgroup C1      NOp   1
                         Standard orientation:                         
 ---------------------------------------------------------------------
 Center     Atomic      Atomic             Coordinates (Angstroms)
 Number     Number       Type             X           Y           Z
 ---------------------------------------------------------------------
      1          8           0        4.336950   -4.947669   -1.627098
      2          8           0       -2.785133   -4.910072   -1.203671
      3          8           0       -6.830415   -1.750904   -1.849700
      4          8           0       -3.819871   -3.207648   -0.097028
      5          8           0       -7.623201   -0.306205   -0.269808
      6          8           0        2.986478    2.384273    0.414377
      7          7           0        0.290584   -0.536062    0.693024
      8          7           0       -1.565116    1.879524    0.445637
      9          7           0        3.183047   -3.112600   -0.629459
     10          7           0        0.788654    2.851217    0.181177
     11          6           0       -0.637150   -2.438891    1.476138
     12          6           0       -0.991666   -1.039726    1.086267
     13          6           0        0.758819   -2.572815    1.276551
     14          6           0        1.302706   -1.333317    0.759218
     15          6           0       -3.796944    1.489681    0.333289
     16          6           0       -2.508747    0.868649    0.615856
     17          6           0       -2.207417   -0.425233    1.051602
     18          6           0       -3.493283    2.765348   -0.106074
     19          6           0       -1.658781   -3.419654    1.986765
     20          6           0        5.494077   -2.707989   -1.471442
     21          6           0        3.508267   -1.815562   -0.175989
     22          6           0       -2.117610    3.045604    0.061989
     23          6           0        4.920115   -1.528352   -0.546690
     24          6           0       -5.119786    0.798524    0.357746
     25          6           0        2.579191   -0.986935    0.433417
     26          6           0        1.446932   -3.896055    1.742810
     27          6           0        4.285760   -3.802001   -1.266053
     28          6           0       -2.061845   -4.479630    0.960924
     29          6           0       -5.244312   -0.265238   -0.711340
     30          6           0       -4.570638    3.799396   -0.538660
     31          6           0       -1.323787    4.120685   -0.153390
     32          6           0        6.819056   -3.352863   -1.042501
     33          6           0        5.719656   -0.532796   -0.156374
     34          6           0        0.063260    4.038437   -0.143824
     35          6           0        1.048436    5.149369   -0.475796
     36          6           0        2.264874    4.702610   -0.326376
     37          6           0       -2.901111   -4.138128   -0.128763
     38          6           0        5.556744    0.439522    0.812048
     39          6           0       -6.644302   -0.716697   -0.904012
     40          6           0        3.608855    5.385805   -0.418909
     41          6           0        2.186745    3.273023    0.124580
     42          6           0        0.671768    6.571931   -1.024463
     43          6           0        4.168260    5.844223    0.923440
     44          1           0        0.463659    0.412211    0.323744
     45          1           0       -3.028237   -0.931097    1.216460
     46          1           0       -2.532778   -2.917533    2.419120
     47          1           0       -1.230388   -3.796496    2.860196
     48          1           0        5.457953   -2.488969   -2.408187
     49          1           0       -5.163800    0.196114    1.538496
     50          1           0       -6.064969    1.615018    0.364863
     51          1           0        2.890089    0.009562    0.551414
     52          1           0       -0.549181    1.832513    0.703263
     53          1           0        1.379726   -4.633425    0.965259
     54          1           0        2.564449   -3.801880    2.036797
     55          1           0        0.982181   -4.321424    2.627027
     56          1           0        2.416254   -3.711418   -0.486883
     57          1           0       -1.014207   -5.005383    0.764860
     58          1           0       -2.722104   -5.081276    1.666338
     59          1           0       -4.601827   -1.042240   -0.446120
     60          1           0       -4.932053    0.005932   -1.832260
     61          1           0       -4.704416    4.756230    0.129782
     62          1           0       -5.672848    3.408144   -0.643661
     63          1           0       -4.324347    4.356612   -1.498556
     64          1           0       -1.996302    5.061028   -0.181696
     65          1           0        7.673308   -2.643269   -1.302145
     66          1           0        7.173335   -4.222950   -1.604412
     67          1           0        7.207697   -3.637592   -0.035651
     68          1           0        6.807420   -0.960050   -0.544051
     69          1           0        4.760130    1.239656    0.304660
     70          1           0        6.406069    1.003542    1.377241
     71          1           0        4.789669    0.190183    1.669386
     72          1           0        3.708100    6.212270   -1.001122
     73          1           0        4.338371    4.487317   -0.748679
     74          1           0       -0.082532    6.244167   -1.901546
     75          1           0        1.542519    7.118634   -1.295264
     76          1           0        0.128737    7.063451   -0.164594
     77          1           0        3.660920    6.696537    1.174378
     78          1           0        5.327843    6.186892    0.823322
     79          1           0        4.260927    4.934764    1.803420
     80          1           0       -3.347055   -4.591322   -1.842793
     81          1           0       -7.727809   -1.958747   -1.623535
 ---------------------------------------------------------------------
 Rotational constants (GHZ):           0.0746635           0.0558787           0.0342034
 Standard basis: SVP (5D, 7F)
 There are   835 symmetry adapted cartesian basis functions of A   symmetry.
 There are   792 symmetry adapted basis functions of A   symmetry.
   792 basis functions,  1341 primitive gaussians,   835 cartesian basis functions
   156 alpha electrons      156 beta electrons
       nuclear repulsion energy      5042.6277082173 Hartrees.
 NAtoms=   81 NActive=   81 NUniq=   81 SFac= 1.00D+00 NAtFMM=   60 NAOKFM=T Big=T
 Integral buffers will be    131072 words long.
 Regular integral format.
 Two-electron integral symmetry is turned on.
 One-electron integrals computed using PRISM.
 NBasis=   792 RedAO= T EigKep=  3.59D-04  NBF=   792
 NBsUse=   792 1.00D-06 EigRej= -1.00D+00 NBFU=   792
 ExpMin= 1.22D-01 ExpMax= 2.27D+03 ExpMxC= 3.41D+02 IAcc=3 IRadAn=         5 AccDes= 0.00D+00
 Harris functional with IExCor=  402 and IRadAn=       5 diagonalized for initial guess.
 HarFok:  IExCor=  402 AccDes= 0.00D+00 IRadAn=         5 IDoV= 1 UseB2=F ITyADJ=14
 ICtDFT=  3500011 ScaDFX=  1.000000  1.000000  1.000000  1.000000
 FoFCou: FMM=F IPFlag=           0 FMFlag=      100000 FMFlg1=        2001
         NFxFlg=           0 DoJE=T BraDBF=F KetDBF=T FulRan=T
         wScrn=  0.000000 ICntrl=       500 IOpCl=  0 I1Cent=   200000004 NGrid=           0
         NMat0=    1 NMatS0=      1 NMatT0=    0 NMatD0=    1 NMtDS0=    0 NMtDT0=    0
 Petite list used in FoFCou.
 Requested convergence on RMS density matrix=1.00D-08 within 128 cycles.
 Requested convergence on MAX density matrix=1.00D-06.
 Requested convergence on             energy=1.00D-06.
 No special actions if energy rises.
 Integral accuracy reduced to 1.0D-05 until final iterations.
 Initial convergence to 1.0D-05 achieved.  Increase integral accuracy.
 SCF Done:  E(RB3LYP) =  -1949.06658223     A.U. after   16 cycles
            NFock= 16  Conv=0.97D-08     -V/T= 2.0109
 DoSCS=F DFT=T ScalE2(SS,OS)=  1.000000  1.000000
 ExpMin= 1.22D-01 ExpMax= 2.27D+03 ExpMxC= 3.41D+02 IAcc=3 IRadAn=         5 AccDes= 0.00D+00
 HarFok:  IExCor=  205 AccDes= 0.00D+00 IRadAn=         5 IDoV=-2 UseB2=F ITyADJ=14
 ICtDFT= 12500011 ScaDFX=  1.000000  1.000000  1.000000  1.000000
 GSVD:  LWork=       -2193 too small for GESVD, short by        9890 words or        9890 for optimal perf.
 Range of M.O.s used for correlation:    44   792
 NBasis=   792 NAE=   156 NBE=   156 NFC=    43 NFV=     0
 NROrb=    749 NOA=   113 NOB=   113 NVA=   636 NVB=   636

 **** Warning!!: The smallest alpha delta epsilon is  0.72065498D-01

 Orbital symmetries:
       Occupied  (A) (A) (A) (A) (A) (A) (A) (A) (A) (A) (A) (A)
                 (A) (A) (A) (A) (A) (A) (A) (A) (A) (A) (A) (A)
                 (A) (A) (A) (A) (A) (A) (A) (A) (A) (A) (A) (A)
                 (A) (A) (A) (A) (A) (A) (A) (A) (A) (A) (A) (A)
                 (A) (A) (A) (A) (A) (A) (A) (A) (A) (A) (A) (A)
                 (A) (A) (A) (A) (A) (A) (A) (A) (A) (A) (A) (A)
                 (A) (A) (A) (A) (A) (A) (A) (A) (A) (A) (A) (A)
                 (A) (A) (A) (A) (A) (A) (A) (A) (A) (A) (A) (A)
                 (A) (A) (A) (A) (A) (A) (A) (A) (A) (A) (A) (A)
                 (A) (A) (A) (A) (A) (A) (A) (A) (A) (A) (A) (A)
                 (A) (A) (A) (A) (A) (A) (A) (A) (A) (A) (A) (A)
                 (A) (A) (A) (A) (A) (A) (A) (A) (A) (A) (A) (A)
                 (A) (A) (A) (A) (A) (A) (A) (A) (A) (A) (A) (A)
       Virtual   (A) (A) (A) (A) (A) (A) (A) (A) (A) (A) (A) (A)
                 (A) (A) (A) (A) (A) (A) (A) (A) (A) (A) (A) (A)
                 (A) (A) (A) (A) (A) (A) (A) (A) (A) (A) (A) (A)
                 (A) (A) (A) (A) (A) (A) (A) (A) (A) (A) (A) (A)
                 (A) (A) (A) (A) (A) (A) (A) (A) (A) (A) (A) (A)
                 (A) (A) (A) (A) (A) (A) (A) (A) (A) (A) (A) (A)
                 (A) (A) (A) (A) (A) (A) (A) (A) (A) (A) (A) (A)
                 (A) (A) (A) (A) (A) (A) (A) (A) (A) (A) (A) (A)
                 (A) (A) (A) (A) (A) (A) (A) (A) (A) (A) (A) (A)
                 (A) (A) (A) (A) (A) (A) (A) (A) (A) (A) (A) (A)
                 (A) (A) (A) (A) (A) (A) (A) (A) (A) (A) (A) (A)
                 (A) (A) (A) (A) (A) (A) (A) (A) (A) (A) (A) (A)
                 (A) (A) (A) (A) (A) (A) (A) (A) (A) (A) (A) (A)
                 (A) (A) (A) (A) (A) (A) (A) (A) (A) (A) (A) (A)
                 (A) (A) (A) (A) (A) (A) (A) (A) (A) (A) (A) (A)
                 (A) (A) (A) (A) (A) (A) (A) (A) (A) (A) (A) (A)
                 (A) (A) (A) (A) (A) (A) (A) (A) (A) (A) (A) (A)
                 (A) (A) (A) (A) (A) (A) (A) (A) (A) (A) (A) (A)
                 (A) (A) (A) (A) (A) (A) (A) (A) (A) (A) (A) (A)
                 (A) (A) (A) (A) (A) (A) (A) (A) (A) (A) (A) (A)
                 (A) (A) (A) (A) (A) (A) (A) (A) (A) (A) (A) (A)
                 (A) (A) (A) (A) (A) (A) (A) (A) (A) (A) (A) (A)
                 (A) (A) (A) (A) (A) (A) (A) (A) (A) (A) (A) (A)
                 (A) (A) (A) (A) (A) (A) (A) (A) (A) (A) (A) (A)
                 (A) (A) (A) (A) (A) (A) (A) (A) (A) (A) (A) (A)
                 (A) (A) (A) (A) (A) (A) (A) (A) (A) (A) (A) (A)
                 (A) (A) (A) (A) (A) (A) (A) (A) (A) (A) (A) (A)
                 (A) (A) (A) (A) (A) (A) (A) (A) (A) (A) (A) (A)
                 (A) (A) (A) (A) (A) (A) (A) (A) (A) (A) (A) (A)
                 (A) (A) (A) (A) (A) (A) (A) (A) (A) (A) (A) (A)
                 (A) (A) (A) (A) (A) (A) (A) (A) (A) (A) (A) (A)
                 (A) (A) (A) (A) (A) (A) (A) (A) (A) (A) (A) (A)
                 (A) (A) (A) (A) (A) (A) (A) (A) (A) (A) (A) (A)
                 (A) (A) (A) (A) (A) (A) (A) (A) (A) (A) (A) (A)
                 (A) (A) (A) (A) (A) (A) (A) (A) (A) (A) (A) (A)
                 (A) (A) (A) (A) (A) (A) (A) (A) (A) (A) (A) (A)
                 (A) (A) (A) (A) (A) (A) (A) (A) (A) (A) (A) (A)
                 (A) (A) (A) (A) (A) (A) (A) (A) (A) (A) (A) (A)
                 (A) (A) (A) (A) (A) (A) (A) (A) (A) (A) (A) (A)
                 (A) (A) (A) (A) (A) (A) (A) (A) (A) (A) (A) (A)
                 (A) (A) (A) (A) (A) (A) (A) (A) (A) (A) (A) (A)
                 (A) (A) (A) (A) (A) (A) (A) (A) (A) (A) (A) (A)
                 (A) (A) (A) (A) (A) (A) (A) (A) (A) (A) (A) (A)
                 (A) (A) (A) (A) (A) (A) (A) (A) (A) (A) (A) (A)
                 (A) (A) (A) (A) (A) (A) (A) (A) (A) (A) (A) (A)
                 (A) (A) (A) (A) (A) (A) (A) (A) (A) (A) (A) (A)
                 (A) (A) (A) (A) (A) (A) (A) (A) (A) (A) (A) (A)
                 (A) (A) (A) (A) (A) (A) (A) (A) (A) (A) (A) (A)
                 (A) (A) (A) (A) (A) (A) (A) (A) (A) (A) (A) (A)
                 (A) (A) (A) (A) (A) (A) (A) (A) (A) (A) (A) (A)
                 (A) (A) (A) (A) (A) (A) (A) (A) (A) (A) (A) (A)
                 (A) (A) (A) (A) (A) (A) (A) (A) (A) (A) (A) (A)
                 (A) (A) (A) (A) (A) (A) (A) (A) (A) (A) (A) (A)
     4 initial guesses have been made.
 Convergence on wavefunction:    0.001000000000000
 Iteration     1 Dimension     4 NMult     0 NNew      4
 CISAX will form     4 AO SS matrices at one time.
 Iteration     2 Dimension     6 NMult     4 NNew      2
 Iteration     3 Dimension     8 NMult     6 NNew      2
 Iteration     4 Dimension    10 NMult     8 NNew      2
 Iteration     5 Dimension    12 NMult    10 NNew      2
 Iteration     6 Dimension    14 NMult    12 NNew      2
 ***********************************************************************
 Excited states from <AA,BB:AA,BB> singles matrix:
 ***********************************************************************
 
 Ground to excited state transition densities written to RWF  633
 Ground to excited state transition electric dipole moments (Au):
       state          X           Y           Z        Dip. S.      Osc.
         1        -0.9289      2.6073     -0.1840      7.6947      0.3411
 Ground to excited state transition velocity dipole moments (Au):
       state          X           Y           Z        Dip. S.      Osc.
         1         0.0644     -0.1675      0.0127      0.0324      0.3244
 Ground to excited state transition magnetic dipole moments (Au):
       state          X           Y           Z
         1         0.3747      0.5784      2.4725
 Ground to excited state transition velocity quadrupole moments (Au):
       state          XX          YY          ZZ          XY          XZ          YZ
         1         0.4420     -0.5943      0.0715     -0.3782     -0.0672      0.0058
 <0|del|b> * <b|rxdel|0> + <0|del|b> * <b|delr+rdel|0>
 Rotatory Strengths (R) in cgs (10**-40 erg-esu-cm/Gauss)
       state          XX          YY          ZZ    R(velocity)    E-M Angle
         1      -433.1534    323.3190   -328.7755   -146.2033       95.12
 1/2[<0|r|b>*<b|rxdel|0> + (<0|rxdel|b>*<b|r|0>)*]
 Rotatory Strengths (R) in cgs (10**-40 erg-esu-cm/Gauss)
       state          XX          YY          ZZ     R(length)
         1       246.1323  -1066.4362    321.6468   -166.2191
  1/2[<0|del|b>*<b|r|0> + (<0|r|b>*<b|del|0>)*] (Au)
       state          X           Y           Z        Dip. S.   Osc.(frdel)
         1        -0.0599     -0.4367     -0.0023      0.4989      0.3326

 Excitation energies and oscillator strengths:
 
 Excited State   1:      Singlet-A      1.8096 eV  685.14 nm  f=0.3411  <S**2>=0.000
     156 ->157         0.70861
     156 <-157        -0.12542
 This state for optimization and/or second-order correction.
 Total Energy, E(TD-HF/TD-DFT) =  -1949.00007961    
 Copying the excited state density for this state as the 1-particle RhoCI density.
 SavETr:  write IOETrn=   770 NScale= 10 NData=  16 NLR=1 NState=    1 LETran=      28.

 **********************************************************************

            Population analysis using the SCF density.

 **********************************************************************

 Orbital symmetries:
       Occupied  (A) (A) (A) (A) (A) (A) (A) (A) (A) (A) (A) (A)
                 (A) (A) (A) (A) (A) (A) (A) (A) (A) (A) (A) (A)
                 (A) (A) (A) (A) (A) (A) (A) (A) (A) (A) (A) (A)
                 (A) (A) (A) (A) (A) (A) (A) (A) (A) (A) (A) (A)
                 (A) (A) (A) (A) (A) (A) (A) (A) (A) (A) (A) (A)
                 (A) (A) (A) (A) (A) (A) (A) (A) (A) (A) (A) (A)
                 (A) (A) (A) (A) (A) (A) (A) (A) (A) (A) (A) (A)
                 (A) (A) (A) (A) (A) (A) (A) (A) (A) (A) (A) (A)
                 (A) (A) (A) (A) (A) (A) (A) (A) (A) (A) (A) (A)
                 (A) (A) (A) (A) (A) (A) (A) (A) (A) (A) (A) (A)
                 (A) (A) (A) (A) (A) (A) (A) (A) (A) (A) (A) (A)
                 (A) (A) (A) (A) (A) (A) (A) (A) (A) (A) (A) (A)
                 (A) (A) (A) (A) (A) (A) (A) (A) (A) (A) (A) (A)
       Virtual   (A) (A) (A) (A) (A) (A) (A) (A) (A) (A) (A) (A)
                 (A) (A) (A) (A) (A) (A) (A) (A) (A) (A) (A) (A)
                 (A) (A) (A) (A) (A) (A) (A) (A) (A) (A) (A) (A)
                 (A) (A) (A) (A) (A) (A) (A) (A) (A) (A) (A) (A)
                 (A) (A) (A) (A) (A) (A) (A) (A) (A) (A) (A) (A)
                 (A) (A) (A) (A) (A) (A) (A) (A) (A) (A) (A) (A)
                 (A) (A) (A) (A) (A) (A) (A) (A) (A) (A) (A) (A)
                 (A) (A) (A) (A) (A) (A) (A) (A) (A) (A) (A) (A)
                 (A) (A) (A) (A) (A) (A) (A) (A) (A) (A) (A) (A)
                 (A) (A) (A) (A) (A) (A) (A) (A) (A) (A) (A) (A)
                 (A) (A) (A) (A) (A) (A) (A) (A) (A) (A) (A) (A)
                 (A) (A) (A) (A) (A) (A) (A) (A) (A) (A) (A) (A)
                 (A) (A) (A) (A) (A) (A) (A) (A) (A) (A) (A) (A)
                 (A) (A) (A) (A) (A) (A) (A) (A) (A) (A) (A) (A)
                 (A) (A) (A) (A) (A) (A) (A) (A) (A) (A) (A) (A)
                 (A) (A) (A) (A) (A) (A) (A) (A) (A) (A) (A) (A)
                 (A) (A) (A) (A) (A) (A) (A) (A) (A) (A) (A) (A)
                 (A) (A) (A) (A) (A) (A) (A) (A) (A) (A) (A) (A)
                 (A) (A) (A) (A) (A) (A) (A) (A) (A) (A) (A) (A)
                 (A) (A) (A) (A) (A) (A) (A) (A) (A) (A) (A) (A)
                 (A) (A) (A) (A) (A) (A) (A) (A) (A) (A) (A) (A)
                 (A) (A) (A) (A) (A) (A) (A) (A) (A) (A) (A) (A)
                 (A) (A) (A) (A) (A) (A) (A) (A) (A) (A) (A) (A)
                 (A) (A) (A) (A) (A) (A) (A) (A) (A) (A) (A) (A)
                 (A) (A) (A) (A) (A) (A) (A) (A) (A) (A) (A) (A)
                 (A) (A) (A) (A) (A) (A) (A) (A) (A) (A) (A) (A)
                 (A) (A) (A) (A) (A) (A) (A) (A) (A) (A) (A) (A)
                 (A) (A) (A) (A) (A) (A) (A) (A) (A) (A) (A) (A)
                 (A) (A) (A) (A) (A) (A) (A) (A) (A) (A) (A) (A)
                 (A) (A) (A) (A) (A) (A) (A) (A) (A) (A) (A) (A)
                 (A) (A) (A) (A) (A) (A) (A) (A) (A) (A) (A) (A)
                 (A) (A) (A) (A) (A) (A) (A) (A) (A) (A) (A) (A)
                 (A) (A) (A) (A) (A) (A) (A) (A) (A) (A) (A) (A)
                 (A) (A) (A) (A) (A) (A) (A) (A) (A) (A) (A) (A)
                 (A) (A) (A) (A) (A) (A) (A) (A) (A) (A) (A) (A)
                 (A) (A) (A) (A) (A) (A) (A) (A) (A) (A) (A) (A)
                 (A) (A) (A) (A) (A) (A) (A) (A) (A) (A) (A) (A)
                 (A) (A) (A) (A) (A) (A) (A) (A) (A) (A) (A) (A)
                 (A) (A) (A) (A) (A) (A) (A) (A) (A) (A) (A) (A)
                 (A) (A) (A) (A) (A) (A) (A) (A) (A) (A) (A) (A)
                 (A) (A) (A) (A) (A) (A) (A) (A) (A) (A) (A) (A)
                 (A) (A) (A) (A) (A) (A) (A) (A) (A) (A) (A) (A)
                 (A) (A) (A) (A) (A) (A) (A) (A) (A) (A) (A) (A)
                 (A) (A) (A) (A) (A) (A) (A) (A) (A) (A) (A) (A)
                 (A) (A) (A) (A) (A) (A) (A) (A) (A) (A) (A) (A)
                 (A) (A) (A) (A) (A) (A) (A) (A) (A) (A) (A) (A)
                 (A) (A) (A) (A) (A) (A) (A) (A) (A) (A) (A) (A)
                 (A) (A) (A) (A) (A) (A) (A) (A) (A) (A) (A) (A)
                 (A) (A) (A) (A) (A) (A) (A) (A) (A) (A) (A) (A)
                 (A) (A) (A) (A) (A) (A) (A) (A) (A) (A) (A) (A)
                 (A) (A) (A) (A) (A) (A) (A) (A) (A) (A) (A) (A)
                 (A) (A) (A) (A) (A) (A) (A) (A) (A) (A) (A) (A)
                 (A) (A) (A) (A) (A) (A) (A) (A) (A) (A) (A) (A)
 The electronic state is 1-A.
 Alpha  occ. eigenvalues --  -19.20591 -19.17031 -19.13561 -19.12847 -19.12752
 Alpha  occ. eigenvalues --  -19.10418 -14.38280 -14.37486 -14.35037 -14.28546
 Alpha  occ. eigenvalues --  -10.34581 -10.31979 -10.30303 -10.26633 -10.25820
 Alpha  occ. eigenvalues --  -10.23995 -10.23673 -10.23548 -10.22940 -10.22733
 Alpha  occ. eigenvalues --  -10.22599 -10.22363 -10.21361 -10.21142 -10.21040
 Alpha  occ. eigenvalues --  -10.21023 -10.20853 -10.20800 -10.20785 -10.20740
 Alpha  occ. eigenvalues --  -10.20547 -10.20453 -10.20401 -10.20146 -10.19944
 Alpha  occ. eigenvalues --  -10.19704 -10.19648 -10.19599 -10.19485 -10.19195
 Alpha  occ. eigenvalues --  -10.18549 -10.18481 -10.18408  -1.12615  -1.07867
 Alpha  occ. eigenvalues --   -1.04599  -1.00767  -0.99722  -0.98956  -0.98421
 Alpha  occ. eigenvalues --   -0.97705  -0.94628  -0.88584  -0.83906  -0.82438
 Alpha  occ. eigenvalues --   -0.82079  -0.81359  -0.79646  -0.79006  -0.78773
 Alpha  occ. eigenvalues --   -0.77145  -0.76679  -0.75809  -0.74518  -0.73091
 Alpha  occ. eigenvalues --   -0.71339  -0.70106  -0.69997  -0.68690  -0.67721
 Alpha  occ. eigenvalues --   -0.66760  -0.65252  -0.64567  -0.63552  -0.62745
 Alpha  occ. eigenvalues --   -0.60890  -0.59424  -0.58611  -0.57858  -0.57208
 Alpha  occ. eigenvalues --   -0.56568  -0.55700  -0.54292  -0.54071  -0.53591
 Alpha  occ. eigenvalues --   -0.52438  -0.51772  -0.50735  -0.50251  -0.50067
 Alpha  occ. eigenvalues --   -0.49703  -0.49039  -0.48506  -0.47998  -0.47523
 Alpha  occ. eigenvalues --   -0.47197  -0.46552  -0.46419  -0.46036  -0.45660
 Alpha  occ. eigenvalues --   -0.45173  -0.44885  -0.44293  -0.44162  -0.43874
 Alpha  occ. eigenvalues --   -0.43520  -0.43303  -0.42914  -0.42693  -0.42434
 Alpha  occ. eigenvalues --   -0.42259  -0.41699  -0.41466  -0.40958  -0.40794
 Alpha  occ. eigenvalues --   -0.40717  -0.40586  -0.40108  -0.39874  -0.39675
 Alpha  occ. eigenvalues --   -0.39582  -0.39139  -0.38815  -0.38575  -0.38102
 Alpha  occ. eigenvalues --   -0.37783  -0.37564  -0.37171  -0.36795  -0.36683
 Alpha  occ. eigenvalues --   -0.36373  -0.35931  -0.35474  -0.35166  -0.34857
 Alpha  occ. eigenvalues --   -0.34585  -0.34098  -0.33159  -0.32499  -0.32223
 Alpha  occ. eigenvalues --   -0.32130  -0.32051  -0.31517  -0.30582  -0.28958
 Alpha  occ. eigenvalues --   -0.27978  -0.27165  -0.26565  -0.26389  -0.25770
 Alpha  occ. eigenvalues --   -0.25296  -0.24668  -0.24175  -0.23431  -0.21589
 Alpha  occ. eigenvalues --   -0.17350
 Alpha virt. eigenvalues --   -0.10144  -0.05562  -0.04057  -0.03816  -0.00583
 Alpha virt. eigenvalues --   -0.00055   0.01922   0.02602   0.03910   0.04061
 Alpha virt. eigenvalues --    0.04301   0.04874   0.05373   0.05537   0.05967
 Alpha virt. eigenvalues --    0.06717   0.07020   0.07632   0.07831   0.08224
 Alpha virt. eigenvalues --    0.08362   0.08463   0.08855   0.09028   0.09197
 Alpha virt. eigenvalues --    0.09492   0.09787   0.10067   0.10195   0.10393
 Alpha virt. eigenvalues --    0.10544   0.10992   0.11514   0.11679   0.11865
 Alpha virt. eigenvalues --    0.12397   0.12805   0.13409   0.13468   0.14210
 Alpha virt. eigenvalues --    0.14769   0.15036   0.15123   0.15541   0.15823
 Alpha virt. eigenvalues --    0.16456   0.16813   0.16954   0.17273   0.17574
 Alpha virt. eigenvalues --    0.18085   0.18838   0.19134   0.19860   0.20275
 Alpha virt. eigenvalues --    0.20491   0.20703   0.21498   0.21584   0.21842
 Alpha virt. eigenvalues --    0.22245   0.22484   0.22774   0.23186   0.23622
 Alpha virt. eigenvalues --    0.24316   0.24737   0.25049   0.25308   0.25666
 Alpha virt. eigenvalues --    0.26293   0.26555   0.26988   0.27244   0.27464
 Alpha virt. eigenvalues --    0.27996   0.29005   0.29171   0.29853   0.30396
 Alpha virt. eigenvalues --    0.31020   0.31427   0.32219   0.32540   0.32991
 Alpha virt. eigenvalues --    0.33545   0.34165   0.34390   0.35272   0.35481
 Alpha virt. eigenvalues --    0.37049   0.37219   0.37758   0.38058   0.38493
 Alpha virt. eigenvalues --    0.38956   0.39475   0.39588   0.40398   0.41166
 Alpha virt. eigenvalues --    0.41588   0.42000   0.42146   0.42793   0.42938
 Alpha virt. eigenvalues --    0.43603   0.43713   0.44120   0.44347   0.44599
 Alpha virt. eigenvalues --    0.44943   0.45243   0.45587   0.45798   0.46334
 Alpha virt. eigenvalues --    0.46506   0.46822   0.47031   0.47350   0.48041
 Alpha virt. eigenvalues --    0.48133   0.48564   0.48857   0.49350   0.49396
 Alpha virt. eigenvalues --    0.49628   0.49924   0.50456   0.50851   0.50927
 Alpha virt. eigenvalues --    0.51368   0.52010   0.52569   0.53318   0.53669
 Alpha virt. eigenvalues --    0.54265   0.54490   0.54975   0.55192   0.55419
 Alpha virt. eigenvalues --    0.56097   0.56230   0.56770   0.57013   0.57133
 Alpha virt. eigenvalues --    0.57264   0.57513   0.57745   0.58393   0.58476
 Alpha virt. eigenvalues --    0.58905   0.59105   0.59147   0.59885   0.60099
 Alpha virt. eigenvalues --    0.60537   0.60790   0.60860   0.61272   0.61514
 Alpha virt. eigenvalues --    0.61959   0.62075   0.62594   0.62838   0.63030
 Alpha virt. eigenvalues --    0.63300   0.63586   0.63749   0.63803   0.64055
 Alpha virt. eigenvalues --    0.64341   0.64461   0.64581   0.64870   0.65125
 Alpha virt. eigenvalues --    0.65344   0.65919   0.65954   0.66207   0.66612
 Alpha virt. eigenvalues --    0.66988   0.67018   0.67646   0.67739   0.67752
 Alpha virt. eigenvalues --    0.68098   0.68312   0.68737   0.68813   0.69069
 Alpha virt. eigenvalues --    0.69576   0.69722   0.69997   0.70580   0.70838
 Alpha virt. eigenvalues --    0.71475   0.71907   0.72050   0.72241   0.72380
 Alpha virt. eigenvalues --    0.72616   0.73130   0.73290   0.73851   0.74218
 Alpha virt. eigenvalues --    0.74438   0.74934   0.75449   0.75767   0.76417
 Alpha virt. eigenvalues --    0.76570   0.76928   0.77473   0.77961   0.78287
 Alpha virt. eigenvalues --    0.78575   0.78710   0.79098   0.80077   0.80292
 Alpha virt. eigenvalues --    0.80635   0.81323   0.82000   0.82169   0.82676
 Alpha virt. eigenvalues --    0.83109   0.83989   0.84377   0.85227   0.86280
 Alpha virt. eigenvalues --    0.86952   0.87736   0.87961   0.88812   0.90014
 Alpha virt. eigenvalues --    0.90604   0.91207   0.91511   0.92220   0.92763
 Alpha virt. eigenvalues --    0.93199   0.93310   0.94583   0.94946   0.95332
 Alpha virt. eigenvalues --    0.96059   0.96088   0.96246   0.97061   0.97269
 Alpha virt. eigenvalues --    0.97796   0.98324   0.98765   0.98907   0.99433
 Alpha virt. eigenvalues --    1.00305   1.00661   1.01860   1.02635   1.03284
 Alpha virt. eigenvalues --    1.04167   1.04600   1.05314   1.07204   1.07341
 Alpha virt. eigenvalues --    1.07849   1.08302   1.08840   1.08939   1.10136
 Alpha virt. eigenvalues --    1.11311   1.11782   1.12888   1.13082   1.13819
 Alpha virt. eigenvalues --    1.14206   1.14611   1.15297   1.15743   1.16024
 Alpha virt. eigenvalues --    1.16542   1.17294   1.18442   1.19834   1.20103
 Alpha virt. eigenvalues --    1.20258   1.21109   1.21929   1.23097   1.23795
 Alpha virt. eigenvalues --    1.24271   1.24334   1.25479   1.25669   1.26789
 Alpha virt. eigenvalues --    1.27402   1.27655   1.28720   1.29239   1.30559
 Alpha virt. eigenvalues --    1.31195   1.31682   1.32427   1.32542   1.32919
 Alpha virt. eigenvalues --    1.32983   1.34968   1.35588   1.36081   1.36476
 Alpha virt. eigenvalues --    1.37158   1.37352   1.38394   1.38536   1.39325
 Alpha virt. eigenvalues --    1.40108   1.40706   1.41313   1.41495   1.42246
 Alpha virt. eigenvalues --    1.43420   1.43606   1.44144   1.44684   1.45789
 Alpha virt. eigenvalues --    1.46007   1.46285   1.46629   1.46898   1.47369
 Alpha virt. eigenvalues --    1.48113   1.49526   1.49994   1.50922   1.51170
 Alpha virt. eigenvalues --    1.51459   1.52452   1.52675   1.52870   1.53385
 Alpha virt. eigenvalues --    1.53689   1.54604   1.54978   1.55433   1.56619
 Alpha virt. eigenvalues --    1.56991   1.58321   1.58638   1.59158   1.60155
 Alpha virt. eigenvalues --    1.60656   1.61057   1.61199   1.61426   1.62283
 Alpha virt. eigenvalues --    1.62446   1.62604   1.63420   1.64055   1.64413
 Alpha virt. eigenvalues --    1.64671   1.64852   1.65415   1.65781   1.66199
 Alpha virt. eigenvalues --    1.66411   1.67039   1.67585   1.68317   1.68554
 Alpha virt. eigenvalues --    1.69433   1.69984   1.70300   1.70888   1.71127
 Alpha virt. eigenvalues --    1.71478   1.71617   1.72198   1.72947   1.73209
 Alpha virt. eigenvalues --    1.73912   1.74389   1.74543   1.74817   1.75246
 Alpha virt. eigenvalues --    1.75735   1.75890   1.76315   1.76835   1.77152
 Alpha virt. eigenvalues --    1.77490   1.78331   1.78597   1.79145   1.79584
 Alpha virt. eigenvalues --    1.79764   1.79973   1.80223   1.80449   1.81140
 Alpha virt. eigenvalues --    1.81669   1.81970   1.82307   1.82694   1.83107
 Alpha virt. eigenvalues --    1.83528   1.83976   1.84265   1.84449   1.84788
 Alpha virt. eigenvalues --    1.85202   1.85847   1.86206   1.86503   1.86977
 Alpha virt. eigenvalues --    1.87217   1.87758   1.88013   1.88584   1.88761
 Alpha virt. eigenvalues --    1.89382   1.89500   1.90041   1.90254   1.90727
 Alpha virt. eigenvalues --    1.90970   1.91310   1.91898   1.92398   1.92918
 Alpha virt. eigenvalues --    1.92988   1.93789   1.94004   1.94378   1.94768
 Alpha virt. eigenvalues --    1.95282   1.96239   1.96637   1.97218   1.97501
 Alpha virt. eigenvalues --    1.98261   1.98824   1.98988   2.00240   2.00980
 Alpha virt. eigenvalues --    2.01728   2.02769   2.02996   2.03278   2.03642
 Alpha virt. eigenvalues --    2.03783   2.04177   2.05403   2.06138   2.06523
 Alpha virt. eigenvalues --    2.06673   2.07106   2.08291   2.08913   2.09493
 Alpha virt. eigenvalues --    2.09828   2.10032   2.10643   2.11002   2.11437
 Alpha virt. eigenvalues --    2.12171   2.12468   2.13188   2.14500   2.14604
 Alpha virt. eigenvalues --    2.14816   2.16326   2.17080   2.18042   2.18243
 Alpha virt. eigenvalues --    2.19323   2.20694   2.20957   2.21747   2.22016
 Alpha virt. eigenvalues --    2.22236   2.22779   2.23657   2.24424   2.25481
 Alpha virt. eigenvalues --    2.25698   2.26306   2.26834   2.28027   2.28221
 Alpha virt. eigenvalues --    2.28392   2.29535   2.29983   2.30608   2.31702
 Alpha virt. eigenvalues --    2.32322   2.33044   2.34263   2.34397   2.34740
 Alpha virt. eigenvalues --    2.35455   2.35504   2.35819   2.36077   2.36874
 Alpha virt. eigenvalues --    2.37383   2.38990   2.39343   2.40527   2.41260
 Alpha virt. eigenvalues --    2.41503   2.41899   2.42559   2.42861   2.43501
 Alpha virt. eigenvalues --    2.44185   2.44951   2.45710   2.47079   2.47177
 Alpha virt. eigenvalues --    2.47857   2.48502   2.48898   2.49598   2.49807
 Alpha virt. eigenvalues --    2.50371   2.51241   2.52476   2.53269   2.53575
 Alpha virt. eigenvalues --    2.54872   2.54983   2.55685   2.56289   2.57765
 Alpha virt. eigenvalues --    2.58194   2.59120   2.60667   2.61475   2.62703
 Alpha virt. eigenvalues --    2.62968   2.63704   2.64556   2.64686   2.64717
 Alpha virt. eigenvalues --    2.65939   2.66919   2.67689   2.68083   2.68490
 Alpha virt. eigenvalues --    2.69324   2.69587   2.70496   2.70889   2.71356
 Alpha virt. eigenvalues --    2.71889   2.72283   2.73131   2.73228   2.73514
 Alpha virt. eigenvalues --    2.74551   2.75100   2.75166   2.76078   2.76550
 Alpha virt. eigenvalues --    2.78190   2.78799   2.79918   2.80302   2.80708
 Alpha virt. eigenvalues --    2.81658   2.82667   2.83123   2.83853   2.84225
 Alpha virt. eigenvalues --    2.85035   2.85710   2.86493   2.87717   2.87852
 Alpha virt. eigenvalues --    2.88131   2.89619   2.90027   2.90456   2.91513
 Alpha virt. eigenvalues --    2.91961   2.92888   2.94557   2.95110   2.96387
 Alpha virt. eigenvalues --    2.96910   2.97866   2.99366   2.99457   3.00858
 Alpha virt. eigenvalues --    3.01703   3.03337   3.03660   3.05547   3.06223
 Alpha virt. eigenvalues --    3.06685   3.08122   3.09564   3.10896   3.12004
 Alpha virt. eigenvalues --    3.13244   3.13797   3.14532   3.15496   3.15684
 Alpha virt. eigenvalues --    3.17377   3.17773   3.19165   3.20632   3.21587
 Alpha virt. eigenvalues --    3.23404   3.24034   3.24469   3.26947   3.32030
 Alpha virt. eigenvalues --    3.32891   3.41560   3.43258   3.45782   3.46100
 Alpha virt. eigenvalues --    3.47517   3.53623   3.55133   3.55783   3.57790
 Alpha virt. eigenvalues --    3.59117   3.62449   3.64861   3.71905   3.79138
 Alpha virt. eigenvalues --    3.80800
          Condensed to atoms (all electrons):
 Mulliken charges:
               1
     1  O   -0.187067
     2  O   -0.097487
     3  O   -0.209780
     4  O   -0.316166
     5  O   -0.252964
     6  O   -0.213824
     7  N   -0.043746
     8  N   -0.093290
     9  N   -0.156924
    10  N   -0.392291
    11  C   -0.118143
    12  C    0.115316
    13  C   -0.186571
    14  C    0.118357
    15  C   -0.019451
    16  C    0.006853
    17  C    0.061313
    18  C   -0.082486
    19  C    0.141725
    20  C    0.057077
    21  C    0.146661
    22  C    0.066681
    23  C   -0.072169
    24  C   -0.069728
    25  C   -0.110479
    26  C    0.051540
    27  C    0.124611
    28  C    0.018281
    29  C    0.063701
    30  C   -0.009206
    31  C   -0.156309
    32  C    0.005540
    33  C   -0.080268
    34  C    0.142043
    35  C   -0.129312
    36  C   -0.153982
    37  C    0.151985
    38  C   -0.065225
    39  C    0.150979
    40  C    0.102232
    41  C    0.179472
    42  C    0.092641
    43  C   -0.052120
    44  H    0.136450
    45  H   -0.102844
    46  H    0.005057
    47  H   -0.016771
    48  H   -0.014741
    49  H    0.046901
    50  H    0.066854
    51  H   -0.037776
    52  H    0.147105
    53  H    0.023563
    54  H    0.042766
    55  H    0.013101
    56  H    0.111086
    57  H    0.058043
    58  H    0.070928
    59  H    0.029778
    60  H    0.057376
    61  H    0.028388
    62  H    0.034486
    63  H    0.019229
    64  H   -0.004443
    65  H    0.007076
    66  H    0.018477
    67  H    0.021185
    68  H    0.020038
    69  H    0.109743
    70  H    0.046560
    71  H    0.044060
    72  H   -0.028562
    73  H    0.027298
    74  H    0.056190
    75  H    0.012821
    76  H    0.037665
    77  H   -0.005523
    78  H    0.020680
    79  H    0.051337
    80  H    0.158719
    81  H    0.159681
 Sum of Mulliken charges =  -0.00000
 Mulliken charges with hydrogens summed into heavy atoms:
               1
     1  O   -0.187067
     2  O    0.061231
     3  O   -0.050100
     4  O   -0.316166
     5  O   -0.252964
     6  O   -0.213824
     7  N    0.092704
     8  N    0.053815
     9  N   -0.045838
    10  N   -0.392291
    11  C   -0.118143
    12  C    0.115316
    13  C   -0.186571
    14  C    0.118357
    15  C   -0.019451
    16  C    0.006853
    17  C   -0.041531
    18  C   -0.082486
    19  C    0.130011
    20  C    0.042337
    21  C    0.146661
    22  C    0.066681
    23  C   -0.072169
    24  C    0.044028
    25  C   -0.148255
    26  C    0.130969
    27  C    0.124611
    28  C    0.147252
    29  C    0.150855
    30  C    0.072897
    31  C   -0.160752
    32  C    0.052277
    33  C   -0.060230
    34  C    0.142043
    35  C   -0.129312
    36  C   -0.153982
    37  C    0.151985
    38  C    0.135138
    39  C    0.150979
    40  C    0.100968
    41  C    0.179472
    42  C    0.199317
    43  C    0.014374
 Electronic spatial extent (au):  <R**2>=          30366.3207
 Charge=              0.0000 electrons
 Dipole moment (field-independent basis, Debye):
    X=              0.2242    Y=             -0.9747    Z=              0.3959  Tot=              1.0757
 Quadrupole moment (field-independent basis, Debye-Ang):
   XX=           -264.1940   YY=           -234.7880   ZZ=           -252.1237
   XY=             14.5968   XZ=              6.3986   YZ=            -14.1972
 Traceless Quadrupole moment (field-independent basis, Debye-Ang):
   XX=            -13.8254   YY=             15.5806   ZZ=             -1.7552
   XY=             14.5968   XZ=              6.3986   YZ=            -14.1972
 Octapole moment (field-independent basis, Debye-Ang**2):
  XXX=            185.6268  YYY=            104.1674  ZZZ=            -22.2650  XYY=           -135.4545
  XXY=            -38.7250  XXZ=            -47.3216  XZZ=            -41.0844  YZZ=            -50.0499
  YYZ=             33.3003  XYZ=            -31.3986
 Hexadecapole moment (field-independent basis, Debye-Ang**3):
 XXXX=         -22744.8738 YYYY=         -16365.3058 ZZZZ=          -1628.3816 XXXY=            402.4861
 XXXZ=            457.6747 YYYX=            997.0443 YYYZ=           -378.4075 ZZZX=             57.9811
 ZZZY=             59.9930 XXYY=          -6360.0980 XXZZ=          -3926.0139 YYZZ=          -3079.4217
 XXYZ=              0.8905 YYXZ=            194.6271 ZZXY=            161.8615
 N-N= 5.042627708217D+03 E-N=-1.461594131994D+04  KE= 1.928089880773D+03
 1\1\GINC-PADAWAN\SP\RB3LYP TD-FC\SVP\C33H38N4O6\PADAWAN\28-Jun-2019\0\
 \# td=(NStates=1) B3LYP/SVP\\TD\\0,1\O,0,-4.2883703478,-4.9830626775,1
 .6505290813\O,0,2.8314171704,-4.8856298698,1.1989840357\O,0,6.85222152
 65,-1.6912763973,1.824485128\O,0,3.8472997875,-3.1761256376,0.08580524
 11\O,0,7.6264921858,-0.2422441195,0.2393879061\O,0,-3.0082664127,2.357
 0437552,-0.4068822496\N,0,-0.2887758723,-0.5407082639,-0.6919162045\N,
 0,1.547293222,1.8909095235,-0.4553471123\N,0,-3.1540273917,-3.13974508
 75,0.6456908877\N,0,-0.8135898547,2.8429754469,-0.183022148\C,0,0.6520
 07465,-2.4367516336,-1.4759198871\C,0,0.9961525176,-1.0340506368,-1.08
 94777967\C,0,-0.7419783265,-2.5822265849,-1.2706391266\C,0,-1.29433985
 6,-1.3466249739,-0.7529644264\C,0,3.7827767385,1.520195186,-0.35122938
 97\C,0,2.498801986,0.8878306086,-0.6278169667\C,0,2.2067659268,-0.4092
 081787,-1.0604955242\C,0,3.4700176419,2.7938891911,0.087476738\C,0,1.6
 79919397,-3.4095626576,-1.9891462602\C,0,-5.4650854152,-2.753520967,1.
 496186883\C,0,-3.4920330626,-1.8461895949,0.1916250943\C,0,2.091363448
 4,3.0622062148,-0.0755699336\C,0,-4.9048031766,-1.5704260065,0.5674707
 91\C,0,5.1113363955,0.8402589428,-0.3798969484\C,0,-2.5724320589,-1.01
 06096164,-0.4226387377\C,0,-1.4206517273,-3.9119509482,-1.7322635432\C
 ,0,-4.2483345019,-3.8375379856,1.287623888\C,0,2.0960007338,-4.4645554
 792,-0.9633655634\C,0,5.2490937118,-0.2208202055,0.6902315704\C,0,4.54
 02400853,3.837686618,0.5143136317\C,0,1.2892876072,4.1308276331,0.1413
 758582\C,0,-6.7862132719,-3.4102558054,1.0734064027\C,0,-5.7143010107,
 -0.5822740114,0.1788650534\C,0,-0.0970376231,4.036791929,0.1373955515\
 C,0,-1.090304129,5.1398115149,0.4716356291\C,0,-2.3034798217,4.6825197
 534,0.3276586719\C,0,2.936610243,-4.1143241026,0.1225099402\C,0,-5.563
 4600555,0.389954284,-0.7916006249\C,0,6.6536152405,-0.6600914787,0.878
 0387021\C,0,-3.6528428272,5.3544165002,0.4244969604\C,0,-2.2149810497,
 3.252980259,-0.1215279226\C,0,-0.7235829494,6.5663323032,1.0167507267\
 C,0,-4.2213917018,5.8060765644,-0.9163007216\H,0,-0.4684484297,0.40660
 75266,-0.3233320729\H,0,3.031200481,-0.9083289741,-1.2278528727\H,0,2.
 5479146728,-2.9006816648,-2.425669114\H,0,1.2513161378,-3.7913232432,-
 2.8603343935\H,0,-5.4271444417,-2.5328119059,2.4324637863\H,0,5.155828
 0953,0.2364930307,-1.5599363409\H,0,6.0495135188,1.6647360017,-0.39192
 27669\H,0,-2.8922454422,-0.0169639061,-0.5408544829\H,0,0.5307903096,1
 .8348933332,-0.7088983353\H,0,-1.3441291487,-4.6475693274,-0.953914901
 3\H,0,-2.5400741184,-3.8277033567,-2.0219803311\H,0,-0.955780758,-4.33
 46705359,-2.617687358\H,0,-2.3827406604,-3.732242955,0.5009627615\H,0,
 1.0536461939,-4.9988925876,-0.7624116311\H,0,2.7585719616,-5.061620268
 9,-1.6705024321\H,0,4.6121964526,-1.0036415276,0.4286726034\H,0,4.9389
 482402,0.0493509738,1.811979001\H,0,4.6632568513,4.7946298794,-0.15603
 69755\H,0,5.6461377055,3.4559631295,0.6155373433\H,0,4.2929963322,4.39
 42148936,1.4743631532\H,0,1.9538961682,5.0768868661,0.165667642\H,0,-7
 .6454361119,-2.7075558391,1.3353848081\H,0,-7.1308771516,-4.2824846306
 ,1.6379696374\H,0,-7.1763733343,-3.6997673928,0.0685089393\H,0,-6.7968
 642087,-1.0181727258,0.5714451456\H,0,-4.7716861407,1.1975745784,-0.28
 85161129\H,0,-6.4197603534,0.9459036654,-1.3542597421\H,0,-4.797669078
 9,0.1458647487,-1.651591924\H,0,-3.7568176673,6.1808724923,1.005897466
 2\H,0,-4.3733987781,4.4502573576,0.7584418705\H,0,0.036914547,6.246285
 1939,1.8913289745\H,0,-1.5978758979,7.1060240571,1.2901883705\H,0,-0.1
 88129645,7.0611684025,0.1540363607\H,0,-3.722300137,6.6622938551,-1.17
 04712496\H,0,-5.3834410513,6.1390370198,-0.8121110883\H,0,-4.309784455
 3,4.8945596263,-1.7945889669\H,0,3.3931177123,-4.5611723297,1.83542432
 48\H,0,7.7504530699,-1.8918285719,1.5950868917\\Version=ES64L-G16RevA.
 03\State=1-A\HF=-1949.0665822\RMSD=9.738e-09\PG=C01 [X(C33H38N4O6)]\\@


 BETTER TO HUNT IN FIELDS, FOR HEALTH UNBOUGHT
 THAN FEE THE DOCTOR FOR A NAUSEOUS DRAUGHT.
 THE WISE, FOR CURE, ON EXERCISE DEPEND;
 GOD NEVER MADE HIS WORK FOR MAN TO MEND.
     -- JOHN DRYDEN (1631-1700)
 Job cpu time:       0 days  3 hours 41 minutes 22.5 seconds.
 Elapsed time:       0 days  2 hours 27 minutes 12.9 seconds.
 File lengths (MBytes):  RWF=   2591 Int=      0 D2E=      0 Chk=     65 Scr=      1
 Normal termination of Gaussian 16 at Fri Jun 28 15:59:26 2019.
