 Entering Gaussian System, Link 0=g16
 Input=Geometria-231-.com
 Output=Geometria-231-.log
 Initial command:
 /usr/local/g16/l1.exe "/home/padawan/israel-mol/phycocyanobilin/spectra/emi/Gau-5401.inp" -scrdir="/home/padawan/israel-mol/phycocyanobilin/spectra/emi/"
 Entering Link 1 = /usr/local/g16/l1.exe PID=      5403.
  
 Copyright (c) 1988,1990,1992,1993,1995,1998,2003,2009,2016,
            Gaussian, Inc.  All Rights Reserved.
  
 This is part of the Gaussian(R) 16 program.  It is based on
 the Gaussian(R) 09 system (copyright 2009, Gaussian, Inc.),
 the Gaussian(R) 03 system (copyright 2003, Gaussian, Inc.),
 the Gaussian(R) 98 system (copyright 1998, Gaussian, Inc.),
 the Gaussian(R) 94 system (copyright 1995, Gaussian, Inc.),
 the Gaussian 92(TM) system (copyright 1992, Gaussian, Inc.),
 the Gaussian 90(TM) system (copyright 1990, Gaussian, Inc.),
 the Gaussian 88(TM) system (copyright 1988, Gaussian, Inc.),
 the Gaussian 86(TM) system (copyright 1986, Carnegie Mellon
 University), and the Gaussian 82(TM) system (copyright 1983,
 Carnegie Mellon University). Gaussian is a federally registered
 trademark of Gaussian, Inc.
  
 This software contains proprietary and confidential information,
 including trade secrets, belonging to Gaussian, Inc.
  
 This software is provided under written license and may be
 used, copied, transmitted, or stored only in accord with that
 written license.
  
 The following legend is applicable only to US Government
 contracts under FAR:
  
                    RESTRICTED RIGHTS LEGEND
  
 Use, reproduction and disclosure by the US Government is
 subject to restrictions as set forth in subparagraphs (a)
 and (c) of the Commercial Computer Software - Restricted
 Rights clause in FAR 52.227-19.
  
 Gaussian, Inc.
 340 Quinnipiac St., Bldg. 40, Wallingford CT 06492
  
  
 ---------------------------------------------------------------
 Warning -- This program may not be used in any manner that
 competes with the business of Gaussian, Inc. or will provide
 assistance to any competitor of Gaussian, Inc.  The licensee
 of this program is prohibited from giving any competitor of
 Gaussian, Inc. access to this program.  By using this program,
 the user acknowledges that Gaussian, Inc. is engaged in the
 business of creating and licensing software in the field of
 computational chemistry and represents and warrants to the
 licensee that it is not a competitor of Gaussian, Inc. and that
 it will not use this program in any manner prohibited above.
 ---------------------------------------------------------------
  

 Cite this work as:
 Gaussian 16, Revision A.03,
 M. J. Frisch, G. W. Trucks, H. B. Schlegel, G. E. Scuseria, 
 M. A. Robb, J. R. Cheeseman, G. Scalmani, V. Barone, 
 G. A. Petersson, H. Nakatsuji, X. Li, M. Caricato, A. V. Marenich, 
 J. Bloino, B. G. Janesko, R. Gomperts, B. Mennucci, H. P. Hratchian, 
 J. V. Ortiz, A. F. Izmaylov, J. L. Sonnenberg, D. Williams-Young, 
 F. Ding, F. Lipparini, F. Egidi, J. Goings, B. Peng, A. Petrone, 
 T. Henderson, D. Ranasinghe, V. G. Zakrzewski, J. Gao, N. Rega, 
 G. Zheng, W. Liang, M. Hada, M. Ehara, K. Toyota, R. Fukuda, 
 J. Hasegawa, M. Ishida, T. Nakajima, Y. Honda, O. Kitao, H. Nakai, 
 T. Vreven, K. Throssell, J. A. Montgomery, Jr., J. E. Peralta, 
 F. Ogliaro, M. J. Bearpark, J. J. Heyd, E. N. Brothers, K. N. Kudin, 
 V. N. Staroverov, T. A. Keith, R. Kobayashi, J. Normand, 
 K. Raghavachari, A. P. Rendell, J. C. Burant, S. S. Iyengar, 
 J. Tomasi, M. Cossi, J. M. Millam, M. Klene, C. Adamo, R. Cammi, 
 J. W. Ochterski, R. L. Martin, K. Morokuma, O. Farkas, 
 J. B. Foresman, and D. J. Fox, Gaussian, Inc., Wallingford CT, 2016.
 
 ******************************************
 Gaussian 16:  ES64L-G16RevA.03 25-Dec-2016
                29-Jun-2019 
 ******************************************
 %nproc=4
 Will use up to    4 processors via shared memory.
 %Mem=2GB
 --------------------------
 # td=(NStates=1) B3LYP/SVP
 --------------------------
 1/38=1,172=1/1;
 2/12=2,17=6,18=5,40=1/2;
 3/5=18,7=101,11=9,25=1,30=1,74=-5/1,2,3,8;
 4//1;
 5/5=2,38=5/2;
 8/6=1,10=1,108=1/1;
 9/41=1,42=1,70=2/14;
 6/7=2,8=2,9=2,10=2/1;
 99/5=1,9=1/99;
 --
 TD
 --
 Symbolic Z-matrix:
 Charge =  0 Multiplicity = 1
 8                    -4.4848   -4.89497   1.91753 
 8                     3.16236  -4.82172   1.0537 
 8                     6.93446  -1.52031   1.84123 
 8                     4.00742  -3.14303  -0.19681 
 8                     7.70767  -0.27683   0.13677 
 8                    -2.97011   2.33956  -0.3334 
 7                    -0.32322  -0.4957   -0.59936 
 7                     1.53357   1.87654  -0.55239 
 7                    -3.45588  -3.22504   0.63433 
 7                    -0.75172   2.84775   0.13811 
 6                     0.64038  -2.37044  -1.3613 
 6                     0.87613  -1.0381   -0.97431 
 6                    -0.75461  -2.73351  -1.18652 
 6                    -1.3133   -1.43207  -0.62184 
 6                     3.78464   1.48518  -0.28057 
 6                     2.47177   0.86918  -0.56413 
 6                     2.16025  -0.44522  -0.93114 
 6                     3.45994   2.76133   0.03533 
 6                     1.63579  -3.42189  -2.01304 
 6                    -5.52903  -2.69647   1.36513 
 6                    -3.65601  -1.89985   0.11017 
 6                     2.0188    3.07606   0.00398 
 6                    -5.11076  -1.61447   0.39437 
 6                     5.13015   0.87558  -0.38439 
 6                    -2.71092  -1.10587  -0.38153 
 6                    -1.4296   -3.93619  -1.66056 
 6                    -4.38873  -3.74988   1.35073 
 6                     2.15153  -4.4969   -1.04865 
 6                     5.39008   0.00079   0.78849 
 6                     4.53597   3.80644   0.44962 
 6                     1.22647   4.09899   0.43585 
 6                    -6.93282  -3.3758    0.8758 
 6                    -5.78748  -0.5644    0.0126 
 6                    -0.14722   3.98491   0.38047 
 6                    -1.04821   5.0809    0.49612 
 6                    -2.27007   4.59932   0.30002 
 6                     3.17852  -4.10231  -0.07106 
 6                    -5.40816   0.68079  -0.82674 
 6                     6.7519   -0.66216   0.7397 
 6                    -3.69372   5.29263   0.37074 
 6                    -2.09359   3.15148  -0.02115 
 6                    -0.64665   6.59166   0.74389 
 6                    -4.20317   5.67262  -1.09041 
 1                    -0.57197   0.40695  -0.00743 
 1                     3.26925  -1.14884  -1.04129 
 1                     2.49116  -2.99058  -2.35467 
 1                     1.20253  -3.96365  -2.8491 
 1                    -5.56123  -2.23299   2.46357 
 1                     5.20091  -0.07516  -1.26465 
 1                     5.86419   1.60913  -0.64215 
 1                    -2.96971   0.05201  -0.22296 
 1                     0.47662   1.701    -0.49069 
 1                    -1.27546  -4.80368  -1.06646 
 1                    -2.52815  -3.94223  -1.78667 
 1                    -0.90964  -4.41565  -2.55352 
 1                    -2.39636  -3.63189   0.39634 
 1                     1.52998  -5.09683  -0.25347 
 1                     2.4809   -5.48249  -1.82398 
 1                     4.66585  -0.64228   0.68675 
 1                     5.35101   0.30265   1.88024 
 1                     4.74723   4.59237  -0.35025 
 1                     5.52474   3.44121   0.75537 
 1                     4.17363   4.3599    1.2972 
 1                     1.68628   4.96956   0.6833 
 1                    -7.75903  -2.55078   0.97561 
 1                    -7.19648  -4.06      1.94355 
 1                    -7.05933  -3.81681  -0.19138 
 1                    -6.80953  -0.39833   0.42404 
 1                    -5.04926   1.55813  -0.18371 
 1                    -6.37868   0.78982  -1.39535 
 1                    -4.47733   0.55274  -1.57923 
 1                    -3.53272   6.11827   1.0848 
 1                    -4.61272   4.50844   0.64526 
 1                     0.04565   6.45064   1.74216 
 1                    -1.41989   7.1928    1.03695 
 1                     0.08871   6.89672   0.02697 
 1                    -3.42974   6.53899  -1.68792 
 1                    -5.32039   5.93877  -1.07341 
 1                    -4.32334   4.71082  -1.86536 
 1                     4.02775  -4.58462   1.62626 
 1                     7.78071  -1.78449   1.74166 
 
 Stoichiometry    C33H38N4O6
 Framework group  C1[X(C33H38N4O6)]
 Deg. of freedom   237
 Full point group                 C1      NOp   1
 Largest Abelian subgroup         C1      NOp   1
 Largest concise Abelian subgroup C1      NOp   1
                         Standard orientation:                         
 ---------------------------------------------------------------------
 Center     Atomic      Atomic             Coordinates (Angstroms)
 Number     Number       Type             X           Y           Z
 ---------------------------------------------------------------------
      1          8           0        4.557618   -4.826000   -1.924038
      2          8           0       -3.092560   -4.858135   -1.084776
      3          8           0       -6.905697   -1.603702   -1.870224
      4          8           0       -3.963856   -3.196318    0.170259
      5          8           0       -7.700816   -0.378088   -0.162906
      6          8           0        2.939672    2.377836    0.353345
      7          7           0        0.329882   -0.493482    0.598375
      8          7           0       -1.558133    1.854067    0.555667
      9          7           0        3.502485   -3.175529   -0.636956
     10          7           0        0.716238    2.858567   -0.123170
     11          6           0       -0.611125   -2.384172    1.349032
     12          6           0       -0.863340   -1.053403    0.967063
     13          6           0        0.789117   -2.727915    1.177217
     14          6           0        1.332253   -1.416706    0.620013
     15          6           0       -3.802915    1.434036    0.274837
     16          6           0       -2.482884    0.834291    0.559986
     17          6           0       -2.155087   -0.477452    0.922298
     18          6           0       -3.494207    2.715754   -0.034465
     19          6           0       -1.594550   -3.451609    1.992960
     20          6           0        5.570750   -2.616256   -1.358713
     21          6           0        3.683300   -1.850109   -0.106397
     22          6           0       -2.057487    3.049462    0.002941
     23          6           0        5.135031   -1.544180   -0.384629
     24          6           0       -5.140525    0.806166    0.371628
     25          6           0        2.726166   -1.070913    0.385672
     26          6           0        1.478527   -3.923590    1.648218
     27          6           0        4.444517   -3.684779   -1.352591
     28          6           0       -2.092856   -4.529132    1.022244
     29          6           0       -5.385050   -0.066849   -0.805877
     30          6           0       -4.582715    3.748291   -0.447706
     31          6           0       -1.277461    4.084719   -0.421902
     32          6           0        6.981876   -3.279024   -0.867767
     33          6           0        5.796498   -0.486899    0.003901
     34          6           0        0.097445    3.988648   -0.362555
     35          6           0        0.984142    5.097006   -0.470513
     36          6           0        2.211662    4.630852   -0.272531
     37          6           0       -3.121883   -4.143941    0.043037
     38          6           0        5.397979    0.749455    0.847404
     39          6           0       -6.738080   -0.748043   -0.764399
     40          6           0        3.626185    5.343316   -0.335615
     41          6           0        2.053430    3.179399    0.041768
     42          6           0        0.563315    6.603380   -0.713031
     43          6           0        4.125870    5.723632    1.128820
     44          1           0        0.568495    0.414981    0.011186
     45          1           0       -3.254981   -1.196220    1.025787
     46          1           0       -2.456661   -3.033200    2.333679
     47          1           0       -1.156792   -3.991223    2.828069
     48          1           0        5.600288   -2.147584   -2.455012
     49          1           0       -5.201451   -0.149281    1.247516
     50          1           0       -5.885082    1.528760    0.630182
     51          1           0        2.970047    0.090990    0.232971
     52          1           0       -0.498754    1.692858    0.496643
     53          1           0        1.337835   -4.790439    1.049859
     54          1           0        2.576652   -3.915590    1.777873
     55          1           0        0.962133   -4.413821    2.537397
     56          1           0        2.447719   -3.597457   -0.404185
     57          1           0       -1.460853   -5.117263    0.226489
     58          1           0       -2.411572   -5.522404    1.792206
     59          1           0       -4.652665   -0.700678   -0.704573
     60          1           0       -5.346513    0.240282   -1.896168
     61          1           0       -4.806958    4.527826    0.354871
     62          1           0       -5.565555    3.371300   -0.758258
     63          1           0       -4.225067    4.310225   -1.291691
     64          1           0       -1.748013    4.950172   -0.667068
     65          1           0        7.797355   -2.442669   -0.961309
     66          1           0        7.258027   -3.954972   -1.937618
     67          1           0        7.110834   -3.722986    0.197888
     68          1           0        6.817556   -0.305462   -0.403490
     69          1           0        5.029499    1.624758    0.207017
     70          1           0        6.365134    0.868869    1.419635
     71          1           0        4.466529    0.605744    1.596300
     72          1           0        3.456499    6.169863   -1.046597
     73          1           0        4.556411    4.572618   -0.610546
     74          1           0       -0.123847    6.457545   -1.714150
     75          1           0        1.329427    7.216016   -1.000961
     76          1           0       -0.178317    6.895494    0.002812
     77          1           0        3.339083    6.577021    1.727572
     78          1           0        5.239505    6.004667    1.116608
     79          1           0        4.256340    4.760123    1.899971
     80          1           0       -3.959195   -4.630045   -1.659116
     81          1           0       -7.748669   -1.879533   -1.774560
 ---------------------------------------------------------------------
 Rotational constants (GHZ):           0.0757972           0.0543883           0.0337885
 Standard basis: SVP (5D, 7F)
 There are   835 symmetry adapted cartesian basis functions of A   symmetry.
 There are   792 symmetry adapted basis functions of A   symmetry.
   792 basis functions,  1341 primitive gaussians,   835 cartesian basis functions
   156 alpha electrons      156 beta electrons
       nuclear repulsion energy      5028.9558088962 Hartrees.
 NAtoms=   81 NActive=   81 NUniq=   81 SFac= 1.00D+00 NAtFMM=   60 NAOKFM=T Big=T
 Integral buffers will be    131072 words long.
 Regular integral format.
 Two-electron integral symmetry is turned on.
 One-electron integrals computed using PRISM.
 NBasis=   792 RedAO= T EigKep=  3.51D-04  NBF=   792
 NBsUse=   792 1.00D-06 EigRej= -1.00D+00 NBFU=   792
 ExpMin= 1.22D-01 ExpMax= 2.27D+03 ExpMxC= 3.41D+02 IAcc=3 IRadAn=         5 AccDes= 0.00D+00
 Harris functional with IExCor=  402 and IRadAn=       5 diagonalized for initial guess.
 HarFok:  IExCor=  402 AccDes= 0.00D+00 IRadAn=         5 IDoV= 1 UseB2=F ITyADJ=14
 ICtDFT=  3500011 ScaDFX=  1.000000  1.000000  1.000000  1.000000
 FoFCou: FMM=F IPFlag=           0 FMFlag=      100000 FMFlg1=        2001
         NFxFlg=           0 DoJE=T BraDBF=F KetDBF=T FulRan=T
         wScrn=  0.000000 ICntrl=       500 IOpCl=  0 I1Cent=   200000004 NGrid=           0
         NMat0=    1 NMatS0=      1 NMatT0=    0 NMatD0=    1 NMtDS0=    0 NMtDT0=    0
 Petite list used in FoFCou.
 Requested convergence on RMS density matrix=1.00D-08 within 128 cycles.
 Requested convergence on MAX density matrix=1.00D-06.
 Requested convergence on             energy=1.00D-06.
 No special actions if energy rises.
 Integral accuracy reduced to 1.0D-05 until final iterations.
 Initial convergence to 1.0D-05 achieved.  Increase integral accuracy.
 SCF Done:  E(RB3LYP) =  -1949.01478867     A.U. after   17 cycles
            NFock= 17  Conv=0.50D-08     -V/T= 2.0113
 DoSCS=F DFT=T ScalE2(SS,OS)=  1.000000  1.000000
 ExpMin= 1.22D-01 ExpMax= 2.27D+03 ExpMxC= 3.41D+02 IAcc=3 IRadAn=         5 AccDes= 0.00D+00
 HarFok:  IExCor=  205 AccDes= 0.00D+00 IRadAn=         5 IDoV=-2 UseB2=F ITyADJ=14
 ICtDFT= 12500011 ScaDFX=  1.000000  1.000000  1.000000  1.000000
 GSVD:  LWork=       -2193 too small for GESVD, short by        9890 words or        9890 for optimal perf.
 Range of M.O.s used for correlation:    44   792
 NBasis=   792 NAE=   156 NBE=   156 NFC=    43 NFV=     0
 NROrb=    749 NOA=   113 NOB=   113 NVA=   636 NVB=   636

 **** Warning!!: The smallest alpha delta epsilon is  0.70637053D-01

 Orbital symmetries:
       Occupied  (A) (A) (A) (A) (A) (A) (A) (A) (A) (A) (A) (A)
                 (A) (A) (A) (A) (A) (A) (A) (A) (A) (A) (A) (A)
                 (A) (A) (A) (A) (A) (A) (A) (A) (A) (A) (A) (A)
                 (A) (A) (A) (A) (A) (A) (A) (A) (A) (A) (A) (A)
                 (A) (A) (A) (A) (A) (A) (A) (A) (A) (A) (A) (A)
                 (A) (A) (A) (A) (A) (A) (A) (A) (A) (A) (A) (A)
                 (A) (A) (A) (A) (A) (A) (A) (A) (A) (A) (A) (A)
                 (A) (A) (A) (A) (A) (A) (A) (A) (A) (A) (A) (A)
                 (A) (A) (A) (A) (A) (A) (A) (A) (A) (A) (A) (A)
                 (A) (A) (A) (A) (A) (A) (A) (A) (A) (A) (A) (A)
                 (A) (A) (A) (A) (A) (A) (A) (A) (A) (A) (A) (A)
                 (A) (A) (A) (A) (A) (A) (A) (A) (A) (A) (A) (A)
                 (A) (A) (A) (A) (A) (A) (A) (A) (A) (A) (A) (A)
       Virtual   (A) (A) (A) (A) (A) (A) (A) (A) (A) (A) (A) (A)
                 (A) (A) (A) (A) (A) (A) (A) (A) (A) (A) (A) (A)
                 (A) (A) (A) (A) (A) (A) (A) (A) (A) (A) (A) (A)
                 (A) (A) (A) (A) (A) (A) (A) (A) (A) (A) (A) (A)
                 (A) (A) (A) (A) (A) (A) (A) (A) (A) (A) (A) (A)
                 (A) (A) (A) (A) (A) (A) (A) (A) (A) (A) (A) (A)
                 (A) (A) (A) (A) (A) (A) (A) (A) (A) (A) (A) (A)
                 (A) (A) (A) (A) (A) (A) (A) (A) (A) (A) (A) (A)
                 (A) (A) (A) (A) (A) (A) (A) (A) (A) (A) (A) (A)
                 (A) (A) (A) (A) (A) (A) (A) (A) (A) (A) (A) (A)
                 (A) (A) (A) (A) (A) (A) (A) (A) (A) (A) (A) (A)
                 (A) (A) (A) (A) (A) (A) (A) (A) (A) (A) (A) (A)
                 (A) (A) (A) (A) (A) (A) (A) (A) (A) (A) (A) (A)
                 (A) (A) (A) (A) (A) (A) (A) (A) (A) (A) (A) (A)
                 (A) (A) (A) (A) (A) (A) (A) (A) (A) (A) (A) (A)
                 (A) (A) (A) (A) (A) (A) (A) (A) (A) (A) (A) (A)
                 (A) (A) (A) (A) (A) (A) (A) (A) (A) (A) (A) (A)
                 (A) (A) (A) (A) (A) (A) (A) (A) (A) (A) (A) (A)
                 (A) (A) (A) (A) (A) (A) (A) (A) (A) (A) (A) (A)
                 (A) (A) (A) (A) (A) (A) (A) (A) (A) (A) (A) (A)
                 (A) (A) (A) (A) (A) (A) (A) (A) (A) (A) (A) (A)
                 (A) (A) (A) (A) (A) (A) (A) (A) (A) (A) (A) (A)
                 (A) (A) (A) (A) (A) (A) (A) (A) (A) (A) (A) (A)
                 (A) (A) (A) (A) (A) (A) (A) (A) (A) (A) (A) (A)
                 (A) (A) (A) (A) (A) (A) (A) (A) (A) (A) (A) (A)
                 (A) (A) (A) (A) (A) (A) (A) (A) (A) (A) (A) (A)
                 (A) (A) (A) (A) (A) (A) (A) (A) (A) (A) (A) (A)
                 (A) (A) (A) (A) (A) (A) (A) (A) (A) (A) (A) (A)
                 (A) (A) (A) (A) (A) (A) (A) (A) (A) (A) (A) (A)
                 (A) (A) (A) (A) (A) (A) (A) (A) (A) (A) (A) (A)
                 (A) (A) (A) (A) (A) (A) (A) (A) (A) (A) (A) (A)
                 (A) (A) (A) (A) (A) (A) (A) (A) (A) (A) (A) (A)
                 (A) (A) (A) (A) (A) (A) (A) (A) (A) (A) (A) (A)
                 (A) (A) (A) (A) (A) (A) (A) (A) (A) (A) (A) (A)
                 (A) (A) (A) (A) (A) (A) (A) (A) (A) (A) (A) (A)
                 (A) (A) (A) (A) (A) (A) (A) (A) (A) (A) (A) (A)
                 (A) (A) (A) (A) (A) (A) (A) (A) (A) (A) (A) (A)
                 (A) (A) (A) (A) (A) (A) (A) (A) (A) (A) (A) (A)
                 (A) (A) (A) (A) (A) (A) (A) (A) (A) (A) (A) (A)
                 (A) (A) (A) (A) (A) (A) (A) (A) (A) (A) (A) (A)
                 (A) (A) (A) (A) (A) (A) (A) (A) (A) (A) (A) (A)
                 (A) (A) (A) (A) (A) (A) (A) (A) (A) (A) (A) (A)
                 (A) (A) (A) (A) (A) (A) (A) (A) (A) (A) (A) (A)
                 (A) (A) (A) (A) (A) (A) (A) (A) (A) (A) (A) (A)
                 (A) (A) (A) (A) (A) (A) (A) (A) (A) (A) (A) (A)
                 (A) (A) (A) (A) (A) (A) (A) (A) (A) (A) (A) (A)
                 (A) (A) (A) (A) (A) (A) (A) (A) (A) (A) (A) (A)
                 (A) (A) (A) (A) (A) (A) (A) (A) (A) (A) (A) (A)
                 (A) (A) (A) (A) (A) (A) (A) (A) (A) (A) (A) (A)
                 (A) (A) (A) (A) (A) (A) (A) (A) (A) (A) (A) (A)
                 (A) (A) (A) (A) (A) (A) (A) (A) (A) (A) (A) (A)
                 (A) (A) (A) (A) (A) (A) (A) (A) (A) (A) (A) (A)
                 (A) (A) (A) (A) (A) (A) (A) (A) (A) (A) (A) (A)
     4 initial guesses have been made.
 Convergence on wavefunction:    0.001000000000000
 Iteration     1 Dimension     4 NMult     0 NNew      4
 CISAX will form     4 AO SS matrices at one time.
 Iteration     2 Dimension     6 NMult     4 NNew      2
 Iteration     3 Dimension     8 NMult     6 NNew      2
 Iteration     4 Dimension    10 NMult     8 NNew      2
 Iteration     5 Dimension    12 NMult    10 NNew      2
 Iteration     6 Dimension    14 NMult    12 NNew      2
 Iteration     7 Dimension    16 NMult    14 NNew      2
 ***********************************************************************
 Excited states from <AA,BB:AA,BB> singles matrix:
 ***********************************************************************
 
 Ground to excited state transition densities written to RWF  633
 Ground to excited state transition electric dipole moments (Au):
       state          X           Y           Z        Dip. S.      Osc.
         1        -0.7605      2.5761     -0.1719      7.2443      0.3148
 Ground to excited state transition velocity dipole moments (Au):
       state          X           Y           Z        Dip. S.      Osc.
         1         0.0514     -0.1618      0.0094      0.0289      0.2957
 Ground to excited state transition magnetic dipole moments (Au):
       state          X           Y           Z
         1         0.3732      0.6004      2.3203
 Ground to excited state transition velocity quadrupole moments (Au):
       state          XX          YY          ZZ          XY          XZ          YZ
         1         0.3938     -0.5339      0.0592     -0.4341     -0.0832      0.0149
 <0|del|b> * <b|rxdel|0> + <0|del|b> * <b|delr+rdel|0>
 Rotatory Strengths (R) in cgs (10**-40 erg-esu-cm/Gauss)
       state          XX          YY          ZZ    R(velocity)    E-M Angle
         1      -503.8917    248.5285   -354.0302   -203.1311       97.83
 1/2[<0|r|b>*<b|rxdel|0> + (<0|rxdel|b>*<b|r|0>)*]
 Rotatory Strengths (R) in cgs (10**-40 erg-esu-cm/Gauss)
       state          XX          YY          ZZ     R(length)
         1       200.7037  -1093.6879    282.1313   -203.6176
  1/2[<0|del|b>*<b|r|0> + (<0|r|b>*<b|del|0>)*] (Au)
       state          X           Y           Z        Dip. S.   Osc.(frdel)
         1        -0.0391     -0.4168     -0.0016      0.4575      0.3050

 Excitation energies and oscillator strengths:
 
 Excited State   1:      Singlet-A      1.7735 eV  699.11 nm  f=0.3148  <S**2>=0.000
     156 ->157         0.70988
     156 <-157        -0.12226
 This state for optimization and/or second-order correction.
 Total Energy, E(TD-HF/TD-DFT) =  -1948.94961525    
 Copying the excited state density for this state as the 1-particle RhoCI density.
 SavETr:  write IOETrn=   770 NScale= 10 NData=  16 NLR=1 NState=    1 LETran=      28.

 **********************************************************************

            Population analysis using the SCF density.

 **********************************************************************

 Orbital symmetries:
       Occupied  (A) (A) (A) (A) (A) (A) (A) (A) (A) (A) (A) (A)
                 (A) (A) (A) (A) (A) (A) (A) (A) (A) (A) (A) (A)
                 (A) (A) (A) (A) (A) (A) (A) (A) (A) (A) (A) (A)
                 (A) (A) (A) (A) (A) (A) (A) (A) (A) (A) (A) (A)
                 (A) (A) (A) (A) (A) (A) (A) (A) (A) (A) (A) (A)
                 (A) (A) (A) (A) (A) (A) (A) (A) (A) (A) (A) (A)
                 (A) (A) (A) (A) (A) (A) (A) (A) (A) (A) (A) (A)
                 (A) (A) (A) (A) (A) (A) (A) (A) (A) (A) (A) (A)
                 (A) (A) (A) (A) (A) (A) (A) (A) (A) (A) (A) (A)
                 (A) (A) (A) (A) (A) (A) (A) (A) (A) (A) (A) (A)
                 (A) (A) (A) (A) (A) (A) (A) (A) (A) (A) (A) (A)
                 (A) (A) (A) (A) (A) (A) (A) (A) (A) (A) (A) (A)
                 (A) (A) (A) (A) (A) (A) (A) (A) (A) (A) (A) (A)
       Virtual   (A) (A) (A) (A) (A) (A) (A) (A) (A) (A) (A) (A)
                 (A) (A) (A) (A) (A) (A) (A) (A) (A) (A) (A) (A)
                 (A) (A) (A) (A) (A) (A) (A) (A) (A) (A) (A) (A)
                 (A) (A) (A) (A) (A) (A) (A) (A) (A) (A) (A) (A)
                 (A) (A) (A) (A) (A) (A) (A) (A) (A) (A) (A) (A)
                 (A) (A) (A) (A) (A) (A) (A) (A) (A) (A) (A) (A)
                 (A) (A) (A) (A) (A) (A) (A) (A) (A) (A) (A) (A)
                 (A) (A) (A) (A) (A) (A) (A) (A) (A) (A) (A) (A)
                 (A) (A) (A) (A) (A) (A) (A) (A) (A) (A) (A) (A)
                 (A) (A) (A) (A) (A) (A) (A) (A) (A) (A) (A) (A)
                 (A) (A) (A) (A) (A) (A) (A) (A) (A) (A) (A) (A)
                 (A) (A) (A) (A) (A) (A) (A) (A) (A) (A) (A) (A)
                 (A) (A) (A) (A) (A) (A) (A) (A) (A) (A) (A) (A)
                 (A) (A) (A) (A) (A) (A) (A) (A) (A) (A) (A) (A)
                 (A) (A) (A) (A) (A) (A) (A) (A) (A) (A) (A) (A)
                 (A) (A) (A) (A) (A) (A) (A) (A) (A) (A) (A) (A)
                 (A) (A) (A) (A) (A) (A) (A) (A) (A) (A) (A) (A)
                 (A) (A) (A) (A) (A) (A) (A) (A) (A) (A) (A) (A)
                 (A) (A) (A) (A) (A) (A) (A) (A) (A) (A) (A) (A)
                 (A) (A) (A) (A) (A) (A) (A) (A) (A) (A) (A) (A)
                 (A) (A) (A) (A) (A) (A) (A) (A) (A) (A) (A) (A)
                 (A) (A) (A) (A) (A) (A) (A) (A) (A) (A) (A) (A)
                 (A) (A) (A) (A) (A) (A) (A) (A) (A) (A) (A) (A)
                 (A) (A) (A) (A) (A) (A) (A) (A) (A) (A) (A) (A)
                 (A) (A) (A) (A) (A) (A) (A) (A) (A) (A) (A) (A)
                 (A) (A) (A) (A) (A) (A) (A) (A) (A) (A) (A) (A)
                 (A) (A) (A) (A) (A) (A) (A) (A) (A) (A) (A) (A)
                 (A) (A) (A) (A) (A) (A) (A) (A) (A) (A) (A) (A)
                 (A) (A) (A) (A) (A) (A) (A) (A) (A) (A) (A) (A)
                 (A) (A) (A) (A) (A) (A) (A) (A) (A) (A) (A) (A)
                 (A) (A) (A) (A) (A) (A) (A) (A) (A) (A) (A) (A)
                 (A) (A) (A) (A) (A) (A) (A) (A) (A) (A) (A) (A)
                 (A) (A) (A) (A) (A) (A) (A) (A) (A) (A) (A) (A)
                 (A) (A) (A) (A) (A) (A) (A) (A) (A) (A) (A) (A)
                 (A) (A) (A) (A) (A) (A) (A) (A) (A) (A) (A) (A)
                 (A) (A) (A) (A) (A) (A) (A) (A) (A) (A) (A) (A)
                 (A) (A) (A) (A) (A) (A) (A) (A) (A) (A) (A) (A)
                 (A) (A) (A) (A) (A) (A) (A) (A) (A) (A) (A) (A)
                 (A) (A) (A) (A) (A) (A) (A) (A) (A) (A) (A) (A)
                 (A) (A) (A) (A) (A) (A) (A) (A) (A) (A) (A) (A)
                 (A) (A) (A) (A) (A) (A) (A) (A) (A) (A) (A) (A)
                 (A) (A) (A) (A) (A) (A) (A) (A) (A) (A) (A) (A)
                 (A) (A) (A) (A) (A) (A) (A) (A) (A) (A) (A) (A)
                 (A) (A) (A) (A) (A) (A) (A) (A) (A) (A) (A) (A)
                 (A) (A) (A) (A) (A) (A) (A) (A) (A) (A) (A) (A)
                 (A) (A) (A) (A) (A) (A) (A) (A) (A) (A) (A) (A)
                 (A) (A) (A) (A) (A) (A) (A) (A) (A) (A) (A) (A)
                 (A) (A) (A) (A) (A) (A) (A) (A) (A) (A) (A) (A)
                 (A) (A) (A) (A) (A) (A) (A) (A) (A) (A) (A) (A)
                 (A) (A) (A) (A) (A) (A) (A) (A) (A) (A) (A) (A)
                 (A) (A) (A) (A) (A) (A) (A) (A) (A) (A) (A) (A)
                 (A) (A) (A) (A) (A) (A) (A) (A) (A) (A) (A) (A)
                 (A) (A) (A) (A) (A) (A) (A) (A) (A) (A) (A) (A)
 The electronic state is 1-A.
 Alpha  occ. eigenvalues --  -19.21000 -19.16608 -19.13785 -19.13649 -19.11114
 Alpha  occ. eigenvalues --  -19.08846 -14.39625 -14.38386 -14.36120 -14.29178
 Alpha  occ. eigenvalues --  -10.34057 -10.32142 -10.28119 -10.26890 -10.25208
 Alpha  occ. eigenvalues --  -10.24696 -10.24485 -10.24369 -10.24183 -10.23589
 Alpha  occ. eigenvalues --  -10.22976 -10.22731 -10.22014 -10.21938 -10.21853
 Alpha  occ. eigenvalues --  -10.21686 -10.21483 -10.21412 -10.21404 -10.21316
 Alpha  occ. eigenvalues --  -10.20890 -10.20832 -10.20770 -10.20713 -10.19991
 Alpha  occ. eigenvalues --  -10.19928 -10.19894 -10.19871 -10.19411 -10.19295
 Alpha  occ. eigenvalues --  -10.19249 -10.19069 -10.18470  -1.10336  -1.09906
 Alpha  occ. eigenvalues --   -1.01694  -1.01425  -1.00571  -0.99164  -0.99086
 Alpha  occ. eigenvalues --   -0.97302  -0.94007  -0.93504  -0.83389  -0.82485
 Alpha  occ. eigenvalues --   -0.81538  -0.80878  -0.79790  -0.79397  -0.78549
 Alpha  occ. eigenvalues --   -0.78207  -0.76741  -0.74126  -0.73100  -0.72888
 Alpha  occ. eigenvalues --   -0.71417  -0.69844  -0.69333  -0.69272  -0.67909
 Alpha  occ. eigenvalues --   -0.66755  -0.65546  -0.63773  -0.62468  -0.60784
 Alpha  occ. eigenvalues --   -0.60076  -0.59579  -0.59285  -0.57776  -0.57173
 Alpha  occ. eigenvalues --   -0.56633  -0.55857  -0.55451  -0.53848  -0.53242
 Alpha  occ. eigenvalues --   -0.52043  -0.51719  -0.51239  -0.51035  -0.49957
 Alpha  occ. eigenvalues --   -0.49408  -0.48831  -0.48059  -0.47883  -0.47551
 Alpha  occ. eigenvalues --   -0.46952  -0.46430  -0.45831  -0.45533  -0.45405
 Alpha  occ. eigenvalues --   -0.45081  -0.44820  -0.44238  -0.43878  -0.43566
 Alpha  occ. eigenvalues --   -0.43443  -0.42876  -0.42773  -0.42378  -0.42139
 Alpha  occ. eigenvalues --   -0.41996  -0.41811  -0.41285  -0.41064  -0.40911
 Alpha  occ. eigenvalues --   -0.40690  -0.40352  -0.40288  -0.39822  -0.39716
 Alpha  occ. eigenvalues --   -0.39085  -0.39026  -0.38922  -0.38514  -0.38022
 Alpha  occ. eigenvalues --   -0.37668  -0.37382  -0.37317  -0.37066  -0.36618
 Alpha  occ. eigenvalues --   -0.36315  -0.35815  -0.35031  -0.34543  -0.34209
 Alpha  occ. eigenvalues --   -0.33776  -0.33541  -0.33244  -0.32827  -0.32573
 Alpha  occ. eigenvalues --   -0.32433  -0.32021  -0.30634  -0.30015  -0.28963
 Alpha  occ. eigenvalues --   -0.28877  -0.28709  -0.26805  -0.26001  -0.25706
 Alpha  occ. eigenvalues --   -0.25588  -0.24924  -0.24292  -0.23787  -0.22478
 Alpha  occ. eigenvalues --   -0.18043
 Alpha virt. eigenvalues --   -0.10979  -0.06211  -0.04446  -0.03936  -0.01191
 Alpha virt. eigenvalues --    0.00969   0.01133   0.01946   0.02558   0.03012
 Alpha virt. eigenvalues --    0.03299   0.03690   0.04516   0.05355   0.05895
 Alpha virt. eigenvalues --    0.06019   0.06451   0.06539   0.07308   0.07727
 Alpha virt. eigenvalues --    0.07871   0.08068   0.08160   0.08549   0.08728
 Alpha virt. eigenvalues --    0.09290   0.09484   0.09593   0.09940   0.10171
 Alpha virt. eigenvalues --    0.10735   0.10895   0.11345   0.11507   0.12430
 Alpha virt. eigenvalues --    0.12536   0.12608   0.12814   0.12950   0.13332
 Alpha virt. eigenvalues --    0.13493   0.14010   0.14282   0.14742   0.15101
 Alpha virt. eigenvalues --    0.15258   0.15635   0.16202   0.16481   0.17193
 Alpha virt. eigenvalues --    0.17326   0.17736   0.18100   0.18566   0.18995
 Alpha virt. eigenvalues --    0.19278   0.19976   0.20566   0.20827   0.21237
 Alpha virt. eigenvalues --    0.21413   0.21726   0.22507   0.22579   0.23234
 Alpha virt. eigenvalues --    0.23350   0.23644   0.23951   0.24271   0.24739
 Alpha virt. eigenvalues --    0.25441   0.25846   0.26942   0.27854   0.28067
 Alpha virt. eigenvalues --    0.28678   0.29080   0.29632   0.30069   0.30614
 Alpha virt. eigenvalues --    0.31361   0.31565   0.31666   0.32016   0.32422
 Alpha virt. eigenvalues --    0.33561   0.34564   0.34764   0.35556   0.35994
 Alpha virt. eigenvalues --    0.36585   0.37113   0.37751   0.37975   0.38209
 Alpha virt. eigenvalues --    0.39116   0.39385   0.39809   0.40518   0.41266
 Alpha virt. eigenvalues --    0.41575   0.41874   0.42469   0.42560   0.42834
 Alpha virt. eigenvalues --    0.43215   0.43461   0.43604   0.44045   0.44286
 Alpha virt. eigenvalues --    0.44678   0.45003   0.45397   0.45629   0.45953
 Alpha virt. eigenvalues --    0.46355   0.46740   0.46981   0.47311   0.47447
 Alpha virt. eigenvalues --    0.48033   0.48402   0.48564   0.48898   0.49352
 Alpha virt. eigenvalues --    0.49709   0.50096   0.50207   0.50544   0.50720
 Alpha virt. eigenvalues --    0.51088   0.51591   0.52126   0.52523   0.52833
 Alpha virt. eigenvalues --    0.52968   0.53320   0.53564   0.53700   0.54141
 Alpha virt. eigenvalues --    0.54612   0.54883   0.55592   0.55963   0.56277
 Alpha virt. eigenvalues --    0.56615   0.57089   0.57700   0.57992   0.58297
 Alpha virt. eigenvalues --    0.58548   0.58939   0.59086   0.59237   0.59333
 Alpha virt. eigenvalues --    0.59628   0.60056   0.60276   0.60557   0.60922
 Alpha virt. eigenvalues --    0.61269   0.61400   0.61938   0.61989   0.62158
 Alpha virt. eigenvalues --    0.62724   0.62836   0.63153   0.63304   0.63749
 Alpha virt. eigenvalues --    0.63807   0.63939   0.64150   0.64790   0.64980
 Alpha virt. eigenvalues --    0.65097   0.65396   0.65792   0.65964   0.66033
 Alpha virt. eigenvalues --    0.66407   0.66608   0.66710   0.67002   0.67281
 Alpha virt. eigenvalues --    0.67451   0.67826   0.67859   0.68143   0.68261
 Alpha virt. eigenvalues --    0.68638   0.69017   0.69176   0.69382   0.69814
 Alpha virt. eigenvalues --    0.70038   0.70187   0.70589   0.70752   0.71254
 Alpha virt. eigenvalues --    0.71450   0.71929   0.72203   0.72632   0.72800
 Alpha virt. eigenvalues --    0.73406   0.73738   0.74149   0.74522   0.74677
 Alpha virt. eigenvalues --    0.75553   0.75889   0.76735   0.77085   0.77233
 Alpha virt. eigenvalues --    0.78048   0.78263   0.78674   0.79388   0.80210
 Alpha virt. eigenvalues --    0.80645   0.80707   0.81228   0.81657   0.82224
 Alpha virt. eigenvalues --    0.82866   0.83586   0.84100   0.84750   0.84877
 Alpha virt. eigenvalues --    0.85632   0.86224   0.87730   0.88339   0.89145
 Alpha virt. eigenvalues --    0.89604   0.90040   0.90246   0.91217   0.91527
 Alpha virt. eigenvalues --    0.92230   0.92668   0.93350   0.94667   0.94978
 Alpha virt. eigenvalues --    0.95620   0.95987   0.96318   0.97190   0.97712
 Alpha virt. eigenvalues --    0.98427   0.98579   0.98902   0.99527   1.00012
 Alpha virt. eigenvalues --    1.00870   1.01486   1.02038   1.02540   1.02940
 Alpha virt. eigenvalues --    1.03240   1.03609   1.04778   1.05163   1.05618
 Alpha virt. eigenvalues --    1.06650   1.07753   1.07968   1.08948   1.10549
 Alpha virt. eigenvalues --    1.11085   1.11994   1.12546   1.12912   1.13124
 Alpha virt. eigenvalues --    1.13700   1.13998   1.15424   1.16458   1.17212
 Alpha virt. eigenvalues --    1.17304   1.17571   1.18465   1.19061   1.20014
 Alpha virt. eigenvalues --    1.20634   1.20803   1.21561   1.22155   1.22857
 Alpha virt. eigenvalues --    1.23021   1.23675   1.23974   1.24553   1.25061
 Alpha virt. eigenvalues --    1.25380   1.27447   1.27993   1.28778   1.28922
 Alpha virt. eigenvalues --    1.29250   1.30096   1.30279   1.30724   1.31116
 Alpha virt. eigenvalues --    1.32321   1.32691   1.33554   1.34341   1.35159
 Alpha virt. eigenvalues --    1.36065   1.36360   1.37247   1.37767   1.38065
 Alpha virt. eigenvalues --    1.38495   1.38972   1.40526   1.40659   1.41754
 Alpha virt. eigenvalues --    1.42009   1.44029   1.44578   1.45130   1.45480
 Alpha virt. eigenvalues --    1.46082   1.46515   1.46907   1.47360   1.47560
 Alpha virt. eigenvalues --    1.47922   1.48354   1.48544   1.48955   1.50421
 Alpha virt. eigenvalues --    1.51649   1.51880   1.52083   1.52976   1.53180
 Alpha virt. eigenvalues --    1.54088   1.54687   1.54968   1.55490   1.55719
 Alpha virt. eigenvalues --    1.55915   1.56131   1.56535   1.56981   1.57542
 Alpha virt. eigenvalues --    1.58516   1.59481   1.60073   1.61027   1.61126
 Alpha virt. eigenvalues --    1.61865   1.62128   1.62705   1.62870   1.63253
 Alpha virt. eigenvalues --    1.63825   1.63950   1.64410   1.64683   1.64975
 Alpha virt. eigenvalues --    1.65701   1.66138   1.66636   1.66982   1.67243
 Alpha virt. eigenvalues --    1.68453   1.69253   1.69642   1.70561   1.71124
 Alpha virt. eigenvalues --    1.71260   1.71745   1.72423   1.72735   1.73093
 Alpha virt. eigenvalues --    1.73221   1.73657   1.73799   1.74194   1.74342
 Alpha virt. eigenvalues --    1.74586   1.75037   1.75202   1.75402   1.75771
 Alpha virt. eigenvalues --    1.76655   1.76940   1.77303   1.77822   1.78182
 Alpha virt. eigenvalues --    1.78352   1.78679   1.78836   1.79037   1.79195
 Alpha virt. eigenvalues --    1.79552   1.80019   1.80253   1.80559   1.80823
 Alpha virt. eigenvalues --    1.81282   1.81772   1.81956   1.82307   1.83059
 Alpha virt. eigenvalues --    1.83383   1.83624   1.83847   1.84883   1.85404
 Alpha virt. eigenvalues --    1.85778   1.85890   1.86351   1.86617   1.86749
 Alpha virt. eigenvalues --    1.87340   1.88324   1.88597   1.88667   1.89489
 Alpha virt. eigenvalues --    1.89760   1.90125   1.90812   1.91342   1.91447
 Alpha virt. eigenvalues --    1.92262   1.92708   1.93353   1.93783   1.94196
 Alpha virt. eigenvalues --    1.95065   1.95122   1.95450   1.95935   1.96617
 Alpha virt. eigenvalues --    1.96732   1.97671   1.97866   1.98692   1.99445
 Alpha virt. eigenvalues --    1.99600   2.00481   2.01218   2.01523   2.01787
 Alpha virt. eigenvalues --    2.02615   2.03040   2.03406   2.04616   2.04807
 Alpha virt. eigenvalues --    2.05153   2.06309   2.06709   2.07437   2.08126
 Alpha virt. eigenvalues --    2.08470   2.09075   2.09399   2.09660   2.11074
 Alpha virt. eigenvalues --    2.11315   2.11530   2.12030   2.12111   2.13458
 Alpha virt. eigenvalues --    2.14234   2.14969   2.15252   2.15834   2.16400
 Alpha virt. eigenvalues --    2.17060   2.17326   2.18024   2.18707   2.19113
 Alpha virt. eigenvalues --    2.19690   2.20298   2.20904   2.21092   2.22078
 Alpha virt. eigenvalues --    2.22835   2.23258   2.23815   2.24660   2.24809
 Alpha virt. eigenvalues --    2.26410   2.26619   2.27591   2.27902   2.28667
 Alpha virt. eigenvalues --    2.29277   2.30340   2.30571   2.31171   2.32414
 Alpha virt. eigenvalues --    2.33363   2.34360   2.34463   2.34891   2.35554
 Alpha virt. eigenvalues --    2.36153   2.36456   2.36900   2.38863   2.39384
 Alpha virt. eigenvalues --    2.39687   2.40215   2.40412   2.41339   2.41962
 Alpha virt. eigenvalues --    2.42328   2.43100   2.43604   2.45006   2.46304
 Alpha virt. eigenvalues --    2.46825   2.47220   2.48314   2.49222   2.49997
 Alpha virt. eigenvalues --    2.50532   2.50748   2.52713   2.53782   2.54198
 Alpha virt. eigenvalues --    2.54351   2.55648   2.55736   2.56361   2.57506
 Alpha virt. eigenvalues --    2.57930   2.59266   2.59690   2.60535   2.60751
 Alpha virt. eigenvalues --    2.62142   2.63266   2.63831   2.64309   2.64765
 Alpha virt. eigenvalues --    2.65001   2.65568   2.66541   2.66840   2.67038
 Alpha virt. eigenvalues --    2.68146   2.68470   2.68603   2.68900   2.69694
 Alpha virt. eigenvalues --    2.70597   2.70902   2.72050   2.72101   2.72858
 Alpha virt. eigenvalues --    2.73045   2.74101   2.74635   2.75845   2.76225
 Alpha virt. eigenvalues --    2.76730   2.78223   2.78280   2.79047   2.79176
 Alpha virt. eigenvalues --    2.80217   2.82115   2.82576   2.82894   2.83844
 Alpha virt. eigenvalues --    2.84410   2.84838   2.85851   2.86448   2.86574
 Alpha virt. eigenvalues --    2.87291   2.88271   2.89540   2.89646   2.90487
 Alpha virt. eigenvalues --    2.90787   2.91818   2.92882   2.93322   2.93923
 Alpha virt. eigenvalues --    2.94570   2.95495   2.96201   2.98279   2.98917
 Alpha virt. eigenvalues --    2.99630   3.01262   3.02562   3.03314   3.03969
 Alpha virt. eigenvalues --    3.04390   3.06351   3.07344   3.08095   3.09828
 Alpha virt. eigenvalues --    3.10489   3.10971   3.11685   3.14714   3.14955
 Alpha virt. eigenvalues --    3.15785   3.16017   3.17307   3.19368   3.19731
 Alpha virt. eigenvalues --    3.20315   3.22535   3.25258   3.27334   3.28587
 Alpha virt. eigenvalues --    3.29785   3.34142   3.39002   3.43235   3.43773
 Alpha virt. eigenvalues --    3.47312   3.49959   3.50743   3.53960   3.56368
 Alpha virt. eigenvalues --    3.58766   3.62149   3.64949   3.67160   3.68816
 Alpha virt. eigenvalues --    3.85240
          Condensed to atoms (all electrons):
 Mulliken charges:
               1
     1  O   -0.294310
     2  O   -0.207582
     3  O   -0.184550
     4  O   -0.294242
     5  O   -0.204201
     6  O   -0.225479
     7  N   -0.098571
     8  N   -0.126676
     9  N   -0.121992
    10  N   -0.283835
    11  C   -0.129521
    12  C    0.111799
    13  C   -0.139315
    14  C   -0.005401
    15  C   -0.002738
    16  C    0.004458
    17  C   -0.135894
    18  C   -0.146704
    19  C    0.219367
    20  C   -0.126010
    21  C    0.098490
    22  C    0.140182
    23  C    0.094783
    24  C    0.021860
    25  C   -0.142298
    26  C    0.088616
    27  C    0.147498
    28  C   -0.136016
    29  C    0.094149
    30  C    0.066774
    31  C   -0.102133
    32  C   -0.046251
    33  C   -0.215329
    34  C    0.121606
    35  C   -0.137339
    36  C   -0.159324
    37  C    0.180106
    38  C   -0.017333
    39  C    0.138134
    40  C    0.045488
    41  C    0.148913
    42  C    0.149130
    43  C   -0.118654
    44  H    0.197544
    45  H    0.103153
    46  H   -0.015613
    47  H    0.001601
    48  H    0.067583
    49  H    0.048028
    50  H    0.018799
    51  H    0.081270
    52  H    0.151815
    53  H    0.004306
    54  H    0.045373
    55  H    0.011070
    56  H    0.182711
    57  H    0.060621
    58  H    0.080119
    59  H   -0.037686
    60  H    0.048402
    61  H    0.029936
    62  H    0.018052
    63  H    0.007189
    64  H   -0.079329
    65  H    0.024493
    66  H    0.055965
    67  H    0.055793
    68  H   -0.001751
    69  H    0.083639
    70  H    0.022935
    71  H    0.053244
    72  H    0.020714
    73  H    0.048255
    74  H    0.022362
    75  H    0.000967
    76  H    0.027853
    77  H    0.038595
    78  H    0.031662
    79  H    0.051959
    80  H    0.243585
    81  H    0.125134
 Sum of Mulliken charges =  -0.00000
 Mulliken charges with hydrogens summed into heavy atoms:
               1
     1  O   -0.294310
     2  O    0.036003
     3  O   -0.059415
     4  O   -0.294242
     5  O   -0.204201
     6  O   -0.225479
     7  N    0.098973
     8  N    0.025139
     9  N    0.060719
    10  N   -0.283835
    11  C   -0.129521
    12  C    0.111799
    13  C   -0.139315
    14  C   -0.005401
    15  C   -0.002738
    16  C    0.004458
    17  C   -0.032740
    18  C   -0.146704
    19  C    0.205354
    20  C   -0.058428
    21  C    0.098490
    22  C    0.140182
    23  C    0.094783
    24  C    0.088687
    25  C   -0.061028
    26  C    0.149365
    27  C    0.147498
    28  C    0.004723
    29  C    0.104864
    30  C    0.121951
    31  C   -0.181462
    32  C    0.089999
    33  C   -0.217079
    34  C    0.121606
    35  C   -0.137339
    36  C   -0.159324
    37  C    0.180106
    38  C    0.142485
    39  C    0.138134
    40  C    0.114457
    41  C    0.148913
    42  C    0.200313
    43  C    0.003562
 Electronic spatial extent (au):  <R**2>=          30673.7197
 Charge=             -0.0000 electrons
 Dipole moment (field-independent basis, Debye):
    X=             -3.2805    Y=              1.4822    Z=              0.3801  Tot=              3.6198
 Quadrupole moment (field-independent basis, Debye-Ang):
   XX=           -267.6269   YY=           -239.8445   ZZ=           -257.6104
   XY=             27.5349   XZ=             15.2905   YZ=            -21.1403
 Traceless Quadrupole moment (field-independent basis, Debye-Ang):
   XX=            -12.5996   YY=             15.1828   ZZ=             -2.5831
   XY=             27.5349   XZ=             15.2905   YZ=            -21.1403
 Octapole moment (field-independent basis, Debye-Ang**2):
  XXX=             29.8440  YYY=            104.1612  ZZZ=            -19.0803  XYY=           -243.7689
  XXY=             35.1548  XXZ=            -53.7644  XZZ=            -60.9757  YZZ=            -24.0854
  YYZ=             60.7640  XYZ=            -82.7171
 Hexadecapole moment (field-independent basis, Debye-Ang**3):
 XXXX=         -23521.7668 YYYY=         -16415.6379 ZZZZ=          -1626.2015 XXXY=           1062.7995
 XXXZ=            803.7133 YYYX=           1177.7076 YYYZ=           -623.9996 ZZZX=             87.7373
 ZZZY=              8.3378 XXYY=          -6776.6923 XXZZ=          -4060.8805 YYZZ=          -3106.2367
 XXYZ=           -114.7381 YYXZ=            412.8709 ZZXY=            232.5134
 N-N= 5.028955808896D+03 E-N=-1.458760397647D+04  KE= 1.927173954739D+03
 1\1\GINC-PADAWAN\SP\RB3LYP TD-FC\SVP\C33H38N4O6\PADAWAN\30-Jun-2019\0\
 \# td=(NStates=1) B3LYP/SVP\\TD\\0,1\O,0,-4.4847999908,-4.8949738686,1
 .917525781\O,0,3.1623602647,-4.8217234791,1.0536995073\O,0,6.934459750
 3,-1.5203093006,1.8412268022\O,0,4.0074157991,-3.1430323282,-0.1968130
 207\O,0,7.7076703036,-0.2768275779,0.1367676441\O,0,-2.9701125974,2.33
 9562007,-0.3334049019\N,0,-0.3232193166,-0.4957037635,-0.5993569486\N,
 0,1.5335718499,1.8765380863,-0.5523868163\N,0,-3.4558775768,-3.2250436
 174,0.6343297516\N,0,-0.7517236681,2.847745924,0.1381099652\C,0,0.6403
 763019,-2.3704350019,-1.3612984249\C,0,0.8761305154,-1.0381010418,-0.9
 743062795\C,0,-0.7546095897,-2.7335117134,-1.1865207148\C,0,-1.3133017
 522,-1.4320735188,-0.6218413141\C,0,3.7846369245,1.4851816847,-0.28057
 2324\C,0,2.4717692827,0.8691787434,-0.5641305981\C,0,2.1602512753,-0.4
 452217801,-0.9311425889\C,0,3.4599366338,2.7613259348,0.0353315235\C,0
 ,1.6357949846,-3.4218938907,-2.0130386495\C,0,-5.5290318099,-2.6964652
 614,1.3651337777\C,0,-3.6560094602,-1.8998549614,0.1101669485\C,0,2.01
 87961917,3.0760576,0.0039780212\C,0,-5.1107637727,-1.6144704109,0.3943
 734812\C,0,5.1301482767,0.8755824751,-0.3843873974\C,0,-2.7109159073,-
 1.1058691423,-0.3815346273\C,0,-1.4296026224,-3.9361933724,-1.66055637
 24\C,0,-4.3887285413,-3.7498792197,1.3507301986\C,0,2.1515262863,-4.49
 68987136,-1.0486540922\C,0,5.3900778102,0.0007919557,0.7884913963\C,0,
 4.5359696583,3.8064434936,0.449617162\C,0,1.2264713255,4.0989944497,0.
 4358453051\C,0,-6.9328179324,-3.37580236,0.8757966418\C,0,-5.787478328
 4,-0.5644022242,0.0125984267\C,0,-0.1472226416,3.9849067405,0.38046985
 89\C,0,-1.0482099196,5.0808956233,0.4961180773\C,0,-2.2700664803,4.599
 3214335,0.3000159076\C,0,3.1785244344,-4.1023129015,-0.0710594167\C,0,
 -5.408164526,0.6807933679,-0.8267441392\C,0,6.7518950685,-0.6621616858
 ,0.7397048687\C,0,-3.6937169146,5.2926303215,0.3707415849\C,0,-2.09358
 89105,3.151480109,-0.0211478846\C,0,-0.6466452556,6.5916648365,0.74389
 34409\C,0,-4.2031698796,5.672623219,-1.0904081323\H,0,-0.5719687818,0.
 4069475606,-0.0074304827\H,0,3.2692542864,-1.1488430255,-1.0412942168\
 H,0,2.4911589972,-2.9905806547,-2.3546720143\H,0,1.2025312593,-3.96365
 04759,-2.8491032704\H,0,-5.5612278501,-2.2329919239,2.4635668966\H,0,5
 .2009126038,-0.0751581344,-1.264646812\H,0,5.8641949869,1.6091304411,-
 0.6421477894\H,0,-2.969713189,0.0520129916,-0.2229626938\H,0,0.4766248
 931,1.7009999439,-0.4906865142\H,0,-1.275462282,-4.803684939,-1.066456
 1554\H,0,-2.5281529263,-3.9422348099,-1.7866667998\H,0,-0.9096361435,-
 4.4156486337,-2.5535209414\H,0,-2.3963620225,-3.63189292,0.3963422994\
 H,0,1.5299838277,-5.0968323815,-0.253470737\H,0,2.4809041948,-5.482492
 3561,-1.8239777797\H,0,4.6658518182,-0.6422753909,0.6867484109\H,0,5.3
 510094463,0.3026463033,1.8802358267\H,0,4.7472252481,4.5923696534,-0.3
 502463964\H,0,5.5247355653,3.4412116544,0.7553713267\H,0,4.173634396,4
 .3599014622,1.2971954364\H,0,1.6862794065,4.969556133,0.6832994051\H,0
 ,-7.759027471,-2.5507801615,0.9756088305\H,0,-7.1964837123,-4.06000238
 23,1.9435501954\H,0,-7.0593316302,-3.816809097,-0.1913770493\H,0,-6.80
 95254748,-0.3983307416,0.4240404051\H,0,-5.0492638985,1.558130634,-0.1
 837056319\H,0,-6.378676245,0.7898180568,-1.3953538515\H,0,-4.477327044
 7,0.5527354357,-1.5792346883\H,0,-3.532715257,6.1182662317,1.084795356
 \H,0,-4.6127227105,4.5084431762,0.6452605524\H,0,0.04564542,6.45063562
 9,1.742164058\H,0,-1.4198880991,7.192802735,1.036953047\H,0,0.08870803
 88,6.8967219579,0.0269736545\H,0,-3.4297408811,6.5389915249,-1.6879229
 948\H,0,-5.3203947467,5.9387669928,-1.0734072179\H,0,-4.3233358105,4.7
 108212524,-1.8653560436\H,0,4.0277511756,-4.584624675,1.6262634087\H,0
 ,7.7807060952,-1.7844878378,1.7416615492\\Version=ES64L-G16RevA.03\Sta
 te=1-A\HF=-1949.0147887\RMSD=5.005e-09\PG=C01 [X(C33H38N4O6)]\\@


 GOOD SENSE ABOUT TRIVIALITIES IS BETTER THAN NONSENSE
 ABOUT THINGS THAT MATTER

                                       -- MAX BEERBOHM
 Job cpu time:       0 days  4 hours 12 minutes 34.8 seconds.
 Elapsed time:       0 days  2 hours 48 minutes 13.9 seconds.
 File lengths (MBytes):  RWF=   2591 Int=      0 D2E=      0 Chk=     65 Scr=      1
 Normal termination of Gaussian 16 at Sun Jun 30 01:45:05 2019.
