 Entering Gaussian System, Link 0=g16
 Input=Geometria-322-.com
 Output=Geometria-322-.log
 Initial command:
 /usr/local/g16/l1.exe "/home/padawan/israel-mol/phycocyanobilin/spectra/emi/Gau-23387.inp" -scrdir="/home/padawan/israel-mol/phycocyanobilin/spectra/emi/"
 Entering Link 1 = /usr/local/g16/l1.exe PID=     23389.
  
 Copyright (c) 1988,1990,1992,1993,1995,1998,2003,2009,2016,
            Gaussian, Inc.  All Rights Reserved.
  
 This is part of the Gaussian(R) 16 program.  It is based on
 the Gaussian(R) 09 system (copyright 2009, Gaussian, Inc.),
 the Gaussian(R) 03 system (copyright 2003, Gaussian, Inc.),
 the Gaussian(R) 98 system (copyright 1998, Gaussian, Inc.),
 the Gaussian(R) 94 system (copyright 1995, Gaussian, Inc.),
 the Gaussian 92(TM) system (copyright 1992, Gaussian, Inc.),
 the Gaussian 90(TM) system (copyright 1990, Gaussian, Inc.),
 the Gaussian 88(TM) system (copyright 1988, Gaussian, Inc.),
 the Gaussian 86(TM) system (copyright 1986, Carnegie Mellon
 University), and the Gaussian 82(TM) system (copyright 1983,
 Carnegie Mellon University). Gaussian is a federally registered
 trademark of Gaussian, Inc.
  
 This software contains proprietary and confidential information,
 including trade secrets, belonging to Gaussian, Inc.
  
 This software is provided under written license and may be
 used, copied, transmitted, or stored only in accord with that
 written license.
  
 The following legend is applicable only to US Government
 contracts under FAR:
  
                    RESTRICTED RIGHTS LEGEND
  
 Use, reproduction and disclosure by the US Government is
 subject to restrictions as set forth in subparagraphs (a)
 and (c) of the Commercial Computer Software - Restricted
 Rights clause in FAR 52.227-19.
  
 Gaussian, Inc.
 340 Quinnipiac St., Bldg. 40, Wallingford CT 06492
  
  
 ---------------------------------------------------------------
 Warning -- This program may not be used in any manner that
 competes with the business of Gaussian, Inc. or will provide
 assistance to any competitor of Gaussian, Inc.  The licensee
 of this program is prohibited from giving any competitor of
 Gaussian, Inc. access to this program.  By using this program,
 the user acknowledges that Gaussian, Inc. is engaged in the
 business of creating and licensing software in the field of
 computational chemistry and represents and warrants to the
 licensee that it is not a competitor of Gaussian, Inc. and that
 it will not use this program in any manner prohibited above.
 ---------------------------------------------------------------
  

 Cite this work as:
 Gaussian 16, Revision A.03,
 M. J. Frisch, G. W. Trucks, H. B. Schlegel, G. E. Scuseria, 
 M. A. Robb, J. R. Cheeseman, G. Scalmani, V. Barone, 
 G. A. Petersson, H. Nakatsuji, X. Li, M. Caricato, A. V. Marenich, 
 J. Bloino, B. G. Janesko, R. Gomperts, B. Mennucci, H. P. Hratchian, 
 J. V. Ortiz, A. F. Izmaylov, J. L. Sonnenberg, D. Williams-Young, 
 F. Ding, F. Lipparini, F. Egidi, J. Goings, B. Peng, A. Petrone, 
 T. Henderson, D. Ranasinghe, V. G. Zakrzewski, J. Gao, N. Rega, 
 G. Zheng, W. Liang, M. Hada, M. Ehara, K. Toyota, R. Fukuda, 
 J. Hasegawa, M. Ishida, T. Nakajima, Y. Honda, O. Kitao, H. Nakai, 
 T. Vreven, K. Throssell, J. A. Montgomery, Jr., J. E. Peralta, 
 F. Ogliaro, M. J. Bearpark, J. J. Heyd, E. N. Brothers, K. N. Kudin, 
 V. N. Staroverov, T. A. Keith, R. Kobayashi, J. Normand, 
 K. Raghavachari, A. P. Rendell, J. C. Burant, S. S. Iyengar, 
 J. Tomasi, M. Cossi, J. M. Millam, M. Klene, C. Adamo, R. Cammi, 
 J. W. Ochterski, R. L. Martin, K. Morokuma, O. Farkas, 
 J. B. Foresman, and D. J. Fox, Gaussian, Inc., Wallingford CT, 2016.
 
 ******************************************
 Gaussian 16:  ES64L-G16RevA.03 25-Dec-2016
                 1-Jul-2019 
 ******************************************
 %nproc=4
 Will use up to    4 processors via shared memory.
 %Mem=2GB
 --------------------------
 # td=(NStates=1) B3LYP/SVP
 --------------------------
 1/38=1,172=1/1;
 2/12=2,17=6,18=5,40=1/2;
 3/5=18,7=101,11=9,25=1,30=1,74=-5/1,2,3,8;
 4//1;
 5/5=2,38=5/2;
 8/6=1,10=1,108=1/1;
 9/41=1,42=1,70=2/14;
 6/7=2,8=2,9=2,10=2/1;
 99/5=1,9=1/99;
 --
 TD
 --
 Symbolic Z-matrix:
 Charge =  0 Multiplicity = 1
 8                    -4.29696  -4.91267   1.82711 
 8                     2.87503  -4.69504   1.14768 
 8                     6.84615  -1.56693   1.89848 
 8                     3.75138  -2.96508   0.00269 
 8                     7.65776  -0.42143   0.13571 
 8                    -2.99487   2.37252  -0.29012 
 7                    -0.22923  -0.4981   -0.59556 
 7                     1.61069   1.83933  -0.45168 
 7                    -3.29198  -3.14439   0.69587 
 7                    -0.75928   2.92699  -0.23293 
 6                     0.69323  -2.38999  -1.33594 
 6                     0.95969  -1.06542  -1.05608 
 6                    -0.71725  -2.6121   -1.14429 
 6                    -1.23108  -1.425    -0.61814 
 6                     3.8194    1.46314  -0.42349 
 6                     2.49399   0.84564  -0.59351 
 6                     2.21749  -0.49636  -0.91931 
 6                     3.50878   2.72501   0.00214 
 6                     1.61454  -3.37207  -2.05633 
 6                    -5.48678  -2.83939   1.25351 
 6                    -3.60611  -1.83101   0.24105 
 6                     2.11158   2.97612  -0.02271 
 6                    -4.95751  -1.64017   0.50901 
 6                     5.07194   0.71678  -0.43694 
 6                    -2.57132  -1.02134  -0.29192 
 6                    -1.44371  -3.79796  -1.78251 
 6                    -4.36674  -3.84152   1.27561 
 6                     2.15809  -4.42603  -1.12428 
 6                     5.30813  -0.13051   0.83561 
 6                     4.47918   3.86716   0.30934 
 6                     1.31171   4.09068   0.31447 
 6                    -6.85197  -3.53675   0.90899 
 6                    -5.80633  -0.65237   0.12168 
 6                    -0.16984   4.04905   0.15718 
 6                    -1.09845   5.19284   0.52571 
 6                    -2.31005   4.62267   0.31551 
 6                     2.99522  -3.90031   0.03479 
 6                    -5.49944   0.58467  -0.73197 
 6                     6.75989  -0.68385   0.84012 
 6                    -3.77409   5.23787   0.43263 
 6                    -2.15194   3.18202  -0.12091 
 6                    -0.60664   6.44087   0.92024 
 6                    -4.20548   5.80164  -1.04012 
 1                    -0.31427   0.38338   0.10942 
 1                     3.08833  -1.13862  -1.14949 
 1                     2.45122  -3.00442  -2.34017 
 1                     1.15164  -3.74829  -2.88473 
 1                    -5.63752  -2.7657    2.21865 
 1                     5.0766   -0.03313  -1.29486 
 1                     6.00766   1.51807  -0.58556 
 1                    -2.89084  -0.04076  -0.69071 
 1                     0.49975   1.75099  -0.51021 
 1                    -1.49618  -4.83901  -1.24145 
 1                    -2.34744  -3.20407  -2.05067 
 1                    -1.16693  -4.19075  -2.75756 
 1                    -2.29264  -3.37049   0.83303 
 1                     1.16385  -5.01017  -0.72205 
 1                     2.92632  -5.05854  -1.73676 
 1                     4.53015  -1.0031    0.79017 
 1                     5.21078   0.40121   1.69896 
 1                     4.56081   4.59149  -0.59624 
 1                     5.47427   3.17943   0.59029 
 1                     4.19885   4.31531   1.17965 
 1                     1.89519   4.93858   0.76393 
 1                    -7.70682  -2.86332   0.76232 
 1                    -7.1733   -4.34834   1.43709 
 1                    -6.81715  -3.91878  -0.1435 
 1                    -6.78314  -0.74625   0.62078 
 1                    -5.20421   1.4113   -0.22605 
 1                    -6.50416   0.88441  -1.1098 
 1                    -4.73228   0.30331  -1.47181 
 1                    -3.79999   6.0831    1.27247 
 1                    -4.51952   4.21288   0.65164 
 1                    -0.1293    6.3141    1.87243 
 1                    -1.39651   7.22073   1.09468 
 1                     0.09728   6.75717   0.23292 
 1                    -3.63113   6.35373  -1.57791 
 1                    -5.30479   6.22268  -0.98293 
 1                    -4.31019   4.75525  -1.73951 
 1                     3.48665  -4.36718   1.85497 
 1                     7.7281   -1.99822   1.99226 
 
 Stoichiometry    C33H38N4O6
 Framework group  C1[X(C33H38N4O6)]
 Deg. of freedom   237
 Full point group                 C1      NOp   1
 Largest Abelian subgroup         C1      NOp   1
 Largest concise Abelian subgroup C1      NOp   1
                         Standard orientation:                         
 ---------------------------------------------------------------------
 Center     Atomic      Atomic             Coordinates (Angstroms)
 Number     Number       Type             X           Y           Z
 ---------------------------------------------------------------------
      1          8           0        4.402283   -4.822423   -1.804837
      2          8           0       -2.775155   -4.752491   -1.152191
      3          8           0       -6.807417   -1.708463   -1.922453
      4          8           0       -3.691411   -3.039393   -0.013107
      5          8           0       -7.649130   -0.577445   -0.164452
      6          8           0        2.941657    2.437302    0.296336
      7          7           0        0.234978   -0.489568    0.596001
      8          7           0       -1.652430    1.809022    0.441734
      9          7           0        3.356682   -3.073695   -0.680038
     10          7           0        0.695296    2.945244    0.230045
     11          6           0       -0.650832   -2.399076    1.335892
     12          6           0       -0.943635   -1.080731    1.053017
     13          6           0        0.764647   -2.592189    1.149787
     14          6           0        1.255731   -1.395470    0.623709
     15          6           0       -3.852752    1.387090    0.405982
     16          6           0       -2.515474    0.797439    0.581846
     17          6           0       -2.212437   -0.538056    0.910731
     18          6           0       -3.566765    2.654505   -0.020441
     19          6           0       -1.554269   -3.398984    2.054402
     20          6           0        5.546746   -2.724094   -1.230059
     21          6           0        3.641842   -1.753424   -0.226093
     22          6           0       -2.175164    2.934550    0.009175
     23          6           0        4.989979   -1.535015   -0.489368
     24          6           0       -5.089602    0.614949    0.415971
     25          6           0        2.588521   -0.964597    0.301804
     26          6           0        1.513152   -3.761801    1.792511
     27          6           0        4.447799   -3.749253   -1.254742
     28          6           0       -2.072390   -4.465351    1.121980
     29          6           0       -5.303450   -0.238916   -0.856131
     30          6           0       -4.559476    3.775843   -0.332983
     31          6           0       -1.397316    4.064958   -0.326780
     32          6           0        6.924804   -3.392504   -0.879431
     33          6           0        5.816705   -0.529266   -0.100430
     34          6           0        0.084189    4.054273   -0.163960
     35          6           0        0.990264    5.216515   -0.530831
     36          6           0        2.212623    4.671894   -0.315283
     37          6           0       -2.915917   -3.958794   -0.040981
     38          6           0        5.481082    0.702403    0.750177
     39          6           0       -6.743403   -0.822234   -0.865148
     40          6           0        3.664032    5.317134   -0.427954
     41          6           0        2.082780    3.228918    0.122768
     42          6           0        0.474167    6.453508   -0.929097
     43          6           0        4.078165    5.891873    1.045506
     44          1           0        0.304359    0.392450   -0.110017
     45          1           0       -3.070631   -1.197894    1.138683
     46          1           0       -2.399429   -3.048341    2.334586
     47          1           0       -1.086750   -3.764315    2.885076
     48          1           0        5.699512   -2.648707   -2.194749
     49          1           0       -5.081910   -0.133639    1.275021
     50          1           0       -6.042267    1.396896    0.559904
     51          1           0        2.886164    0.022983    0.700260
     52          1           0       -0.540121    1.743812    0.504497
     53          1           0        1.589193   -4.802331    1.253260
     54          1           0        2.403381   -3.148918    2.063089
     55          1           0        1.240945   -4.158810    2.767142
     56          1           0        2.362759   -3.320660   -0.820532
     57          1           0       -1.064772   -5.029351    0.724316
     58          1           0       -2.829623   -5.112747    1.732596
     59          1           0       -4.507730   -1.095128   -0.806480
     60          1           0       -5.213925    0.293439   -1.719937
     61          1           0       -4.659455    4.499653    0.571176
     62          1           0       -5.539047    3.067222   -0.616540
     63          1           0       -4.285251    4.228428   -1.202944
     64          1           0       -1.996564    4.899923   -0.779690
     65          1           0        7.764968   -2.701290   -0.730646
     66          1           0        7.264844   -4.198036   -1.405089
     67          1           0        6.893992   -3.773631    0.173514
     68          1           0        6.797102   -0.603607   -0.595781
     69          1           0        5.170666    1.521986    0.241893
     70          1           0        6.477959    1.023448    1.131237
     71          1           0        4.717170    0.406285    1.487616
     72          1           0        3.675533    6.161485   -1.269002
     73          1           0        4.431347    4.307492   -0.642637
     74          1           0        0.003100    6.315478   -1.882839
     75          1           0        1.248347    7.249310   -1.101824
     76          1           0       -0.238706    6.756156   -0.244868
     77          1           0        3.490505    6.432735    1.580321
     78          1           0        5.168723    6.335521    0.991714
     79          1           0        4.201937    4.848903    1.746890
     80          1           0       -3.390799   -4.438417   -1.862233
     81          1           0       -7.679887   -2.158071   -2.018813
 ---------------------------------------------------------------------
 Rotational constants (GHZ):           0.0764499           0.0553834           0.0343430
 Standard basis: SVP (5D, 7F)
 There are   835 symmetry adapted cartesian basis functions of A   symmetry.
 There are   792 symmetry adapted basis functions of A   symmetry.
   792 basis functions,  1341 primitive gaussians,   835 cartesian basis functions
   156 alpha electrons      156 beta electrons
       nuclear repulsion energy      5066.0302596157 Hartrees.
 NAtoms=   81 NActive=   81 NUniq=   81 SFac= 1.00D+00 NAtFMM=   60 NAOKFM=T Big=T
 Integral buffers will be    131072 words long.
 Regular integral format.
 Two-electron integral symmetry is turned on.
 One-electron integrals computed using PRISM.
 NBasis=   792 RedAO= T EigKep=  3.28D-04  NBF=   792
 NBsUse=   792 1.00D-06 EigRej= -1.00D+00 NBFU=   792
 ExpMin= 1.22D-01 ExpMax= 2.27D+03 ExpMxC= 3.41D+02 IAcc=3 IRadAn=         5 AccDes= 0.00D+00
 Harris functional with IExCor=  402 and IRadAn=       5 diagonalized for initial guess.
 HarFok:  IExCor=  402 AccDes= 0.00D+00 IRadAn=         5 IDoV= 1 UseB2=F ITyADJ=14
 ICtDFT=  3500011 ScaDFX=  1.000000  1.000000  1.000000  1.000000
 FoFCou: FMM=F IPFlag=           0 FMFlag=      100000 FMFlg1=        2001
         NFxFlg=           0 DoJE=T BraDBF=F KetDBF=T FulRan=T
         wScrn=  0.000000 ICntrl=       500 IOpCl=  0 I1Cent=   200000004 NGrid=           0
         NMat0=    1 NMatS0=      1 NMatT0=    0 NMatD0=    1 NMtDS0=    0 NMtDT0=    0
 Petite list used in FoFCou.
 Requested convergence on RMS density matrix=1.00D-08 within 128 cycles.
 Requested convergence on MAX density matrix=1.00D-06.
 Requested convergence on             energy=1.00D-06.
 No special actions if energy rises.
 Integral accuracy reduced to 1.0D-05 until final iterations.
 Initial convergence to 1.0D-05 achieved.  Increase integral accuracy.
 SCF Done:  E(RB3LYP) =  -1949.10060588     A.U. after   16 cycles
            NFock= 16  Conv=0.67D-08     -V/T= 2.0103
 DoSCS=F DFT=T ScalE2(SS,OS)=  1.000000  1.000000
 ExpMin= 1.22D-01 ExpMax= 2.27D+03 ExpMxC= 3.41D+02 IAcc=3 IRadAn=         5 AccDes= 0.00D+00
 HarFok:  IExCor=  205 AccDes= 0.00D+00 IRadAn=         5 IDoV=-2 UseB2=F ITyADJ=14
 ICtDFT= 12500011 ScaDFX=  1.000000  1.000000  1.000000  1.000000
 GSVD:  LWork=       -2193 too small for GESVD, short by        9890 words or        9890 for optimal perf.
 Range of M.O.s used for correlation:    44   792
 NBasis=   792 NAE=   156 NBE=   156 NFC=    43 NFV=     0
 NROrb=    749 NOA=   113 NOB=   113 NVA=   636 NVB=   636

 **** Warning!!: The smallest alpha delta epsilon is  0.74568405D-01

 Orbital symmetries:
       Occupied  (A) (A) (A) (A) (A) (A) (A) (A) (A) (A) (A) (A)
                 (A) (A) (A) (A) (A) (A) (A) (A) (A) (A) (A) (A)
                 (A) (A) (A) (A) (A) (A) (A) (A) (A) (A) (A) (A)
                 (A) (A) (A) (A) (A) (A) (A) (A) (A) (A) (A) (A)
                 (A) (A) (A) (A) (A) (A) (A) (A) (A) (A) (A) (A)
                 (A) (A) (A) (A) (A) (A) (A) (A) (A) (A) (A) (A)
                 (A) (A) (A) (A) (A) (A) (A) (A) (A) (A) (A) (A)
                 (A) (A) (A) (A) (A) (A) (A) (A) (A) (A) (A) (A)
                 (A) (A) (A) (A) (A) (A) (A) (A) (A) (A) (A) (A)
                 (A) (A) (A) (A) (A) (A) (A) (A) (A) (A) (A) (A)
                 (A) (A) (A) (A) (A) (A) (A) (A) (A) (A) (A) (A)
                 (A) (A) (A) (A) (A) (A) (A) (A) (A) (A) (A) (A)
                 (A) (A) (A) (A) (A) (A) (A) (A) (A) (A) (A) (A)
       Virtual   (A) (A) (A) (A) (A) (A) (A) (A) (A) (A) (A) (A)
                 (A) (A) (A) (A) (A) (A) (A) (A) (A) (A) (A) (A)
                 (A) (A) (A) (A) (A) (A) (A) (A) (A) (A) (A) (A)
                 (A) (A) (A) (A) (A) (A) (A) (A) (A) (A) (A) (A)
                 (A) (A) (A) (A) (A) (A) (A) (A) (A) (A) (A) (A)
                 (A) (A) (A) (A) (A) (A) (A) (A) (A) (A) (A) (A)
                 (A) (A) (A) (A) (A) (A) (A) (A) (A) (A) (A) (A)
                 (A) (A) (A) (A) (A) (A) (A) (A) (A) (A) (A) (A)
                 (A) (A) (A) (A) (A) (A) (A) (A) (A) (A) (A) (A)
                 (A) (A) (A) (A) (A) (A) (A) (A) (A) (A) (A) (A)
                 (A) (A) (A) (A) (A) (A) (A) (A) (A) (A) (A) (A)
                 (A) (A) (A) (A) (A) (A) (A) (A) (A) (A) (A) (A)
                 (A) (A) (A) (A) (A) (A) (A) (A) (A) (A) (A) (A)
                 (A) (A) (A) (A) (A) (A) (A) (A) (A) (A) (A) (A)
                 (A) (A) (A) (A) (A) (A) (A) (A) (A) (A) (A) (A)
                 (A) (A) (A) (A) (A) (A) (A) (A) (A) (A) (A) (A)
                 (A) (A) (A) (A) (A) (A) (A) (A) (A) (A) (A) (A)
                 (A) (A) (A) (A) (A) (A) (A) (A) (A) (A) (A) (A)
                 (A) (A) (A) (A) (A) (A) (A) (A) (A) (A) (A) (A)
                 (A) (A) (A) (A) (A) (A) (A) (A) (A) (A) (A) (A)
                 (A) (A) (A) (A) (A) (A) (A) (A) (A) (A) (A) (A)
                 (A) (A) (A) (A) (A) (A) (A) (A) (A) (A) (A) (A)
                 (A) (A) (A) (A) (A) (A) (A) (A) (A) (A) (A) (A)
                 (A) (A) (A) (A) (A) (A) (A) (A) (A) (A) (A) (A)
                 (A) (A) (A) (A) (A) (A) (A) (A) (A) (A) (A) (A)
                 (A) (A) (A) (A) (A) (A) (A) (A) (A) (A) (A) (A)
                 (A) (A) (A) (A) (A) (A) (A) (A) (A) (A) (A) (A)
                 (A) (A) (A) (A) (A) (A) (A) (A) (A) (A) (A) (A)
                 (A) (A) (A) (A) (A) (A) (A) (A) (A) (A) (A) (A)
                 (A) (A) (A) (A) (A) (A) (A) (A) (A) (A) (A) (A)
                 (A) (A) (A) (A) (A) (A) (A) (A) (A) (A) (A) (A)
                 (A) (A) (A) (A) (A) (A) (A) (A) (A) (A) (A) (A)
                 (A) (A) (A) (A) (A) (A) (A) (A) (A) (A) (A) (A)
                 (A) (A) (A) (A) (A) (A) (A) (A) (A) (A) (A) (A)
                 (A) (A) (A) (A) (A) (A) (A) (A) (A) (A) (A) (A)
                 (A) (A) (A) (A) (A) (A) (A) (A) (A) (A) (A) (A)
                 (A) (A) (A) (A) (A) (A) (A) (A) (A) (A) (A) (A)
                 (A) (A) (A) (A) (A) (A) (A) (A) (A) (A) (A) (A)
                 (A) (A) (A) (A) (A) (A) (A) (A) (A) (A) (A) (A)
                 (A) (A) (A) (A) (A) (A) (A) (A) (A) (A) (A) (A)
                 (A) (A) (A) (A) (A) (A) (A) (A) (A) (A) (A) (A)
                 (A) (A) (A) (A) (A) (A) (A) (A) (A) (A) (A) (A)
                 (A) (A) (A) (A) (A) (A) (A) (A) (A) (A) (A) (A)
                 (A) (A) (A) (A) (A) (A) (A) (A) (A) (A) (A) (A)
                 (A) (A) (A) (A) (A) (A) (A) (A) (A) (A) (A) (A)
                 (A) (A) (A) (A) (A) (A) (A) (A) (A) (A) (A) (A)
                 (A) (A) (A) (A) (A) (A) (A) (A) (A) (A) (A) (A)
                 (A) (A) (A) (A) (A) (A) (A) (A) (A) (A) (A) (A)
                 (A) (A) (A) (A) (A) (A) (A) (A) (A) (A) (A) (A)
                 (A) (A) (A) (A) (A) (A) (A) (A) (A) (A) (A) (A)
                 (A) (A) (A) (A) (A) (A) (A) (A) (A) (A) (A) (A)
                 (A) (A) (A) (A) (A) (A) (A) (A) (A) (A) (A) (A)
                 (A) (A) (A) (A) (A) (A) (A) (A) (A) (A) (A) (A)
     4 initial guesses have been made.
 Convergence on wavefunction:    0.001000000000000
 Iteration     1 Dimension     4 NMult     0 NNew      4
 CISAX will form     4 AO SS matrices at one time.
 Iteration     2 Dimension     6 NMult     4 NNew      2
 Iteration     3 Dimension     8 NMult     6 NNew      2
 Iteration     4 Dimension    10 NMult     8 NNew      2
 Iteration     5 Dimension    12 NMult    10 NNew      2
 Iteration     6 Dimension    14 NMult    12 NNew      2
 ***********************************************************************
 Excited states from <AA,BB:AA,BB> singles matrix:
 ***********************************************************************
 
 Ground to excited state transition densities written to RWF  633
 Ground to excited state transition electric dipole moments (Au):
       state          X           Y           Z        Dip. S.      Osc.
         1        -0.8991      2.5989     -0.1547      7.5868      0.3473
 Ground to excited state transition velocity dipole moments (Au):
       state          X           Y           Z        Dip. S.      Osc.
         1         0.0642     -0.1733      0.0110      0.0343      0.3329
 Ground to excited state transition magnetic dipole moments (Au):
       state          X           Y           Z
         1         0.3362      0.5636      2.3231
 Ground to excited state transition velocity quadrupole moments (Au):
       state          XX          YY          ZZ          XY          XZ          YZ
         1         0.5070     -0.6410      0.0556     -0.4424     -0.0746      0.0256
 <0|del|b> * <b|rxdel|0> + <0|del|b> * <b|delr+rdel|0>
 Rotatory Strengths (R) in cgs (10**-40 erg-esu-cm/Gauss)
       state          XX          YY          ZZ    R(velocity)    E-M Angle
         1      -463.4865    275.6631   -333.7295   -173.8510       96.51
 1/2[<0|r|b>*<b|rxdel|0> + (<0|rxdel|b>*<b|r|0>)*]
 Rotatory Strengths (R) in cgs (10**-40 erg-esu-cm/Gauss)
       state          XX          YY          ZZ     R(length)
         1       213.7457  -1035.8455    254.0638   -189.3453
  1/2[<0|del|b>*<b|r|0> + (<0|r|b>*<b|del|0>)*] (Au)
       state          X           Y           Z        Dip. S.   Osc.(frdel)
         1        -0.0578     -0.4504     -0.0017      0.5099      0.3399

 Excitation energies and oscillator strengths:
 
 Excited State   1:      Singlet-A      1.8683 eV  663.62 nm  f=0.3473  <S**2>=0.000
     156 ->157         0.70661
     156 <-157        -0.11319
 This state for optimization and/or second-order correction.
 Total Energy, E(TD-HF/TD-DFT) =  -1949.03194710    
 Copying the excited state density for this state as the 1-particle RhoCI density.
 SavETr:  write IOETrn=   770 NScale= 10 NData=  16 NLR=1 NState=    1 LETran=      28.

 **********************************************************************

            Population analysis using the SCF density.

 **********************************************************************

 Orbital symmetries:
       Occupied  (A) (A) (A) (A) (A) (A) (A) (A) (A) (A) (A) (A)
                 (A) (A) (A) (A) (A) (A) (A) (A) (A) (A) (A) (A)
                 (A) (A) (A) (A) (A) (A) (A) (A) (A) (A) (A) (A)
                 (A) (A) (A) (A) (A) (A) (A) (A) (A) (A) (A) (A)
                 (A) (A) (A) (A) (A) (A) (A) (A) (A) (A) (A) (A)
                 (A) (A) (A) (A) (A) (A) (A) (A) (A) (A) (A) (A)
                 (A) (A) (A) (A) (A) (A) (A) (A) (A) (A) (A) (A)
                 (A) (A) (A) (A) (A) (A) (A) (A) (A) (A) (A) (A)
                 (A) (A) (A) (A) (A) (A) (A) (A) (A) (A) (A) (A)
                 (A) (A) (A) (A) (A) (A) (A) (A) (A) (A) (A) (A)
                 (A) (A) (A) (A) (A) (A) (A) (A) (A) (A) (A) (A)
                 (A) (A) (A) (A) (A) (A) (A) (A) (A) (A) (A) (A)
                 (A) (A) (A) (A) (A) (A) (A) (A) (A) (A) (A) (A)
       Virtual   (A) (A) (A) (A) (A) (A) (A) (A) (A) (A) (A) (A)
                 (A) (A) (A) (A) (A) (A) (A) (A) (A) (A) (A) (A)
                 (A) (A) (A) (A) (A) (A) (A) (A) (A) (A) (A) (A)
                 (A) (A) (A) (A) (A) (A) (A) (A) (A) (A) (A) (A)
                 (A) (A) (A) (A) (A) (A) (A) (A) (A) (A) (A) (A)
                 (A) (A) (A) (A) (A) (A) (A) (A) (A) (A) (A) (A)
                 (A) (A) (A) (A) (A) (A) (A) (A) (A) (A) (A) (A)
                 (A) (A) (A) (A) (A) (A) (A) (A) (A) (A) (A) (A)
                 (A) (A) (A) (A) (A) (A) (A) (A) (A) (A) (A) (A)
                 (A) (A) (A) (A) (A) (A) (A) (A) (A) (A) (A) (A)
                 (A) (A) (A) (A) (A) (A) (A) (A) (A) (A) (A) (A)
                 (A) (A) (A) (A) (A) (A) (A) (A) (A) (A) (A) (A)
                 (A) (A) (A) (A) (A) (A) (A) (A) (A) (A) (A) (A)
                 (A) (A) (A) (A) (A) (A) (A) (A) (A) (A) (A) (A)
                 (A) (A) (A) (A) (A) (A) (A) (A) (A) (A) (A) (A)
                 (A) (A) (A) (A) (A) (A) (A) (A) (A) (A) (A) (A)
                 (A) (A) (A) (A) (A) (A) (A) (A) (A) (A) (A) (A)
                 (A) (A) (A) (A) (A) (A) (A) (A) (A) (A) (A) (A)
                 (A) (A) (A) (A) (A) (A) (A) (A) (A) (A) (A) (A)
                 (A) (A) (A) (A) (A) (A) (A) (A) (A) (A) (A) (A)
                 (A) (A) (A) (A) (A) (A) (A) (A) (A) (A) (A) (A)
                 (A) (A) (A) (A) (A) (A) (A) (A) (A) (A) (A) (A)
                 (A) (A) (A) (A) (A) (A) (A) (A) (A) (A) (A) (A)
                 (A) (A) (A) (A) (A) (A) (A) (A) (A) (A) (A) (A)
                 (A) (A) (A) (A) (A) (A) (A) (A) (A) (A) (A) (A)
                 (A) (A) (A) (A) (A) (A) (A) (A) (A) (A) (A) (A)
                 (A) (A) (A) (A) (A) (A) (A) (A) (A) (A) (A) (A)
                 (A) (A) (A) (A) (A) (A) (A) (A) (A) (A) (A) (A)
                 (A) (A) (A) (A) (A) (A) (A) (A) (A) (A) (A) (A)
                 (A) (A) (A) (A) (A) (A) (A) (A) (A) (A) (A) (A)
                 (A) (A) (A) (A) (A) (A) (A) (A) (A) (A) (A) (A)
                 (A) (A) (A) (A) (A) (A) (A) (A) (A) (A) (A) (A)
                 (A) (A) (A) (A) (A) (A) (A) (A) (A) (A) (A) (A)
                 (A) (A) (A) (A) (A) (A) (A) (A) (A) (A) (A) (A)
                 (A) (A) (A) (A) (A) (A) (A) (A) (A) (A) (A) (A)
                 (A) (A) (A) (A) (A) (A) (A) (A) (A) (A) (A) (A)
                 (A) (A) (A) (A) (A) (A) (A) (A) (A) (A) (A) (A)
                 (A) (A) (A) (A) (A) (A) (A) (A) (A) (A) (A) (A)
                 (A) (A) (A) (A) (A) (A) (A) (A) (A) (A) (A) (A)
                 (A) (A) (A) (A) (A) (A) (A) (A) (A) (A) (A) (A)
                 (A) (A) (A) (A) (A) (A) (A) (A) (A) (A) (A) (A)
                 (A) (A) (A) (A) (A) (A) (A) (A) (A) (A) (A) (A)
                 (A) (A) (A) (A) (A) (A) (A) (A) (A) (A) (A) (A)
                 (A) (A) (A) (A) (A) (A) (A) (A) (A) (A) (A) (A)
                 (A) (A) (A) (A) (A) (A) (A) (A) (A) (A) (A) (A)
                 (A) (A) (A) (A) (A) (A) (A) (A) (A) (A) (A) (A)
                 (A) (A) (A) (A) (A) (A) (A) (A) (A) (A) (A) (A)
                 (A) (A) (A) (A) (A) (A) (A) (A) (A) (A) (A) (A)
                 (A) (A) (A) (A) (A) (A) (A) (A) (A) (A) (A) (A)
                 (A) (A) (A) (A) (A) (A) (A) (A) (A) (A) (A) (A)
                 (A) (A) (A) (A) (A) (A) (A) (A) (A) (A) (A) (A)
                 (A) (A) (A) (A) (A) (A) (A) (A) (A) (A) (A) (A)
                 (A) (A) (A) (A) (A) (A) (A) (A) (A) (A) (A) (A)
 The electronic state is 1-A.
 Alpha  occ. eigenvalues --  -19.19214 -19.17018 -19.14872 -19.13231 -19.11469
 Alpha  occ. eigenvalues --  -19.10747 -14.37890 -14.36003 -14.35277 -14.29383
 Alpha  occ. eigenvalues --  -10.33921 -10.31763 -10.28709 -10.27020 -10.24199
 Alpha  occ. eigenvalues --  -10.23753 -10.23281 -10.23182 -10.22745 -10.22584
 Alpha  occ. eigenvalues --  -10.22525 -10.22272 -10.21039 -10.20678 -10.20277
 Alpha  occ. eigenvalues --  -10.20067 -10.20049 -10.19998 -10.19996 -10.19798
 Alpha  occ. eigenvalues --  -10.19619 -10.19617 -10.19474 -10.19440 -10.19404
 Alpha  occ. eigenvalues --  -10.19349 -10.19344 -10.19046 -10.18952 -10.18894
 Alpha  occ. eigenvalues --  -10.18754 -10.18345 -10.17766  -1.10518  -1.09196
 Alpha  occ. eigenvalues --   -1.04324  -1.03271  -1.02067  -1.00985  -0.99603
 Alpha  occ. eigenvalues --   -0.97798  -0.94512  -0.92231  -0.82938  -0.81838
 Alpha  occ. eigenvalues --   -0.81753  -0.80943  -0.80429  -0.78396  -0.77576
 Alpha  occ. eigenvalues --   -0.76773  -0.76302  -0.74677  -0.73613  -0.71605
 Alpha  occ. eigenvalues --   -0.70366  -0.70275  -0.69380  -0.68722  -0.67624
 Alpha  occ. eigenvalues --   -0.66832  -0.65789  -0.64792  -0.62426  -0.61137
 Alpha  occ. eigenvalues --   -0.60191  -0.59590  -0.59219  -0.58363  -0.56327
 Alpha  occ. eigenvalues --   -0.56130  -0.55374  -0.54472  -0.53549  -0.52569
 Alpha  occ. eigenvalues --   -0.52065  -0.51512  -0.51169  -0.50419  -0.49553
 Alpha  occ. eigenvalues --   -0.49382  -0.48978  -0.48066  -0.47488  -0.47307
 Alpha  occ. eigenvalues --   -0.46806  -0.46631  -0.46247  -0.45910  -0.45534
 Alpha  occ. eigenvalues --   -0.44921  -0.44781  -0.44329  -0.44197  -0.44008
 Alpha  occ. eigenvalues --   -0.43643  -0.43158  -0.42633  -0.42381  -0.42239
 Alpha  occ. eigenvalues --   -0.41933  -0.41755  -0.41650  -0.41338  -0.41135
 Alpha  occ. eigenvalues --   -0.41026  -0.40796  -0.40362  -0.40096  -0.39945
 Alpha  occ. eigenvalues --   -0.39574  -0.39348  -0.38874  -0.38532  -0.38443
 Alpha  occ. eigenvalues --   -0.37585  -0.37191  -0.37130  -0.36872  -0.36413
 Alpha  occ. eigenvalues --   -0.36221  -0.35781  -0.35403  -0.34915  -0.34703
 Alpha  occ. eigenvalues --   -0.34148  -0.34032  -0.33721  -0.33290  -0.32827
 Alpha  occ. eigenvalues --   -0.32659  -0.32461  -0.32279  -0.30259  -0.29887
 Alpha  occ. eigenvalues --   -0.28757  -0.28535  -0.26641  -0.25745  -0.25494
 Alpha  occ. eigenvalues --   -0.25133  -0.24901  -0.24676  -0.23738  -0.21249
 Alpha  occ. eigenvalues --   -0.17422
 Alpha virt. eigenvalues --   -0.09965  -0.05987  -0.04509  -0.01707   0.00944
 Alpha virt. eigenvalues --    0.01435   0.02286   0.03022   0.03748   0.03916
 Alpha virt. eigenvalues --    0.04194   0.04658   0.05060   0.05535   0.05747
 Alpha virt. eigenvalues --    0.06509   0.07145   0.07165   0.08273   0.08665
 Alpha virt. eigenvalues --    0.08766   0.08910   0.09206   0.09489   0.09825
 Alpha virt. eigenvalues --    0.10047   0.10316   0.10497   0.11276   0.11440
 Alpha virt. eigenvalues --    0.11492   0.12111   0.12299   0.12842   0.12938
 Alpha virt. eigenvalues --    0.13141   0.13411   0.13609   0.13979   0.14338
 Alpha virt. eigenvalues --    0.14619   0.14857   0.15139   0.15348   0.15758
 Alpha virt. eigenvalues --    0.16766   0.17233   0.17460   0.17626   0.18216
 Alpha virt. eigenvalues --    0.18671   0.18958   0.19163   0.19396   0.19943
 Alpha virt. eigenvalues --    0.20099   0.20671   0.21161   0.21553   0.21850
 Alpha virt. eigenvalues --    0.22605   0.22981   0.23220   0.23436   0.23723
 Alpha virt. eigenvalues --    0.24415   0.24542   0.24787   0.25600   0.25946
 Alpha virt. eigenvalues --    0.26310   0.26759   0.26959   0.27042   0.28601
 Alpha virt. eigenvalues --    0.29166   0.29438   0.29477   0.30407   0.31894
 Alpha virt. eigenvalues --    0.32137   0.32433   0.32482   0.32848   0.32994
 Alpha virt. eigenvalues --    0.33852   0.33983   0.34879   0.35514   0.36096
 Alpha virt. eigenvalues --    0.36595   0.37679   0.38284   0.38690   0.39363
 Alpha virt. eigenvalues --    0.39678   0.40076   0.40884   0.41276   0.41484
 Alpha virt. eigenvalues --    0.42027   0.42072   0.42687   0.42875   0.43083
 Alpha virt. eigenvalues --    0.43200   0.43371   0.44055   0.44395   0.44532
 Alpha virt. eigenvalues --    0.44791   0.45532   0.45680   0.46063   0.46560
 Alpha virt. eigenvalues --    0.46757   0.47315   0.47747   0.48084   0.48398
 Alpha virt. eigenvalues --    0.48444   0.48718   0.48931   0.49575   0.49817
 Alpha virt. eigenvalues --    0.50173   0.50683   0.50821   0.51257   0.51480
 Alpha virt. eigenvalues --    0.51643   0.52692   0.52880   0.53501   0.53969
 Alpha virt. eigenvalues --    0.54083   0.54504   0.54916   0.55342   0.55515
 Alpha virt. eigenvalues --    0.55577   0.56342   0.56853   0.57212   0.57993
 Alpha virt. eigenvalues --    0.58339   0.58574   0.58753   0.59084   0.59903
 Alpha virt. eigenvalues --    0.60118   0.60273   0.60620   0.60866   0.60998
 Alpha virt. eigenvalues --    0.61109   0.61521   0.61607   0.62052   0.62161
 Alpha virt. eigenvalues --    0.62455   0.62849   0.62917   0.63153   0.63538
 Alpha virt. eigenvalues --    0.63705   0.64299   0.64403   0.64736   0.64865
 Alpha virt. eigenvalues --    0.65016   0.65273   0.65570   0.65824   0.65998
 Alpha virt. eigenvalues --    0.66319   0.66587   0.66896   0.67071   0.67272
 Alpha virt. eigenvalues --    0.67605   0.67722   0.67895   0.68684   0.68702
 Alpha virt. eigenvalues --    0.69008   0.69154   0.69211   0.69964   0.69999
 Alpha virt. eigenvalues --    0.70240   0.70408   0.70646   0.70807   0.71336
 Alpha virt. eigenvalues --    0.71411   0.71679   0.71910   0.72339   0.72527
 Alpha virt. eigenvalues --    0.72642   0.73140   0.73584   0.73896   0.74182
 Alpha virt. eigenvalues --    0.74501   0.75139   0.75272   0.75755   0.76250
 Alpha virt. eigenvalues --    0.76711   0.76783   0.77203   0.77466   0.77943
 Alpha virt. eigenvalues --    0.78018   0.78546   0.79136   0.79480   0.79873
 Alpha virt. eigenvalues --    0.80151   0.80885   0.81037   0.82126   0.82793
 Alpha virt. eigenvalues --    0.83615   0.83925   0.84356   0.84924   0.85458
 Alpha virt. eigenvalues --    0.86295   0.87040   0.87445   0.88042   0.88586
 Alpha virt. eigenvalues --    0.89074   0.89378   0.90712   0.91341   0.92079
 Alpha virt. eigenvalues --    0.92338   0.93226   0.93453   0.93935   0.95028
 Alpha virt. eigenvalues --    0.95793   0.96197   0.96342   0.97015   0.97559
 Alpha virt. eigenvalues --    0.97822   0.98348   0.99183   0.99847   1.00524
 Alpha virt. eigenvalues --    1.00913   1.01464   1.02000   1.02417   1.02670
 Alpha virt. eigenvalues --    1.03415   1.04896   1.05730   1.05890   1.06863
 Alpha virt. eigenvalues --    1.07275   1.08357   1.09139   1.09892   1.10687
 Alpha virt. eigenvalues --    1.12115   1.12399   1.12810   1.13383   1.13813
 Alpha virt. eigenvalues --    1.14331   1.15254   1.16318   1.16962   1.17063
 Alpha virt. eigenvalues --    1.18125   1.18350   1.19598   1.19765   1.20748
 Alpha virt. eigenvalues --    1.21660   1.22104   1.22688   1.23439   1.23837
 Alpha virt. eigenvalues --    1.24406   1.24931   1.25771   1.26086   1.26344
 Alpha virt. eigenvalues --    1.26876   1.27331   1.27832   1.28554   1.29516
 Alpha virt. eigenvalues --    1.29713   1.30464   1.31598   1.31750   1.32686
 Alpha virt. eigenvalues --    1.33304   1.34116   1.34489   1.36181   1.36713
 Alpha virt. eigenvalues --    1.37513   1.38214   1.38378   1.38994   1.39176
 Alpha virt. eigenvalues --    1.39764   1.40513   1.41049   1.41259   1.41696
 Alpha virt. eigenvalues --    1.41802   1.42815   1.44262   1.44968   1.45427
 Alpha virt. eigenvalues --    1.45549   1.46300   1.46635   1.47681   1.47919
 Alpha virt. eigenvalues --    1.48345   1.48742   1.50070   1.50250   1.51877
 Alpha virt. eigenvalues --    1.52253   1.52500   1.52954   1.53335   1.53621
 Alpha virt. eigenvalues --    1.55070   1.55416   1.56367   1.57236   1.58194
 Alpha virt. eigenvalues --    1.58377   1.59059   1.59643   1.59879   1.60466
 Alpha virt. eigenvalues --    1.60887   1.61368   1.62121   1.62396   1.62590
 Alpha virt. eigenvalues --    1.63696   1.64194   1.65120   1.65503   1.65625
 Alpha virt. eigenvalues --    1.66133   1.66322   1.66732   1.66860   1.67450
 Alpha virt. eigenvalues --    1.67610   1.68259   1.68909   1.69140   1.69672
 Alpha virt. eigenvalues --    1.70043   1.70265   1.70475   1.71174   1.71336
 Alpha virt. eigenvalues --    1.71455   1.72177   1.72712   1.72940   1.73373
 Alpha virt. eigenvalues --    1.74326   1.74528   1.74741   1.75384   1.75848
 Alpha virt. eigenvalues --    1.76007   1.76928   1.77243   1.77360   1.78184
 Alpha virt. eigenvalues --    1.78479   1.79076   1.79314   1.79614   1.80218
 Alpha virt. eigenvalues --    1.80946   1.80984   1.81399   1.81542   1.81815
 Alpha virt. eigenvalues --    1.82249   1.82951   1.83444   1.84013   1.84299
 Alpha virt. eigenvalues --    1.84393   1.84624   1.85034   1.85168   1.85973
 Alpha virt. eigenvalues --    1.86136   1.86422   1.86944   1.87189   1.87865
 Alpha virt. eigenvalues --    1.88886   1.89166   1.89432   1.89655   1.90244
 Alpha virt. eigenvalues --    1.90427   1.90807   1.91190   1.91682   1.91914
 Alpha virt. eigenvalues --    1.92141   1.92792   1.93355   1.93467   1.94117
 Alpha virt. eigenvalues --    1.94541   1.95274   1.95606   1.96151   1.96243
 Alpha virt. eigenvalues --    1.96581   1.97058   1.97992   1.98136   1.98924
 Alpha virt. eigenvalues --    1.99337   1.99760   2.00058   2.00336   2.01330
 Alpha virt. eigenvalues --    2.01662   2.02234   2.03338   2.03965   2.04126
 Alpha virt. eigenvalues --    2.04363   2.05922   2.06280   2.07362   2.07832
 Alpha virt. eigenvalues --    2.08022   2.08236   2.08459   2.09074   2.09697
 Alpha virt. eigenvalues --    2.09825   2.10725   2.10825   2.11411   2.11713
 Alpha virt. eigenvalues --    2.12587   2.13585   2.14122   2.14561   2.15667
 Alpha virt. eigenvalues --    2.16321   2.16956   2.17464   2.17796   2.18864
 Alpha virt. eigenvalues --    2.19431   2.19623   2.20992   2.21586   2.22116
 Alpha virt. eigenvalues --    2.22765   2.23328   2.23813   2.24022   2.24618
 Alpha virt. eigenvalues --    2.25194   2.25596   2.26873   2.27255   2.27701
 Alpha virt. eigenvalues --    2.29217   2.29316   2.29648   2.31761   2.32126
 Alpha virt. eigenvalues --    2.33341   2.34145   2.34925   2.35398   2.35839
 Alpha virt. eigenvalues --    2.36629   2.37557   2.38214   2.38935   2.39482
 Alpha virt. eigenvalues --    2.40232   2.40608   2.41446   2.42383   2.42841
 Alpha virt. eigenvalues --    2.42999   2.43336   2.44167   2.45076   2.45359
 Alpha virt. eigenvalues --    2.46285   2.47172   2.48484   2.48527   2.48881
 Alpha virt. eigenvalues --    2.49512   2.50383   2.51113   2.51622   2.52749
 Alpha virt. eigenvalues --    2.52938   2.54709   2.55116   2.56308   2.57288
 Alpha virt. eigenvalues --    2.57528   2.59072   2.60135   2.60342   2.61023
 Alpha virt. eigenvalues --    2.62723   2.62980   2.63837   2.64267   2.64633
 Alpha virt. eigenvalues --    2.64812   2.65825   2.66448   2.66754   2.66939
 Alpha virt. eigenvalues --    2.67688   2.67999   2.68748   2.69518   2.69917
 Alpha virt. eigenvalues --    2.70199   2.70897   2.71539   2.72157   2.72680
 Alpha virt. eigenvalues --    2.73165   2.73196   2.74053   2.74988   2.75651
 Alpha virt. eigenvalues --    2.76139   2.76468   2.77359   2.77946   2.78780
 Alpha virt. eigenvalues --    2.79601   2.80241   2.80599   2.81799   2.82400
 Alpha virt. eigenvalues --    2.83174   2.84301   2.84479   2.85677   2.86139
 Alpha virt. eigenvalues --    2.86219   2.86956   2.87687   2.87956   2.88665
 Alpha virt. eigenvalues --    2.89624   2.90004   2.91373   2.91693   2.91976
 Alpha virt. eigenvalues --    2.92731   2.93366   2.94833   2.96353   2.97835
 Alpha virt. eigenvalues --    2.99332   3.00233   3.00858   3.01262   3.02775
 Alpha virt. eigenvalues --    3.04267   3.04885   3.05676   3.06954   3.09148
 Alpha virt. eigenvalues --    3.09250   3.10255   3.11418   3.12595   3.14090
 Alpha virt. eigenvalues --    3.14541   3.16954   3.18115   3.18217   3.18915
 Alpha virt. eigenvalues --    3.19686   3.19995   3.20710   3.21458   3.23198
 Alpha virt. eigenvalues --    3.24089   3.24120   3.25471   3.28420   3.29553
 Alpha virt. eigenvalues --    3.33533   3.37665   3.42010   3.44787   3.49826
 Alpha virt. eigenvalues --    3.50792   3.54984   3.56692   3.56844   3.60072
 Alpha virt. eigenvalues --    3.64451   3.66116   3.68233   3.72636   3.73959
 Alpha virt. eigenvalues --    3.74523
          Condensed to atoms (all electrons):
 Mulliken charges:
               1
     1  O   -0.200972
     2  O   -0.204715
     3  O   -0.237222
     4  O   -0.210178
     5  O   -0.168736
     6  O   -0.150731
     7  N   -0.144510
     8  N   -0.052685
     9  N   -0.170083
    10  N   -0.309936
    11  C   -0.148500
    12  C    0.096528
    13  C   -0.130188
    14  C    0.052732
    15  C   -0.026329
    16  C    0.020179
    17  C   -0.071888
    18  C   -0.184082
    19  C    0.308145
    20  C    0.021415
    21  C    0.068916
    22  C    0.065760
    23  C    0.034254
    24  C   -0.000991
    25  C   -0.124919
    26  C    0.030187
    27  C    0.120449
    28  C   -0.076012
    29  C    0.000789
    30  C    0.081115
    31  C   -0.133677
    32  C    0.057095
    33  C   -0.172846
    34  C    0.055645
    35  C   -0.083197
    36  C   -0.205427
    37  C    0.144386
    38  C    0.135907
    39  C    0.137877
    40  C   -0.036782
    41  C    0.161687
    42  C    0.181694
    43  C   -0.010122
    44  H    0.186868
    45  H    0.013784
    46  H   -0.077423
    47  H   -0.023258
    48  H   -0.008675
    49  H    0.026536
    50  H    0.048372
    51  H    0.028347
    52  H    0.174114
    53  H    0.043336
    54  H    0.037786
    55  H    0.004126
    56  H    0.137214
    57  H    0.060298
    58  H    0.061357
    59  H    0.076690
    60  H    0.001563
    61  H    0.058278
    62  H    0.025624
    63  H   -0.003810
    64  H   -0.022096
    65  H    0.001496
    66  H    0.009676
    67  H   -0.003134
    68  H   -0.002828
    69  H    0.021776
    70  H    0.004269
    71  H    0.041151
    72  H    0.035424
    73  H    0.060272
    74  H    0.015242
    75  H    0.014585
    76  H    0.008617
    77  H   -0.016523
    78  H    0.032921
    79  H    0.029862
    80  H    0.196053
    81  H    0.182080
 Sum of Mulliken charges =  -0.00000
 Mulliken charges with hydrogens summed into heavy atoms:
               1
     1  O   -0.200972
     2  O   -0.008662
     3  O   -0.055142
     4  O   -0.210178
     5  O   -0.168736
     6  O   -0.150731
     7  N    0.042358
     8  N    0.121429
     9  N   -0.032869
    10  N   -0.309936
    11  C   -0.148500
    12  C    0.096528
    13  C   -0.130188
    14  C    0.052732
    15  C   -0.026329
    16  C    0.020179
    17  C   -0.058104
    18  C   -0.184082
    19  C    0.207463
    20  C    0.012740
    21  C    0.068916
    22  C    0.065760
    23  C    0.034254
    24  C    0.073916
    25  C   -0.096572
    26  C    0.115434
    27  C    0.120449
    28  C    0.045643
    29  C    0.079042
    30  C    0.161208
    31  C   -0.155772
    32  C    0.065132
    33  C   -0.175673
    34  C    0.055645
    35  C   -0.083197
    36  C   -0.205427
    37  C    0.144386
    38  C    0.203102
    39  C    0.137877
    40  C    0.058914
    41  C    0.161687
    42  C    0.220137
    43  C    0.036139
 Electronic spatial extent (au):  <R**2>=          30207.3383
 Charge=             -0.0000 electrons
 Dipole moment (field-independent basis, Debye):
    X=             -1.5623    Y=              1.0284    Z=             -0.7541  Tot=              2.0167
 Quadrupole moment (field-independent basis, Debye-Ang):
   XX=           -253.9202   YY=           -241.3824   ZZ=           -250.5551
   XY=             22.0131   XZ=             13.5421   YZ=            -14.6769
 Traceless Quadrupole moment (field-independent basis, Debye-Ang):
   XX=             -5.3010   YY=              7.2369   ZZ=             -1.9359
   XY=             22.0131   XZ=             13.5421   YZ=            -14.6769
 Octapole moment (field-independent basis, Debye-Ang**2):
  XXX=            109.1810  YYY=            144.8199  ZZZ=            -23.5866  XYY=           -169.8304
  XXY=            -58.0443  XXZ=            -98.5648  XZZ=            -61.1359  YZZ=            -36.1244
  YYZ=             30.9350  XYZ=            -50.6830
 Hexadecapole moment (field-independent basis, Debye-Ang**3):
 XXXX=         -22186.2262 YYYY=         -16155.3729 ZZZZ=          -1589.8439 XXXY=            760.7246
 XXXZ=            772.7204 YYYX=            951.0952 YYYZ=           -431.0149 ZZZX=            112.7776
 ZZZY=             50.9052 XXYY=          -6388.9021 XXZZ=          -3861.6195 YYZZ=          -2962.1499
 XXYZ=            115.6609 YYXZ=            291.0158 ZZXY=            215.0833
 N-N= 5.066030259616D+03 E-N=-1.466412049345D+04  KE= 1.929176392671D+03
 1\1\GINC-PADAWAN\SP\RB3LYP TD-FC\SVP\C33H38N4O6\PADAWAN\01-Jul-2019\0\
 \# td=(NStates=1) B3LYP/SVP\\TD\\0,1\O,0,-4.2969612069,-4.9126656378,1
 .8271067391\O,0,2.8750315319,-4.6950408109,1.1476789052\O,0,6.84615091
 94,-1.5669339631,1.8984825278\O,0,3.7513801955,-2.9650845335,0.0026869
 293\O,0,7.6577553121,-0.4214320383,0.1357075381\O,0,-2.9948650726,2.37
 25153023,-0.2901205735\N,0,-0.2292299177,-0.4981040035,-0.5955565686\N
 ,0,1.6106895617,1.8393343659,-0.4516767453\N,0,-3.2919811871,-3.144385
 5516,0.6958659052\N,0,-0.7592844241,2.9269938488,-0.2329271385\C,0,0.6
 932315875,-2.3899869571,-1.3359358887\C,0,0.9596888712,-1.0654237741,-
 1.0560844573\C,0,-0.7172458533,-2.6120995722,-1.1442864913\C,0,-1.2310
 835304,-1.4250028117,-0.6181409441\C,0,3.8194004008,1.4631394804,-0.42
 34866155\C,0,2.493991505,0.8456363891,-0.5935135364\C,0,2.2174869989,-
 0.4963568936,-0.9193114057\C,0,3.5087815183,2.7250123034,0.0021382041\
 C,0,1.6145428594,-3.3720689082,-2.0563329789\C,0,-5.4867775845,-2.8393
 895539,1.2535126156\C,0,-3.6061144707,-1.8310080767,0.2410500368\C,0,2
 .1115754696,2.976117606,-0.0227146481\C,0,-4.9575084471,-1.6401729812,
 0.5090149454\C,0,5.0719424561,0.7167765946,-0.436942653\C,0,-2.5713219
 479,-1.0213406895,-0.2919156654\C,0,-1.4437140335,-3.7979595491,-1.782
 5085677\C,0,-4.366736342,-3.8415183836,1.2756126869\C,0,2.1580869424,-
 4.4260316269,-1.124281655\C,0,5.3081296154,-0.1305111746,0.8356061078\
 C,0,4.4791839797,3.8671595653,0.3093431346\C,0,1.3117098494,4.09068361
 87,0.3144731679\C,0,-6.8519698476,-3.5367484546,0.9089899611\C,0,-5.80
 63302136,-0.6523710211,0.1216793348\C,0,-0.1698449038,4.0490531551,0.1
 571775297\C,0,-1.0984549441,5.1928368174,0.5257110366\C,0,-2.310050478
 7,4.6226737688,0.3155074567\C,0,2.9952161036,-3.9003127015,0.034791168
 3\C,0,-5.4994436539,0.584673756,-0.7319746623\C,0,6.7598858676,-0.6838
 53855,0.8401249107\C,0,-3.7740949524,5.237874846,0.4326277735\C,0,-2.1
 519447461,3.1820231633,-0.1209078606\C,0,-0.6066412552,6.440869757,0.9
 202410757\C,0,-4.2054801106,5.8016361203,-1.0401231038\H,0,-0.31427301
 22,0.3833752033,0.1094212024\H,0,3.0883261936,-1.1386220034,-1.1494850
 359\H,0,2.4512150028,-3.0044220388,-2.3401705642\H,0,1.1516361698,-3.7
 482889398,-2.8847268328\H,0,-5.6375154788,-2.7656951942,2.2186524051\H
 ,0,5.0766001725,-0.033133932,-1.2948598333\H,0,6.0076593333,1.51807133
 52,-0.5855621308\H,0,-2.8908353012,-0.0407562853,-0.6907094684\H,0,0.4
 997472053,1.7509949434,-0.5102084663\H,0,-1.4961843542,-4.8390084713,-
 1.2414536552\H,0,-2.3474448555,-3.2040709935,-2.0506732004\H,0,-1.1669
 318731,-4.1907461434,-2.7575613454\H,0,-2.2926416505,-3.3704867794,0.8
 330259678\H,0,1.163847214,-5.0101737157,-0.7220475947\H,0,2.9263187363
 ,-5.0585399609,-1.7367590578\H,0,4.5301482478,-1.0031014735,0.79016875
 3\H,0,5.2107754229,0.4012061593,1.6989576989\H,0,4.5608066063,4.591489
 5654,-0.5962409959\H,0,5.4742705188,3.1794254757,0.5902948191\H,0,4.19
 88469173,4.3153070028,1.1796536823\H,0,1.8951902976,4.9385830357,0.763
 9274679\H,0,-7.7068222505,-2.8633214156,0.7623175014\H,0,-7.173301394,
 -4.3483412162,1.4370895494\H,0,-6.8171474117,-3.918779294,-0.143502261
 8\H,0,-6.7831428366,-0.7462455331,0.6207800791\H,0,-5.204209393,1.4112
 959505,-0.2260498663\H,0,-6.5041587933,0.8844075158,-1.1097952956\H,0,
 -4.7322825403,0.3033104932,-1.4718139462\H,0,-3.7999919847,6.083102715
 4,1.2724741239\H,0,-4.5195233905,4.2128836203,0.6516411904\H,0,-0.1293
 020747,6.3141019756,1.8724270843\H,0,-1.3965057609,7.2207255273,1.0946
 788196\H,0,0.0972788959,6.7571680025,0.2329242495\H,0,-3.6311310201,6.
 353732999,-1.5779119937\H,0,-5.3047931865,6.2226753836,-0.98292817\H,0
 ,-4.3101944963,4.7552456949,-1.7395134593\H,0,3.4866470652,-4.36718293
 08,1.854966279\H,0,7.7281008347,-1.9982192109,1.9922566087\\Version=ES
 64L-G16RevA.03\State=1-A\HF=-1949.1006059\RMSD=6.685e-09\PG=C01 [X(C33
 H38N4O6)]\\@


 THE SCIENTIFIC THEORIST IS NOT TO BE ENVIED. FOR NATURE, OR MORE
 PRECISELY EXPERIMENT, IS AN INEXORABLE AND NOT VERY FRIENDLY JUDGE OF HIS
 WORK.  IT NEVER SAYS "YES" TO A THEORY. IN THE MOST FAVORABLE CASES
 IT SAYS "MAYBE", AND IN THE GREAT MAJORITY OF CASES SIMPLY "NO"...
 PROBABLY EVERY THEORY WILL SOME DAY EXPERIENCE ITS "NO" - MOST
 THEORIES, SOON AFTER CONCEPTION.  -- A.EINSTEIN, NOV 11, 1922.
 Job cpu time:       0 days  3 hours 46 minutes 20.1 seconds.
 Elapsed time:       0 days  2 hours 31 minutes 19.7 seconds.
 File lengths (MBytes):  RWF=   2591 Int=      0 D2E=      0 Chk=     65 Scr=      1
 Normal termination of Gaussian 16 at Mon Jul  1 08:14:09 2019.
