 Entering Gaussian System, Link 0=g16
 Input=Geometria-140-.com
 Output=Geometria-140-.log
 Initial command:
 /usr/local/g16/l1.exe "/home/padawan/israel-mol/phycocyanobilin/spectra/emi/Gau-29517.inp" -scrdir="/home/padawan/israel-mol/phycocyanobilin/spectra/emi/"
 Entering Link 1 = /usr/local/g16/l1.exe PID=     29519.
  
 Copyright (c) 1988,1990,1992,1993,1995,1998,2003,2009,2016,
            Gaussian, Inc.  All Rights Reserved.
  
 This is part of the Gaussian(R) 16 program.  It is based on
 the Gaussian(R) 09 system (copyright 2009, Gaussian, Inc.),
 the Gaussian(R) 03 system (copyright 2003, Gaussian, Inc.),
 the Gaussian(R) 98 system (copyright 1998, Gaussian, Inc.),
 the Gaussian(R) 94 system (copyright 1995, Gaussian, Inc.),
 the Gaussian 92(TM) system (copyright 1992, Gaussian, Inc.),
 the Gaussian 90(TM) system (copyright 1990, Gaussian, Inc.),
 the Gaussian 88(TM) system (copyright 1988, Gaussian, Inc.),
 the Gaussian 86(TM) system (copyright 1986, Carnegie Mellon
 University), and the Gaussian 82(TM) system (copyright 1983,
 Carnegie Mellon University). Gaussian is a federally registered
 trademark of Gaussian, Inc.
  
 This software contains proprietary and confidential information,
 including trade secrets, belonging to Gaussian, Inc.
  
 This software is provided under written license and may be
 used, copied, transmitted, or stored only in accord with that
 written license.
  
 The following legend is applicable only to US Government
 contracts under FAR:
  
                    RESTRICTED RIGHTS LEGEND
  
 Use, reproduction and disclosure by the US Government is
 subject to restrictions as set forth in subparagraphs (a)
 and (c) of the Commercial Computer Software - Restricted
 Rights clause in FAR 52.227-19.
  
 Gaussian, Inc.
 340 Quinnipiac St., Bldg. 40, Wallingford CT 06492
  
  
 ---------------------------------------------------------------
 Warning -- This program may not be used in any manner that
 competes with the business of Gaussian, Inc. or will provide
 assistance to any competitor of Gaussian, Inc.  The licensee
 of this program is prohibited from giving any competitor of
 Gaussian, Inc. access to this program.  By using this program,
 the user acknowledges that Gaussian, Inc. is engaged in the
 business of creating and licensing software in the field of
 computational chemistry and represents and warrants to the
 licensee that it is not a competitor of Gaussian, Inc. and that
 it will not use this program in any manner prohibited above.
 ---------------------------------------------------------------
  

 Cite this work as:
 Gaussian 16, Revision A.03,
 M. J. Frisch, G. W. Trucks, H. B. Schlegel, G. E. Scuseria, 
 M. A. Robb, J. R. Cheeseman, G. Scalmani, V. Barone, 
 G. A. Petersson, H. Nakatsuji, X. Li, M. Caricato, A. V. Marenich, 
 J. Bloino, B. G. Janesko, R. Gomperts, B. Mennucci, H. P. Hratchian, 
 J. V. Ortiz, A. F. Izmaylov, J. L. Sonnenberg, D. Williams-Young, 
 F. Ding, F. Lipparini, F. Egidi, J. Goings, B. Peng, A. Petrone, 
 T. Henderson, D. Ranasinghe, V. G. Zakrzewski, J. Gao, N. Rega, 
 G. Zheng, W. Liang, M. Hada, M. Ehara, K. Toyota, R. Fukuda, 
 J. Hasegawa, M. Ishida, T. Nakajima, Y. Honda, O. Kitao, H. Nakai, 
 T. Vreven, K. Throssell, J. A. Montgomery, Jr., J. E. Peralta, 
 F. Ogliaro, M. J. Bearpark, J. J. Heyd, E. N. Brothers, K. N. Kudin, 
 V. N. Staroverov, T. A. Keith, R. Kobayashi, J. Normand, 
 K. Raghavachari, A. P. Rendell, J. C. Burant, S. S. Iyengar, 
 J. Tomasi, M. Cossi, J. M. Millam, M. Klene, C. Adamo, R. Cammi, 
 J. W. Ochterski, R. L. Martin, K. Morokuma, O. Farkas, 
 J. B. Foresman, and D. J. Fox, Gaussian, Inc., Wallingford CT, 2016.
 
 ******************************************
 Gaussian 16:  ES64L-G16RevA.03 25-Dec-2016
                28-Jun-2019 
 ******************************************
 %nproc=4
 Will use up to    4 processors via shared memory.
 %Mem=2GB
 --------------------------
 # td=(NStates=1) B3LYP/SVP
 --------------------------
 1/38=1,172=1/1;
 2/12=2,17=6,18=5,40=1/2;
 3/5=18,7=101,11=9,25=1,30=1,74=-5/1,2,3,8;
 4//1;
 5/5=2,38=5/2;
 8/6=1,10=1,108=1/1;
 9/41=1,42=1,70=2/14;
 6/7=2,8=2,9=2,10=2/1;
 99/5=1,9=1/99;
 --
 TD
 --
 Symbolic Z-matrix:
 Charge =  0 Multiplicity = 1
 8                    -4.39064  -4.89648   1.84991 
 8                     2.91454  -4.9416    1.15419 
 8                     7.21392  -1.34293   1.82386 
 8                     3.6716   -3.0617    0.01114 
 8                     7.71928  -0.35129  -0.12959 
 8                    -3.04224   2.37629  -0.34014 
 7                    -0.20376  -0.48662  -0.44934 
 7                     1.56077   1.83937  -0.44951 
 7                    -3.35493  -3.15687   0.73442 
 7                    -0.79902   2.86276   0.10272 
 6                     0.61306  -2.39484  -1.3118 
 6                     0.95546  -1.03796  -0.8569 
 6                    -0.76411  -2.59997  -1.21135 
 6                    -1.31631  -1.4396   -0.65862 
 6                     3.81103   1.49623  -0.32515 
 6                     2.46949   0.7988   -0.523 
 6                     2.26729  -0.5221   -0.63029 
 6                     3.59777   2.85746  -0.00086 
 6                     1.6098   -3.35656  -1.99479 
 6                    -5.63348  -2.8136    1.28189 
 6                    -3.72421  -1.90002   0.26408 
 6                     2.14711   3.05369  -0.01051 
 6                    -5.08101  -1.64434   0.46654 
 6                     5.15242   0.79563  -0.5005 
 6                    -2.747    -1.13274  -0.29302 
 6                    -1.48656  -3.81284  -1.78107 
 6                    -4.50088  -3.82189   1.3404 
 6                     2.03077  -4.46111  -1.08292 
 6                     5.42765  -0.09325   0.67886 
 6                     4.52595   3.90517   0.35327 
 6                     1.29312   4.08427   0.32157 
 6                    -6.86601  -3.36731   0.50757 
 6                    -5.80962  -0.61221  -0.02278 
 6                    -0.05141   4.01488   0.39136 
 6                    -1.00982   5.12278   0.60235 
 6                    -2.28659   4.6227    0.20046 
 6                     2.9053   -3.99027   0.06136 
 6                    -5.42433   0.57742  -0.7658 
 6                     6.93079  -0.54841   0.77207 
 6                    -3.60756   5.22854   0.29041 
 6                    -2.16966   3.1387   -0.014 
 6                    -0.64482   6.60659   0.84966 
 6                    -4.23584   5.36663  -1.03651 
 1                    -0.31386   0.27807   0.12631 
 1                     3.09187  -1.14948  -0.76597 
 1                     2.35215  -2.88843  -2.46281 
 1                     1.11869  -3.79612  -2.90103 
 1                    -5.99101  -2.11733   2.25439 
 1                     5.35007   0.11763  -1.33206 
 1                     6.04366   1.55438  -0.59469 
 1                    -2.90303  -0.10895  -0.10781 
 1                     0.40003   1.80654  -0.27326 
 1                    -1.11567  -5.00579  -1.38985 
 1                    -2.57129  -3.84943  -1.74959 
 1                    -1.23103  -4.00429  -2.83485 
 1                    -2.44531  -3.61691   0.76662 
 1                     1.09628  -4.85786  -0.56354 
 1                     2.71976  -5.08254  -1.64111 
 1                     4.74831  -0.86884   0.73788 
 1                     5.045     0.45759   1.4835 
 1                     4.21445   4.9137   -0.11987 
 1                     5.58521   3.60852   0.07284 
 1                     4.46236   4.04163   1.30538 
 1                     1.65369   5.02889   0.60042 
 1                    -7.8823   -2.75588   0.50886 
 1                    -7.06554  -4.45196   0.87464 
 1                    -6.38748  -3.62929  -0.4985 
 1                    -6.98866  -0.43256   0.30418 
 1                    -4.84169   1.31586  -0.16451 
 1                    -6.41858   1.04749  -0.99717 
 1                    -4.99444   0.55643  -1.79982 
 1                    -3.62363   6.30333   0.57645 
 1                    -4.1488    4.58791   0.83063 
 1                     0.1441    6.45332   1.70427 
 1                    -1.37297   7.3762    0.99921 
 1                    -0.03624   7.03462  -0.02351 
 1                    -3.64327   6.17707  -1.67645 
 1                    -5.35485   5.63338  -1.03104 
 1                    -3.96955   4.43604  -1.40785 
 1                     3.55447  -4.5049    1.77714 
 1                     8.21362  -1.60943   1.794 
 
 Stoichiometry    C33H38N4O6
 Framework group  C1[X(C33H38N4O6)]
 Deg. of freedom   237
 Full point group                 C1      NOp   1
 Largest Abelian subgroup         C1      NOp   1
 Largest concise Abelian subgroup C1      NOp   1
                         Standard orientation:                         
 ---------------------------------------------------------------------
 Center     Atomic      Atomic             Coordinates (Angstroms)
 Number     Number       Type             X           Y           Z
 ---------------------------------------------------------------------
      1          8           0        4.678988   -4.612888   -1.877087
      2          8           0       -2.609453   -5.105723   -1.178953
      3          8           0       -7.120309   -1.772362   -1.830417
      4          8           0       -3.478794   -3.280667   -0.026945
      5          8           0       -7.683836   -0.822299    0.127776
      6          8           0        2.891870    2.554191    0.347063
      7          7           0        0.232956   -0.476639    0.444046
      8          7           0       -1.669865    1.737627    0.455606
      9          7           0        3.540037   -2.944677   -0.753189
     10          7           0        0.622916    2.905263   -0.092726
     11          6           0       -0.465663   -2.434973    1.297965
     12          6           0       -0.890295   -1.099375    0.849472
     13          6           0        0.921377   -2.555442    1.196072
     14          6           0        1.401581   -1.361093    0.648518
     15          6           0       -3.895144    1.258741    0.330471
     16          6           0       -2.513518    0.643350    0.524609
     17          6           0       -2.231237   -0.663275    0.625721
     18          6           0       -3.765332    2.631896    0.012410
     19          6           0       -1.401586   -3.458702    1.976852
     20          6           0        5.793125   -2.460853   -1.299882
     21          6           0        3.832441   -1.669864   -0.277176
     22          6           0       -2.329297    2.916006    0.022446
     23          6           0        5.171040   -1.331151   -0.478938
     24          6           0       -5.191297    0.477003    0.503063
     25          6           0        2.810706   -0.966047    0.283817
     26          6           0        1.716667   -3.724701    1.759910
     27          6           0        4.723950   -3.535926   -1.362651
     28          6           0       -1.755139   -4.582622    1.060034
     29          6           0       -5.412677   -0.421553   -0.680297
     30          6           0       -4.755781    3.622796   -0.336535
     31          6           0       -1.539823    3.998174   -0.305178
     32          6           0        7.057565   -2.942079   -0.528580
     33          6           0        5.835796   -0.258842    0.014885
     34          6           0       -0.193606    4.011062   -0.375769
     35          6           0        0.695458    5.176197   -0.581974
     36          6           0        2.000555    4.752914   -0.182859
     37          6           0       -2.657429   -4.160633   -0.081742
     38          6           0        5.379292    0.901705    0.763542
     39          6           0       -6.885390   -0.966924   -0.775068
     40          6           0        3.282147    5.438435   -0.270489
     41          6           0        1.974294    3.263574    0.024769
     42          6           0        0.240670    6.636159   -0.822292
     43          6           0        3.901714    5.608408    1.056836
     44          1           0        0.295949    0.295980   -0.128104
     45          1           0       -3.016013   -1.340298    0.758788
     46          1           0       -2.170743   -3.038780    2.447305
     47          1           0       -0.884054   -3.871724    2.880873
     48          1           0        6.106993   -1.739655   -2.269280
     49          1           0       -5.346782   -0.215587    1.331553
     50          1           0       -6.127005    1.179663    0.601087
     51          1           0        2.904017    0.066180    0.103295
     52          1           0       -0.509384    1.776310    0.278796
     53          1           0        1.418814   -4.936197    1.363309
     54          1           0        2.801591   -3.695054    1.727875
     55          1           0        1.473937   -3.936185    2.812886
     56          1           0        2.660081   -3.459077   -0.787189
     57          1           0       -0.798564   -4.919373    0.538492
     58          1           0       -2.404667   -5.247399    1.615593
     59          1           0       -4.687430   -1.154080   -0.743151
     60          1           0       -5.064773    0.155246   -1.482513
     61          1           0       -4.505938    4.646229    0.141154
     62          1           0       -5.794846    3.260936   -0.057105
     63          1           0       -4.701228    3.767243   -1.288026
     64          1           0       -1.957391    4.920368   -0.579522
     65          1           0        8.034757   -2.269928   -0.527409
     66          1           0        7.322501   -4.010876   -0.900739
     67          1           0        6.596514   -3.237317    0.476438
     68          1           0        7.001511   -0.006273   -0.311659
     69          1           0        4.752412    1.606065    0.165889
     70          1           0        6.343242    1.430349    0.996732
     71          1           0        4.952142    0.849831    1.797607
     72          1           0        3.232598    6.513515   -0.551561
     73          1           0        3.861025    4.834421   -0.813857
     74          1           0       -0.537997    6.439087   -1.677314
     75          1           0        0.920544    7.449343   -0.968537
     76          1           0       -0.392262    7.022339    0.053073
     77          1           0        3.261328    6.378323    1.700730
     78          1           0        5.002407    5.942785    1.052197
     79          1           0        3.692788    4.661640    1.423960
     80          1           0       -3.275182   -4.705924   -1.799645
     81          1           0       -8.101919   -2.099346   -1.801432
 ---------------------------------------------------------------------
 Rotational constants (GHZ):           0.0769157           0.0541828           0.0338178
 Standard basis: SVP (5D, 7F)
 There are   835 symmetry adapted cartesian basis functions of A   symmetry.
 There are   792 symmetry adapted basis functions of A   symmetry.
   792 basis functions,  1341 primitive gaussians,   835 cartesian basis functions
   156 alpha electrons      156 beta electrons
       nuclear repulsion energy      5042.5433519614 Hartrees.
 NAtoms=   81 NActive=   81 NUniq=   81 SFac= 1.00D+00 NAtFMM=   60 NAOKFM=T Big=T
 Integral buffers will be    131072 words long.
 Regular integral format.
 Two-electron integral symmetry is turned on.
 One-electron integrals computed using PRISM.
 NBasis=   792 RedAO= T EigKep=  3.58D-04  NBF=   792
 NBsUse=   792 1.00D-06 EigRej= -1.00D+00 NBFU=   792
 ExpMin= 1.22D-01 ExpMax= 2.27D+03 ExpMxC= 3.41D+02 IAcc=3 IRadAn=         5 AccDes= 0.00D+00
 Harris functional with IExCor=  402 and IRadAn=       5 diagonalized for initial guess.
 HarFok:  IExCor=  402 AccDes= 0.00D+00 IRadAn=         5 IDoV= 1 UseB2=F ITyADJ=14
 ICtDFT=  3500011 ScaDFX=  1.000000  1.000000  1.000000  1.000000
 FoFCou: FMM=F IPFlag=           0 FMFlag=      100000 FMFlg1=        2001
         NFxFlg=           0 DoJE=T BraDBF=F KetDBF=T FulRan=T
         wScrn=  0.000000 ICntrl=       500 IOpCl=  0 I1Cent=   200000004 NGrid=           0
         NMat0=    1 NMatS0=      1 NMatT0=    0 NMatD0=    1 NMtDS0=    0 NMtDT0=    0
 Petite list used in FoFCou.
 Requested convergence on RMS density matrix=1.00D-08 within 128 cycles.
 Requested convergence on MAX density matrix=1.00D-06.
 Requested convergence on             energy=1.00D-06.
 No special actions if energy rises.
 Integral accuracy reduced to 1.0D-05 until final iterations.
 Initial convergence to 1.0D-05 achieved.  Increase integral accuracy.
 SCF Done:  E(RB3LYP) =  -1949.09270232     A.U. after   17 cycles
            NFock= 17  Conv=0.39D-08     -V/T= 2.0106
 DoSCS=F DFT=T ScalE2(SS,OS)=  1.000000  1.000000
 ExpMin= 1.22D-01 ExpMax= 2.27D+03 ExpMxC= 3.41D+02 IAcc=3 IRadAn=         5 AccDes= 0.00D+00
 HarFok:  IExCor=  205 AccDes= 0.00D+00 IRadAn=         5 IDoV=-2 UseB2=F ITyADJ=14
 ICtDFT= 12500011 ScaDFX=  1.000000  1.000000  1.000000  1.000000
 GSVD:  LWork=       -2193 too small for GESVD, short by        9890 words or        9890 for optimal perf.
 Range of M.O.s used for correlation:    44   792
 NBasis=   792 NAE=   156 NBE=   156 NFC=    43 NFV=     0
 NROrb=    749 NOA=   113 NOB=   113 NVA=   636 NVB=   636

 **** Warning!!: The smallest alpha delta epsilon is  0.63793202D-01

 Orbital symmetries:
       Occupied  (A) (A) (A) (A) (A) (A) (A) (A) (A) (A) (A) (A)
                 (A) (A) (A) (A) (A) (A) (A) (A) (A) (A) (A) (A)
                 (A) (A) (A) (A) (A) (A) (A) (A) (A) (A) (A) (A)
                 (A) (A) (A) (A) (A) (A) (A) (A) (A) (A) (A) (A)
                 (A) (A) (A) (A) (A) (A) (A) (A) (A) (A) (A) (A)
                 (A) (A) (A) (A) (A) (A) (A) (A) (A) (A) (A) (A)
                 (A) (A) (A) (A) (A) (A) (A) (A) (A) (A) (A) (A)
                 (A) (A) (A) (A) (A) (A) (A) (A) (A) (A) (A) (A)
                 (A) (A) (A) (A) (A) (A) (A) (A) (A) (A) (A) (A)
                 (A) (A) (A) (A) (A) (A) (A) (A) (A) (A) (A) (A)
                 (A) (A) (A) (A) (A) (A) (A) (A) (A) (A) (A) (A)
                 (A) (A) (A) (A) (A) (A) (A) (A) (A) (A) (A) (A)
                 (A) (A) (A) (A) (A) (A) (A) (A) (A) (A) (A) (A)
       Virtual   (A) (A) (A) (A) (A) (A) (A) (A) (A) (A) (A) (A)
                 (A) (A) (A) (A) (A) (A) (A) (A) (A) (A) (A) (A)
                 (A) (A) (A) (A) (A) (A) (A) (A) (A) (A) (A) (A)
                 (A) (A) (A) (A) (A) (A) (A) (A) (A) (A) (A) (A)
                 (A) (A) (A) (A) (A) (A) (A) (A) (A) (A) (A) (A)
                 (A) (A) (A) (A) (A) (A) (A) (A) (A) (A) (A) (A)
                 (A) (A) (A) (A) (A) (A) (A) (A) (A) (A) (A) (A)
                 (A) (A) (A) (A) (A) (A) (A) (A) (A) (A) (A) (A)
                 (A) (A) (A) (A) (A) (A) (A) (A) (A) (A) (A) (A)
                 (A) (A) (A) (A) (A) (A) (A) (A) (A) (A) (A) (A)
                 (A) (A) (A) (A) (A) (A) (A) (A) (A) (A) (A) (A)
                 (A) (A) (A) (A) (A) (A) (A) (A) (A) (A) (A) (A)
                 (A) (A) (A) (A) (A) (A) (A) (A) (A) (A) (A) (A)
                 (A) (A) (A) (A) (A) (A) (A) (A) (A) (A) (A) (A)
                 (A) (A) (A) (A) (A) (A) (A) (A) (A) (A) (A) (A)
                 (A) (A) (A) (A) (A) (A) (A) (A) (A) (A) (A) (A)
                 (A) (A) (A) (A) (A) (A) (A) (A) (A) (A) (A) (A)
                 (A) (A) (A) (A) (A) (A) (A) (A) (A) (A) (A) (A)
                 (A) (A) (A) (A) (A) (A) (A) (A) (A) (A) (A) (A)
                 (A) (A) (A) (A) (A) (A) (A) (A) (A) (A) (A) (A)
                 (A) (A) (A) (A) (A) (A) (A) (A) (A) (A) (A) (A)
                 (A) (A) (A) (A) (A) (A) (A) (A) (A) (A) (A) (A)
                 (A) (A) (A) (A) (A) (A) (A) (A) (A) (A) (A) (A)
                 (A) (A) (A) (A) (A) (A) (A) (A) (A) (A) (A) (A)
                 (A) (A) (A) (A) (A) (A) (A) (A) (A) (A) (A) (A)
                 (A) (A) (A) (A) (A) (A) (A) (A) (A) (A) (A) (A)
                 (A) (A) (A) (A) (A) (A) (A) (A) (A) (A) (A) (A)
                 (A) (A) (A) (A) (A) (A) (A) (A) (A) (A) (A) (A)
                 (A) (A) (A) (A) (A) (A) (A) (A) (A) (A) (A) (A)
                 (A) (A) (A) (A) (A) (A) (A) (A) (A) (A) (A) (A)
                 (A) (A) (A) (A) (A) (A) (A) (A) (A) (A) (A) (A)
                 (A) (A) (A) (A) (A) (A) (A) (A) (A) (A) (A) (A)
                 (A) (A) (A) (A) (A) (A) (A) (A) (A) (A) (A) (A)
                 (A) (A) (A) (A) (A) (A) (A) (A) (A) (A) (A) (A)
                 (A) (A) (A) (A) (A) (A) (A) (A) (A) (A) (A) (A)
                 (A) (A) (A) (A) (A) (A) (A) (A) (A) (A) (A) (A)
                 (A) (A) (A) (A) (A) (A) (A) (A) (A) (A) (A) (A)
                 (A) (A) (A) (A) (A) (A) (A) (A) (A) (A) (A) (A)
                 (A) (A) (A) (A) (A) (A) (A) (A) (A) (A) (A) (A)
                 (A) (A) (A) (A) (A) (A) (A) (A) (A) (A) (A) (A)
                 (A) (A) (A) (A) (A) (A) (A) (A) (A) (A) (A) (A)
                 (A) (A) (A) (A) (A) (A) (A) (A) (A) (A) (A) (A)
                 (A) (A) (A) (A) (A) (A) (A) (A) (A) (A) (A) (A)
                 (A) (A) (A) (A) (A) (A) (A) (A) (A) (A) (A) (A)
                 (A) (A) (A) (A) (A) (A) (A) (A) (A) (A) (A) (A)
                 (A) (A) (A) (A) (A) (A) (A) (A) (A) (A) (A) (A)
                 (A) (A) (A) (A) (A) (A) (A) (A) (A) (A) (A) (A)
                 (A) (A) (A) (A) (A) (A) (A) (A) (A) (A) (A) (A)
                 (A) (A) (A) (A) (A) (A) (A) (A) (A) (A) (A) (A)
                 (A) (A) (A) (A) (A) (A) (A) (A) (A) (A) (A) (A)
                 (A) (A) (A) (A) (A) (A) (A) (A) (A) (A) (A) (A)
                 (A) (A) (A) (A) (A) (A) (A) (A) (A) (A) (A) (A)
                 (A) (A) (A) (A) (A) (A) (A) (A) (A) (A) (A) (A)
     4 initial guesses have been made.
 Convergence on wavefunction:    0.001000000000000
 Iteration     1 Dimension     4 NMult     0 NNew      4
 CISAX will form     4 AO SS matrices at one time.
 Iteration     2 Dimension     6 NMult     4 NNew      2
 Iteration     3 Dimension     8 NMult     6 NNew      2
 Iteration     4 Dimension    10 NMult     8 NNew      2
 Iteration     5 Dimension    12 NMult    10 NNew      2
 Iteration     6 Dimension    14 NMult    12 NNew      2
 ***********************************************************************
 Excited states from <AA,BB:AA,BB> singles matrix:
 ***********************************************************************
 
 Ground to excited state transition densities written to RWF  633
 Ground to excited state transition electric dipole moments (Au):
       state          X           Y           Z        Dip. S.      Osc.
         1         1.4079     -2.3738      0.1225      7.6320      0.2936
 Ground to excited state transition velocity dipole moments (Au):
       state          X           Y           Z        Dip. S.      Osc.
         1        -0.0806      0.1315     -0.0062      0.0238      0.2752
 Ground to excited state transition magnetic dipole moments (Au):
       state          X           Y           Z
         1        -0.2237     -0.4542     -2.1202
 Ground to excited state transition velocity quadrupole moments (Au):
       state          XX          YY          ZZ          XY          XZ          YZ
         1        -0.4654      0.4588     -0.0535      0.3236      0.0606     -0.0196
 <0|del|b> * <b|rxdel|0> + <0|del|b> * <b|delr+rdel|0>
 Rotatory Strengths (R) in cgs (10**-40 erg-esu-cm/Gauss)
       state          XX          YY          ZZ    R(velocity)    E-M Angle
         1      -346.0895    213.5140   -216.3244   -116.3000       94.85
 1/2[<0|r|b>*<b|rxdel|0> + (<0|rxdel|b>*<b|r|0>)*]
 Rotatory Strengths (R) in cgs (10**-40 erg-esu-cm/Gauss)
       state          XX          YY          ZZ     R(length)
         1       222.7527   -762.4023    183.6987   -118.6503
  1/2[<0|del|b>*<b|r|0> + (<0|r|b>*<b|del|0>)*] (Au)
       state          X           Y           Z        Dip. S.   Osc.(frdel)
         1        -0.1134     -0.3121     -0.0008      0.4263      0.2842

 Excitation energies and oscillator strengths:
 
 Excited State   1:      Singlet-A      1.5702 eV  789.63 nm  f=0.2936  <S**2>=0.000
     156 ->157         0.71075
     156 <-157        -0.12465
 This state for optimization and/or second-order correction.
 Total Energy, E(TD-HF/TD-DFT) =  -1949.03499983    
 Copying the excited state density for this state as the 1-particle RhoCI density.
 SavETr:  write IOETrn=   770 NScale= 10 NData=  16 NLR=1 NState=    1 LETran=      28.

 **********************************************************************

            Population analysis using the SCF density.

 **********************************************************************

 Orbital symmetries:
       Occupied  (A) (A) (A) (A) (A) (A) (A) (A) (A) (A) (A) (A)
                 (A) (A) (A) (A) (A) (A) (A) (A) (A) (A) (A) (A)
                 (A) (A) (A) (A) (A) (A) (A) (A) (A) (A) (A) (A)
                 (A) (A) (A) (A) (A) (A) (A) (A) (A) (A) (A) (A)
                 (A) (A) (A) (A) (A) (A) (A) (A) (A) (A) (A) (A)
                 (A) (A) (A) (A) (A) (A) (A) (A) (A) (A) (A) (A)
                 (A) (A) (A) (A) (A) (A) (A) (A) (A) (A) (A) (A)
                 (A) (A) (A) (A) (A) (A) (A) (A) (A) (A) (A) (A)
                 (A) (A) (A) (A) (A) (A) (A) (A) (A) (A) (A) (A)
                 (A) (A) (A) (A) (A) (A) (A) (A) (A) (A) (A) (A)
                 (A) (A) (A) (A) (A) (A) (A) (A) (A) (A) (A) (A)
                 (A) (A) (A) (A) (A) (A) (A) (A) (A) (A) (A) (A)
                 (A) (A) (A) (A) (A) (A) (A) (A) (A) (A) (A) (A)
       Virtual   (A) (A) (A) (A) (A) (A) (A) (A) (A) (A) (A) (A)
                 (A) (A) (A) (A) (A) (A) (A) (A) (A) (A) (A) (A)
                 (A) (A) (A) (A) (A) (A) (A) (A) (A) (A) (A) (A)
                 (A) (A) (A) (A) (A) (A) (A) (A) (A) (A) (A) (A)
                 (A) (A) (A) (A) (A) (A) (A) (A) (A) (A) (A) (A)
                 (A) (A) (A) (A) (A) (A) (A) (A) (A) (A) (A) (A)
                 (A) (A) (A) (A) (A) (A) (A) (A) (A) (A) (A) (A)
                 (A) (A) (A) (A) (A) (A) (A) (A) (A) (A) (A) (A)
                 (A) (A) (A) (A) (A) (A) (A) (A) (A) (A) (A) (A)
                 (A) (A) (A) (A) (A) (A) (A) (A) (A) (A) (A) (A)
                 (A) (A) (A) (A) (A) (A) (A) (A) (A) (A) (A) (A)
                 (A) (A) (A) (A) (A) (A) (A) (A) (A) (A) (A) (A)
                 (A) (A) (A) (A) (A) (A) (A) (A) (A) (A) (A) (A)
                 (A) (A) (A) (A) (A) (A) (A) (A) (A) (A) (A) (A)
                 (A) (A) (A) (A) (A) (A) (A) (A) (A) (A) (A) (A)
                 (A) (A) (A) (A) (A) (A) (A) (A) (A) (A) (A) (A)
                 (A) (A) (A) (A) (A) (A) (A) (A) (A) (A) (A) (A)
                 (A) (A) (A) (A) (A) (A) (A) (A) (A) (A) (A) (A)
                 (A) (A) (A) (A) (A) (A) (A) (A) (A) (A) (A) (A)
                 (A) (A) (A) (A) (A) (A) (A) (A) (A) (A) (A) (A)
                 (A) (A) (A) (A) (A) (A) (A) (A) (A) (A) (A) (A)
                 (A) (A) (A) (A) (A) (A) (A) (A) (A) (A) (A) (A)
                 (A) (A) (A) (A) (A) (A) (A) (A) (A) (A) (A) (A)
                 (A) (A) (A) (A) (A) (A) (A) (A) (A) (A) (A) (A)
                 (A) (A) (A) (A) (A) (A) (A) (A) (A) (A) (A) (A)
                 (A) (A) (A) (A) (A) (A) (A) (A) (A) (A) (A) (A)
                 (A) (A) (A) (A) (A) (A) (A) (A) (A) (A) (A) (A)
                 (A) (A) (A) (A) (A) (A) (A) (A) (A) (A) (A) (A)
                 (A) (A) (A) (A) (A) (A) (A) (A) (A) (A) (A) (A)
                 (A) (A) (A) (A) (A) (A) (A) (A) (A) (A) (A) (A)
                 (A) (A) (A) (A) (A) (A) (A) (A) (A) (A) (A) (A)
                 (A) (A) (A) (A) (A) (A) (A) (A) (A) (A) (A) (A)
                 (A) (A) (A) (A) (A) (A) (A) (A) (A) (A) (A) (A)
                 (A) (A) (A) (A) (A) (A) (A) (A) (A) (A) (A) (A)
                 (A) (A) (A) (A) (A) (A) (A) (A) (A) (A) (A) (A)
                 (A) (A) (A) (A) (A) (A) (A) (A) (A) (A) (A) (A)
                 (A) (A) (A) (A) (A) (A) (A) (A) (A) (A) (A) (A)
                 (A) (A) (A) (A) (A) (A) (A) (A) (A) (A) (A) (A)
                 (A) (A) (A) (A) (A) (A) (A) (A) (A) (A) (A) (A)
                 (A) (A) (A) (A) (A) (A) (A) (A) (A) (A) (A) (A)
                 (A) (A) (A) (A) (A) (A) (A) (A) (A) (A) (A) (A)
                 (A) (A) (A) (A) (A) (A) (A) (A) (A) (A) (A) (A)
                 (A) (A) (A) (A) (A) (A) (A) (A) (A) (A) (A) (A)
                 (A) (A) (A) (A) (A) (A) (A) (A) (A) (A) (A) (A)
                 (A) (A) (A) (A) (A) (A) (A) (A) (A) (A) (A) (A)
                 (A) (A) (A) (A) (A) (A) (A) (A) (A) (A) (A) (A)
                 (A) (A) (A) (A) (A) (A) (A) (A) (A) (A) (A) (A)
                 (A) (A) (A) (A) (A) (A) (A) (A) (A) (A) (A) (A)
                 (A) (A) (A) (A) (A) (A) (A) (A) (A) (A) (A) (A)
                 (A) (A) (A) (A) (A) (A) (A) (A) (A) (A) (A) (A)
                 (A) (A) (A) (A) (A) (A) (A) (A) (A) (A) (A) (A)
                 (A) (A) (A) (A) (A) (A) (A) (A) (A) (A) (A) (A)
                 (A) (A) (A) (A) (A) (A) (A) (A) (A) (A) (A) (A)
 The electronic state is 1-A.
 Alpha  occ. eigenvalues --  -19.19114 -19.18640 -19.15639 -19.12964 -19.12410
 Alpha  occ. eigenvalues --  -19.10563 -14.37610 -14.36571 -14.35219 -14.28623
 Alpha  occ. eigenvalues --  -10.33850 -10.32667 -10.30295 -10.26387 -10.24536
 Alpha  occ. eigenvalues --  -10.24448 -10.23811 -10.23432 -10.23276 -10.22918
 Alpha  occ. eigenvalues --  -10.22649 -10.22096 -10.21730 -10.21613 -10.21113
 Alpha  occ. eigenvalues --  -10.20946 -10.20829 -10.20666 -10.20588 -10.20402
 Alpha  occ. eigenvalues --  -10.20268 -10.20163 -10.20029 -10.20019 -10.19777
 Alpha  occ. eigenvalues --  -10.19375 -10.19289 -10.18632 -10.18628 -10.18059
 Alpha  occ. eigenvalues --  -10.17288 -10.17123 -10.16750  -1.09273  -1.09247
 Alpha  occ. eigenvalues --   -1.05085  -1.02347  -1.01176  -1.00343  -0.97455
 Alpha  occ. eigenvalues --   -0.95389  -0.94993  -0.90085  -0.82908  -0.82105
 Alpha  occ. eigenvalues --   -0.81925  -0.81730  -0.80181  -0.79430  -0.78009
 Alpha  occ. eigenvalues --   -0.77692  -0.77102  -0.74970  -0.74337  -0.72053
 Alpha  occ. eigenvalues --   -0.71099  -0.69727  -0.68693  -0.68300  -0.67272
 Alpha  occ. eigenvalues --   -0.66334  -0.65359  -0.64523  -0.61879  -0.60624
 Alpha  occ. eigenvalues --   -0.59526  -0.59405  -0.59159  -0.57080  -0.56842
 Alpha  occ. eigenvalues --   -0.56148  -0.55784  -0.54993  -0.53573  -0.53122
 Alpha  occ. eigenvalues --   -0.52427  -0.51556  -0.51230  -0.50520  -0.50377
 Alpha  occ. eigenvalues --   -0.50077  -0.49113  -0.48405  -0.48007  -0.47919
 Alpha  occ. eigenvalues --   -0.47310  -0.46790  -0.46187  -0.46098  -0.45399
 Alpha  occ. eigenvalues --   -0.45347  -0.45125  -0.44246  -0.43898  -0.43650
 Alpha  occ. eigenvalues --   -0.43291  -0.43186  -0.42811  -0.42700  -0.42423
 Alpha  occ. eigenvalues --   -0.42234  -0.41958  -0.41730  -0.41371  -0.41033
 Alpha  occ. eigenvalues --   -0.40704  -0.40343  -0.40205  -0.40064  -0.39657
 Alpha  occ. eigenvalues --   -0.39444  -0.39309  -0.39088  -0.38733  -0.38427
 Alpha  occ. eigenvalues --   -0.38194  -0.37570  -0.37382  -0.36945  -0.36616
 Alpha  occ. eigenvalues --   -0.36471  -0.36185  -0.35845  -0.35514  -0.34772
 Alpha  occ. eigenvalues --   -0.33970  -0.33627  -0.33604  -0.33175  -0.32742
 Alpha  occ. eigenvalues --   -0.32525  -0.31938  -0.31795  -0.30010  -0.29705
 Alpha  occ. eigenvalues --   -0.28631  -0.27431  -0.27270  -0.26471  -0.25872
 Alpha  occ. eigenvalues --   -0.24931  -0.24704  -0.23608  -0.22335  -0.21267
 Alpha  occ. eigenvalues --   -0.17434
 Alpha virt. eigenvalues --   -0.11055  -0.05934  -0.04553  -0.02360  -0.02024
 Alpha virt. eigenvalues --   -0.00080   0.01508   0.02213   0.02926   0.03699
 Alpha virt. eigenvalues --    0.04317   0.04425   0.04694   0.04998   0.05497
 Alpha virt. eigenvalues --    0.06896   0.07219   0.07530   0.07958   0.08068
 Alpha virt. eigenvalues --    0.08598   0.08947   0.09182   0.09535   0.09659
 Alpha virt. eigenvalues --    0.09932   0.10416   0.10786   0.11069   0.11450
 Alpha virt. eigenvalues --    0.11538   0.11967   0.12095   0.12593   0.12694
 Alpha virt. eigenvalues --    0.13232   0.13429   0.14045   0.14151   0.14395
 Alpha virt. eigenvalues --    0.14536   0.14923   0.15317   0.15813   0.16110
 Alpha virt. eigenvalues --    0.16571   0.16876   0.17137   0.17477   0.18344
 Alpha virt. eigenvalues --    0.18960   0.18990   0.19356   0.19574   0.20027
 Alpha virt. eigenvalues --    0.20094   0.21218   0.21320   0.21677   0.22183
 Alpha virt. eigenvalues --    0.22493   0.22561   0.23019   0.23422   0.23613
 Alpha virt. eigenvalues --    0.24081   0.24475   0.25170   0.25609   0.25970
 Alpha virt. eigenvalues --    0.26444   0.26715   0.27614   0.28140   0.28279
 Alpha virt. eigenvalues --    0.28684   0.29405   0.29804   0.30395   0.30787
 Alpha virt. eigenvalues --    0.31496   0.31695   0.32176   0.32615   0.33216
 Alpha virt. eigenvalues --    0.33994   0.34357   0.35070   0.35966   0.36208
 Alpha virt. eigenvalues --    0.37119   0.37589   0.37825   0.38044   0.38545
 Alpha virt. eigenvalues --    0.38848   0.39897   0.40111   0.41166   0.41348
 Alpha virt. eigenvalues --    0.41759   0.41964   0.42392   0.42792   0.43029
 Alpha virt. eigenvalues --    0.43172   0.43562   0.43642   0.44024   0.44538
 Alpha virt. eigenvalues --    0.44849   0.45531   0.45546   0.45832   0.46132
 Alpha virt. eigenvalues --    0.46434   0.46675   0.47243   0.47440   0.47732
 Alpha virt. eigenvalues --    0.48534   0.48873   0.49033   0.49094   0.49644
 Alpha virt. eigenvalues --    0.49766   0.49977   0.50340   0.50611   0.51251
 Alpha virt. eigenvalues --    0.51529   0.52325   0.52641   0.52865   0.53354
 Alpha virt. eigenvalues --    0.53629   0.53954   0.54230   0.54722   0.55286
 Alpha virt. eigenvalues --    0.55399   0.56120   0.56918   0.57082   0.57437
 Alpha virt. eigenvalues --    0.58016   0.58335   0.58533   0.59192   0.59662
 Alpha virt. eigenvalues --    0.59965   0.60209   0.60361   0.60454   0.60872
 Alpha virt. eigenvalues --    0.61292   0.61584   0.61846   0.62240   0.62498
 Alpha virt. eigenvalues --    0.62777   0.63027   0.63295   0.63476   0.63562
 Alpha virt. eigenvalues --    0.63685   0.64073   0.64248   0.64355   0.64606
 Alpha virt. eigenvalues --    0.64688   0.64921   0.65140   0.65250   0.65619
 Alpha virt. eigenvalues --    0.65761   0.65886   0.66127   0.66542   0.66714
 Alpha virt. eigenvalues --    0.66940   0.67379   0.67686   0.67803   0.68166
 Alpha virt. eigenvalues --    0.68395   0.68440   0.68947   0.69227   0.69510
 Alpha virt. eigenvalues --    0.69668   0.69909   0.70141   0.70204   0.70474
 Alpha virt. eigenvalues --    0.70823   0.71174   0.71232   0.71404   0.71952
 Alpha virt. eigenvalues --    0.72564   0.72849   0.73174   0.73737   0.74080
 Alpha virt. eigenvalues --    0.74624   0.74756   0.74938   0.75412   0.75860
 Alpha virt. eigenvalues --    0.76132   0.76400   0.77010   0.77324   0.77435
 Alpha virt. eigenvalues --    0.78000   0.78355   0.79337   0.80023   0.80214
 Alpha virt. eigenvalues --    0.80464   0.81154   0.81599   0.81905   0.82326
 Alpha virt. eigenvalues --    0.82873   0.83446   0.84345   0.84680   0.85581
 Alpha virt. eigenvalues --    0.86682   0.87648   0.87936   0.89349   0.89849
 Alpha virt. eigenvalues --    0.90323   0.90787   0.90950   0.92094   0.92338
 Alpha virt. eigenvalues --    0.92909   0.93152   0.93788   0.94104   0.95207
 Alpha virt. eigenvalues --    0.95288   0.95974   0.96198   0.96742   0.96971
 Alpha virt. eigenvalues --    0.97392   0.97714   0.98996   0.99427   1.00216
 Alpha virt. eigenvalues --    1.00694   1.01108   1.01352   1.02190   1.02490
 Alpha virt. eigenvalues --    1.03029   1.04176   1.04780   1.05254   1.05777
 Alpha virt. eigenvalues --    1.07960   1.08422   1.09220   1.09626   1.10488
 Alpha virt. eigenvalues --    1.10668   1.11072   1.13020   1.13215   1.13672
 Alpha virt. eigenvalues --    1.14334   1.15232   1.15698   1.16475   1.16898
 Alpha virt. eigenvalues --    1.18166   1.18489   1.19161   1.19333   1.20191
 Alpha virt. eigenvalues --    1.20379   1.20838   1.21281   1.21906   1.22303
 Alpha virt. eigenvalues --    1.23033   1.23918   1.24914   1.25107   1.26150
 Alpha virt. eigenvalues --    1.26686   1.27108   1.28078   1.28859   1.29084
 Alpha virt. eigenvalues --    1.30665   1.31659   1.32100   1.32231   1.33288
 Alpha virt. eigenvalues --    1.33833   1.34534   1.35724   1.36057   1.36359
 Alpha virt. eigenvalues --    1.37708   1.37819   1.38182   1.39447   1.39886
 Alpha virt. eigenvalues --    1.40709   1.41048   1.42700   1.42972   1.43147
 Alpha virt. eigenvalues --    1.44327   1.45111   1.45355   1.46050   1.47079
 Alpha virt. eigenvalues --    1.48243   1.48386   1.48487   1.49261   1.49531
 Alpha virt. eigenvalues --    1.49867   1.50083   1.50254   1.50608   1.51274
 Alpha virt. eigenvalues --    1.51382   1.52293   1.52679   1.53230   1.54205
 Alpha virt. eigenvalues --    1.54798   1.55369   1.55695   1.56760   1.57342
 Alpha virt. eigenvalues --    1.57942   1.58875   1.59124   1.59558   1.60845
 Alpha virt. eigenvalues --    1.61066   1.61309   1.62253   1.62631   1.62967
 Alpha virt. eigenvalues --    1.63704   1.64424   1.64908   1.65501   1.65563
 Alpha virt. eigenvalues --    1.65774   1.66335   1.66722   1.67451   1.67703
 Alpha virt. eigenvalues --    1.68081   1.68183   1.69073   1.69488   1.69852
 Alpha virt. eigenvalues --    1.70139   1.70432   1.71139   1.71851   1.72110
 Alpha virt. eigenvalues --    1.72329   1.72874   1.73560   1.73933   1.74440
 Alpha virt. eigenvalues --    1.74892   1.75270   1.76076   1.76315   1.76411
 Alpha virt. eigenvalues --    1.77205   1.77492   1.77810   1.78501   1.78674
 Alpha virt. eigenvalues --    1.78876   1.78970   1.79285   1.79653   1.80063
 Alpha virt. eigenvalues --    1.80296   1.80762   1.80992   1.81596   1.81726
 Alpha virt. eigenvalues --    1.82273   1.82584   1.83060   1.83224   1.83698
 Alpha virt. eigenvalues --    1.84051   1.84378   1.84746   1.85142   1.85279
 Alpha virt. eigenvalues --    1.86309   1.86608   1.86823   1.87990   1.88596
 Alpha virt. eigenvalues --    1.88688   1.88907   1.89431   1.90010   1.90493
 Alpha virt. eigenvalues --    1.90843   1.90991   1.91383   1.91674   1.92225
 Alpha virt. eigenvalues --    1.92283   1.92810   1.93318   1.93742   1.94293
 Alpha virt. eigenvalues --    1.94881   1.95626   1.95884   1.96317   1.96430
 Alpha virt. eigenvalues --    1.97040   1.97621   1.98181   1.99330   1.99445
 Alpha virt. eigenvalues --    1.99975   2.00285   2.00809   2.01636   2.01930
 Alpha virt. eigenvalues --    2.02355   2.02809   2.03338   2.03634   2.03909
 Alpha virt. eigenvalues --    2.05034   2.05192   2.06014   2.06234   2.06752
 Alpha virt. eigenvalues --    2.07884   2.08061   2.08690   2.08924   2.09235
 Alpha virt. eigenvalues --    2.09742   2.10145   2.11273   2.11842   2.12547
 Alpha virt. eigenvalues --    2.12959   2.13365   2.13800   2.14387   2.14833
 Alpha virt. eigenvalues --    2.15331   2.16064   2.16613   2.17242   2.17476
 Alpha virt. eigenvalues --    2.18147   2.18783   2.19614   2.20095   2.21589
 Alpha virt. eigenvalues --    2.22381   2.22916   2.23179   2.23850   2.24561
 Alpha virt. eigenvalues --    2.24654   2.25731   2.27244   2.27503   2.28445
 Alpha virt. eigenvalues --    2.28718   2.30168   2.30423   2.31353   2.31775
 Alpha virt. eigenvalues --    2.33593   2.33698   2.33919   2.34837   2.35342
 Alpha virt. eigenvalues --    2.35679   2.36587   2.37021   2.37578   2.38115
 Alpha virt. eigenvalues --    2.38975   2.40128   2.40506   2.41159   2.41865
 Alpha virt. eigenvalues --    2.42668   2.43726   2.44569   2.45205   2.45483
 Alpha virt. eigenvalues --    2.46382   2.46978   2.47335   2.49246   2.50065
 Alpha virt. eigenvalues --    2.50586   2.50925   2.51157   2.52002   2.52527
 Alpha virt. eigenvalues --    2.52996   2.55167   2.55485   2.56056   2.56736
 Alpha virt. eigenvalues --    2.57048   2.57680   2.58221   2.58770   2.59258
 Alpha virt. eigenvalues --    2.59827   2.60956   2.61742   2.62396   2.63299
 Alpha virt. eigenvalues --    2.63393   2.64057   2.64721   2.65573   2.66068
 Alpha virt. eigenvalues --    2.66528   2.66671   2.67379   2.67966   2.69284
 Alpha virt. eigenvalues --    2.69611   2.70594   2.70865   2.71575   2.72503
 Alpha virt. eigenvalues --    2.72759   2.72882   2.73063   2.73964   2.74319
 Alpha virt. eigenvalues --    2.75925   2.76587   2.77615   2.77843   2.79327
 Alpha virt. eigenvalues --    2.80351   2.81221   2.82355   2.82698   2.83372
 Alpha virt. eigenvalues --    2.83644   2.84114   2.84227   2.85213   2.85685
 Alpha virt. eigenvalues --    2.86355   2.86721   2.87164   2.88246   2.88884
 Alpha virt. eigenvalues --    2.89611   2.89998   2.90720   2.91663   2.92787
 Alpha virt. eigenvalues --    2.93262   2.93844   2.94114   2.94815   2.94879
 Alpha virt. eigenvalues --    2.95575   2.96714   2.97689   2.99979   3.00997
 Alpha virt. eigenvalues --    3.03527   3.04059   3.04640   3.05999   3.06616
 Alpha virt. eigenvalues --    3.07796   3.08440   3.09122   3.11022   3.12473
 Alpha virt. eigenvalues --    3.14115   3.14878   3.15945   3.16635   3.17488
 Alpha virt. eigenvalues --    3.18054   3.18999   3.19396   3.19827   3.20713
 Alpha virt. eigenvalues --    3.20987   3.21895   3.24353   3.26359   3.29374
 Alpha virt. eigenvalues --    3.32050   3.37315   3.41360   3.44710   3.47930
 Alpha virt. eigenvalues --    3.48471   3.51164   3.52883   3.58625   3.59884
 Alpha virt. eigenvalues --    3.62204   3.63541   3.66237   3.68489   3.72714
 Alpha virt. eigenvalues --    3.73815
          Condensed to atoms (all electrons):
 Mulliken charges:
               1
     1  O   -0.166736
     2  O   -0.255041
     3  O   -0.212788
     4  O   -0.205578
     5  O   -0.232118
     6  O   -0.202967
     7  N   -0.073334
     8  N   -0.217574
     9  N   -0.175135
    10  N   -0.376632
    11  C   -0.172293
    12  C    0.070410
    13  C   -0.071606
    14  C    0.026472
    15  C   -0.106216
    16  C    0.137525
    17  C   -0.032684
    18  C   -0.115526
    19  C    0.165980
    20  C   -0.116726
    21  C    0.117354
    22  C    0.134870
    23  C    0.028417
    24  C    0.056209
    25  C   -0.071193
    26  C    0.001389
    27  C    0.169210
    28  C    0.067639
    29  C    0.022428
    30  C    0.173541
    31  C   -0.089153
    32  C   -0.007878
    33  C   -0.208536
    34  C    0.116144
    35  C   -0.086778
    36  C   -0.239012
    37  C    0.135727
    38  C    0.041678
    39  C    0.166852
    40  C    0.195517
    41  C    0.193558
    42  C    0.048972
    43  C   -0.033365
    44  H    0.103353
    45  H   -0.010788
    46  H   -0.038391
    47  H   -0.002892
    48  H    0.085986
    49  H    0.018157
    50  H    0.027949
    51  H   -0.009656
    52  H    0.206238
    53  H    0.026840
    54  H    0.030223
    55  H    0.024502
    56  H    0.140713
    57  H    0.052543
    58  H    0.043700
    59  H    0.008988
    60  H   -0.003551
    61  H    0.029641
    62  H    0.024871
    63  H   -0.026012
    64  H   -0.067383
    65  H    0.061604
    66  H    0.035452
    67  H    0.023422
    68  H    0.024440
    69  H    0.079963
    70  H   -0.009207
    71  H    0.037394
    72  H   -0.012866
    73  H   -0.024828
    74  H    0.033143
    75  H    0.021192
    76  H    0.034711
    77  H    0.005510
    78  H    0.023274
    79  H   -0.002071
    80  H    0.189203
    81  H    0.213611
 Sum of Mulliken charges =  -0.00000
 Mulliken charges with hydrogens summed into heavy atoms:
               1
     1  O   -0.166736
     2  O   -0.065838
     3  O    0.000823
     4  O   -0.205578
     5  O   -0.232118
     6  O   -0.202967
     7  N    0.030019
     8  N   -0.011336
     9  N   -0.034422
    10  N   -0.376632
    11  C   -0.172293
    12  C    0.070410
    13  C   -0.071606
    14  C    0.026472
    15  C   -0.106216
    16  C    0.137525
    17  C   -0.043472
    18  C   -0.115526
    19  C    0.124697
    20  C   -0.030741
    21  C    0.117354
    22  C    0.134870
    23  C    0.028417
    24  C    0.102315
    25  C   -0.080849
    26  C    0.082954
    27  C    0.169210
    28  C    0.163882
    29  C    0.027865
    30  C    0.202041
    31  C   -0.156535
    32  C    0.112600
    33  C   -0.184095
    34  C    0.116144
    35  C   -0.086778
    36  C   -0.239012
    37  C    0.135727
    38  C    0.149828
    39  C    0.166852
    40  C    0.157823
    41  C    0.193558
    42  C    0.138018
    43  C   -0.006653
 Electronic spatial extent (au):  <R**2>=          30558.8431
 Charge=             -0.0000 electrons
 Dipole moment (field-independent basis, Debye):
    X=             -2.4900    Y=              0.3650    Z=             -0.9621  Tot=              2.6942
 Quadrupole moment (field-independent basis, Debye-Ang):
   XX=           -243.8503   YY=           -243.1510   ZZ=           -255.7491
   XY=             11.8785   XZ=             15.8045   YZ=            -16.1927
 Traceless Quadrupole moment (field-independent basis, Debye-Ang):
   XX=              3.7332   YY=              4.4325   ZZ=             -8.1657
   XY=             11.8785   XZ=             15.8045   YZ=            -16.1927
 Octapole moment (field-independent basis, Debye-Ang**2):
  XXX=              6.2420  YYY=            126.3067  ZZZ=            -13.7299  XYY=           -168.9538
  XXY=            -12.5623  XXZ=           -120.5661  XZZ=            -60.8365  YZZ=            -39.9306
  YYZ=             50.7161  XYZ=            -59.7886
 Hexadecapole moment (field-independent basis, Debye-Ang**3):
 XXXX=         -21844.0332 YYYY=         -16126.7215 ZZZZ=          -1522.5864 XXXY=            860.9808
 XXXZ=           1051.5540 YYYX=            746.1209 YYYZ=           -386.8085 ZZZX=             92.7443
 ZZZY=             29.1806 XXYY=          -6528.8222 XXZZ=          -4056.9057 YYZZ=          -3061.9495
 XXYZ=              6.3557 YYXZ=            302.3995 ZZXY=            215.8522
 N-N= 5.042543351961D+03 E-N=-1.461648533664D+04  KE= 1.928562884371D+03
 1\1\GINC-PADAWAN\SP\RB3LYP TD-FC\SVP\C33H38N4O6\PADAWAN\28-Jun-2019\0\
 \# td=(NStates=1) B3LYP/SVP\\TD\\0,1\O,0,-4.3906405749,-4.8964840196,1
 .8499090193\O,0,2.9145354822,-4.9415954663,1.1541895563\O,0,7.21391769
 61,-1.3429315629,1.823855065\O,0,3.6716022177,-3.0617041954,0.01113777
 44\O,0,7.7192814647,-0.3512850236,-0.1295889916\O,0,-3.0422398101,2.37
 62856794,-0.340135575\N,0,-0.2037573704,-0.4866228554,-0.4493419471\N,
 0,1.5607745702,1.8393743699,-0.4495065283\N,0,-3.3549274817,-3.1568667
 997,0.7344197606\N,0,-0.7990183975,2.8627574251,0.1027164258\C,0,0.613
 0635707,-2.3948374421,-1.3118034754\C,0,0.9554584481,-1.0379610278,-0.
 8569045394\C,0,-0.7641105398,-2.599968359,-1.211353198\C,0,-1.31631205
 32,-1.4396042718,-0.6586249925\C,0,3.8110295638,1.4962327898,-0.325146
 7815\C,0,2.4694890547,0.7988017057,-0.5229964846\C,0,2.2672919794,-0.5
 220994678,-0.6302925039\C,0,3.5977704171,2.8574555478,-0.0008620959\C,
 0,1.6098023853,-3.356557357,-1.9947868243\C,0,-5.6334822549,-2.8135969
 746,1.2818854528\C,0,-3.7242062799,-1.9000249784,0.26408234\C,0,2.1471
 09023,3.0536853627,-0.0105134279\C,0,-5.0810107974,-1.6443433982,0.466
 540698\C,0,5.152420504,0.7956344803,-0.5004990086\C,0,-2.7469995157,-1
 .1327418296,-0.2930157754\C,0,-1.4865583179,-3.8128410372,-1.781068423
 6\C,0,-4.5008797564,-3.8218864204,1.3403991655\C,0,2.0307742111,-4.461
 1051342,-1.0829175186\C,0,5.4276515676,-0.0932474482,0.6788604332\C,0,
 4.5259486562,3.9051733666,0.3532675271\C,0,1.2931179902,4.0842729776,0
 .321573878\C,0,-6.8660112517,-3.367311511,0.5075698191\C,0,-5.80962054
 27,-0.6122070047,-0.0227751106\C,0,-0.0514130606,4.0148797378,0.391360
 948\C,0,-1.0098160802,5.1227798117,0.6023487004\C,0,-2.2865881325,4.62
 27037718,0.2004559516\C,0,2.9052971117,-3.9902716974,0.0613638256\C,0,
 -5.4243261421,0.5774230309,-0.7657980446\C,0,6.9307929583,-0.548410310
 6,0.772068105\C,0,-3.6075582987,5.2285439129,0.2904135521\C,0,-2.16965
 65173,3.1386988309,-0.0139971695\C,0,-0.6448150726,6.6065863286,0.8496
 64018\C,0,-4.2358431469,5.36663262,-1.0365127428\H,0,-0.3138629712,0.2
 780746733,0.1263128916\H,0,3.0918665477,-1.1494830895,-0.7659666841\H,
 0,2.3521450958,-2.8884304396,-2.4628128284\H,0,1.1186928755,-3.7961237
 233,-2.9010284629\H,0,-5.9910108284,-2.1173303577,2.2543859785\H,0,5.3
 500675193,0.1176311445,-1.3320635537\H,0,6.0436629337,1.5543849666,-0.
 5946930439\H,0,-2.9030265204,-0.108953105,-0.1078111786\H,0,0.40002723
 33,1.8065404979,-0.273264772\H,0,-1.1156663024,-5.005785149,-1.3898484
 946\H,0,-2.5712872397,-3.849425529,-1.7495930924\H,0,-1.2310282827,-4.
 0042874975,-2.8348490742\H,0,-2.445306917,-3.6169114218,0.7666193271\H
 ,0,1.0962804573,-4.8578584841,-0.5635417441\H,0,2.7197580802,-5.082542
 3611,-1.6411094928\H,0,4.748310064,-0.8688380472,0.7378835245\H,0,5.04
 49988453,0.4575917979,1.4834961527\H,0,4.2144519708,4.9137017866,-0.11
 98733591\H,0,5.5852116129,3.608518385,0.0728430739\H,0,4.4623632689,4.
 0416296351,1.3053762545\H,0,1.6536861472,5.0288920666,0.6004211173\H,0
 ,-7.8822997983,-2.7558806716,0.5088621558\H,0,-7.065540618,-4.45196157
 83,0.8746433047\H,0,-6.3874844454,-3.6292903451,-0.4984977614\H,0,-6.9
 886633886,-0.4325641649,0.3041784189\H,0,-4.8416931414,1.3158564065,-0
 .1645137127\H,0,-6.4185802354,1.0474938244,-0.9971740335\H,0,-4.994438
 7559,0.5564258048,-1.7998167465\H,0,-3.6236343489,6.3033347386,0.57645
 4522\H,0,-4.1487963178,4.587911123,0.8306290892\H,0,0.144095265,6.4533
 15897,1.7042702686\H,0,-1.3729734076,7.3762010748,0.9992092726\H,0,-0.
 0362444564,7.0346157473,-0.023511394\H,0,-3.6432722342,6.1770653322,-1
 .6764518477\H,0,-5.354848192,5.6333764537,-1.0310429815\H,0,-3.9695504
 319,4.4360437747,-1.407850293\H,0,3.5544738479,-4.5048967022,1.7771384
 962\H,0,8.2136193865,-1.609430332,1.7939967827\\Version=ES64L-G16RevA.
 03\State=1-A\HF=-1949.0927023\RMSD=3.937e-09\PG=C01 [X(C33H38N4O6)]\\@


 I am not a vegetarian because I love animals;
 I am a vegetarian because I hate plants.
                               -- A. Whitney Brown
 Job cpu time:       0 days  3 hours 49 minutes 12.4 seconds.
 Elapsed time:       0 days  2 hours 32 minutes 57.3 seconds.
 File lengths (MBytes):  RWF=   2591 Int=      0 D2E=      0 Chk=     65 Scr=      1
 Normal termination of Gaussian 16 at Fri Jun 28 19:17:57 2019.
