 Entering Gaussian System, Link 0=g16
 Input=Geometria-471-.com
 Output=Geometria-471-.log
 Initial command:
 /usr/local/g16/l1.exe "/home/padawan/israel-mol/phycocyanobilin/spectra/emi/Gau-6276.inp" -scrdir="/home/padawan/israel-mol/phycocyanobilin/spectra/emi/"
 Entering Link 1 = /usr/local/g16/l1.exe PID=      6278.
  
 Copyright (c) 1988,1990,1992,1993,1995,1998,2003,2009,2016,
            Gaussian, Inc.  All Rights Reserved.
  
 This is part of the Gaussian(R) 16 program.  It is based on
 the Gaussian(R) 09 system (copyright 2009, Gaussian, Inc.),
 the Gaussian(R) 03 system (copyright 2003, Gaussian, Inc.),
 the Gaussian(R) 98 system (copyright 1998, Gaussian, Inc.),
 the Gaussian(R) 94 system (copyright 1995, Gaussian, Inc.),
 the Gaussian 92(TM) system (copyright 1992, Gaussian, Inc.),
 the Gaussian 90(TM) system (copyright 1990, Gaussian, Inc.),
 the Gaussian 88(TM) system (copyright 1988, Gaussian, Inc.),
 the Gaussian 86(TM) system (copyright 1986, Carnegie Mellon
 University), and the Gaussian 82(TM) system (copyright 1983,
 Carnegie Mellon University). Gaussian is a federally registered
 trademark of Gaussian, Inc.
  
 This software contains proprietary and confidential information,
 including trade secrets, belonging to Gaussian, Inc.
  
 This software is provided under written license and may be
 used, copied, transmitted, or stored only in accord with that
 written license.
  
 The following legend is applicable only to US Government
 contracts under FAR:
  
                    RESTRICTED RIGHTS LEGEND
  
 Use, reproduction and disclosure by the US Government is
 subject to restrictions as set forth in subparagraphs (a)
 and (c) of the Commercial Computer Software - Restricted
 Rights clause in FAR 52.227-19.
  
 Gaussian, Inc.
 340 Quinnipiac St., Bldg. 40, Wallingford CT 06492
  
  
 ---------------------------------------------------------------
 Warning -- This program may not be used in any manner that
 competes with the business of Gaussian, Inc. or will provide
 assistance to any competitor of Gaussian, Inc.  The licensee
 of this program is prohibited from giving any competitor of
 Gaussian, Inc. access to this program.  By using this program,
 the user acknowledges that Gaussian, Inc. is engaged in the
 business of creating and licensing software in the field of
 computational chemistry and represents and warrants to the
 licensee that it is not a competitor of Gaussian, Inc. and that
 it will not use this program in any manner prohibited above.
 ---------------------------------------------------------------
  

 Cite this work as:
 Gaussian 16, Revision A.03,
 M. J. Frisch, G. W. Trucks, H. B. Schlegel, G. E. Scuseria, 
 M. A. Robb, J. R. Cheeseman, G. Scalmani, V. Barone, 
 G. A. Petersson, H. Nakatsuji, X. Li, M. Caricato, A. V. Marenich, 
 J. Bloino, B. G. Janesko, R. Gomperts, B. Mennucci, H. P. Hratchian, 
 J. V. Ortiz, A. F. Izmaylov, J. L. Sonnenberg, D. Williams-Young, 
 F. Ding, F. Lipparini, F. Egidi, J. Goings, B. Peng, A. Petrone, 
 T. Henderson, D. Ranasinghe, V. G. Zakrzewski, J. Gao, N. Rega, 
 G. Zheng, W. Liang, M. Hada, M. Ehara, K. Toyota, R. Fukuda, 
 J. Hasegawa, M. Ishida, T. Nakajima, Y. Honda, O. Kitao, H. Nakai, 
 T. Vreven, K. Throssell, J. A. Montgomery, Jr., J. E. Peralta, 
 F. Ogliaro, M. J. Bearpark, J. J. Heyd, E. N. Brothers, K. N. Kudin, 
 V. N. Staroverov, T. A. Keith, R. Kobayashi, J. Normand, 
 K. Raghavachari, A. P. Rendell, J. C. Burant, S. S. Iyengar, 
 J. Tomasi, M. Cossi, J. M. Millam, M. Klene, C. Adamo, R. Cammi, 
 J. W. Ochterski, R. L. Martin, K. Morokuma, O. Farkas, 
 J. B. Foresman, and D. J. Fox, Gaussian, Inc., Wallingford CT, 2016.
 
 ******************************************
 Gaussian 16:  ES64L-G16RevA.03 25-Dec-2016
                 3-Jul-2019 
 ******************************************
 %nproc=4
 Will use up to    4 processors via shared memory.
 %Mem=2GB
 --------------------------
 # td=(NStates=1) B3LYP/SVP
 --------------------------
 1/38=1,172=1/1;
 2/12=2,17=6,18=5,40=1/2;
 3/5=18,7=101,11=9,25=1,30=1,74=-5/1,2,3,8;
 4//1;
 5/5=2,38=5/2;
 8/6=1,10=1,108=1/1;
 9/41=1,42=1,70=2/14;
 6/7=2,8=2,9=2,10=2/1;
 99/5=1,9=1/99;
 --
 TD
 --
 Symbolic Z-matrix:
 Charge =  0 Multiplicity = 1
 8                    -4.31293  -4.85188   1.95541 
 8                     3.04652  -4.80484   1.1225 
 8                     6.88338  -1.71591   1.69995 
 8                     3.8512   -3.08536  -0.06832 
 8                     7.4564   -0.74166  -0.16033 
 8                    -3.0364    2.33386  -0.50482 
 7                    -0.16078  -0.47758  -0.55553 
 7                     1.56487   1.76633  -0.24996 
 7                    -3.23147  -3.23753   0.75588 
 7                    -0.81053   2.8351   -0.10227 
 6                     0.75086  -2.329    -1.36756 
 6                     0.9364   -1.01975  -0.93431 
 6                    -0.72861  -2.59226  -1.34861 
 6                    -1.26403  -1.3932   -0.78629 
 6                     3.90395   1.64594  -0.29278 
 6                     2.57809   0.95377  -0.63247 
 6                     2.2991   -0.41384  -0.91294 
 6                     3.51367   2.86963   0.17539 
 6                     1.62609  -3.32448  -2.01454 
 6                    -5.49521  -2.82157   1.30093 
 6                    -3.55397  -1.94247   0.29072 
 6                     2.06964   3.07343   0.13219 
 6                    -4.94789  -1.58091   0.54023 
 6                     5.186     0.89739  -0.36461 
 6                    -2.62569  -1.13373  -0.31448 
 6                    -1.41842  -3.77095  -1.83683 
 6                    -4.29475  -3.74638   1.31785 
 6                     2.01083  -4.36911  -0.9824 
 6                     5.27887  -0.1009    0.80519 
 6                     4.4522    3.99664   0.63546 
 6                     1.24671   4.16116   0.4108 
 6                    -6.83876  -3.33554   0.94674 
 6                    -5.70616  -0.54448   0.1604 
 6                    -0.22265   4.02289   0.33134 
 6                    -1.13677   5.04761   0.52465 
 6                    -2.4037    4.54803   0.27098 
 6                     3.00661  -3.9786    0.04694 
 6                    -5.37155   0.66729  -0.67941 
 6                     6.67885  -0.84485   0.74024 
 6                    -3.74547   5.18535   0.10132 
 6                    -2.1805    3.14894  -0.16965 
 6                    -0.72039   6.45661   0.94777 
 6                    -4.2931    5.66687  -1.37059 
 1                    -0.3302    0.48346  -0.01445 
 1                     3.10441  -1.0234   -1.21724 
 1                     2.59457  -2.7489   -2.31213 
 1                     1.43397  -3.57967  -3.02193 
 1                    -5.87001  -2.53598   2.41594 
 1                     5.25619   0.55565  -1.22942 
 1                     6.04656   1.74215  -0.23284 
 1                    -2.88793  -0.17102  -0.33737 
 1                     0.54879   1.82024  -0.56887 
 1                    -1.30765  -4.52838  -1.21538 
 1                    -2.46086  -3.70265  -1.96931 
 1                    -0.94034  -4.08499  -2.84678 
 1                    -2.13738  -3.77432   0.84943 
 1                     0.96845  -4.8552   -0.31215 
 1                     2.44219  -5.37332  -1.35563 
 1                     4.44805  -0.86202   0.79366 
 1                     5.23467   0.37832   1.82898 
 1                     4.42628   4.76522  -0.05045 
 1                     5.50684   3.56923   0.38562 
 1                     4.17789   4.18661   1.61632 
 1                     1.57894   5.1118    0.82104 
 1                    -7.69949  -2.55432   1.05976 
 1                    -7.21035  -4.20165   1.53242 
 1                    -6.78975  -3.57657  -0.0163 
 1                    -6.79155  -0.65178   0.53429 
 1                    -4.77939   1.44567  -0.23598 
 1                    -6.35538   0.84509  -1.17999 
 1                    -4.65038   0.35088  -1.4892 
 1                    -3.94957   6.03607   1.07848 
 1                    -4.55488   4.39613   0.45689 
 1                    -0.24295   6.3269    1.89588 
 1                    -1.57271   7.06232   0.99199 
 1                    -0.00043   7.11162   0.29394 
 1                    -3.55223   6.50973  -1.69331 
 1                    -5.32426   6.20913  -1.32377 
 1                    -4.17083   4.80845  -2.01135 
 1                     3.69586  -4.55199   1.68596 
 1                     7.66254  -2.43207   1.4021 
 
 Stoichiometry    C33H38N4O6
 Framework group  C1[X(C33H38N4O6)]
 Deg. of freedom   237
 Full point group                 C1      NOp   1
 Largest Abelian subgroup         C1      NOp   1
 Largest concise Abelian subgroup C1      NOp   1
                         Standard orientation:                         
 ---------------------------------------------------------------------
 Center     Atomic      Atomic             Coordinates (Angstroms)
 Number     Number       Type             X           Y           Z
 ---------------------------------------------------------------------
      1          8           0        4.206419   -4.963704   -1.906220
      2          8           0       -3.153338   -4.741076   -1.105033
      3          8           0       -6.915144   -1.567763   -1.717735
      4          8           0       -3.922845   -2.996055    0.071804
      5          8           0       -7.473084   -0.568976    0.134096
      6          8           0        3.086682    2.264812    0.504567
      7          7           0        0.146474   -0.478914    0.560187
      8          7           0       -1.525422    1.802415    0.233536
      9          7           0        3.157729   -3.317329   -0.721211
     10          7           0        0.874711    2.814958    0.089465
     11          6           0       -0.811187   -2.303646    1.379618
     12          6           0       -0.964534   -0.993165    0.937587
     13          6           0        0.661842   -2.601206    1.368591
     14          6           0        1.227232   -1.418385    0.801243
     15          6           0       -3.866815    1.736495    0.267113
     16          6           0       -2.558773    1.015928    0.616679
     17          6           0       -2.312719   -0.356004    0.906695
     18          6           0       -3.446345    2.947886   -0.206857
     19          6           0       -1.711930   -3.274557    2.028929
     20          6           0        5.432737   -2.957290   -1.259121
     21          6           0        3.508249   -2.027215   -0.262597
     22          6           0       -1.998168    3.118456   -0.158746
     23          6           0        4.911193   -1.699587   -0.508363
     24          6           0       -5.166165    1.018303    0.338036
     25          6           0        2.596477   -1.193455    0.333673
     26          6           0        1.322124   -3.792500    1.866954
     27          6           0        4.211240   -3.854140   -1.275511
     28          6           0       -2.116521   -4.316378    1.001559
     29          6           0       -5.277320    0.015182   -0.826024
     30          6           0       -4.356587    4.093455   -0.677811
     31          6           0       -1.149101    4.185088   -0.440486
     32          6           0        6.762537   -3.500028   -0.896070
     33          6           0        5.691716   -0.678660   -0.131648
     34          6           0        0.316322    4.013324   -0.353913
     35          6           0        1.254741    5.015381   -0.549576
     36          6           0        2.508692    4.488175   -0.287452
     37          6           0       -3.098720   -3.909317   -0.034390
     38          6           0        5.381828    0.545729    0.699306
     39          6           0       -6.694429   -0.695731   -0.762506
     40          6           0        3.864168    5.095296   -0.115967
     41          6           0        2.251298    3.097396    0.160771
     42          6           0        0.872893    6.430990   -0.983077
     43          6           0        4.416734    5.573139    1.355297
     44          1           0        0.340362    0.474563    0.013969
     45          1           0       -3.133196   -0.944851    1.211277
     46          1           0       -2.668020   -2.674858    2.318856
     47          1           0       -1.529936   -3.527864    3.038672
     48          1           0        5.818655   -2.687391   -2.374250
     49          1           0       -5.247821    0.683657    1.204619
     50          1           0       -6.006357    1.881929    0.197434
     51          1           0        2.880867   -0.236950    0.351803
     52          1           0       -0.509687    1.834764    0.556453
     53          1           0        1.196383   -4.551006    1.249676
     54          1           0        2.365306   -3.747541    2.003454
     55          1           0        0.832727   -4.089104    2.876751
     56          1           0        2.051884   -3.829201   -0.816143
     57          1           0       -1.082930   -4.830633    0.338748
     58          1           0       -2.572581   -5.307998    1.379080
     59          1           0       -4.464427   -0.764886   -0.806291
     60          1           0       -5.217799    0.486885   -1.852524
     61          1           0       -4.315688    4.865468    0.003485
     62          1           0       -5.421877    3.692145   -0.429876
     63          1           0       -4.073905    4.270928   -1.658635
     64          1           0       -1.457502    5.140601   -0.857945
     65          1           0        7.641610   -2.739669   -1.010181
     66          1           0        7.116358   -4.378129   -1.474848
     67          1           0        6.703986   -3.733869    0.068211
     68          1           0        6.775864   -0.813382   -0.500236
     69          1           0        4.809704    1.334842    0.248603
     70          1           0        6.367445    0.703804    1.202988
     71          1           0        4.650185    0.251133    1.507925
     72          1           0        4.091961    5.934975   -1.097429
     73          1           0        4.656518    4.285352   -0.463245
     74          1           0        0.396491    6.306488   -1.932402
     75          1           0        1.739202    7.016512   -1.027355
     76          1           0        0.165619    7.106547   -0.336340
     77          1           0        3.694282    6.434914    1.669700
     78          1           0        5.460369    6.091075    1.309571
     79          1           0        4.271954    4.721775    2.000769
     80          1           0       -3.794310   -4.476761   -1.672798
     81          1           0       -7.711920   -2.263827   -1.418836
 ---------------------------------------------------------------------
 Rotational constants (GHZ):           0.0762621           0.0555537           0.0344359
 Standard basis: SVP (5D, 7F)
 There are   835 symmetry adapted cartesian basis functions of A   symmetry.
 There are   792 symmetry adapted basis functions of A   symmetry.
   792 basis functions,  1341 primitive gaussians,   835 cartesian basis functions
   156 alpha electrons      156 beta electrons
       nuclear repulsion energy      5054.4827539048 Hartrees.
 NAtoms=   81 NActive=   81 NUniq=   81 SFac= 1.00D+00 NAtFMM=   60 NAOKFM=T Big=T
 Integral buffers will be    131072 words long.
 Regular integral format.
 Two-electron integral symmetry is turned on.
 One-electron integrals computed using PRISM.
 NBasis=   792 RedAO= T EigKep=  3.67D-04  NBF=   792
 NBsUse=   792 1.00D-06 EigRej= -1.00D+00 NBFU=   792
 ExpMin= 1.22D-01 ExpMax= 2.27D+03 ExpMxC= 3.41D+02 IAcc=3 IRadAn=         5 AccDes= 0.00D+00
 Harris functional with IExCor=  402 and IRadAn=       5 diagonalized for initial guess.
 HarFok:  IExCor=  402 AccDes= 0.00D+00 IRadAn=         5 IDoV= 1 UseB2=F ITyADJ=14
 ICtDFT=  3500011 ScaDFX=  1.000000  1.000000  1.000000  1.000000
 FoFCou: FMM=F IPFlag=           0 FMFlag=      100000 FMFlg1=        2001
         NFxFlg=           0 DoJE=T BraDBF=F KetDBF=T FulRan=T
         wScrn=  0.000000 ICntrl=       500 IOpCl=  0 I1Cent=   200000004 NGrid=           0
         NMat0=    1 NMatS0=      1 NMatT0=    0 NMatD0=    1 NMtDS0=    0 NMtDT0=    0
 Petite list used in FoFCou.
 Requested convergence on RMS density matrix=1.00D-08 within 128 cycles.
 Requested convergence on MAX density matrix=1.00D-06.
 Requested convergence on             energy=1.00D-06.
 No special actions if energy rises.
 Integral accuracy reduced to 1.0D-05 until final iterations.
 Initial convergence to 1.0D-05 achieved.  Increase integral accuracy.
 SCF Done:  E(RB3LYP) =  -1949.04789611     A.U. after   19 cycles
            NFock= 19  Conv=0.49D-08     -V/T= 2.0108
 DoSCS=F DFT=T ScalE2(SS,OS)=  1.000000  1.000000
 ExpMin= 1.22D-01 ExpMax= 2.27D+03 ExpMxC= 3.41D+02 IAcc=3 IRadAn=         5 AccDes= 0.00D+00
 HarFok:  IExCor=  205 AccDes= 0.00D+00 IRadAn=         5 IDoV=-2 UseB2=F ITyADJ=14
 ICtDFT= 12500011 ScaDFX=  1.000000  1.000000  1.000000  1.000000
 GSVD:  LWork=       -2193 too small for GESVD, short by        9890 words or        9890 for optimal perf.
 Range of M.O.s used for correlation:    44   792
 NBasis=   792 NAE=   156 NBE=   156 NFC=    43 NFV=     0
 NROrb=    749 NOA=   113 NOB=   113 NVA=   636 NVB=   636

 **** Warning!!: The smallest alpha delta epsilon is  0.62063617D-01

 Orbital symmetries:
       Occupied  (A) (A) (A) (A) (A) (A) (A) (A) (A) (A) (A) (A)
                 (A) (A) (A) (A) (A) (A) (A) (A) (A) (A) (A) (A)
                 (A) (A) (A) (A) (A) (A) (A) (A) (A) (A) (A) (A)
                 (A) (A) (A) (A) (A) (A) (A) (A) (A) (A) (A) (A)
                 (A) (A) (A) (A) (A) (A) (A) (A) (A) (A) (A) (A)
                 (A) (A) (A) (A) (A) (A) (A) (A) (A) (A) (A) (A)
                 (A) (A) (A) (A) (A) (A) (A) (A) (A) (A) (A) (A)
                 (A) (A) (A) (A) (A) (A) (A) (A) (A) (A) (A) (A)
                 (A) (A) (A) (A) (A) (A) (A) (A) (A) (A) (A) (A)
                 (A) (A) (A) (A) (A) (A) (A) (A) (A) (A) (A) (A)
                 (A) (A) (A) (A) (A) (A) (A) (A) (A) (A) (A) (A)
                 (A) (A) (A) (A) (A) (A) (A) (A) (A) (A) (A) (A)
                 (A) (A) (A) (A) (A) (A) (A) (A) (A) (A) (A) (A)
       Virtual   (A) (A) (A) (A) (A) (A) (A) (A) (A) (A) (A) (A)
                 (A) (A) (A) (A) (A) (A) (A) (A) (A) (A) (A) (A)
                 (A) (A) (A) (A) (A) (A) (A) (A) (A) (A) (A) (A)
                 (A) (A) (A) (A) (A) (A) (A) (A) (A) (A) (A) (A)
                 (A) (A) (A) (A) (A) (A) (A) (A) (A) (A) (A) (A)
                 (A) (A) (A) (A) (A) (A) (A) (A) (A) (A) (A) (A)
                 (A) (A) (A) (A) (A) (A) (A) (A) (A) (A) (A) (A)
                 (A) (A) (A) (A) (A) (A) (A) (A) (A) (A) (A) (A)
                 (A) (A) (A) (A) (A) (A) (A) (A) (A) (A) (A) (A)
                 (A) (A) (A) (A) (A) (A) (A) (A) (A) (A) (A) (A)
                 (A) (A) (A) (A) (A) (A) (A) (A) (A) (A) (A) (A)
                 (A) (A) (A) (A) (A) (A) (A) (A) (A) (A) (A) (A)
                 (A) (A) (A) (A) (A) (A) (A) (A) (A) (A) (A) (A)
                 (A) (A) (A) (A) (A) (A) (A) (A) (A) (A) (A) (A)
                 (A) (A) (A) (A) (A) (A) (A) (A) (A) (A) (A) (A)
                 (A) (A) (A) (A) (A) (A) (A) (A) (A) (A) (A) (A)
                 (A) (A) (A) (A) (A) (A) (A) (A) (A) (A) (A) (A)
                 (A) (A) (A) (A) (A) (A) (A) (A) (A) (A) (A) (A)
                 (A) (A) (A) (A) (A) (A) (A) (A) (A) (A) (A) (A)
                 (A) (A) (A) (A) (A) (A) (A) (A) (A) (A) (A) (A)
                 (A) (A) (A) (A) (A) (A) (A) (A) (A) (A) (A) (A)
                 (A) (A) (A) (A) (A) (A) (A) (A) (A) (A) (A) (A)
                 (A) (A) (A) (A) (A) (A) (A) (A) (A) (A) (A) (A)
                 (A) (A) (A) (A) (A) (A) (A) (A) (A) (A) (A) (A)
                 (A) (A) (A) (A) (A) (A) (A) (A) (A) (A) (A) (A)
                 (A) (A) (A) (A) (A) (A) (A) (A) (A) (A) (A) (A)
                 (A) (A) (A) (A) (A) (A) (A) (A) (A) (A) (A) (A)
                 (A) (A) (A) (A) (A) (A) (A) (A) (A) (A) (A) (A)
                 (A) (A) (A) (A) (A) (A) (A) (A) (A) (A) (A) (A)
                 (A) (A) (A) (A) (A) (A) (A) (A) (A) (A) (A) (A)
                 (A) (A) (A) (A) (A) (A) (A) (A) (A) (A) (A) (A)
                 (A) (A) (A) (A) (A) (A) (A) (A) (A) (A) (A) (A)
                 (A) (A) (A) (A) (A) (A) (A) (A) (A) (A) (A) (A)
                 (A) (A) (A) (A) (A) (A) (A) (A) (A) (A) (A) (A)
                 (A) (A) (A) (A) (A) (A) (A) (A) (A) (A) (A) (A)
                 (A) (A) (A) (A) (A) (A) (A) (A) (A) (A) (A) (A)
                 (A) (A) (A) (A) (A) (A) (A) (A) (A) (A) (A) (A)
                 (A) (A) (A) (A) (A) (A) (A) (A) (A) (A) (A) (A)
                 (A) (A) (A) (A) (A) (A) (A) (A) (A) (A) (A) (A)
                 (A) (A) (A) (A) (A) (A) (A) (A) (A) (A) (A) (A)
                 (A) (A) (A) (A) (A) (A) (A) (A) (A) (A) (A) (A)
                 (A) (A) (A) (A) (A) (A) (A) (A) (A) (A) (A) (A)
                 (A) (A) (A) (A) (A) (A) (A) (A) (A) (A) (A) (A)
                 (A) (A) (A) (A) (A) (A) (A) (A) (A) (A) (A) (A)
                 (A) (A) (A) (A) (A) (A) (A) (A) (A) (A) (A) (A)
                 (A) (A) (A) (A) (A) (A) (A) (A) (A) (A) (A) (A)
                 (A) (A) (A) (A) (A) (A) (A) (A) (A) (A) (A) (A)
                 (A) (A) (A) (A) (A) (A) (A) (A) (A) (A) (A) (A)
                 (A) (A) (A) (A) (A) (A) (A) (A) (A) (A) (A) (A)
                 (A) (A) (A) (A) (A) (A) (A) (A) (A) (A) (A) (A)
                 (A) (A) (A) (A) (A) (A) (A) (A) (A) (A) (A) (A)
                 (A) (A) (A) (A) (A) (A) (A) (A) (A) (A) (A) (A)
                 (A) (A) (A) (A) (A) (A) (A) (A) (A) (A) (A) (A)
     4 initial guesses have been made.
 Convergence on wavefunction:    0.001000000000000
 Iteration     1 Dimension     4 NMult     0 NNew      4
 CISAX will form     4 AO SS matrices at one time.
 Iteration     2 Dimension     6 NMult     4 NNew      2
 Iteration     3 Dimension     8 NMult     6 NNew      2
 Iteration     4 Dimension    10 NMult     8 NNew      2
 Iteration     5 Dimension    12 NMult    10 NNew      2
 Iteration     6 Dimension    14 NMult    12 NNew      2
 ***********************************************************************
 Excited states from <AA,BB:AA,BB> singles matrix:
 ***********************************************************************
 
 Ground to excited state transition densities written to RWF  633
 Ground to excited state transition electric dipole moments (Au):
       state          X           Y           Z        Dip. S.      Osc.
         1        -0.4483      2.3017     -0.1410      5.5186      0.2030
 Ground to excited state transition velocity dipole moments (Au):
       state          X           Y           Z        Dip. S.      Osc.
         1         0.0257     -0.1227      0.0075      0.0158      0.1907
 Ground to excited state transition magnetic dipole moments (Au):
       state          X           Y           Z
         1         0.2266      0.4553      1.9602
 Ground to excited state transition velocity quadrupole moments (Au):
       state          XX          YY          ZZ          XY          XZ          YZ
         1         0.2541     -0.4324      0.0482     -0.4116     -0.0689      0.0088
 <0|del|b> * <b|rxdel|0> + <0|del|b> * <b|delr+rdel|0>
 Rotatory Strengths (R) in cgs (10**-40 erg-esu-cm/Gauss)
       state          XX          YY          ZZ    R(velocity)    E-M Angle
         1      -337.5175    153.2995   -268.0908   -150.7696       97.97
 1/2[<0|r|b>*<b|rxdel|0> + (<0|rxdel|b>*<b|r|0>)*]
 Rotatory Strengths (R) in cgs (10**-40 erg-esu-cm/Gauss)
       state          XX          YY          ZZ     R(length)
         1        71.8248   -741.1053    195.4377   -157.9476
  1/2[<0|del|b>*<b|r|0> + (<0|r|b>*<b|del|0>)*] (Au)
       state          X           Y           Z        Dip. S.   Osc.(frdel)
         1        -0.0115     -0.2825     -0.0011      0.2951      0.1967

 Excitation energies and oscillator strengths:
 
 Excited State   1:      Singlet-A      1.5014 eV  825.80 nm  f=0.2030  <S**2>=0.000
     155 ->157         0.10528
     156 ->157         0.70508
     156 <-157        -0.11792
 This state for optimization and/or second-order correction.
 Total Energy, E(TD-HF/TD-DFT) =  -1948.99272105    
 Copying the excited state density for this state as the 1-particle RhoCI density.
 SavETr:  write IOETrn=   770 NScale= 10 NData=  16 NLR=1 NState=    1 LETran=      28.

 **********************************************************************

            Population analysis using the SCF density.

 **********************************************************************

 Orbital symmetries:
       Occupied  (A) (A) (A) (A) (A) (A) (A) (A) (A) (A) (A) (A)
                 (A) (A) (A) (A) (A) (A) (A) (A) (A) (A) (A) (A)
                 (A) (A) (A) (A) (A) (A) (A) (A) (A) (A) (A) (A)
                 (A) (A) (A) (A) (A) (A) (A) (A) (A) (A) (A) (A)
                 (A) (A) (A) (A) (A) (A) (A) (A) (A) (A) (A) (A)
                 (A) (A) (A) (A) (A) (A) (A) (A) (A) (A) (A) (A)
                 (A) (A) (A) (A) (A) (A) (A) (A) (A) (A) (A) (A)
                 (A) (A) (A) (A) (A) (A) (A) (A) (A) (A) (A) (A)
                 (A) (A) (A) (A) (A) (A) (A) (A) (A) (A) (A) (A)
                 (A) (A) (A) (A) (A) (A) (A) (A) (A) (A) (A) (A)
                 (A) (A) (A) (A) (A) (A) (A) (A) (A) (A) (A) (A)
                 (A) (A) (A) (A) (A) (A) (A) (A) (A) (A) (A) (A)
                 (A) (A) (A) (A) (A) (A) (A) (A) (A) (A) (A) (A)
       Virtual   (A) (A) (A) (A) (A) (A) (A) (A) (A) (A) (A) (A)
                 (A) (A) (A) (A) (A) (A) (A) (A) (A) (A) (A) (A)
                 (A) (A) (A) (A) (A) (A) (A) (A) (A) (A) (A) (A)
                 (A) (A) (A) (A) (A) (A) (A) (A) (A) (A) (A) (A)
                 (A) (A) (A) (A) (A) (A) (A) (A) (A) (A) (A) (A)
                 (A) (A) (A) (A) (A) (A) (A) (A) (A) (A) (A) (A)
                 (A) (A) (A) (A) (A) (A) (A) (A) (A) (A) (A) (A)
                 (A) (A) (A) (A) (A) (A) (A) (A) (A) (A) (A) (A)
                 (A) (A) (A) (A) (A) (A) (A) (A) (A) (A) (A) (A)
                 (A) (A) (A) (A) (A) (A) (A) (A) (A) (A) (A) (A)
                 (A) (A) (A) (A) (A) (A) (A) (A) (A) (A) (A) (A)
                 (A) (A) (A) (A) (A) (A) (A) (A) (A) (A) (A) (A)
                 (A) (A) (A) (A) (A) (A) (A) (A) (A) (A) (A) (A)
                 (A) (A) (A) (A) (A) (A) (A) (A) (A) (A) (A) (A)
                 (A) (A) (A) (A) (A) (A) (A) (A) (A) (A) (A) (A)
                 (A) (A) (A) (A) (A) (A) (A) (A) (A) (A) (A) (A)
                 (A) (A) (A) (A) (A) (A) (A) (A) (A) (A) (A) (A)
                 (A) (A) (A) (A) (A) (A) (A) (A) (A) (A) (A) (A)
                 (A) (A) (A) (A) (A) (A) (A) (A) (A) (A) (A) (A)
                 (A) (A) (A) (A) (A) (A) (A) (A) (A) (A) (A) (A)
                 (A) (A) (A) (A) (A) (A) (A) (A) (A) (A) (A) (A)
                 (A) (A) (A) (A) (A) (A) (A) (A) (A) (A) (A) (A)
                 (A) (A) (A) (A) (A) (A) (A) (A) (A) (A) (A) (A)
                 (A) (A) (A) (A) (A) (A) (A) (A) (A) (A) (A) (A)
                 (A) (A) (A) (A) (A) (A) (A) (A) (A) (A) (A) (A)
                 (A) (A) (A) (A) (A) (A) (A) (A) (A) (A) (A) (A)
                 (A) (A) (A) (A) (A) (A) (A) (A) (A) (A) (A) (A)
                 (A) (A) (A) (A) (A) (A) (A) (A) (A) (A) (A) (A)
                 (A) (A) (A) (A) (A) (A) (A) (A) (A) (A) (A) (A)
                 (A) (A) (A) (A) (A) (A) (A) (A) (A) (A) (A) (A)
                 (A) (A) (A) (A) (A) (A) (A) (A) (A) (A) (A) (A)
                 (A) (A) (A) (A) (A) (A) (A) (A) (A) (A) (A) (A)
                 (A) (A) (A) (A) (A) (A) (A) (A) (A) (A) (A) (A)
                 (A) (A) (A) (A) (A) (A) (A) (A) (A) (A) (A) (A)
                 (A) (A) (A) (A) (A) (A) (A) (A) (A) (A) (A) (A)
                 (A) (A) (A) (A) (A) (A) (A) (A) (A) (A) (A) (A)
                 (A) (A) (A) (A) (A) (A) (A) (A) (A) (A) (A) (A)
                 (A) (A) (A) (A) (A) (A) (A) (A) (A) (A) (A) (A)
                 (A) (A) (A) (A) (A) (A) (A) (A) (A) (A) (A) (A)
                 (A) (A) (A) (A) (A) (A) (A) (A) (A) (A) (A) (A)
                 (A) (A) (A) (A) (A) (A) (A) (A) (A) (A) (A) (A)
                 (A) (A) (A) (A) (A) (A) (A) (A) (A) (A) (A) (A)
                 (A) (A) (A) (A) (A) (A) (A) (A) (A) (A) (A) (A)
                 (A) (A) (A) (A) (A) (A) (A) (A) (A) (A) (A) (A)
                 (A) (A) (A) (A) (A) (A) (A) (A) (A) (A) (A) (A)
                 (A) (A) (A) (A) (A) (A) (A) (A) (A) (A) (A) (A)
                 (A) (A) (A) (A) (A) (A) (A) (A) (A) (A) (A) (A)
                 (A) (A) (A) (A) (A) (A) (A) (A) (A) (A) (A) (A)
                 (A) (A) (A) (A) (A) (A) (A) (A) (A) (A) (A) (A)
                 (A) (A) (A) (A) (A) (A) (A) (A) (A) (A) (A) (A)
                 (A) (A) (A) (A) (A) (A) (A) (A) (A) (A) (A) (A)
                 (A) (A) (A) (A) (A) (A) (A) (A) (A) (A) (A) (A)
                 (A) (A) (A) (A) (A) (A) (A) (A) (A) (A) (A) (A)
 The electronic state is 1-A.
 Alpha  occ. eigenvalues --  -19.18985 -19.18597 -19.14079 -19.11785 -19.11195
 Alpha  occ. eigenvalues --  -19.08003 -14.38463 -14.37838 -14.36213 -14.29650
 Alpha  occ. eigenvalues --  -10.34000 -10.31466 -10.27486 -10.26942 -10.25100
 Alpha  occ. eigenvalues --  -10.24429 -10.24118 -10.24084 -10.23594 -10.23311
 Alpha  occ. eigenvalues --  -10.23279 -10.22206 -10.21692 -10.21644 -10.21588
 Alpha  occ. eigenvalues --  -10.21240 -10.20898 -10.20740 -10.20699 -10.20589
 Alpha  occ. eigenvalues --  -10.20419 -10.20351 -10.20246 -10.20057 -10.19612
 Alpha  occ. eigenvalues --  -10.19597 -10.19570 -10.19436 -10.19352 -10.18614
 Alpha  occ. eigenvalues --  -10.17726 -10.17706 -10.16972  -1.11556  -1.09821
 Alpha  occ. eigenvalues --   -1.01890  -1.01431  -1.00816  -0.99811  -0.98468
 Alpha  occ. eigenvalues --   -0.96552  -0.93000  -0.91867  -0.82628  -0.82356
 Alpha  occ. eigenvalues --   -0.81267  -0.80796  -0.79367  -0.79192  -0.77404
 Alpha  occ. eigenvalues --   -0.76883  -0.76101  -0.74642  -0.73844  -0.72649
 Alpha  occ. eigenvalues --   -0.71445  -0.69930  -0.69581  -0.69137  -0.67997
 Alpha  occ. eigenvalues --   -0.67536  -0.65987  -0.63890  -0.62477  -0.61829
 Alpha  occ. eigenvalues --   -0.60981  -0.59430  -0.59203  -0.57090  -0.56897
 Alpha  occ. eigenvalues --   -0.56040  -0.55590  -0.55034  -0.53087  -0.52568
 Alpha  occ. eigenvalues --   -0.52089  -0.51469  -0.50679  -0.49963  -0.49464
 Alpha  occ. eigenvalues --   -0.49384  -0.48880  -0.48204  -0.47610  -0.47421
 Alpha  occ. eigenvalues --   -0.47053  -0.46807  -0.46556  -0.46187  -0.45578
 Alpha  occ. eigenvalues --   -0.45208  -0.44892  -0.44663  -0.44254  -0.43911
 Alpha  occ. eigenvalues --   -0.43426  -0.43329  -0.42931  -0.42609  -0.42409
 Alpha  occ. eigenvalues --   -0.42182  -0.41933  -0.41719  -0.41349  -0.40882
 Alpha  occ. eigenvalues --   -0.40823  -0.40717  -0.40324  -0.40093  -0.39978
 Alpha  occ. eigenvalues --   -0.39558  -0.39239  -0.38906  -0.38441  -0.38320
 Alpha  occ. eigenvalues --   -0.37763  -0.37368  -0.37026  -0.36903  -0.36651
 Alpha  occ. eigenvalues --   -0.36139  -0.35696  -0.34841  -0.34248  -0.33957
 Alpha  occ. eigenvalues --   -0.33837  -0.33592  -0.33441  -0.32884  -0.32068
 Alpha  occ. eigenvalues --   -0.32000  -0.31978  -0.31545  -0.29631  -0.29336
 Alpha  occ. eigenvalues --   -0.28705  -0.27773  -0.26314  -0.25906  -0.25138
 Alpha  occ. eigenvalues --   -0.24609  -0.24357  -0.23401  -0.23298  -0.21550
 Alpha  occ. eigenvalues --   -0.17951
 Alpha virt. eigenvalues --   -0.11744  -0.06556  -0.04064  -0.02552  -0.00755
 Alpha virt. eigenvalues --   -0.00028   0.00143   0.01986   0.02779   0.03758
 Alpha virt. eigenvalues --    0.04096   0.04236   0.04628   0.05169   0.05958
 Alpha virt. eigenvalues --    0.06231   0.06537   0.06746   0.06996   0.07516
 Alpha virt. eigenvalues --    0.08304   0.08766   0.08920   0.09182   0.09493
 Alpha virt. eigenvalues --    0.09713   0.09896   0.10096   0.10433   0.10662
 Alpha virt. eigenvalues --    0.11026   0.11301   0.11772   0.12299   0.12432
 Alpha virt. eigenvalues --    0.12801   0.13249   0.13300   0.13974   0.14233
 Alpha virt. eigenvalues --    0.14559   0.14665   0.15232   0.15543   0.15863
 Alpha virt. eigenvalues --    0.16305   0.16593   0.16934   0.17641   0.18095
 Alpha virt. eigenvalues --    0.18569   0.18853   0.19251   0.19895   0.20133
 Alpha virt. eigenvalues --    0.20361   0.21029   0.21307   0.21594   0.22374
 Alpha virt. eigenvalues --    0.22625   0.23021   0.23140   0.23336   0.23994
 Alpha virt. eigenvalues --    0.24062   0.24479   0.25799   0.26126   0.26356
 Alpha virt. eigenvalues --    0.26840   0.27099   0.27324   0.27590   0.28002
 Alpha virt. eigenvalues --    0.28542   0.29392   0.29999   0.30527   0.31009
 Alpha virt. eigenvalues --    0.31794   0.32109   0.32476   0.32965   0.33142
 Alpha virt. eigenvalues --    0.33970   0.34314   0.34842   0.35250   0.36178
 Alpha virt. eigenvalues --    0.36816   0.37039   0.37344   0.38041   0.38449
 Alpha virt. eigenvalues --    0.38990   0.39085   0.40008   0.40621   0.41217
 Alpha virt. eigenvalues --    0.41454   0.41782   0.42205   0.42598   0.42863
 Alpha virt. eigenvalues --    0.43300   0.43618   0.43687   0.44020   0.44547
 Alpha virt. eigenvalues --    0.44911   0.45159   0.45501   0.46011   0.46115
 Alpha virt. eigenvalues --    0.46632   0.46967   0.47491   0.47523   0.47767
 Alpha virt. eigenvalues --    0.48036   0.48380   0.48816   0.48873   0.49386
 Alpha virt. eigenvalues --    0.49602   0.49743   0.50255   0.50361   0.50917
 Alpha virt. eigenvalues --    0.51542   0.52173   0.52370   0.52532   0.53187
 Alpha virt. eigenvalues --    0.53423   0.53924   0.54197   0.54538   0.54731
 Alpha virt. eigenvalues --    0.55679   0.55888   0.56181   0.56290   0.56959
 Alpha virt. eigenvalues --    0.57488   0.57825   0.58099   0.58208   0.58715
 Alpha virt. eigenvalues --    0.59029   0.59054   0.59633   0.60001   0.60362
 Alpha virt. eigenvalues --    0.60547   0.61084   0.61308   0.61377   0.61822
 Alpha virt. eigenvalues --    0.61918   0.62158   0.62286   0.62761   0.63063
 Alpha virt. eigenvalues --    0.63204   0.63294   0.63591   0.63888   0.64302
 Alpha virt. eigenvalues --    0.64461   0.64766   0.64908   0.65370   0.65490
 Alpha virt. eigenvalues --    0.65897   0.66220   0.66605   0.66804   0.66867
 Alpha virt. eigenvalues --    0.67198   0.67548   0.67891   0.68190   0.68311
 Alpha virt. eigenvalues --    0.68543   0.68903   0.69099   0.69164   0.69401
 Alpha virt. eigenvalues --    0.69770   0.70141   0.70303   0.70434   0.70631
 Alpha virt. eigenvalues --    0.71221   0.71409   0.71775   0.71982   0.72241
 Alpha virt. eigenvalues --    0.72864   0.73061   0.73173   0.73469   0.73630
 Alpha virt. eigenvalues --    0.74045   0.74375   0.75244   0.75637   0.75937
 Alpha virt. eigenvalues --    0.76089   0.76445   0.76993   0.77454   0.77860
 Alpha virt. eigenvalues --    0.78318   0.78466   0.78569   0.79163   0.79853
 Alpha virt. eigenvalues --    0.79941   0.80401   0.80848   0.81542   0.81918
 Alpha virt. eigenvalues --    0.82381   0.83093   0.83747   0.84385   0.85127
 Alpha virt. eigenvalues --    0.86280   0.86627   0.86990   0.88342   0.89312
 Alpha virt. eigenvalues --    0.89669   0.90249   0.91141   0.91223   0.91812
 Alpha virt. eigenvalues --    0.91933   0.93416   0.93730   0.94127   0.94272
 Alpha virt. eigenvalues --    0.94851   0.95652   0.95780   0.95889   0.96609
 Alpha virt. eigenvalues --    0.97312   0.97963   0.98557   0.98733   0.99885
 Alpha virt. eigenvalues --    1.00746   1.01125   1.02078   1.03111   1.03866
 Alpha virt. eigenvalues --    1.04688   1.05030   1.06009   1.06482   1.07283
 Alpha virt. eigenvalues --    1.07570   1.08489   1.08935   1.09679   1.10712
 Alpha virt. eigenvalues --    1.11070   1.11772   1.12482   1.12565   1.14082
 Alpha virt. eigenvalues --    1.14337   1.14934   1.15359   1.15594   1.17010
 Alpha virt. eigenvalues --    1.17519   1.18406   1.18991   1.19307   1.20031
 Alpha virt. eigenvalues --    1.20124   1.20826   1.21670   1.21880   1.22661
 Alpha virt. eigenvalues --    1.23723   1.24070   1.24823   1.25406   1.26439
 Alpha virt. eigenvalues --    1.27069   1.27561   1.28205   1.28347   1.29743
 Alpha virt. eigenvalues --    1.30407   1.30577   1.31094   1.32022   1.32485
 Alpha virt. eigenvalues --    1.32983   1.33806   1.35078   1.35455   1.36080
 Alpha virt. eigenvalues --    1.36667   1.37127   1.37219   1.38556   1.38995
 Alpha virt. eigenvalues --    1.39967   1.40352   1.40591   1.41355   1.42718
 Alpha virt. eigenvalues --    1.43336   1.44245   1.44775   1.45620   1.46541
 Alpha virt. eigenvalues --    1.46778   1.47225   1.48121   1.48391   1.48840
 Alpha virt. eigenvalues --    1.49709   1.49874   1.50459   1.50888   1.51413
 Alpha virt. eigenvalues --    1.52387   1.53475   1.53879   1.54097   1.54720
 Alpha virt. eigenvalues --    1.55219   1.55779   1.56137   1.56389   1.56688
 Alpha virt. eigenvalues --    1.57202   1.57866   1.58339   1.59180   1.59840
 Alpha virt. eigenvalues --    1.60194   1.61124   1.61938   1.62245   1.63171
 Alpha virt. eigenvalues --    1.63285   1.63401   1.63834   1.64471   1.64524
 Alpha virt. eigenvalues --    1.64712   1.65039   1.66503   1.66637   1.66900
 Alpha virt. eigenvalues --    1.67432   1.68303   1.68445   1.68969   1.69099
 Alpha virt. eigenvalues --    1.69854   1.69991   1.70730   1.71056   1.71157
 Alpha virt. eigenvalues --    1.71650   1.72282   1.72676   1.73051   1.73599
 Alpha virt. eigenvalues --    1.73693   1.73947   1.74157   1.74581   1.74627
 Alpha virt. eigenvalues --    1.75016   1.75792   1.76158   1.76475   1.77114
 Alpha virt. eigenvalues --    1.77236   1.77599   1.77919   1.78288   1.78510
 Alpha virt. eigenvalues --    1.78666   1.79609   1.79778   1.79913   1.80421
 Alpha virt. eigenvalues --    1.80499   1.81097   1.81934   1.82263   1.82371
 Alpha virt. eigenvalues --    1.83288   1.83558   1.84154   1.84430   1.84980
 Alpha virt. eigenvalues --    1.85366   1.85585   1.85898   1.86637   1.86877
 Alpha virt. eigenvalues --    1.88010   1.88737   1.89117   1.89288   1.89677
 Alpha virt. eigenvalues --    1.90413   1.90988   1.91314   1.91612   1.91980
 Alpha virt. eigenvalues --    1.92365   1.92939   1.93456   1.93579   1.94123
 Alpha virt. eigenvalues --    1.94697   1.95083   1.95295   1.95478   1.96343
 Alpha virt. eigenvalues --    1.97099   1.97720   1.97889   1.98386   1.98897
 Alpha virt. eigenvalues --    1.99179   2.00389   2.00563   2.01295   2.01675
 Alpha virt. eigenvalues --    2.02099   2.02512   2.03050   2.03346   2.03850
 Alpha virt. eigenvalues --    2.04232   2.04576   2.05547   2.05811   2.07127
 Alpha virt. eigenvalues --    2.07339   2.07656   2.08128   2.08932   2.09411
 Alpha virt. eigenvalues --    2.09823   2.10861   2.11288   2.11759   2.12860
 Alpha virt. eigenvalues --    2.13337   2.13586   2.13957   2.14799   2.15143
 Alpha virt. eigenvalues --    2.15525   2.16472   2.16933   2.17418   2.17853
 Alpha virt. eigenvalues --    2.18839   2.19505   2.20338   2.20665   2.20694
 Alpha virt. eigenvalues --    2.21536   2.21885   2.22411   2.22686   2.23490
 Alpha virt. eigenvalues --    2.24523   2.25332   2.25686   2.27132   2.27928
 Alpha virt. eigenvalues --    2.29019   2.29267   2.30277   2.30927   2.31579
 Alpha virt. eigenvalues --    2.32076   2.32497   2.33698   2.34142   2.34914
 Alpha virt. eigenvalues --    2.35768   2.35871   2.36526   2.36809   2.37609
 Alpha virt. eigenvalues --    2.38180   2.39024   2.39169   2.39398   2.41479
 Alpha virt. eigenvalues --    2.41648   2.42388   2.42932   2.43386   2.44311
 Alpha virt. eigenvalues --    2.44821   2.45056   2.45934   2.46447   2.47067
 Alpha virt. eigenvalues --    2.47546   2.48152   2.48998   2.49584   2.50189
 Alpha virt. eigenvalues --    2.51356   2.52313   2.53963   2.54514   2.55868
 Alpha virt. eigenvalues --    2.56541   2.57469   2.58605   2.59548   2.60624
 Alpha virt. eigenvalues --    2.61261   2.62388   2.63068   2.63519   2.64027
 Alpha virt. eigenvalues --    2.64142   2.64401   2.65131   2.65688   2.66897
 Alpha virt. eigenvalues --    2.68026   2.68171   2.68772   2.69549   2.69759
 Alpha virt. eigenvalues --    2.70050   2.70772   2.71678   2.72264   2.73015
 Alpha virt. eigenvalues --    2.73490   2.73794   2.74615   2.75467   2.76245
 Alpha virt. eigenvalues --    2.76380   2.76698   2.76949   2.77236   2.77546
 Alpha virt. eigenvalues --    2.78684   2.78989   2.79378   2.79752   2.80336
 Alpha virt. eigenvalues --    2.81571   2.82304   2.82961   2.84709   2.84978
 Alpha virt. eigenvalues --    2.85897   2.86720   2.87067   2.88111   2.88796
 Alpha virt. eigenvalues --    2.90065   2.90364   2.91192   2.92403   2.93508
 Alpha virt. eigenvalues --    2.94485   2.95332   2.95384   2.95768   2.96728
 Alpha virt. eigenvalues --    2.97628   2.97983   2.98481   3.00811   3.01999
 Alpha virt. eigenvalues --    3.04312   3.04751   3.05496   3.06381   3.06615
 Alpha virt. eigenvalues --    3.07009   3.07928   3.09159   3.10360   3.11864
 Alpha virt. eigenvalues --    3.12504   3.14095   3.14995   3.15490   3.15949
 Alpha virt. eigenvalues --    3.16829   3.17415   3.18328   3.20024   3.20203
 Alpha virt. eigenvalues --    3.20655   3.21342   3.23547   3.24208   3.26766
 Alpha virt. eigenvalues --    3.35455   3.36402   3.39760   3.41911   3.47699
 Alpha virt. eigenvalues --    3.51044   3.51137   3.52965   3.53280   3.57481
 Alpha virt. eigenvalues --    3.60551   3.64283   3.64391   3.66956   3.69473
 Alpha virt. eigenvalues --    3.82413
          Condensed to atoms (all electrons):
 Mulliken charges:
               1
     1  O   -0.298229
     2  O   -0.133856
     3  O   -0.225915
     4  O   -0.249516
     5  O   -0.225142
     6  O   -0.210588
     7  N   -0.077651
     8  N   -0.162172
     9  N   -0.122701
    10  N   -0.348613
    11  C   -0.155652
    12  C    0.056259
    13  C   -0.194586
    14  C    0.070585
    15  C   -0.106707
    16  C    0.052291
    17  C   -0.027353
    18  C   -0.194683
    19  C    0.129852
    20  C   -0.098925
    21  C    0.085624
    22  C    0.162085
    23  C    0.071299
    24  C    0.231521
    25  C   -0.056277
    26  C    0.196964
    27  C    0.114499
    28  C   -0.069102
    29  C   -0.052071
    30  C    0.174458
    31  C   -0.107626
    32  C    0.063956
    33  C   -0.210918
    34  C    0.070199
    35  C   -0.103173
    36  C   -0.127186
    37  C    0.140907
    38  C    0.082244
    39  C    0.134235
    40  C   -0.074022
    41  C    0.165607
    42  C    0.112611
    43  C   -0.010641
    44  H    0.188625
    45  H   -0.011895
    46  H    0.009818
    47  H    0.006077
    48  H    0.058380
    49  H   -0.055265
    50  H    0.025576
    51  H   -0.075952
    52  H    0.175242
    53  H   -0.039406
    54  H    0.006734
    55  H    0.021490
    56  H    0.226255
    57  H    0.063774
    58  H    0.063571
    59  H    0.071928
    60  H    0.035477
    61  H    0.005530
    62  H    0.007939
    63  H    0.023043
    64  H   -0.021223
    65  H    0.020239
    66  H    0.032478
    67  H   -0.030189
    68  H    0.003085
    69  H    0.072014
    70  H    0.011289
    71  H    0.020363
    72  H    0.020402
    73  H    0.038058
    74  H    0.021773
    75  H   -0.000609
    76  H    0.038753
    77  H    0.022525
    78  H    0.046134
    79  H    0.042576
    80  H    0.144417
    81  H    0.239084
 Sum of Mulliken charges =  -0.00000
 Mulliken charges with hydrogens summed into heavy atoms:
               1
     1  O   -0.298229
     2  O    0.010561
     3  O    0.013170
     4  O   -0.249516
     5  O   -0.225142
     6  O   -0.210588
     7  N    0.110974
     8  N    0.013070
     9  N    0.103554
    10  N   -0.348613
    11  C   -0.155652
    12  C    0.056259
    13  C   -0.194586
    14  C    0.070585
    15  C   -0.106707
    16  C    0.052291
    17  C   -0.039248
    18  C   -0.194683
    19  C    0.145746
    20  C   -0.040545
    21  C    0.085624
    22  C    0.162085
    23  C    0.071299
    24  C    0.201831
    25  C   -0.132229
    26  C    0.185781
    27  C    0.114499
    28  C    0.058243
    29  C    0.055333
    30  C    0.210970
    31  C   -0.128848
    32  C    0.086484
    33  C   -0.207833
    34  C    0.070199
    35  C   -0.103173
    36  C   -0.127186
    37  C    0.140907
    38  C    0.185909
    39  C    0.134235
    40  C   -0.015562
    41  C    0.165607
    42  C    0.172528
    43  C    0.100594
 Electronic spatial extent (au):  <R**2>=          30173.5903
 Charge=             -0.0000 electrons
 Dipole moment (field-independent basis, Debye):
    X=             -3.6243    Y=              2.3413    Z=              0.0931  Tot=              4.3158
 Quadrupole moment (field-independent basis, Debye-Ang):
   XX=           -256.7417   YY=           -237.6948   ZZ=           -255.9741
   XY=             25.1013   XZ=             15.1343   YZ=            -16.4414
 Traceless Quadrupole moment (field-independent basis, Debye-Ang):
   XX=             -6.6048   YY=             12.4420   ZZ=             -5.8372
   XY=             25.1013   XZ=             15.1343   YZ=            -16.4414
 Octapole moment (field-independent basis, Debye-Ang**2):
  XXX=             44.8909  YYY=            167.8161  ZZZ=             -5.2948  XYY=           -208.5448
  XXY=            -22.0496  XXZ=            -74.7320  XZZ=            -57.7270  YZZ=            -16.5115
  YYZ=             52.6792  XYZ=            -61.4947
 Hexadecapole moment (field-independent basis, Debye-Ang**3):
 XXXX=         -22046.9567 YYYY=         -16262.1988 ZZZZ=          -1669.2309 XXXY=            923.6943
 XXXZ=            692.6145 YYYX=           1218.0738 YYYZ=           -467.5144 ZZZX=             68.8501
 ZZZY=             -2.9483 XXYY=          -6242.4021 XXZZ=          -4010.4994 YYZZ=          -3101.6337
 XXYZ=             75.6930 YYXZ=            403.5353 ZZXY=            217.0374
 N-N= 5.054482753905D+03 E-N=-1.464007821242D+04  KE= 1.928138908790D+03
 1\1\GINC-PADAWAN\SP\RB3LYP TD-FC\SVP\C33H38N4O6\PADAWAN\03-Jul-2019\0\
 \# td=(NStates=1) B3LYP/SVP\\TD\\0,1\O,0,-4.3129328041,-4.8518795592,1
 .9554095694\O,0,3.0465186806,-4.804841791,1.1224963869\O,0,6.883384642
 8,-1.7159088606,1.6999526748\O,0,3.8512001775,-3.0853565607,-0.0683201
 714\O,0,7.4563951761,-0.7416640615,-0.1603320659\O,0,-3.036399226,2.33
 38614369,-0.5048220436\N,0,-0.160783073,-0.4775819513,-0.5555325662\N,
 0,1.5648749802,1.7663270652,-0.2499565733\N,0,-3.2314651355,-3.2375348
 665,0.7558819068\N,0,-0.8105295487,2.8351046599,-0.1022740732\C,0,0.75
 085735,-2.3290008585,-1.367559051\C,0,0.936396542,-1.0197492066,-0.934
 3122801\C,0,-0.7286069894,-2.592257588,-1.3486069234\C,0,-1.2640268247
 ,-1.3931996314,-0.7862877588\C,0,3.9039488557,1.6459377603,-0.29278354
 52\C,0,2.5780899148,0.9537672022,-0.6324674317\C,0,2.2990951597,-0.413
 8386418,-0.9129407687\C,0,3.5136720073,2.8696267649,0.1753855289\C,0,1
 .6260940145,-3.3244841497,-2.0145387995\C,0,-5.4952084275,-2.821567771
 7,1.300927357\C,0,-3.5539692562,-1.9424692228,0.2907150033\C,0,2.06964
 12762,3.0734273369,0.1321908425\C,0,-4.947887485,-1.5809070546,0.54022
 80667\C,0,5.1860038623,0.8973946564,-0.3646054192\C,0,-2.6256873844,-1
 .1337319286,-0.3144779216\C,0,-1.4184215043,-3.7709468478,-1.836834000
 2\C,0,-4.2947491433,-3.7463788697,1.3178469103\C,0,2.0108322169,-4.369
 1059343,-0.9823974665\C,0,5.2788666891,-0.1008982133,0.8051930665\C,0,
 4.4522012814,3.9966425136,0.6354557459\C,0,1.2467133497,4.1611606664,0
 .4108028009\C,0,-6.8387585265,-3.3355383336,0.9467437365\C,0,-5.706160
 1966,-0.544480232,0.1604032072\C,0,-0.2226501843,4.0228905389,0.331344
 9464\C,0,-1.1367687755,5.0476122949,0.5246509306\C,0,-2.4036998437,4.5
 48026304,0.2709830043\C,0,3.0066072427,-3.9786005303,0.0469423834\C,0,
 -5.3715508646,0.6672920178,-0.6794094057\C,0,6.6788477638,-0.844849954
 6,0.7402449227\C,0,-3.7454720901,5.1853495935,0.1013246432\C,0,-2.1804
 976014,3.148939855,-0.1696527351\C,0,-0.7203926304,6.4566113311,0.9477
 73829\C,0,-4.2930988725,5.666872644,-1.3705861501\H,0,-0.3302046054,0.
 4834552113,-0.0144511848\H,0,3.1044078018,-1.0234004812,-1.2172418116\
 H,0,2.5945693382,-2.7488964862,-2.3121277599\H,0,1.4339744036,-3.57967
 20781,-3.0219305532\H,0,-5.8700087282,-2.5359822229,2.4159421341\H,0,5
 .2561881313,0.5556549469,-1.2294232896\H,0,6.0465632237,1.7421537435,-
 0.2328368583\H,0,-2.8879250102,-0.1710193116,-0.3373741349\H,0,0.54879
 21098,1.8202418681,-0.5688743329\H,0,-1.3076455004,-4.5283774082,-1.21
 53810479\H,0,-2.4608561966,-3.7026508515,-1.9693050636\H,0,-0.94033921
 38,-4.0849855674,-2.8467802673\H,0,-2.1373761239,-3.7743171624,0.84942
 7608\H,0,0.9684476741,-4.8551982181,-0.3121466046\H,0,2.4421903234,-5.
 373321439,-1.355630945\H,0,4.448050038,-0.8620173651,0.793659102\H,0,5
 .2346678122,0.3783238711,1.8289807012\H,0,4.4262831539,4.7652169381,-0
 .0504464164\H,0,5.5068437761,3.5692344566,0.385624352\H,0,4.1778948221
 ,4.1866141335,1.6163173486\H,0,1.5789386725,5.1118003574,0.8210431795\
 H,0,-7.6994915175,-2.5543205156,1.0597572453\H,0,-7.2103450984,-4.2016
 465468,1.5324190823\H,0,-6.7897546725,-3.5765650726,-0.0162995416\H,0,
 -6.7915536777,-0.6517760861,0.5342914302\H,0,-4.7793869108,1.445669387
 8,-0.2359808594\H,0,-6.3553839158,0.8450935844,-1.1799923153\H,0,-4.65
 03843504,0.3508752497,-1.4891956844\H,0,-3.9495669422,6.0360680119,1.0
 78484725\H,0,-4.5548769259,4.3961319451,0.4568917155\H,0,-0.2429534398
 ,6.3269032557,1.8958794295\H,0,-1.5727133816,7.0623196867,0.9919885506
 \H,0,-0.0004308751,7.111623448,0.2939403511\H,0,-3.5522331303,6.509728
 5986,-1.6933135339\H,0,-5.3242551327,6.2091340295,-1.3237722544\H,0,-4
 .17083056,4.8084510154,-2.0113506431\H,0,3.6958579863,-4.5519914116,1.
 6859593783\H,0,7.662544279,-2.4320725963,1.4020975928\\Version=ES64L-G
 16RevA.03\State=1-A\HF=-1949.0478961\RMSD=4.922e-09\PG=C01 [X(C33H38N4
 O6)]\\@


 REALITY IS FOR PEOPLE WHO CAN'T FACE SCIENCE FICTION.
 Job cpu time:       0 days  3 hours 51 minutes 21.0 seconds.
 Elapsed time:       0 days  2 hours 34 minutes 57.0 seconds.
 File lengths (MBytes):  RWF=   2591 Int=      0 D2E=      0 Chk=     65 Scr=      1
 Normal termination of Gaussian 16 at Wed Jul  3 10:42:42 2019.
