 Entering Gaussian System, Link 0=g16
 Input=Geometria-320-.com
 Output=Geometria-320-.log
 Initial command:
 /usr/local/g16/l1.exe "/home/padawan/israel-mol/phycocyanobilin/spectra/emi/Gau-23264.inp" -scrdir="/home/padawan/israel-mol/phycocyanobilin/spectra/emi/"
 Entering Link 1 = /usr/local/g16/l1.exe PID=     23266.
  
 Copyright (c) 1988,1990,1992,1993,1995,1998,2003,2009,2016,
            Gaussian, Inc.  All Rights Reserved.
  
 This is part of the Gaussian(R) 16 program.  It is based on
 the Gaussian(R) 09 system (copyright 2009, Gaussian, Inc.),
 the Gaussian(R) 03 system (copyright 2003, Gaussian, Inc.),
 the Gaussian(R) 98 system (copyright 1998, Gaussian, Inc.),
 the Gaussian(R) 94 system (copyright 1995, Gaussian, Inc.),
 the Gaussian 92(TM) system (copyright 1992, Gaussian, Inc.),
 the Gaussian 90(TM) system (copyright 1990, Gaussian, Inc.),
 the Gaussian 88(TM) system (copyright 1988, Gaussian, Inc.),
 the Gaussian 86(TM) system (copyright 1986, Carnegie Mellon
 University), and the Gaussian 82(TM) system (copyright 1983,
 Carnegie Mellon University). Gaussian is a federally registered
 trademark of Gaussian, Inc.
  
 This software contains proprietary and confidential information,
 including trade secrets, belonging to Gaussian, Inc.
  
 This software is provided under written license and may be
 used, copied, transmitted, or stored only in accord with that
 written license.
  
 The following legend is applicable only to US Government
 contracts under FAR:
  
                    RESTRICTED RIGHTS LEGEND
  
 Use, reproduction and disclosure by the US Government is
 subject to restrictions as set forth in subparagraphs (a)
 and (c) of the Commercial Computer Software - Restricted
 Rights clause in FAR 52.227-19.
  
 Gaussian, Inc.
 340 Quinnipiac St., Bldg. 40, Wallingford CT 06492
  
  
 ---------------------------------------------------------------
 Warning -- This program may not be used in any manner that
 competes with the business of Gaussian, Inc. or will provide
 assistance to any competitor of Gaussian, Inc.  The licensee
 of this program is prohibited from giving any competitor of
 Gaussian, Inc. access to this program.  By using this program,
 the user acknowledges that Gaussian, Inc. is engaged in the
 business of creating and licensing software in the field of
 computational chemistry and represents and warrants to the
 licensee that it is not a competitor of Gaussian, Inc. and that
 it will not use this program in any manner prohibited above.
 ---------------------------------------------------------------
  

 Cite this work as:
 Gaussian 16, Revision A.03,
 M. J. Frisch, G. W. Trucks, H. B. Schlegel, G. E. Scuseria, 
 M. A. Robb, J. R. Cheeseman, G. Scalmani, V. Barone, 
 G. A. Petersson, H. Nakatsuji, X. Li, M. Caricato, A. V. Marenich, 
 J. Bloino, B. G. Janesko, R. Gomperts, B. Mennucci, H. P. Hratchian, 
 J. V. Ortiz, A. F. Izmaylov, J. L. Sonnenberg, D. Williams-Young, 
 F. Ding, F. Lipparini, F. Egidi, J. Goings, B. Peng, A. Petrone, 
 T. Henderson, D. Ranasinghe, V. G. Zakrzewski, J. Gao, N. Rega, 
 G. Zheng, W. Liang, M. Hada, M. Ehara, K. Toyota, R. Fukuda, 
 J. Hasegawa, M. Ishida, T. Nakajima, Y. Honda, O. Kitao, H. Nakai, 
 T. Vreven, K. Throssell, J. A. Montgomery, Jr., J. E. Peralta, 
 F. Ogliaro, M. J. Bearpark, J. J. Heyd, E. N. Brothers, K. N. Kudin, 
 V. N. Staroverov, T. A. Keith, R. Kobayashi, J. Normand, 
 K. Raghavachari, A. P. Rendell, J. C. Burant, S. S. Iyengar, 
 J. Tomasi, M. Cossi, J. M. Millam, M. Klene, C. Adamo, R. Cammi, 
 J. W. Ochterski, R. L. Martin, K. Morokuma, O. Farkas, 
 J. B. Foresman, and D. J. Fox, Gaussian, Inc., Wallingford CT, 2016.
 
 ******************************************
 Gaussian 16:  ES64L-G16RevA.03 25-Dec-2016
                 1-Jul-2019 
 ******************************************
 %nproc=4
 Will use up to    4 processors via shared memory.
 %Mem=2GB
 --------------------------
 # td=(NStates=1) B3LYP/SVP
 --------------------------
 1/38=1,172=1/1;
 2/12=2,17=6,18=5,40=1/2;
 3/5=18,7=101,11=9,25=1,30=1,74=-5/1,2,3,8;
 4//1;
 5/5=2,38=5/2;
 8/6=1,10=1,108=1/1;
 9/41=1,42=1,70=2/14;
 6/7=2,8=2,9=2,10=2/1;
 99/5=1,9=1/99;
 --
 TD
 --
 Symbolic Z-matrix:
 Charge =  0 Multiplicity = 1
 8                    -4.30852  -4.94335   1.70752 
 8                     2.91825  -4.7697    1.16652 
 8                     6.99596  -1.4112    1.99851 
 8                     3.77141  -3.14531  -0.11649 
 8                     7.41043  -0.76638  -0.15505 
 8                    -2.99169   2.31403  -0.387 
 7                    -0.22647  -0.45805  -0.61328 
 7                     1.54174   1.86009  -0.38819 
 7                    -3.28458  -3.16701   0.74564 
 7                    -0.85349   2.90946  -0.07163 
 6                     0.6342   -2.34128  -1.48538 
 6                     0.93109  -1.04948  -1.1032 
 6                    -0.75948  -2.57574  -1.32801 
 6                    -1.28859  -1.409    -0.69261 
 6                     3.86104   1.56788  -0.23969 
 6                     2.53209   0.92473  -0.59145 
 6                     2.32067  -0.39529  -0.95901 
 6                     3.55571   2.83396   0.1196 
 6                     1.7228   -3.3238   -2.06079 
 6                    -5.35409  -2.79146   1.43843 
 6                    -3.51526  -1.8635    0.19178 
 6                     2.04166   3.01207  -0.01178 
 6                    -4.94534  -1.66091   0.5794 
 6                     5.12087   0.79682  -0.23415 
 6                    -2.59819  -1.04831  -0.37945 
 6                    -1.47733  -3.85401  -1.90013 
 6                    -4.3063   -3.77111   1.34982 
 6                     2.02994  -4.46831  -1.15153 
 6                     5.24841  -0.09671   0.86911 
 6                     4.55959   3.8696    0.58615 
 6                     1.27016   4.1112    0.35452 
 6                    -6.72298  -3.35016   0.89567 
 6                    -5.75224  -0.56642   0.30629 
 6                    -0.16095   4.02618   0.22305 
 6                    -1.10931   5.14187   0.36233 
 6                    -2.34946   4.59801   0.23245 
 6                     2.99109  -4.07038  -0.01322 
 6                    -5.4947    0.65302  -0.6311 
 6                     6.69353  -0.75319   0.89246 
 6                    -3.69123   5.38499   0.27262 
 6                    -2.14696   3.17853  -0.08415 
 6                    -0.68169   6.50823   0.8448 
 6                    -4.27689   5.39583  -1.16949 
 1                    -0.40908   0.32632  -0.08427 
 1                     3.28857  -1.03541  -0.89232 
 1                     2.65615  -2.93368  -2.53968 
 1                     1.04655  -3.69909  -2.86464 
 1                    -5.60249  -2.3986    2.31943 
 1                     5.46929   0.44704  -1.27787 
 1                     5.75921   1.73141  -0.24311 
 1                    -2.63735   0.05156   0.01165 
 1                     0.47181   1.94631  -0.65307 
 1                    -1.42449  -4.67676  -0.8968 
 1                    -2.51103  -3.58599  -2.08437 
 1                    -1.10601  -4.10635  -2.85025 
 1                    -2.47308  -3.70418   0.60481 
 1                     1.23585  -4.98783  -0.55364 
 1                     2.63056  -5.2808   -1.71854 
 1                     4.44654  -0.92631   1.05775 
 1                     5.12941   0.54211   1.72226 
 1                     4.52675   4.74947  -0.34881 
 1                     5.70332   3.51789   0.77116 
 1                     4.37365   4.09783   1.62148 
 1                     1.75202   4.9524    0.77292 
 1                    -7.60702  -2.87122   1.02183 
 1                    -6.93052  -4.02805   1.61413 
 1                    -6.52102  -3.86769   0.01355 
 1                    -6.75305  -0.80705   0.97467 
 1                    -4.99155   1.48285  -0.2993 
 1                    -6.54007   1.1303   -0.93344 
 1                    -5.05362   0.35895  -1.30875 
 1                    -3.59864   6.50637   0.68608 
 1                    -4.42812   4.65122   0.79549 
 1                    -0.13264   6.3073    1.69731 
 1                    -1.71581   7.11236   0.79034 
 1                     0.12405   7.13154   0.3274 
 1                    -3.88376   5.95907  -1.89262 
 1                    -5.35472   5.8472   -0.98988 
 1                    -4.2117    4.24134  -1.57525 
 1                     3.63066  -4.37944   1.68304 
 1                     7.82701  -2.01086   1.95266 
 
 Stoichiometry    C33H38N4O6
 Framework group  C1[X(C33H38N4O6)]
 Deg. of freedom   237
 Full point group                 C1      NOp   1
 Largest Abelian subgroup         C1      NOp   1
 Largest concise Abelian subgroup C1      NOp   1
                         Standard orientation:                         
 ---------------------------------------------------------------------
 Center     Atomic      Atomic             Coordinates (Angstroms)
 Number     Number       Type             X           Y           Z
 ---------------------------------------------------------------------
      1          8           0        4.309079   -4.940653   -1.709509
      2          8           0       -2.918194   -4.765800   -1.175685
      3          8           0       -6.994035   -1.404588   -2.005880
      4          8           0       -3.772205   -3.143460    0.109356
      5          8           0       -7.410550   -0.763503    0.148406
      6          8           0        2.992249    2.313354    0.396659
      7          7           0        0.225963   -0.458295    0.615100
      8          7           0       -1.541322    1.860773    0.392336
      9          7           0        3.284671   -3.165732   -0.745503
     10          7           0        0.854555    2.909994    0.080141
     11          6           0       -0.636169   -2.342828    1.482932
     12          6           0       -0.932277   -1.050256    1.102760
     13          6           0        0.757599   -2.577418    1.326591
     14          6           0        1.287715   -1.409706    0.693826
     15          6           0       -3.860556    1.569531    0.240906
     16          6           0       -2.532155    0.925356    0.592895
     17          6           0       -2.321513   -0.395385    0.958299
     18          6           0       -3.554467    2.836164   -0.115795
     19          6           0       -1.725667   -3.326052    2.055454
     20          6           0        5.355015   -2.789570   -1.435474
     21          6           0        3.515161   -1.863289   -0.189063
     22          6           0       -2.040503    3.013581    0.017477
     23          6           0        4.945705   -1.660429   -0.574843
     24          6           0       -5.120603    0.798866    0.232682
     25          6           0        2.597752   -1.048851    0.382677
     26          6           0        1.474470   -3.856927    1.897157
     27          6           0        4.306837   -3.769058   -1.349705
     28          6           0       -2.032206   -4.468830    1.143826
     29          6           0       -5.247272   -0.092649   -0.872312
     30          6           0       -4.557559    3.872937   -0.581529
     31          6           0       -1.268293    4.113128   -0.346053
     32          6           0        6.723167   -3.349648   -0.892295
     33          6           0        5.752656   -0.566680   -0.298931
     34          6           0        0.162654    4.027448   -0.213259
     35          6           0        1.111484    5.143101   -0.349556
     36          6           0        2.351344    4.598636   -0.219360
     37          6           0       -2.992048   -4.068575    0.005235
     38          6           0        5.494507    0.651158    0.640379
     39          6           0       -6.692559   -0.748655   -0.898337
     40          6           0        3.693382    5.385282   -0.256731
     41          6           0        2.148092    3.178653    0.094487
     42          6           0        0.684775    6.510447   -0.830017
     43          6           0        4.277550    5.393356    1.186000
     44          1           0        0.409358    0.326967    0.087687
     45          1           0       -3.289533   -1.035098    0.889462
     46          1           0       -2.659388   -2.936512    2.534072
     47          1           0       -1.050355   -3.702986    2.859331
     48          1           0        5.604443   -2.395199   -2.315511
     49          1           0       -5.470212    0.447319    1.275407
     50          1           0       -5.758680    1.733628    0.242652
     51          1           0        2.637642    0.051713   -0.006415
     52          1           0       -0.471644    1.946205    0.658481
     53          1           0        1.422425   -4.677868    0.892298
     54          1           0        2.508063   -3.589552    2.082945
     55          1           0        1.102088   -4.110861    2.846438
     56          1           0        2.472865   -3.702911   -0.606480
     57          1           0       -1.237652   -4.987522    0.545826
     58          1           0       -2.633652   -5.282161    1.708749
     59          1           0       -4.445451   -0.922157   -1.061603
     60          1           0       -5.127190    0.547661   -1.724192
     61          1           0       -4.525427    4.751116    0.355038
     62          1           0       -5.701203    3.521903   -0.768356
     63          1           0       -4.370480    4.102962   -1.616251
     64          1           0       -1.749467    4.955231   -0.763444
     65          1           0        7.607485   -2.870751   -1.016685
     66          1           0        6.931249   -4.026311   -1.611752
     67          1           0        6.520138   -3.868702   -0.011319
     68          1           0        6.754081   -0.806412   -0.966701
     69          1           0        4.991944    1.481735    0.309538
     70          1           0        6.539704    1.127583    0.944650
     71          1           0        5.052638    0.356002    1.317036
     72          1           0        3.601562    6.507424   -0.668270
     73          1           0        4.430603    4.652226   -0.780146
     74          1           0        0.136553    6.311216   -1.683451
     75          1           0        1.719018    7.114176   -0.773397
     76          1           0       -0.121315    7.133070   -0.312336
     77          1           0        3.883838    5.955425    1.909738
     78          1           0        5.355702    5.844726    1.008320
     79          1           0        4.211602    4.238169    1.589623
     80          1           0       -3.629957   -4.374406   -1.692241
     81          1           0       -7.825316   -2.004081   -1.961967
 ---------------------------------------------------------------------
 Rotational constants (GHZ):           0.0759918           0.0556480           0.0344958
 Standard basis: SVP (5D, 7F)
 There are   835 symmetry adapted cartesian basis functions of A   symmetry.
 There are   792 symmetry adapted basis functions of A   symmetry.
   792 basis functions,  1341 primitive gaussians,   835 cartesian basis functions
   156 alpha electrons      156 beta electrons
       nuclear repulsion energy      5056.9426871546 Hartrees.
 NAtoms=   81 NActive=   81 NUniq=   81 SFac= 1.00D+00 NAtFMM=   60 NAOKFM=T Big=T
 Integral buffers will be    131072 words long.
 Regular integral format.
 Two-electron integral symmetry is turned on.
 One-electron integrals computed using PRISM.
 NBasis=   792 RedAO= T EigKep=  3.58D-04  NBF=   792
 NBsUse=   792 1.00D-06 EigRej= -1.00D+00 NBFU=   792
 ExpMin= 1.22D-01 ExpMax= 2.27D+03 ExpMxC= 3.41D+02 IAcc=3 IRadAn=         5 AccDes= 0.00D+00
 Harris functional with IExCor=  402 and IRadAn=       5 diagonalized for initial guess.
 HarFok:  IExCor=  402 AccDes= 0.00D+00 IRadAn=         5 IDoV= 1 UseB2=F ITyADJ=14
 ICtDFT=  3500011 ScaDFX=  1.000000  1.000000  1.000000  1.000000
 FoFCou: FMM=F IPFlag=           0 FMFlag=      100000 FMFlg1=        2001
         NFxFlg=           0 DoJE=T BraDBF=F KetDBF=T FulRan=T
         wScrn=  0.000000 ICntrl=       500 IOpCl=  0 I1Cent=   200000004 NGrid=           0
         NMat0=    1 NMatS0=      1 NMatT0=    0 NMatD0=    1 NMtDS0=    0 NMtDT0=    0
 Petite list used in FoFCou.
 Requested convergence on RMS density matrix=1.00D-08 within 128 cycles.
 Requested convergence on MAX density matrix=1.00D-06.
 Requested convergence on             energy=1.00D-06.
 No special actions if energy rises.
 Integral accuracy reduced to 1.0D-05 until final iterations.
 Initial convergence to 1.0D-05 achieved.  Increase integral accuracy.
 SCF Done:  E(RB3LYP) =  -1948.99318821     A.U. after   16 cycles
            NFock= 16  Conv=0.75D-08     -V/T= 2.0105
 DoSCS=F DFT=T ScalE2(SS,OS)=  1.000000  1.000000
 ExpMin= 1.22D-01 ExpMax= 2.27D+03 ExpMxC= 3.41D+02 IAcc=3 IRadAn=         5 AccDes= 0.00D+00
 HarFok:  IExCor=  205 AccDes= 0.00D+00 IRadAn=         5 IDoV=-2 UseB2=F ITyADJ=14
 ICtDFT= 12500011 ScaDFX=  1.000000  1.000000  1.000000  1.000000
 GSVD:  LWork=       -2193 too small for GESVD, short by        9890 words or        9890 for optimal perf.
 Range of M.O.s used for correlation:    44   792
 NBasis=   792 NAE=   156 NBE=   156 NFC=    43 NFV=     0
 NROrb=    749 NOA=   113 NOB=   113 NVA=   636 NVB=   636

 **** Warning!!: The smallest alpha delta epsilon is  0.69419126D-01

 Orbital symmetries:
       Occupied  (A) (A) (A) (A) (A) (A) (A) (A) (A) (A) (A) (A)
                 (A) (A) (A) (A) (A) (A) (A) (A) (A) (A) (A) (A)
                 (A) (A) (A) (A) (A) (A) (A) (A) (A) (A) (A) (A)
                 (A) (A) (A) (A) (A) (A) (A) (A) (A) (A) (A) (A)
                 (A) (A) (A) (A) (A) (A) (A) (A) (A) (A) (A) (A)
                 (A) (A) (A) (A) (A) (A) (A) (A) (A) (A) (A) (A)
                 (A) (A) (A) (A) (A) (A) (A) (A) (A) (A) (A) (A)
                 (A) (A) (A) (A) (A) (A) (A) (A) (A) (A) (A) (A)
                 (A) (A) (A) (A) (A) (A) (A) (A) (A) (A) (A) (A)
                 (A) (A) (A) (A) (A) (A) (A) (A) (A) (A) (A) (A)
                 (A) (A) (A) (A) (A) (A) (A) (A) (A) (A) (A) (A)
                 (A) (A) (A) (A) (A) (A) (A) (A) (A) (A) (A) (A)
                 (A) (A) (A) (A) (A) (A) (A) (A) (A) (A) (A) (A)
       Virtual   (A) (A) (A) (A) (A) (A) (A) (A) (A) (A) (A) (A)
                 (A) (A) (A) (A) (A) (A) (A) (A) (A) (A) (A) (A)
                 (A) (A) (A) (A) (A) (A) (A) (A) (A) (A) (A) (A)
                 (A) (A) (A) (A) (A) (A) (A) (A) (A) (A) (A) (A)
                 (A) (A) (A) (A) (A) (A) (A) (A) (A) (A) (A) (A)
                 (A) (A) (A) (A) (A) (A) (A) (A) (A) (A) (A) (A)
                 (A) (A) (A) (A) (A) (A) (A) (A) (A) (A) (A) (A)
                 (A) (A) (A) (A) (A) (A) (A) (A) (A) (A) (A) (A)
                 (A) (A) (A) (A) (A) (A) (A) (A) (A) (A) (A) (A)
                 (A) (A) (A) (A) (A) (A) (A) (A) (A) (A) (A) (A)
                 (A) (A) (A) (A) (A) (A) (A) (A) (A) (A) (A) (A)
                 (A) (A) (A) (A) (A) (A) (A) (A) (A) (A) (A) (A)
                 (A) (A) (A) (A) (A) (A) (A) (A) (A) (A) (A) (A)
                 (A) (A) (A) (A) (A) (A) (A) (A) (A) (A) (A) (A)
                 (A) (A) (A) (A) (A) (A) (A) (A) (A) (A) (A) (A)
                 (A) (A) (A) (A) (A) (A) (A) (A) (A) (A) (A) (A)
                 (A) (A) (A) (A) (A) (A) (A) (A) (A) (A) (A) (A)
                 (A) (A) (A) (A) (A) (A) (A) (A) (A) (A) (A) (A)
                 (A) (A) (A) (A) (A) (A) (A) (A) (A) (A) (A) (A)
                 (A) (A) (A) (A) (A) (A) (A) (A) (A) (A) (A) (A)
                 (A) (A) (A) (A) (A) (A) (A) (A) (A) (A) (A) (A)
                 (A) (A) (A) (A) (A) (A) (A) (A) (A) (A) (A) (A)
                 (A) (A) (A) (A) (A) (A) (A) (A) (A) (A) (A) (A)
                 (A) (A) (A) (A) (A) (A) (A) (A) (A) (A) (A) (A)
                 (A) (A) (A) (A) (A) (A) (A) (A) (A) (A) (A) (A)
                 (A) (A) (A) (A) (A) (A) (A) (A) (A) (A) (A) (A)
                 (A) (A) (A) (A) (A) (A) (A) (A) (A) (A) (A) (A)
                 (A) (A) (A) (A) (A) (A) (A) (A) (A) (A) (A) (A)
                 (A) (A) (A) (A) (A) (A) (A) (A) (A) (A) (A) (A)
                 (A) (A) (A) (A) (A) (A) (A) (A) (A) (A) (A) (A)
                 (A) (A) (A) (A) (A) (A) (A) (A) (A) (A) (A) (A)
                 (A) (A) (A) (A) (A) (A) (A) (A) (A) (A) (A) (A)
                 (A) (A) (A) (A) (A) (A) (A) (A) (A) (A) (A) (A)
                 (A) (A) (A) (A) (A) (A) (A) (A) (A) (A) (A) (A)
                 (A) (A) (A) (A) (A) (A) (A) (A) (A) (A) (A) (A)
                 (A) (A) (A) (A) (A) (A) (A) (A) (A) (A) (A) (A)
                 (A) (A) (A) (A) (A) (A) (A) (A) (A) (A) (A) (A)
                 (A) (A) (A) (A) (A) (A) (A) (A) (A) (A) (A) (A)
                 (A) (A) (A) (A) (A) (A) (A) (A) (A) (A) (A) (A)
                 (A) (A) (A) (A) (A) (A) (A) (A) (A) (A) (A) (A)
                 (A) (A) (A) (A) (A) (A) (A) (A) (A) (A) (A) (A)
                 (A) (A) (A) (A) (A) (A) (A) (A) (A) (A) (A) (A)
                 (A) (A) (A) (A) (A) (A) (A) (A) (A) (A) (A) (A)
                 (A) (A) (A) (A) (A) (A) (A) (A) (A) (A) (A) (A)
                 (A) (A) (A) (A) (A) (A) (A) (A) (A) (A) (A) (A)
                 (A) (A) (A) (A) (A) (A) (A) (A) (A) (A) (A) (A)
                 (A) (A) (A) (A) (A) (A) (A) (A) (A) (A) (A) (A)
                 (A) (A) (A) (A) (A) (A) (A) (A) (A) (A) (A) (A)
                 (A) (A) (A) (A) (A) (A) (A) (A) (A) (A) (A) (A)
                 (A) (A) (A) (A) (A) (A) (A) (A) (A) (A) (A) (A)
                 (A) (A) (A) (A) (A) (A) (A) (A) (A) (A) (A) (A)
                 (A) (A) (A) (A) (A) (A) (A) (A) (A) (A) (A) (A)
                 (A) (A) (A) (A) (A) (A) (A) (A) (A) (A) (A) (A)
     4 initial guesses have been made.
 Convergence on wavefunction:    0.001000000000000
 Iteration     1 Dimension     4 NMult     0 NNew      4
 CISAX will form     4 AO SS matrices at one time.
 Iteration     2 Dimension     6 NMult     4 NNew      2
 Iteration     3 Dimension     8 NMult     6 NNew      2
 Iteration     4 Dimension    10 NMult     8 NNew      2
 Iteration     5 Dimension    12 NMult    10 NNew      2
 Iteration     6 Dimension    14 NMult    12 NNew      2
 Iteration     7 Dimension    16 NMult    14 NNew      2
 ***********************************************************************
 Excited states from <AA,BB:AA,BB> singles matrix:
 ***********************************************************************
 
 Ground to excited state transition densities written to RWF  633
 Ground to excited state transition electric dipole moments (Au):
       state          X           Y           Z        Dip. S.      Osc.
         1        -0.8852      2.1941     -0.0752      5.6035      0.2263
 Ground to excited state transition velocity dipole moments (Au):
       state          X           Y           Z        Dip. S.      Osc.
         1         0.0543     -0.1284      0.0038      0.0195      0.2141
 Ground to excited state transition magnetic dipole moments (Au):
       state          X           Y           Z
         1         0.2882      0.4793      1.8301
 Ground to excited state transition velocity quadrupole moments (Au):
       state          XX          YY          ZZ          XY          XZ          YZ
         1         0.3669     -0.4523      0.0493     -0.3940     -0.0848      0.0086
 <0|del|b> * <b|rxdel|0> + <0|del|b> * <b|delr+rdel|0>
 Rotatory Strengths (R) in cgs (10**-40 erg-esu-cm/Gauss)
       state          XX          YY          ZZ    R(velocity)    E-M Angle
         1      -390.7820    143.6788   -207.1319   -151.4117       98.38
 1/2[<0|r|b>*<b|rxdel|0> + (<0|rxdel|b>*<b|r|0>)*]
 Rotatory Strengths (R) in cgs (10**-40 erg-esu-cm/Gauss)
       state          XX          YY          ZZ     R(length)
         1       180.3985   -743.6508     97.2558   -155.3322
  1/2[<0|del|b>*<b|r|0> + (<0|r|b>*<b|del|0>)*] (Au)
       state          X           Y           Z        Dip. S.   Osc.(frdel)
         1        -0.0481     -0.2818     -0.0003      0.3302      0.2201

 Excitation energies and oscillator strengths:
 
 Excited State   1:      Singlet-A      1.6486 eV  752.07 nm  f=0.2263  <S**2>=0.000
     156 ->157         0.70714
 This state for optimization and/or second-order correction.
 Total Energy, E(TD-HF/TD-DFT) =  -1948.93260431    
 Copying the excited state density for this state as the 1-particle RhoCI density.
 SavETr:  write IOETrn=   770 NScale= 10 NData=  16 NLR=1 NState=    1 LETran=      28.

 **********************************************************************

            Population analysis using the SCF density.

 **********************************************************************

 Orbital symmetries:
       Occupied  (A) (A) (A) (A) (A) (A) (A) (A) (A) (A) (A) (A)
                 (A) (A) (A) (A) (A) (A) (A) (A) (A) (A) (A) (A)
                 (A) (A) (A) (A) (A) (A) (A) (A) (A) (A) (A) (A)
                 (A) (A) (A) (A) (A) (A) (A) (A) (A) (A) (A) (A)
                 (A) (A) (A) (A) (A) (A) (A) (A) (A) (A) (A) (A)
                 (A) (A) (A) (A) (A) (A) (A) (A) (A) (A) (A) (A)
                 (A) (A) (A) (A) (A) (A) (A) (A) (A) (A) (A) (A)
                 (A) (A) (A) (A) (A) (A) (A) (A) (A) (A) (A) (A)
                 (A) (A) (A) (A) (A) (A) (A) (A) (A) (A) (A) (A)
                 (A) (A) (A) (A) (A) (A) (A) (A) (A) (A) (A) (A)
                 (A) (A) (A) (A) (A) (A) (A) (A) (A) (A) (A) (A)
                 (A) (A) (A) (A) (A) (A) (A) (A) (A) (A) (A) (A)
                 (A) (A) (A) (A) (A) (A) (A) (A) (A) (A) (A) (A)
       Virtual   (A) (A) (A) (A) (A) (A) (A) (A) (A) (A) (A) (A)
                 (A) (A) (A) (A) (A) (A) (A) (A) (A) (A) (A) (A)
                 (A) (A) (A) (A) (A) (A) (A) (A) (A) (A) (A) (A)
                 (A) (A) (A) (A) (A) (A) (A) (A) (A) (A) (A) (A)
                 (A) (A) (A) (A) (A) (A) (A) (A) (A) (A) (A) (A)
                 (A) (A) (A) (A) (A) (A) (A) (A) (A) (A) (A) (A)
                 (A) (A) (A) (A) (A) (A) (A) (A) (A) (A) (A) (A)
                 (A) (A) (A) (A) (A) (A) (A) (A) (A) (A) (A) (A)
                 (A) (A) (A) (A) (A) (A) (A) (A) (A) (A) (A) (A)
                 (A) (A) (A) (A) (A) (A) (A) (A) (A) (A) (A) (A)
                 (A) (A) (A) (A) (A) (A) (A) (A) (A) (A) (A) (A)
                 (A) (A) (A) (A) (A) (A) (A) (A) (A) (A) (A) (A)
                 (A) (A) (A) (A) (A) (A) (A) (A) (A) (A) (A) (A)
                 (A) (A) (A) (A) (A) (A) (A) (A) (A) (A) (A) (A)
                 (A) (A) (A) (A) (A) (A) (A) (A) (A) (A) (A) (A)
                 (A) (A) (A) (A) (A) (A) (A) (A) (A) (A) (A) (A)
                 (A) (A) (A) (A) (A) (A) (A) (A) (A) (A) (A) (A)
                 (A) (A) (A) (A) (A) (A) (A) (A) (A) (A) (A) (A)
                 (A) (A) (A) (A) (A) (A) (A) (A) (A) (A) (A) (A)
                 (A) (A) (A) (A) (A) (A) (A) (A) (A) (A) (A) (A)
                 (A) (A) (A) (A) (A) (A) (A) (A) (A) (A) (A) (A)
                 (A) (A) (A) (A) (A) (A) (A) (A) (A) (A) (A) (A)
                 (A) (A) (A) (A) (A) (A) (A) (A) (A) (A) (A) (A)
                 (A) (A) (A) (A) (A) (A) (A) (A) (A) (A) (A) (A)
                 (A) (A) (A) (A) (A) (A) (A) (A) (A) (A) (A) (A)
                 (A) (A) (A) (A) (A) (A) (A) (A) (A) (A) (A) (A)
                 (A) (A) (A) (A) (A) (A) (A) (A) (A) (A) (A) (A)
                 (A) (A) (A) (A) (A) (A) (A) (A) (A) (A) (A) (A)
                 (A) (A) (A) (A) (A) (A) (A) (A) (A) (A) (A) (A)
                 (A) (A) (A) (A) (A) (A) (A) (A) (A) (A) (A) (A)
                 (A) (A) (A) (A) (A) (A) (A) (A) (A) (A) (A) (A)
                 (A) (A) (A) (A) (A) (A) (A) (A) (A) (A) (A) (A)
                 (A) (A) (A) (A) (A) (A) (A) (A) (A) (A) (A) (A)
                 (A) (A) (A) (A) (A) (A) (A) (A) (A) (A) (A) (A)
                 (A) (A) (A) (A) (A) (A) (A) (A) (A) (A) (A) (A)
                 (A) (A) (A) (A) (A) (A) (A) (A) (A) (A) (A) (A)
                 (A) (A) (A) (A) (A) (A) (A) (A) (A) (A) (A) (A)
                 (A) (A) (A) (A) (A) (A) (A) (A) (A) (A) (A) (A)
                 (A) (A) (A) (A) (A) (A) (A) (A) (A) (A) (A) (A)
                 (A) (A) (A) (A) (A) (A) (A) (A) (A) (A) (A) (A)
                 (A) (A) (A) (A) (A) (A) (A) (A) (A) (A) (A) (A)
                 (A) (A) (A) (A) (A) (A) (A) (A) (A) (A) (A) (A)
                 (A) (A) (A) (A) (A) (A) (A) (A) (A) (A) (A) (A)
                 (A) (A) (A) (A) (A) (A) (A) (A) (A) (A) (A) (A)
                 (A) (A) (A) (A) (A) (A) (A) (A) (A) (A) (A) (A)
                 (A) (A) (A) (A) (A) (A) (A) (A) (A) (A) (A) (A)
                 (A) (A) (A) (A) (A) (A) (A) (A) (A) (A) (A) (A)
                 (A) (A) (A) (A) (A) (A) (A) (A) (A) (A) (A) (A)
                 (A) (A) (A) (A) (A) (A) (A) (A) (A) (A) (A) (A)
                 (A) (A) (A) (A) (A) (A) (A) (A) (A) (A) (A) (A)
                 (A) (A) (A) (A) (A) (A) (A) (A) (A) (A) (A) (A)
                 (A) (A) (A) (A) (A) (A) (A) (A) (A) (A) (A) (A)
                 (A) (A) (A) (A) (A) (A) (A) (A) (A) (A) (A) (A)
 The electronic state is 1-A.
 Alpha  occ. eigenvalues --  -19.20176 -19.19411 -19.14085 -19.12318 -19.10088
 Alpha  occ. eigenvalues --  -19.09797 -14.36906 -14.36526 -14.36504 -14.29047
 Alpha  occ. eigenvalues --  -10.33328 -10.33102 -10.27851 -10.26320 -10.25041
 Alpha  occ. eigenvalues --  -10.24246 -10.23539 -10.23530 -10.23225 -10.22934
 Alpha  occ. eigenvalues --  -10.22661 -10.22654 -10.22142 -10.21555 -10.21553
 Alpha  occ. eigenvalues --  -10.21371 -10.21292 -10.21205 -10.20969 -10.20708
 Alpha  occ. eigenvalues --  -10.20407 -10.20185 -10.19800 -10.19603 -10.19518
 Alpha  occ. eigenvalues --  -10.19442 -10.19295 -10.19146 -10.18561 -10.18435
 Alpha  occ. eigenvalues --  -10.18320 -10.16309 -10.15622  -1.10801  -1.09500
 Alpha  occ. eigenvalues --   -1.03191  -1.01537  -1.01160  -0.99398  -0.98281
 Alpha  occ. eigenvalues --   -0.96556  -0.94946  -0.93059  -0.83843  -0.82205
 Alpha  occ. eigenvalues --   -0.81764  -0.80542  -0.79613  -0.79182  -0.78149
 Alpha  occ. eigenvalues --   -0.77569  -0.76045  -0.74957  -0.73900  -0.72127
 Alpha  occ. eigenvalues --   -0.70490  -0.70339  -0.69265  -0.68575  -0.68062
 Alpha  occ. eigenvalues --   -0.67795  -0.66074  -0.65341  -0.62534  -0.62240
 Alpha  occ. eigenvalues --   -0.60504  -0.60264  -0.59507  -0.59053  -0.56855
 Alpha  occ. eigenvalues --   -0.56043  -0.55477  -0.54841  -0.53933  -0.53051
 Alpha  occ. eigenvalues --   -0.52280  -0.51314  -0.50687  -0.50527  -0.50306
 Alpha  occ. eigenvalues --   -0.49784  -0.49062  -0.48645  -0.48013  -0.47832
 Alpha  occ. eigenvalues --   -0.47041  -0.46451  -0.46037  -0.45771  -0.45403
 Alpha  occ. eigenvalues --   -0.44449  -0.44339  -0.44214  -0.43792  -0.43503
 Alpha  occ. eigenvalues --   -0.43223  -0.43121  -0.42912  -0.42724  -0.42572
 Alpha  occ. eigenvalues --   -0.42167  -0.42099  -0.41840  -0.41653  -0.41440
 Alpha  occ. eigenvalues --   -0.40718  -0.40551  -0.40408  -0.40142  -0.39982
 Alpha  occ. eigenvalues --   -0.39469  -0.39239  -0.38959  -0.38415  -0.38163
 Alpha  occ. eigenvalues --   -0.37287  -0.37114  -0.36971  -0.36667  -0.36036
 Alpha  occ. eigenvalues --   -0.35980  -0.35708  -0.34974  -0.34648  -0.34311
 Alpha  occ. eigenvalues --   -0.33652  -0.33565  -0.33501  -0.32852  -0.32091
 Alpha  occ. eigenvalues --   -0.31830  -0.31766  -0.31738  -0.29476  -0.29197
 Alpha  occ. eigenvalues --   -0.27991  -0.27300  -0.26647  -0.26309  -0.25550
 Alpha  occ. eigenvalues --   -0.24992  -0.24726  -0.24466  -0.23570  -0.21629
 Alpha  occ. eigenvalues --   -0.17495
 Alpha virt. eigenvalues --   -0.10553  -0.06188  -0.04171  -0.01570  -0.00979
 Alpha virt. eigenvalues --    0.00507   0.02048   0.02234   0.02610   0.02939
 Alpha virt. eigenvalues --    0.04027   0.04265   0.04634   0.05691   0.06439
 Alpha virt. eigenvalues --    0.06486   0.06897   0.07016   0.07773   0.07970
 Alpha virt. eigenvalues --    0.08196   0.09058   0.09152   0.09626   0.09892
 Alpha virt. eigenvalues --    0.09931   0.10317   0.10559   0.10766   0.10796
 Alpha virt. eigenvalues --    0.11292   0.11431   0.11758   0.12395   0.12442
 Alpha virt. eigenvalues --    0.12519   0.12959   0.13719   0.13929   0.14791
 Alpha virt. eigenvalues --    0.15191   0.15342   0.15497   0.15695   0.16142
 Alpha virt. eigenvalues --    0.16282   0.16640   0.17137   0.17344   0.17758
 Alpha virt. eigenvalues --    0.18268   0.18546   0.19169   0.19474   0.19730
 Alpha virt. eigenvalues --    0.20170   0.20565   0.20857   0.21003   0.21591
 Alpha virt. eigenvalues --    0.22316   0.22687   0.23255   0.23479   0.23739
 Alpha virt. eigenvalues --    0.24139   0.24575   0.24887   0.25063   0.25298
 Alpha virt. eigenvalues --    0.25704   0.26532   0.26659   0.27151   0.28300
 Alpha virt. eigenvalues --    0.28917   0.29136   0.29801   0.29914   0.30581
 Alpha virt. eigenvalues --    0.30823   0.31924   0.32234   0.33399   0.33711
 Alpha virt. eigenvalues --    0.33957   0.34181   0.35147   0.35909   0.36373
 Alpha virt. eigenvalues --    0.36851   0.37442   0.38108   0.38390   0.38722
 Alpha virt. eigenvalues --    0.39226   0.40007   0.40376   0.40667   0.41020
 Alpha virt. eigenvalues --    0.41574   0.41864   0.42073   0.42367   0.43283
 Alpha virt. eigenvalues --    0.43841   0.44172   0.44375   0.44840   0.44895
 Alpha virt. eigenvalues --    0.45302   0.45634   0.46167   0.46535   0.46715
 Alpha virt. eigenvalues --    0.46955   0.47270   0.47726   0.48148   0.48246
 Alpha virt. eigenvalues --    0.48324   0.48847   0.49127   0.49267   0.49549
 Alpha virt. eigenvalues --    0.50182   0.50617   0.50768   0.51344   0.51819
 Alpha virt. eigenvalues --    0.52088   0.52586   0.52981   0.53060   0.53517
 Alpha virt. eigenvalues --    0.54050   0.54126   0.54705   0.55070   0.55426
 Alpha virt. eigenvalues --    0.55763   0.55894   0.56197   0.57036   0.57258
 Alpha virt. eigenvalues --    0.57305   0.57569   0.57951   0.58127   0.58584
 Alpha virt. eigenvalues --    0.58887   0.59121   0.59707   0.59961   0.60235
 Alpha virt. eigenvalues --    0.60394   0.60633   0.60793   0.61073   0.61527
 Alpha virt. eigenvalues --    0.61576   0.61840   0.62026   0.62498   0.62708
 Alpha virt. eigenvalues --    0.63179   0.63487   0.63650   0.63822   0.63929
 Alpha virt. eigenvalues --    0.64267   0.64394   0.64718   0.65223   0.65264
 Alpha virt. eigenvalues --    0.65624   0.65746   0.66755   0.66884   0.67049
 Alpha virt. eigenvalues --    0.67475   0.67889   0.67977   0.68557   0.68661
 Alpha virt. eigenvalues --    0.69009   0.69098   0.69198   0.69243   0.69541
 Alpha virt. eigenvalues --    0.69923   0.70200   0.70447   0.70650   0.71021
 Alpha virt. eigenvalues --    0.71461   0.71763   0.71864   0.72065   0.72327
 Alpha virt. eigenvalues --    0.72733   0.72867   0.73206   0.73486   0.73816
 Alpha virt. eigenvalues --    0.74022   0.74279   0.74788   0.75326   0.75421
 Alpha virt. eigenvalues --    0.75885   0.76077   0.76380   0.77411   0.77577
 Alpha virt. eigenvalues --    0.78140   0.78285   0.78672   0.79060   0.79750
 Alpha virt. eigenvalues --    0.80179   0.81539   0.81729   0.82144   0.82861
 Alpha virt. eigenvalues --    0.83289   0.83783   0.84166   0.85133   0.85604
 Alpha virt. eigenvalues --    0.85882   0.87257   0.87707   0.89452   0.89783
 Alpha virt. eigenvalues --    0.90348   0.90934   0.91344   0.92155   0.92343
 Alpha virt. eigenvalues --    0.92794   0.93300   0.94161   0.94335   0.94454
 Alpha virt. eigenvalues --    0.95711   0.96217   0.96404   0.96828   0.97180
 Alpha virt. eigenvalues --    0.97527   0.98003   0.99078   0.99468   0.99839
 Alpha virt. eigenvalues --    1.00530   1.01054   1.01171   1.01594   1.02762
 Alpha virt. eigenvalues --    1.03331   1.04268   1.05434   1.05691   1.06574
 Alpha virt. eigenvalues --    1.07129   1.08558   1.08898   1.09482   1.10032
 Alpha virt. eigenvalues --    1.11026   1.11377   1.12287   1.12870   1.13641
 Alpha virt. eigenvalues --    1.14188   1.15108   1.15489   1.15872   1.16552
 Alpha virt. eigenvalues --    1.17022   1.17953   1.18592   1.19341   1.19796
 Alpha virt. eigenvalues --    1.20532   1.21487   1.23319   1.23637   1.23745
 Alpha virt. eigenvalues --    1.23933   1.24305   1.25287   1.25592   1.26030
 Alpha virt. eigenvalues --    1.27363   1.27705   1.28429   1.28725   1.29762
 Alpha virt. eigenvalues --    1.30974   1.31345   1.32147   1.32415   1.34041
 Alpha virt. eigenvalues --    1.34503   1.34846   1.35357   1.35982   1.36108
 Alpha virt. eigenvalues --    1.36316   1.37176   1.37295   1.38044   1.38568
 Alpha virt. eigenvalues --    1.39716   1.40158   1.40777   1.41621   1.41674
 Alpha virt. eigenvalues --    1.42474   1.42851   1.43220   1.44551   1.45125
 Alpha virt. eigenvalues --    1.45592   1.45979   1.46311   1.47298   1.48095
 Alpha virt. eigenvalues --    1.48421   1.48813   1.49057   1.49275   1.50546
 Alpha virt. eigenvalues --    1.50995   1.51217   1.51671   1.51928   1.52388
 Alpha virt. eigenvalues --    1.54985   1.55897   1.55990   1.56753   1.57308
 Alpha virt. eigenvalues --    1.58289   1.58960   1.59026   1.59937   1.60521
 Alpha virt. eigenvalues --    1.61019   1.61187   1.61571   1.61832   1.62324
 Alpha virt. eigenvalues --    1.62618   1.63225   1.63272   1.63423   1.64385
 Alpha virt. eigenvalues --    1.64829   1.65233   1.65448   1.65718   1.66150
 Alpha virt. eigenvalues --    1.66817   1.67142   1.67745   1.68446   1.69181
 Alpha virt. eigenvalues --    1.69735   1.70055   1.70307   1.70464   1.71101
 Alpha virt. eigenvalues --    1.71447   1.71674   1.72414   1.73126   1.73483
 Alpha virt. eigenvalues --    1.74006   1.74437   1.74718   1.74956   1.75255
 Alpha virt. eigenvalues --    1.76480   1.77049   1.77375   1.77478   1.78076
 Alpha virt. eigenvalues --    1.78271   1.78734   1.78933   1.79488   1.79730
 Alpha virt. eigenvalues --    1.79946   1.81507   1.81607   1.82046   1.82547
 Alpha virt. eigenvalues --    1.82909   1.83300   1.83533   1.83725   1.84060
 Alpha virt. eigenvalues --    1.84390   1.84829   1.85206   1.85712   1.86098
 Alpha virt. eigenvalues --    1.86300   1.86430   1.86914   1.87605   1.88106
 Alpha virt. eigenvalues --    1.88932   1.88958   1.89662   1.90023   1.90732
 Alpha virt. eigenvalues --    1.90881   1.91288   1.91773   1.92154   1.92852
 Alpha virt. eigenvalues --    1.92907   1.93421   1.94057   1.94373   1.94548
 Alpha virt. eigenvalues --    1.94719   1.95485   1.96065   1.96278   1.96598
 Alpha virt. eigenvalues --    1.97880   1.98052   1.98358   1.98879   1.99270
 Alpha virt. eigenvalues --    1.99409   1.99706   2.00342   2.01809   2.02420
 Alpha virt. eigenvalues --    2.02793   2.03019   2.03562   2.04482   2.04963
 Alpha virt. eigenvalues --    2.05275   2.05822   2.06252   2.06812   2.07481
 Alpha virt. eigenvalues --    2.08369   2.08713   2.08887   2.09208   2.09774
 Alpha virt. eigenvalues --    2.10763   2.10938   2.11473   2.11533   2.12919
 Alpha virt. eigenvalues --    2.13470   2.13809   2.14144   2.14507   2.14907
 Alpha virt. eigenvalues --    2.15745   2.16018   2.16540   2.16898   2.17791
 Alpha virt. eigenvalues --    2.18446   2.18824   2.19255   2.20490   2.20678
 Alpha virt. eigenvalues --    2.21310   2.21490   2.22192   2.22502   2.23232
 Alpha virt. eigenvalues --    2.23562   2.24918   2.25226   2.26026   2.26611
 Alpha virt. eigenvalues --    2.27339   2.27807   2.28561   2.28934   2.29917
 Alpha virt. eigenvalues --    2.30384   2.31304   2.32155   2.33220   2.33735
 Alpha virt. eigenvalues --    2.34150   2.35478   2.35612   2.36739   2.37783
 Alpha virt. eigenvalues --    2.38508   2.39051   2.39960   2.40152   2.41495
 Alpha virt. eigenvalues --    2.42801   2.43062   2.43444   2.43875   2.45899
 Alpha virt. eigenvalues --    2.46103   2.47154   2.47724   2.48208   2.48934
 Alpha virt. eigenvalues --    2.49367   2.51102   2.52014   2.52463   2.53481
 Alpha virt. eigenvalues --    2.54112   2.54893   2.55408   2.56288   2.56592
 Alpha virt. eigenvalues --    2.57008   2.58290   2.58700   2.59607   2.60258
 Alpha virt. eigenvalues --    2.61384   2.62696   2.63349   2.63788   2.64151
 Alpha virt. eigenvalues --    2.64734   2.65062   2.65470   2.66232   2.66881
 Alpha virt. eigenvalues --    2.67095   2.67685   2.68663   2.69045   2.69579
 Alpha virt. eigenvalues --    2.70336   2.70859   2.71267   2.71459   2.72012
 Alpha virt. eigenvalues --    2.72888   2.73158   2.73520   2.74666   2.75408
 Alpha virt. eigenvalues --    2.75938   2.76584   2.78066   2.78473   2.79451
 Alpha virt. eigenvalues --    2.79902   2.80487   2.80927   2.81437   2.81619
 Alpha virt. eigenvalues --    2.82012   2.82403   2.83104   2.83658   2.84392
 Alpha virt. eigenvalues --    2.84878   2.86482   2.88274   2.88747   2.89330
 Alpha virt. eigenvalues --    2.89680   2.91069   2.91804   2.92231   2.94395
 Alpha virt. eigenvalues --    2.94626   2.96042   2.96986   2.97275   2.98397
 Alpha virt. eigenvalues --    2.98775   2.98920   2.99413   3.00721   3.02348
 Alpha virt. eigenvalues --    3.03534   3.04031   3.05083   3.05321   3.05894
 Alpha virt. eigenvalues --    3.06465   3.07428   3.08021   3.09487   3.11373
 Alpha virt. eigenvalues --    3.14323   3.15136   3.15440   3.16022   3.16298
 Alpha virt. eigenvalues --    3.16746   3.19212   3.19562   3.20380   3.21009
 Alpha virt. eigenvalues --    3.22129   3.23750   3.25786   3.28094   3.29641
 Alpha virt. eigenvalues --    3.37542   3.45555   3.46254   3.47553   3.49286
 Alpha virt. eigenvalues --    3.51439   3.56429   3.57423   3.57966   3.60713
 Alpha virt. eigenvalues --    3.62626   3.64903   3.68391   3.70062   3.70318
 Alpha virt. eigenvalues --    3.74778
          Condensed to atoms (all electrons):
 Mulliken charges:
               1
     1  O   -0.226007
     2  O   -0.181177
     3  O   -0.188430
     4  O   -0.239336
     5  O   -0.284878
     6  O   -0.234723
     7  N   -0.086982
     8  N   -0.067740
     9  N   -0.078000
    10  N   -0.251886
    11  C   -0.143791
    12  C    0.078753
    13  C   -0.173169
    14  C    0.010850
    15  C   -0.066776
    16  C    0.046286
    17  C   -0.084645
    18  C   -0.133460
    19  C    0.132900
    20  C   -0.025354
    21  C    0.123742
    22  C    0.059928
    23  C   -0.067930
    24  C    0.058736
    25  C   -0.104590
    26  C    0.062599
    27  C    0.098849
    28  C    0.003236
    29  C    0.026223
    30  C   -0.006508
    31  C   -0.094166
    32  C    0.173523
    33  C   -0.168347
    34  C    0.081789
    35  C   -0.107445
    36  C   -0.175617
    37  C    0.115209
    38  C    0.253561
    39  C    0.167670
    40  C    0.040305
    41  C    0.124086
    42  C    0.086773
    43  C   -0.042023
    44  H    0.105240
    45  H    0.066729
    46  H    0.036283
    47  H    0.006201
    48  H   -0.006362
    49  H    0.046093
    50  H    0.005139
    51  H    0.062988
    52  H    0.192242
    53  H    0.058243
    54  H    0.023257
    55  H    0.020323
    56  H    0.099034
    57  H    0.041096
    58  H    0.056020
    59  H    0.075835
    60  H    0.007706
    61  H    0.072019
    62  H    0.039269
    63  H    0.030143
    64  H   -0.044125
    65  H   -0.019854
    66  H   -0.032646
    67  H    0.000906
    68  H    0.009093
    69  H    0.025858
    70  H    0.006765
    71  H   -0.096107
    72  H    0.034265
    73  H    0.033242
    74  H    0.007665
    75  H    0.045036
    76  H    0.018355
    77  H   -0.014935
    78  H    0.019016
    79  H    0.060556
    80  H    0.175260
    81  H    0.222114
 Sum of Mulliken charges =  -0.00000
 Mulliken charges with hydrogens summed into heavy atoms:
               1
     1  O   -0.226007
     2  O   -0.005917
     3  O    0.033683
     4  O   -0.239336
     5  O   -0.284878
     6  O   -0.234723
     7  N    0.018257
     8  N    0.124503
     9  N    0.021033
    10  N   -0.251886
    11  C   -0.143791
    12  C    0.078753
    13  C   -0.173169
    14  C    0.010850
    15  C   -0.066776
    16  C    0.046286
    17  C   -0.017916
    18  C   -0.133460
    19  C    0.175385
    20  C   -0.031716
    21  C    0.123742
    22  C    0.059928
    23  C   -0.067930
    24  C    0.109968
    25  C   -0.041601
    26  C    0.164422
    27  C    0.098849
    28  C    0.100352
    29  C    0.109764
    30  C    0.134923
    31  C   -0.138291
    32  C    0.121930
    33  C   -0.159254
    34  C    0.081789
    35  C   -0.107445
    36  C   -0.175617
    37  C    0.115209
    38  C    0.190076
    39  C    0.167670
    40  C    0.107812
    41  C    0.124086
    42  C    0.157830
    43  C    0.022613
 Electronic spatial extent (au):  <R**2>=          30145.4145
 Charge=              0.0000 electrons
 Dipole moment (field-independent basis, Debye):
    X=             -4.3605    Y=              1.8926    Z=             -1.8101  Tot=              5.0865
 Quadrupole moment (field-independent basis, Debye-Ang):
   XX=           -250.3181   YY=           -242.5663   ZZ=           -251.9782
   XY=             16.6647   XZ=             17.7918   YZ=            -12.7146
 Traceless Quadrupole moment (field-independent basis, Debye-Ang):
   XX=             -2.0306   YY=              5.7212   ZZ=             -3.6907
   XY=             16.6647   XZ=             17.7918   YZ=            -12.7146
 Octapole moment (field-independent basis, Debye-Ang**2):
  XXX=            -36.7501  YYY=            146.7885  ZZZ=            -18.6808  XYY=           -194.5210
  XXY=            -27.9617  XXZ=           -169.7722  XZZ=            -52.9966  YZZ=            -36.8921
  YYZ=             46.1478  XYZ=            -58.0914
 Hexadecapole moment (field-independent basis, Debye-Ang**3):
 XXXX=         -21541.7157 YYYY=         -16503.8083 ZZZZ=          -1677.4226 XXXY=            668.1600
 XXXZ=            972.6414 YYYX=           1100.0844 YYYZ=           -397.5760 ZZZX=             82.4431
 ZZZY=             54.5867 XXYY=          -6298.2261 XXZZ=          -3801.0761 YYZZ=          -3071.3950
 XXYZ=            181.0343 YYXZ=            357.4498 ZZXY=            156.1553
 N-N= 5.056942687155D+03 E-N=-1.464527625187D+04  KE= 1.928713389461D+03
 1\1\GINC-PADAWAN\SP\RB3LYP TD-FC\SVP\C33H38N4O6\PADAWAN\01-Jul-2019\0\
 \# td=(NStates=1) B3LYP/SVP\\TD\\0,1\O,0,-4.308522363,-4.9433487061,1.
 7075247809\O,0,2.9182458533,-4.7696982766,1.1665207894\O,0,6.995955899
 9,-1.4111983895,1.9985125308\O,0,3.7714121987,-3.1453125563,-0.1164949
 889\O,0,7.4104305797,-0.7663765328,-0.1550515379\O,0,-2.9916947556,2.3
 140294537,-0.3870002614\N,0,-0.2264696417,-0.4580499981,-0.6132783407\
 N,0,1.541742667,1.8600864411,-0.3881903966\N,0,-3.284580447,-3.1670078
 138,0.7456408827\N,0,-0.8534938451,2.9094620956,-0.0716310089\C,0,0.63
 41956839,-2.3412820866,-1.4853808332\C,0,0.9310860109,-1.0494821799,-1
 .1031991688\C,0,-0.7594800767,-2.5757359358,-1.3280148642\C,0,-1.28858
 92809,-1.4090012115,-0.6926083908\C,0,3.8610445653,1.5678799545,-0.239
 6882356\C,0,2.5320853143,0.9247342989,-0.5914533303\C,0,2.3206673169,-
 0.3952867866,-0.9590053751\C,0,3.5557062107,2.8339631985,0.1195999503\
 C,0,1.7228036855,-3.3238040817,-2.0607934249\C,0,-5.3540943161,-2.7914
 647614,1.4384311074\C,0,-3.5152553848,-1.863501326,0.1917751093\C,0,2.
 0416584779,3.0120712013,-0.011783555\C,0,-4.94533723,-1.6609050544,0.5
 794019841\C,0,5.1208673486,0.7968245994,-0.2341523739\C,0,-2.598194635
 2,-1.0483133867,-0.3794544192\C,0,-1.4773273948,-3.8540051536,-1.90013
 03298\C,0,-4.3063002984,-3.7711113429,1.3498201076\C,0,2.0299441281,-4
 .4683058543,-1.1515343802\C,0,5.2484136438,-0.0967077943,0.8691094581\
 C,0,4.5595920205,3.8695998093,0.5861508154\C,0,1.270155694,4.111195669
 9,0.3545171723\C,0,-6.7229769483,-3.3501597958,0.895668629\C,0,-5.7522
 448051,-0.5664224262,0.3062877957\C,0,-0.1609540147,4.0261808679,0.223
 0541173\C,0,-1.1093060292,5.1418717209,0.362334699\C,0,-2.3494644201,4
 .5980113025,0.2324491509\C,0,2.9910856906,-4.0703797082,-0.0132236332\
 C,0,-5.4947031798,0.6530205907,-0.6311045753\C,0,6.6935292319,-0.75319
 07887,0.8924601442\C,0,-3.6912266656,5.3849895575,0.2726217729\C,0,-2.
 146964248,3.1785328143,-0.0841541852\C,0,-0.68168876,6.5082264926,0.84
 4803532\C,0,-4.2768872513,5.3958255393,-1.1694860401\H,0,-0.4090824931
 ,0.3263194977,-0.0842681665\H,0,3.2885662176,-1.0354116824,-0.89231931
 93\H,0,2.6561454958,-2.9336849651,-2.5396805152\H,0,1.0465456608,-3.69
 90940203,-2.8646448246\H,0,-5.6024919765,-2.3985984845,2.3194324831\H,
 0,5.4692894414,0.4470440858,-1.2778681341\H,0,5.7592144888,1.731412669
 4,-0.2431078854\H,0,-2.6373499527,0.0515629466,0.0116507676\H,0,0.4718
 14412,1.9463144753,-0.6530727528\H,0,-1.4244871845,-4.6767622467,-0.89
 67991897\H,0,-2.5110312141,-3.5859891853,-2.0843665698\H,0,-1.10600578
 05,-4.1063477036,-2.8502506144\H,0,-2.4730796943,-3.7041801487,0.60481
 31465\H,0,1.2358544147,-4.9878314814,-0.553640754\H,0,2.6305591603,-5.
 2808021871,-1.7185372356\H,0,4.446539887,-0.9263137948,1.0577455107\H,
 0,5.1294072861,0.5421102497,1.7222600291\H,0,4.5267532009,4.7494653629
 ,-0.3488062524\H,0,5.703323424,3.5178893221,0.7711629059\H,0,4.3736543
 98,4.0978252546,1.6214778647\H,0,1.7520159802,4.9524044178,0.772918367
 \H,0,-7.6070222705,-2.8712222057,1.0218334529\H,0,-6.9305171156,-4.028
 049187,1.6141272531\H,0,-6.5210177988,-3.8676941855,0.0135534437\H,0,-
 6.7530498273,-0.8070516137,0.9746654676\H,0,-4.9915481269,1.4828531062
 ,-0.299297191\H,0,-6.5400723846,1.1303021052,-0.9334376599\H,0,-5.0536
 246745,0.3589460568,-1.3087476396\H,0,-3.5986418497,6.5063650416,0.686
 075484\H,0,-4.4281242506,4.6512174536,0.7954855749\H,0,-0.1326424087,6
 .3073012955,1.6973095726\H,0,-1.7158076911,7.1123646912,0.7903383855\H
 ,0,0.1240515732,7.1315354392,0.3274036975\H,0,-3.8837562826,5.95907353
 31,-1.8926234648\H,0,-5.354718179,5.8471978359,-0.9898788651\H,0,-4.21
 17046474,4.2413443047,-1.5752470327\H,0,3.6306614666,-4.3794441569,1.6
 830390863\H,0,7.8270107257,-2.010860475,1.9526626493\\Version=ES64L-G1
 6RevA.03\State=1-A\HF=-1948.9931882\RMSD=7.510e-09\PG=C01 [X(C33H38N4O
 6)]\\@


 IT IS IMPOSSIBLE TO MEDITATE ON TIME AND THE MYSTERY 
 OF NATURE WITHOUT AN OVERWHELMING EMOTION AT THE
 LIMITATIONS OF HUMAN INTELLIGENCE.

                                         -- ALFRED NORTH WHITEHEAD
 Job cpu time:       0 days  4 hours 10 minutes  8.8 seconds.
 Elapsed time:       0 days  2 hours 46 minutes 37.7 seconds.
 File lengths (MBytes):  RWF=   2591 Int=      0 D2E=      0 Chk=     65 Scr=      1
 Normal termination of Gaussian 16 at Mon Jul  1 08:06:51 2019.
