 Entering Gaussian System, Link 0=g16
 Input=Geometria-447-.com
 Output=Geometria-447-.log
 Initial command:
 /usr/local/g16/l1.exe "/home/padawan/israel-mol/phycocyanobilin/spectra/emi/Gau-3201.inp" -scrdir="/home/padawan/israel-mol/phycocyanobilin/spectra/emi/"
 Entering Link 1 = /usr/local/g16/l1.exe PID=      3203.
  
 Copyright (c) 1988,1990,1992,1993,1995,1998,2003,2009,2016,
            Gaussian, Inc.  All Rights Reserved.
  
 This is part of the Gaussian(R) 16 program.  It is based on
 the Gaussian(R) 09 system (copyright 2009, Gaussian, Inc.),
 the Gaussian(R) 03 system (copyright 2003, Gaussian, Inc.),
 the Gaussian(R) 98 system (copyright 1998, Gaussian, Inc.),
 the Gaussian(R) 94 system (copyright 1995, Gaussian, Inc.),
 the Gaussian 92(TM) system (copyright 1992, Gaussian, Inc.),
 the Gaussian 90(TM) system (copyright 1990, Gaussian, Inc.),
 the Gaussian 88(TM) system (copyright 1988, Gaussian, Inc.),
 the Gaussian 86(TM) system (copyright 1986, Carnegie Mellon
 University), and the Gaussian 82(TM) system (copyright 1983,
 Carnegie Mellon University). Gaussian is a federally registered
 trademark of Gaussian, Inc.
  
 This software contains proprietary and confidential information,
 including trade secrets, belonging to Gaussian, Inc.
  
 This software is provided under written license and may be
 used, copied, transmitted, or stored only in accord with that
 written license.
  
 The following legend is applicable only to US Government
 contracts under FAR:
  
                    RESTRICTED RIGHTS LEGEND
  
 Use, reproduction and disclosure by the US Government is
 subject to restrictions as set forth in subparagraphs (a)
 and (c) of the Commercial Computer Software - Restricted
 Rights clause in FAR 52.227-19.
  
 Gaussian, Inc.
 340 Quinnipiac St., Bldg. 40, Wallingford CT 06492
  
  
 ---------------------------------------------------------------
 Warning -- This program may not be used in any manner that
 competes with the business of Gaussian, Inc. or will provide
 assistance to any competitor of Gaussian, Inc.  The licensee
 of this program is prohibited from giving any competitor of
 Gaussian, Inc. access to this program.  By using this program,
 the user acknowledges that Gaussian, Inc. is engaged in the
 business of creating and licensing software in the field of
 computational chemistry and represents and warrants to the
 licensee that it is not a competitor of Gaussian, Inc. and that
 it will not use this program in any manner prohibited above.
 ---------------------------------------------------------------
  

 Cite this work as:
 Gaussian 16, Revision A.03,
 M. J. Frisch, G. W. Trucks, H. B. Schlegel, G. E. Scuseria, 
 M. A. Robb, J. R. Cheeseman, G. Scalmani, V. Barone, 
 G. A. Petersson, H. Nakatsuji, X. Li, M. Caricato, A. V. Marenich, 
 J. Bloino, B. G. Janesko, R. Gomperts, B. Mennucci, H. P. Hratchian, 
 J. V. Ortiz, A. F. Izmaylov, J. L. Sonnenberg, D. Williams-Young, 
 F. Ding, F. Lipparini, F. Egidi, J. Goings, B. Peng, A. Petrone, 
 T. Henderson, D. Ranasinghe, V. G. Zakrzewski, J. Gao, N. Rega, 
 G. Zheng, W. Liang, M. Hada, M. Ehara, K. Toyota, R. Fukuda, 
 J. Hasegawa, M. Ishida, T. Nakajima, Y. Honda, O. Kitao, H. Nakai, 
 T. Vreven, K. Throssell, J. A. Montgomery, Jr., J. E. Peralta, 
 F. Ogliaro, M. J. Bearpark, J. J. Heyd, E. N. Brothers, K. N. Kudin, 
 V. N. Staroverov, T. A. Keith, R. Kobayashi, J. Normand, 
 K. Raghavachari, A. P. Rendell, J. C. Burant, S. S. Iyengar, 
 J. Tomasi, M. Cossi, J. M. Millam, M. Klene, C. Adamo, R. Cammi, 
 J. W. Ochterski, R. L. Martin, K. Morokuma, O. Farkas, 
 J. B. Foresman, and D. J. Fox, Gaussian, Inc., Wallingford CT, 2016.
 
 ******************************************
 Gaussian 16:  ES64L-G16RevA.03 25-Dec-2016
                 2-Jul-2019 
 ******************************************
 %nproc=4
 Will use up to    4 processors via shared memory.
 %Mem=2GB
 --------------------------
 # td=(NStates=1) B3LYP/SVP
 --------------------------
 1/38=1,172=1/1;
 2/12=2,17=6,18=5,40=1/2;
 3/5=18,7=101,11=9,25=1,30=1,74=-5/1,2,3,8;
 4//1;
 5/5=2,38=5/2;
 8/6=1,10=1,108=1/1;
 9/41=1,42=1,70=2/14;
 6/7=2,8=2,9=2,10=2/1;
 99/5=1,9=1/99;
 --
 TD
 --
 Symbolic Z-matrix:
 Charge =  0 Multiplicity = 1
 8                    -4.25241  -4.93188   1.83135 
 8                     3.04257  -5.05199   0.9195 
 8                     6.81708  -1.61434   1.96718 
 8                     3.83187  -3.20652  -0.20173 
 8                     7.55013  -0.50166   0.08112 
 8                    -2.93183   2.46077  -0.51072 
 7                    -0.24017  -0.54874  -0.51871 
 7                     1.54854   1.88602  -0.37284 
 7                    -3.30805  -3.15462   0.70443 
 7                    -0.70524   2.925     0.04134 
 6                     0.65612  -2.30484  -1.40607 
 6                     0.92319  -1.03512  -0.9027 
 6                    -0.74113  -2.58218  -1.21432 
 6                    -1.30319  -1.39155  -0.68099 
 6                     3.71549   1.48976  -0.31918 
 6                     2.50478   0.95603  -0.64318 
 6                     2.20983  -0.39738  -0.88211 
 6                     3.53686   2.86958   0.03836 
 6                     1.6127   -3.2629   -2.10003 
 6                    -5.4168   -2.86895   1.4063 
 6                    -3.60576  -1.84828   0.34303 
 6                     2.13053   3.04357  -0.0041 
 6                    -5.01996  -1.60109   0.58148 
 6                     5.07655   0.74947  -0.29729 
 6                    -2.59443  -0.99125  -0.1792 
 6                    -1.5462   -3.79002  -1.79502 
 6                    -4.3097   -3.80251   1.34547 
 6                     2.02801  -4.50589  -1.31727 
 6                     5.35946   0.00087   0.97995 
 6                     4.38592   3.97826   0.47264 
 6                     1.28809   4.12863   0.33974 
 6                    -6.73769  -3.45765   1.01118 
 6                    -5.8751   -0.61127   0.16374 
 6                    -0.06137   4.09876   0.26159 
 6                    -1.02249   5.20608   0.49759 
 6                    -2.32084   4.65766   0.14992 
 6                     3.01016  -4.13062  -0.08633 
 6                    -5.42046   0.53037  -0.68429 
 6                     6.70655  -0.79761   0.92752 
 6                    -3.66242   5.37662   0.11855 
 6                    -2.03499   3.32151  -0.07358 
 6                    -0.68136   6.52401   0.89745 
 6                    -4.32386   5.29868  -1.291 
 1                    -0.4537    0.34304  -0.36481 
 1                     3.03287  -0.99213  -0.9536 
 1                     2.65622  -2.67508  -2.58493 
 1                     1.04345  -3.57143  -3.10646 
 1                    -5.3801   -2.54671   2.45601 
 1                     5.01559  -0.05972  -1.01124 
 1                     5.9095    1.46026  -0.42848 
 1                    -2.83199   0.03325  -0.20954 
 1                     0.54545   1.8696   -0.37876 
 1                    -1.68631  -4.62113  -1.04051 
 1                    -2.45744  -3.52673  -2.20678 
 1                    -1.1828   -4.09429  -2.6082 
 1                    -2.35539  -3.45366   0.42414 
 1                     1.27424  -5.21445  -0.874 
 1                     2.72895  -5.19209  -1.93141 
 1                     4.53747  -0.63499   1.35604 
 1                     5.19728   0.78508   1.72875 
 1                     4.64955   4.80706  -0.344 
 1                     5.4193    3.61022   0.5188 
 1                     3.94614   4.32116   1.63313 
 1                     1.83708   5.01501   0.52846 
 1                    -7.66044  -2.85324   1.35874 
 1                    -6.66388  -4.54653   1.41404 
 1                    -6.64758  -3.66177  -0.12605 
 1                    -6.93386  -0.92121   0.45291 
 1                    -4.5185    1.11138  -0.37717 
 1                    -6.35877   1.21428  -0.91076 
 1                    -5.10484   0.21361  -1.57735 
 1                    -3.60833   6.50149   0.5285 
 1                    -4.45473   4.89612   0.74118 
 1                    -0.42418   6.70459   2.00481 
 1                    -1.54247   7.27296   0.8555 
 1                     0.02439   6.84877   0.24549 
 1                    -3.99501   6.02829  -1.88126 
 1                    -5.38246   5.6002   -1.17222 
 1                    -4.23185   4.10468  -1.72073 
 1                     3.60115  -4.5456    1.59012 
 1                     7.74782  -2.03193   2.03062 
 
 Stoichiometry    C33H38N4O6
 Framework group  C1[X(C33H38N4O6)]
 Deg. of freedom   237
 Full point group                 C1      NOp   1
 Largest Abelian subgroup         C1      NOp   1
 Largest concise Abelian subgroup C1      NOp   1
                         Standard orientation:                         
 ---------------------------------------------------------------------
 Center     Atomic      Atomic             Coordinates (Angstroms)
 Number     Number       Type             X           Y           Z
 ---------------------------------------------------------------------
      1          8           0        4.302659   -4.887967   -1.827199
      2          8           0       -2.990148   -5.084605   -0.911306
      3          8           0       -6.801698   -1.689055   -1.962165
      4          8           0       -3.798539   -3.245980    0.207562
      5          8           0       -7.545629   -0.581419   -0.077398
      6          8           0        2.904396    2.493690    0.504435
      7          7           0        0.245042   -0.544385    0.518378
      8          7           0       -1.569652    1.870907    0.369789
      9          7           0        3.339954   -3.119192   -0.702457
     10          7           0        0.672691    2.933277   -0.047148
     11          6           0       -0.631983   -2.308613    1.408860
     12          6           0       -0.912856   -1.042583    0.903716
     13          6           0        0.768047   -2.571302    1.216788
     14          6           0        1.317086   -1.375547    0.681362
     15          6           0       -3.732269    1.451448    0.317871
     16          6           0       -2.515764    0.931165    0.642035
     17          6           0       -2.206246   -0.418649    0.882846
     18          6           0       -3.568576    2.832550   -0.041839
     19          6           0       -1.577923   -3.275785    2.104763
     20          6           0        5.445170   -2.812083   -1.405874
     21          6           0        3.623881   -1.809206   -0.343185
     22          6           0       -2.164156    3.021622   -0.000381
     23          6           0        5.035238   -1.547285   -0.582758
     24          6           0       -5.085359    0.696629    0.297819
     25          6           0        2.603723   -0.962236    0.178294
     26          6           0        1.586277   -3.769598    1.798877
     27          6           0        4.348136   -3.757323   -1.343054
     28          6           0       -1.980336   -4.524323    1.324099
     29          6           0       -5.360914   -0.056878   -0.978142
     30          6           0       -4.429653    3.931444   -0.477336
     31          6           0       -1.333531    4.115090   -0.346300
     32          6           0        6.772473   -3.386042   -1.010570
     33          6           0        5.879963   -0.547756   -0.166963
     34          6           0        0.016213    4.099753   -0.268822
     35          6           0        0.965322    5.216917   -0.506998
     36          6           0        2.269639    4.682921   -0.159193
     37          6           0       -2.967064   -4.161422    0.093116
     38          6           0        5.413589    0.590239    0.679591
     39          6           0       -6.699367   -0.869617   -0.923799
     40          6           0        3.603481    5.416217   -0.129611
     41          6           0        1.998193    3.344133    0.066474
     42          6           0        0.609931    6.530523   -0.908662
     43          6           0        4.266438    5.347473    1.279699
     44          1           0        0.448951    0.349392    0.363020
     45          1           0       -3.022854   -1.022048    0.955665
     46          1           0       -2.627406   -2.698413    2.589327
     47          1           0       -1.004886   -3.576699    3.111356
     48          1           0        5.404490   -2.491841   -2.456046
     49          1           0       -5.015393   -0.110780    1.012957
     50          1           0       -5.925782    1.398675    0.428377
     51          1           0        2.830337    0.064786    0.206962
     52          1           0       -0.566439    1.865208    0.375199
     53          1           0        1.734868   -4.600301    1.045549
     54          1           0        2.494855   -3.495973    2.209756
     55          1           0        1.226564   -4.076500    2.612703
     56          1           0        2.390682   -3.427965   -0.421211
     57          1           0       -1.219263   -5.225466    0.881499
     58          1           0       -2.673586   -5.217045    1.939640
     59          1           0       -4.532366   -0.684496   -1.353704
     60          1           0       -5.207503    0.727890   -1.728208
     61          1           0       -4.701692    4.758615    0.338190
     62          1           0       -5.459057    3.552317   -0.522393
     63          1           0       -3.994153    4.277264   -1.638574
     64          1           0       -1.892061    4.995273   -0.536072
     65          1           0        7.688535   -2.772337   -1.359525
     66          1           0        6.710093   -4.476256   -1.411747
     67          1           0        6.685134   -3.589397    0.127015
     68          1           0        6.941825   -0.846813   -0.456227
     69          1           0        4.505322    1.161115    0.372079
     70          1           0        6.344665    1.284475    0.904529
     71          1           0        5.101833    0.271479    1.573298
     72          1           0        3.537167    6.539830   -0.541229
     73          1           0        4.400551    4.943269   -0.751940
     74          1           0        0.350271    6.706675   -2.016158
     75          1           0        1.463015    7.288692   -0.868302
     76          1           0       -0.098913    6.848711   -0.256815
     77          1           0        3.930112    6.074425    1.869037
     78          1           0        5.321694    5.660110    1.159903
     79          1           0        4.187402    4.153214    1.711278
     80          1           0       -3.554449   -4.585228   -1.582395
     81          1           0       -7.727962   -2.116661   -2.024485
 ---------------------------------------------------------------------
 Rotational constants (GHZ):           0.0746884           0.0557327           0.0342535
 Standard basis: SVP (5D, 7F)
 There are   835 symmetry adapted cartesian basis functions of A   symmetry.
 There are   792 symmetry adapted basis functions of A   symmetry.
   792 basis functions,  1341 primitive gaussians,   835 cartesian basis functions
   156 alpha electrons      156 beta electrons
       nuclear repulsion energy      5050.0206500055 Hartrees.
 NAtoms=   81 NActive=   81 NUniq=   81 SFac= 1.00D+00 NAtFMM=   60 NAOKFM=T Big=T
 Integral buffers will be    131072 words long.
 Regular integral format.
 Two-electron integral symmetry is turned on.
 One-electron integrals computed using PRISM.
 NBasis=   792 RedAO= T EigKep=  3.46D-04  NBF=   792
 NBsUse=   792 1.00D-06 EigRej= -1.00D+00 NBFU=   792
 ExpMin= 1.22D-01 ExpMax= 2.27D+03 ExpMxC= 3.41D+02 IAcc=3 IRadAn=         5 AccDes= 0.00D+00
 Harris functional with IExCor=  402 and IRadAn=       5 diagonalized for initial guess.
 HarFok:  IExCor=  402 AccDes= 0.00D+00 IRadAn=         5 IDoV= 1 UseB2=F ITyADJ=14
 ICtDFT=  3500011 ScaDFX=  1.000000  1.000000  1.000000  1.000000
 FoFCou: FMM=F IPFlag=           0 FMFlag=      100000 FMFlg1=        2001
         NFxFlg=           0 DoJE=T BraDBF=F KetDBF=T FulRan=T
         wScrn=  0.000000 ICntrl=       500 IOpCl=  0 I1Cent=   200000004 NGrid=           0
         NMat0=    1 NMatS0=      1 NMatT0=    0 NMatD0=    1 NMtDS0=    0 NMtDT0=    0
 Petite list used in FoFCou.
 Requested convergence on RMS density matrix=1.00D-08 within 128 cycles.
 Requested convergence on MAX density matrix=1.00D-06.
 Requested convergence on             energy=1.00D-06.
 No special actions if energy rises.
 Integral accuracy reduced to 1.0D-05 until final iterations.
 EnCoef did     2 forward-backward iterations
 Problem detected with inexpensive integrals.
 Switching to full accuracy and repeating last cycle.
 EnCoef did     6 forward-backward iterations
 SCF Done:  E(RB3LYP) =  -1949.09681747     A.U. after   23 cycles
            NFock= 23  Conv=0.76D-08     -V/T= 2.0105
 DoSCS=F DFT=T ScalE2(SS,OS)=  1.000000  1.000000
 ExpMin= 1.22D-01 ExpMax= 2.27D+03 ExpMxC= 3.41D+02 IAcc=3 IRadAn=         5 AccDes= 0.00D+00
 HarFok:  IExCor=  205 AccDes= 0.00D+00 IRadAn=         5 IDoV=-2 UseB2=F ITyADJ=14
 ICtDFT= 12500011 ScaDFX=  1.000000  1.000000  1.000000  1.000000
 GSVD:  LWork=       -2193 too small for GESVD, short by        9890 words or        9890 for optimal perf.
 Range of M.O.s used for correlation:    44   792
 NBasis=   792 NAE=   156 NBE=   156 NFC=    43 NFV=     0
 NROrb=    749 NOA=   113 NOB=   113 NVA=   636 NVB=   636

 **** Warning!!: The smallest alpha delta epsilon is  0.67979859D-01

 Orbital symmetries:
       Occupied  (A) (A) (A) (A) (A) (A) (A) (A) (A) (A) (A) (A)
                 (A) (A) (A) (A) (A) (A) (A) (A) (A) (A) (A) (A)
                 (A) (A) (A) (A) (A) (A) (A) (A) (A) (A) (A) (A)
                 (A) (A) (A) (A) (A) (A) (A) (A) (A) (A) (A) (A)
                 (A) (A) (A) (A) (A) (A) (A) (A) (A) (A) (A) (A)
                 (A) (A) (A) (A) (A) (A) (A) (A) (A) (A) (A) (A)
                 (A) (A) (A) (A) (A) (A) (A) (A) (A) (A) (A) (A)
                 (A) (A) (A) (A) (A) (A) (A) (A) (A) (A) (A) (A)
                 (A) (A) (A) (A) (A) (A) (A) (A) (A) (A) (A) (A)
                 (A) (A) (A) (A) (A) (A) (A) (A) (A) (A) (A) (A)
                 (A) (A) (A) (A) (A) (A) (A) (A) (A) (A) (A) (A)
                 (A) (A) (A) (A) (A) (A) (A) (A) (A) (A) (A) (A)
                 (A) (A) (A) (A) (A) (A) (A) (A) (A) (A) (A) (A)
       Virtual   (A) (A) (A) (A) (A) (A) (A) (A) (A) (A) (A) (A)
                 (A) (A) (A) (A) (A) (A) (A) (A) (A) (A) (A) (A)
                 (A) (A) (A) (A) (A) (A) (A) (A) (A) (A) (A) (A)
                 (A) (A) (A) (A) (A) (A) (A) (A) (A) (A) (A) (A)
                 (A) (A) (A) (A) (A) (A) (A) (A) (A) (A) (A) (A)
                 (A) (A) (A) (A) (A) (A) (A) (A) (A) (A) (A) (A)
                 (A) (A) (A) (A) (A) (A) (A) (A) (A) (A) (A) (A)
                 (A) (A) (A) (A) (A) (A) (A) (A) (A) (A) (A) (A)
                 (A) (A) (A) (A) (A) (A) (A) (A) (A) (A) (A) (A)
                 (A) (A) (A) (A) (A) (A) (A) (A) (A) (A) (A) (A)
                 (A) (A) (A) (A) (A) (A) (A) (A) (A) (A) (A) (A)
                 (A) (A) (A) (A) (A) (A) (A) (A) (A) (A) (A) (A)
                 (A) (A) (A) (A) (A) (A) (A) (A) (A) (A) (A) (A)
                 (A) (A) (A) (A) (A) (A) (A) (A) (A) (A) (A) (A)
                 (A) (A) (A) (A) (A) (A) (A) (A) (A) (A) (A) (A)
                 (A) (A) (A) (A) (A) (A) (A) (A) (A) (A) (A) (A)
                 (A) (A) (A) (A) (A) (A) (A) (A) (A) (A) (A) (A)
                 (A) (A) (A) (A) (A) (A) (A) (A) (A) (A) (A) (A)
                 (A) (A) (A) (A) (A) (A) (A) (A) (A) (A) (A) (A)
                 (A) (A) (A) (A) (A) (A) (A) (A) (A) (A) (A) (A)
                 (A) (A) (A) (A) (A) (A) (A) (A) (A) (A) (A) (A)
                 (A) (A) (A) (A) (A) (A) (A) (A) (A) (A) (A) (A)
                 (A) (A) (A) (A) (A) (A) (A) (A) (A) (A) (A) (A)
                 (A) (A) (A) (A) (A) (A) (A) (A) (A) (A) (A) (A)
                 (A) (A) (A) (A) (A) (A) (A) (A) (A) (A) (A) (A)
                 (A) (A) (A) (A) (A) (A) (A) (A) (A) (A) (A) (A)
                 (A) (A) (A) (A) (A) (A) (A) (A) (A) (A) (A) (A)
                 (A) (A) (A) (A) (A) (A) (A) (A) (A) (A) (A) (A)
                 (A) (A) (A) (A) (A) (A) (A) (A) (A) (A) (A) (A)
                 (A) (A) (A) (A) (A) (A) (A) (A) (A) (A) (A) (A)
                 (A) (A) (A) (A) (A) (A) (A) (A) (A) (A) (A) (A)
                 (A) (A) (A) (A) (A) (A) (A) (A) (A) (A) (A) (A)
                 (A) (A) (A) (A) (A) (A) (A) (A) (A) (A) (A) (A)
                 (A) (A) (A) (A) (A) (A) (A) (A) (A) (A) (A) (A)
                 (A) (A) (A) (A) (A) (A) (A) (A) (A) (A) (A) (A)
                 (A) (A) (A) (A) (A) (A) (A) (A) (A) (A) (A) (A)
                 (A) (A) (A) (A) (A) (A) (A) (A) (A) (A) (A) (A)
                 (A) (A) (A) (A) (A) (A) (A) (A) (A) (A) (A) (A)
                 (A) (A) (A) (A) (A) (A) (A) (A) (A) (A) (A) (A)
                 (A) (A) (A) (A) (A) (A) (A) (A) (A) (A) (A) (A)
                 (A) (A) (A) (A) (A) (A) (A) (A) (A) (A) (A) (A)
                 (A) (A) (A) (A) (A) (A) (A) (A) (A) (A) (A) (A)
                 (A) (A) (A) (A) (A) (A) (A) (A) (A) (A) (A) (A)
                 (A) (A) (A) (A) (A) (A) (A) (A) (A) (A) (A) (A)
                 (A) (A) (A) (A) (A) (A) (A) (A) (A) (A) (A) (A)
                 (A) (A) (A) (A) (A) (A) (A) (A) (A) (A) (A) (A)
                 (A) (A) (A) (A) (A) (A) (A) (A) (A) (A) (A) (A)
                 (A) (A) (A) (A) (A) (A) (A) (A) (A) (A) (A) (A)
                 (A) (A) (A) (A) (A) (A) (A) (A) (A) (A) (A) (A)
                 (A) (A) (A) (A) (A) (A) (A) (A) (A) (A) (A) (A)
                 (A) (A) (A) (A) (A) (A) (A) (A) (A) (A) (A) (A)
                 (A) (A) (A) (A) (A) (A) (A) (A) (A) (A) (A) (A)
                 (A) (A) (A) (A) (A) (A) (A) (A) (A) (A) (A) (A)
     4 initial guesses have been made.
 Convergence on wavefunction:    0.001000000000000
 Iteration     1 Dimension     4 NMult     0 NNew      4
 CISAX will form     4 AO SS matrices at one time.
 Iteration     2 Dimension     6 NMult     4 NNew      2
 Iteration     3 Dimension     8 NMult     6 NNew      2
 Iteration     4 Dimension    10 NMult     8 NNew      2
 Iteration     5 Dimension    12 NMult    10 NNew      2
 Iteration     6 Dimension    14 NMult    12 NNew      2
 ***********************************************************************
 Excited states from <AA,BB:AA,BB> singles matrix:
 ***********************************************************************
 
 Ground to excited state transition densities written to RWF  633
 Ground to excited state transition electric dipole moments (Au):
       state          X           Y           Z        Dip. S.      Osc.
         1        -0.9296      2.5128     -0.1205      7.1930      0.2943
 Ground to excited state transition velocity dipole moments (Au):
       state          X           Y           Z        Dip. S.      Osc.
         1         0.0585     -0.1478      0.0070      0.0253      0.2750
 Ground to excited state transition magnetic dipole moments (Au):
       state          X           Y           Z
         1         0.3403      0.4541      2.2635
 Ground to excited state transition velocity quadrupole moments (Au):
       state          XX          YY          ZZ          XY          XZ          YZ
         1         0.4889     -0.5421      0.0585     -0.3916     -0.1014      0.0341
 <0|del|b> * <b|rxdel|0> + <0|del|b> * <b|delr+rdel|0>
 Rotatory Strengths (R) in cgs (10**-40 erg-esu-cm/Gauss)
       state          XX          YY          ZZ    R(velocity)    E-M Angle
         1      -397.7940    232.7569   -197.2615   -120.7662       94.86
 1/2[<0|r|b>*<b|rxdel|0> + (<0|rxdel|b>*<b|r|0>)*]
 Rotatory Strengths (R) in cgs (10**-40 erg-esu-cm/Gauss)
       state          XX          YY          ZZ     R(length)
         1       223.6765   -806.9879    192.8645   -130.1490
  1/2[<0|del|b>*<b|r|0> + (<0|r|b>*<b|del|0>)*] (Au)
       state          X           Y           Z        Dip. S.   Osc.(frdel)
         1        -0.0543     -0.3714     -0.0008      0.4266      0.2844

 Excitation energies and oscillator strengths:
 
 Excited State   1:      Singlet-A      1.6703 eV  742.28 nm  f=0.2943  <S**2>=0.000
     156 ->157         0.70496
     156 <-157        -0.12281
 This state for optimization and/or second-order correction.
 Total Energy, E(TD-HF/TD-DFT) =  -1949.03543467    
 Copying the excited state density for this state as the 1-particle RhoCI density.
 SavETr:  write IOETrn=   770 NScale= 10 NData=  16 NLR=1 NState=    1 LETran=      28.

 **********************************************************************

            Population analysis using the SCF density.

 **********************************************************************

 Orbital symmetries:
       Occupied  (A) (A) (A) (A) (A) (A) (A) (A) (A) (A) (A) (A)
                 (A) (A) (A) (A) (A) (A) (A) (A) (A) (A) (A) (A)
                 (A) (A) (A) (A) (A) (A) (A) (A) (A) (A) (A) (A)
                 (A) (A) (A) (A) (A) (A) (A) (A) (A) (A) (A) (A)
                 (A) (A) (A) (A) (A) (A) (A) (A) (A) (A) (A) (A)
                 (A) (A) (A) (A) (A) (A) (A) (A) (A) (A) (A) (A)
                 (A) (A) (A) (A) (A) (A) (A) (A) (A) (A) (A) (A)
                 (A) (A) (A) (A) (A) (A) (A) (A) (A) (A) (A) (A)
                 (A) (A) (A) (A) (A) (A) (A) (A) (A) (A) (A) (A)
                 (A) (A) (A) (A) (A) (A) (A) (A) (A) (A) (A) (A)
                 (A) (A) (A) (A) (A) (A) (A) (A) (A) (A) (A) (A)
                 (A) (A) (A) (A) (A) (A) (A) (A) (A) (A) (A) (A)
                 (A) (A) (A) (A) (A) (A) (A) (A) (A) (A) (A) (A)
       Virtual   (A) (A) (A) (A) (A) (A) (A) (A) (A) (A) (A) (A)
                 (A) (A) (A) (A) (A) (A) (A) (A) (A) (A) (A) (A)
                 (A) (A) (A) (A) (A) (A) (A) (A) (A) (A) (A) (A)
                 (A) (A) (A) (A) (A) (A) (A) (A) (A) (A) (A) (A)
                 (A) (A) (A) (A) (A) (A) (A) (A) (A) (A) (A) (A)
                 (A) (A) (A) (A) (A) (A) (A) (A) (A) (A) (A) (A)
                 (A) (A) (A) (A) (A) (A) (A) (A) (A) (A) (A) (A)
                 (A) (A) (A) (A) (A) (A) (A) (A) (A) (A) (A) (A)
                 (A) (A) (A) (A) (A) (A) (A) (A) (A) (A) (A) (A)
                 (A) (A) (A) (A) (A) (A) (A) (A) (A) (A) (A) (A)
                 (A) (A) (A) (A) (A) (A) (A) (A) (A) (A) (A) (A)
                 (A) (A) (A) (A) (A) (A) (A) (A) (A) (A) (A) (A)
                 (A) (A) (A) (A) (A) (A) (A) (A) (A) (A) (A) (A)
                 (A) (A) (A) (A) (A) (A) (A) (A) (A) (A) (A) (A)
                 (A) (A) (A) (A) (A) (A) (A) (A) (A) (A) (A) (A)
                 (A) (A) (A) (A) (A) (A) (A) (A) (A) (A) (A) (A)
                 (A) (A) (A) (A) (A) (A) (A) (A) (A) (A) (A) (A)
                 (A) (A) (A) (A) (A) (A) (A) (A) (A) (A) (A) (A)
                 (A) (A) (A) (A) (A) (A) (A) (A) (A) (A) (A) (A)
                 (A) (A) (A) (A) (A) (A) (A) (A) (A) (A) (A) (A)
                 (A) (A) (A) (A) (A) (A) (A) (A) (A) (A) (A) (A)
                 (A) (A) (A) (A) (A) (A) (A) (A) (A) (A) (A) (A)
                 (A) (A) (A) (A) (A) (A) (A) (A) (A) (A) (A) (A)
                 (A) (A) (A) (A) (A) (A) (A) (A) (A) (A) (A) (A)
                 (A) (A) (A) (A) (A) (A) (A) (A) (A) (A) (A) (A)
                 (A) (A) (A) (A) (A) (A) (A) (A) (A) (A) (A) (A)
                 (A) (A) (A) (A) (A) (A) (A) (A) (A) (A) (A) (A)
                 (A) (A) (A) (A) (A) (A) (A) (A) (A) (A) (A) (A)
                 (A) (A) (A) (A) (A) (A) (A) (A) (A) (A) (A) (A)
                 (A) (A) (A) (A) (A) (A) (A) (A) (A) (A) (A) (A)
                 (A) (A) (A) (A) (A) (A) (A) (A) (A) (A) (A) (A)
                 (A) (A) (A) (A) (A) (A) (A) (A) (A) (A) (A) (A)
                 (A) (A) (A) (A) (A) (A) (A) (A) (A) (A) (A) (A)
                 (A) (A) (A) (A) (A) (A) (A) (A) (A) (A) (A) (A)
                 (A) (A) (A) (A) (A) (A) (A) (A) (A) (A) (A) (A)
                 (A) (A) (A) (A) (A) (A) (A) (A) (A) (A) (A) (A)
                 (A) (A) (A) (A) (A) (A) (A) (A) (A) (A) (A) (A)
                 (A) (A) (A) (A) (A) (A) (A) (A) (A) (A) (A) (A)
                 (A) (A) (A) (A) (A) (A) (A) (A) (A) (A) (A) (A)
                 (A) (A) (A) (A) (A) (A) (A) (A) (A) (A) (A) (A)
                 (A) (A) (A) (A) (A) (A) (A) (A) (A) (A) (A) (A)
                 (A) (A) (A) (A) (A) (A) (A) (A) (A) (A) (A) (A)
                 (A) (A) (A) (A) (A) (A) (A) (A) (A) (A) (A) (A)
                 (A) (A) (A) (A) (A) (A) (A) (A) (A) (A) (A) (A)
                 (A) (A) (A) (A) (A) (A) (A) (A) (A) (A) (A) (A)
                 (A) (A) (A) (A) (A) (A) (A) (A) (A) (A) (A) (A)
                 (A) (A) (A) (A) (A) (A) (A) (A) (A) (A) (A) (A)
                 (A) (A) (A) (A) (A) (A) (A) (A) (A) (A) (A) (A)
                 (A) (A) (A) (A) (A) (A) (A) (A) (A) (A) (A) (A)
                 (A) (A) (A) (A) (A) (A) (A) (A) (A) (A) (A) (A)
                 (A) (A) (A) (A) (A) (A) (A) (A) (A) (A) (A) (A)
                 (A) (A) (A) (A) (A) (A) (A) (A) (A) (A) (A) (A)
                 (A) (A) (A) (A) (A) (A) (A) (A) (A) (A) (A) (A)
 The electronic state is 1-A.
 Alpha  occ. eigenvalues --  -19.20830 -19.20358 -19.14668 -19.13055 -19.10611
 Alpha  occ. eigenvalues --  -19.08197 -14.37565 -14.37221 -14.34907 -14.27971
 Alpha  occ. eigenvalues --  -10.34281 -10.33101 -10.28887 -10.24923 -10.24917
 Alpha  occ. eigenvalues --  -10.24089 -10.23899 -10.23576 -10.23464 -10.22928
 Alpha  occ. eigenvalues --  -10.22875 -10.22105 -10.21758 -10.21690 -10.20888
 Alpha  occ. eigenvalues --  -10.20719 -10.20694 -10.20593 -10.20373 -10.20168
 Alpha  occ. eigenvalues --  -10.20163 -10.20040 -10.20037 -10.19980 -10.19872
 Alpha  occ. eigenvalues --  -10.19826 -10.19061 -10.18996 -10.18953 -10.18800
 Alpha  occ. eigenvalues --  -10.17946 -10.17212 -10.17088  -1.10401  -1.10002
 Alpha  occ. eigenvalues --   -1.03281  -1.01241  -1.01126  -1.00745  -0.99307
 Alpha  occ. eigenvalues --   -0.96578  -0.96055  -0.90094  -0.82758  -0.82150
 Alpha  occ. eigenvalues --   -0.81856  -0.81529  -0.79561  -0.79196  -0.77547
 Alpha  occ. eigenvalues --   -0.77423  -0.77037  -0.75560  -0.74411  -0.73499
 Alpha  occ. eigenvalues --   -0.72193  -0.70308  -0.69475  -0.68494  -0.67879
 Alpha  occ. eigenvalues --   -0.67599  -0.66329  -0.65214  -0.62522  -0.61588
 Alpha  occ. eigenvalues --   -0.60736  -0.60387  -0.59406  -0.58532  -0.57876
 Alpha  occ. eigenvalues --   -0.56494  -0.55826  -0.55513  -0.54483  -0.53498
 Alpha  occ. eigenvalues --   -0.52692  -0.51356  -0.50692  -0.50530  -0.50038
 Alpha  occ. eigenvalues --   -0.49593  -0.49170  -0.48658  -0.48485  -0.48215
 Alpha  occ. eigenvalues --   -0.47153  -0.46523  -0.46253  -0.46150  -0.45442
 Alpha  occ. eigenvalues --   -0.45263  -0.44990  -0.44659  -0.44308  -0.43944
 Alpha  occ. eigenvalues --   -0.43430  -0.43184  -0.42660  -0.42547  -0.42357
 Alpha  occ. eigenvalues --   -0.42123  -0.42027  -0.41856  -0.41419  -0.41121
 Alpha  occ. eigenvalues --   -0.40961  -0.40608  -0.40563  -0.39948  -0.39547
 Alpha  occ. eigenvalues --   -0.39378  -0.38889  -0.38584  -0.38406  -0.38204
 Alpha  occ. eigenvalues --   -0.38015  -0.37268  -0.36859  -0.36510  -0.36258
 Alpha  occ. eigenvalues --   -0.36122  -0.35307  -0.34938  -0.34684  -0.34536
 Alpha  occ. eigenvalues --   -0.34158  -0.33962  -0.33517  -0.33144  -0.32928
 Alpha  occ. eigenvalues --   -0.32555  -0.31882  -0.31657  -0.29493  -0.29354
 Alpha  occ. eigenvalues --   -0.28452  -0.27555  -0.26541  -0.26152  -0.25884
 Alpha  occ. eigenvalues --   -0.25236  -0.24722  -0.22948  -0.22446  -0.21026
 Alpha  occ. eigenvalues --   -0.18030
 Alpha virt. eigenvalues --   -0.11232  -0.06805  -0.05114  -0.02665  -0.00892
 Alpha virt. eigenvalues --    0.00317   0.02248   0.02489   0.02950   0.03359
 Alpha virt. eigenvalues --    0.03758   0.04051   0.04586   0.05109   0.05441
 Alpha virt. eigenvalues --    0.06148   0.06980   0.07340   0.08038   0.08502
 Alpha virt. eigenvalues --    0.08788   0.08931   0.09235   0.09376   0.09698
 Alpha virt. eigenvalues --    0.10220   0.10645   0.10717   0.10995   0.11434
 Alpha virt. eigenvalues --    0.11743   0.12140   0.12333   0.12952   0.13117
 Alpha virt. eigenvalues --    0.13398   0.13557   0.13765   0.14675   0.14955
 Alpha virt. eigenvalues --    0.15385   0.15461   0.15666   0.15964   0.16346
 Alpha virt. eigenvalues --    0.16498   0.16996   0.17283   0.17386   0.17624
 Alpha virt. eigenvalues --    0.18037   0.18603   0.19290   0.19618   0.20520
 Alpha virt. eigenvalues --    0.21246   0.21369   0.21826   0.22289   0.22471
 Alpha virt. eigenvalues --    0.22850   0.23139   0.23244   0.23625   0.24389
 Alpha virt. eigenvalues --    0.24700   0.24870   0.25810   0.26036   0.26920
 Alpha virt. eigenvalues --    0.27000   0.27397   0.27703   0.28602   0.28885
 Alpha virt. eigenvalues --    0.29595   0.30092   0.30322   0.30425   0.31033
 Alpha virt. eigenvalues --    0.31079   0.32094   0.32699   0.33281   0.33711
 Alpha virt. eigenvalues --    0.34162   0.35042   0.35705   0.36053   0.36235
 Alpha virt. eigenvalues --    0.37344   0.37736   0.38020   0.38161   0.38886
 Alpha virt. eigenvalues --    0.39323   0.40186   0.40534   0.40844   0.41321
 Alpha virt. eigenvalues --    0.41558   0.42077   0.42519   0.42737   0.43124
 Alpha virt. eigenvalues --    0.43594   0.43966   0.44056   0.44487   0.44775
 Alpha virt. eigenvalues --    0.45191   0.45291   0.45609   0.46376   0.46632
 Alpha virt. eigenvalues --    0.46778   0.47215   0.47481   0.48140   0.48330
 Alpha virt. eigenvalues --    0.48562   0.48849   0.49227   0.49525   0.50420
 Alpha virt. eigenvalues --    0.50522   0.51048   0.51161   0.51536   0.52017
 Alpha virt. eigenvalues --    0.52112   0.52488   0.52703   0.52920   0.53363
 Alpha virt. eigenvalues --    0.53638   0.54218   0.54454   0.54986   0.55436
 Alpha virt. eigenvalues --    0.55790   0.56541   0.56977   0.57034   0.57622
 Alpha virt. eigenvalues --    0.57880   0.58300   0.58712   0.58812   0.59329
 Alpha virt. eigenvalues --    0.59399   0.59640   0.60022   0.60106   0.60487
 Alpha virt. eigenvalues --    0.60531   0.60866   0.61096   0.61312   0.61809
 Alpha virt. eigenvalues --    0.61910   0.62287   0.62477   0.62565   0.62704
 Alpha virt. eigenvalues --    0.62753   0.63097   0.63293   0.63567   0.64192
 Alpha virt. eigenvalues --    0.64397   0.64532   0.64581   0.64916   0.65240
 Alpha virt. eigenvalues --    0.65491   0.65870   0.66194   0.66521   0.66862
 Alpha virt. eigenvalues --    0.67281   0.67390   0.67681   0.67862   0.68116
 Alpha virt. eigenvalues --    0.68309   0.68699   0.69071   0.69212   0.70096
 Alpha virt. eigenvalues --    0.70291   0.70551   0.70826   0.71104   0.71205
 Alpha virt. eigenvalues --    0.71425   0.71569   0.71956   0.72029   0.72351
 Alpha virt. eigenvalues --    0.72773   0.73155   0.73236   0.73659   0.74073
 Alpha virt. eigenvalues --    0.74203   0.74663   0.75301   0.75412   0.75738
 Alpha virt. eigenvalues --    0.76406   0.76908   0.77035   0.77200   0.77484
 Alpha virt. eigenvalues --    0.78184   0.78551   0.78822   0.79383   0.80039
 Alpha virt. eigenvalues --    0.80580   0.80737   0.81041   0.81834   0.82059
 Alpha virt. eigenvalues --    0.83407   0.84272   0.84512   0.85913   0.86054
 Alpha virt. eigenvalues --    0.86580   0.86921   0.87288   0.88094   0.89517
 Alpha virt. eigenvalues --    0.90016   0.90762   0.91983   0.92494   0.92712
 Alpha virt. eigenvalues --    0.93225   0.93482   0.93943   0.94165   0.94971
 Alpha virt. eigenvalues --    0.95293   0.95462   0.95690   0.96594   0.97086
 Alpha virt. eigenvalues --    0.97955   0.98729   0.99281   0.99803   1.00576
 Alpha virt. eigenvalues --    1.01498   1.01852   1.02353   1.03106   1.03201
 Alpha virt. eigenvalues --    1.03357   1.03918   1.04411   1.06443   1.07331
 Alpha virt. eigenvalues --    1.07879   1.08844   1.09370   1.09860   1.10550
 Alpha virt. eigenvalues --    1.11552   1.11674   1.11861   1.12543   1.13648
 Alpha virt. eigenvalues --    1.14342   1.14720   1.15186   1.15280   1.16678
 Alpha virt. eigenvalues --    1.17669   1.17889   1.18648   1.18859   1.20235
 Alpha virt. eigenvalues --    1.20713   1.20733   1.21731   1.22130   1.22827
 Alpha virt. eigenvalues --    1.24047   1.24230   1.24752   1.25296   1.25923
 Alpha virt. eigenvalues --    1.26501   1.27681   1.29055   1.29267   1.29940
 Alpha virt. eigenvalues --    1.30649   1.31302   1.32115   1.32748   1.33245
 Alpha virt. eigenvalues --    1.33694   1.34755   1.35787   1.36085   1.37001
 Alpha virt. eigenvalues --    1.37575   1.38034   1.38071   1.38635   1.39278
 Alpha virt. eigenvalues --    1.39655   1.40374   1.41089   1.41566   1.41832
 Alpha virt. eigenvalues --    1.42934   1.43332   1.43527   1.44767   1.45768
 Alpha virt. eigenvalues --    1.46001   1.46503   1.46998   1.47235   1.47494
 Alpha virt. eigenvalues --    1.48222   1.48956   1.49377   1.49756   1.50661
 Alpha virt. eigenvalues --    1.50675   1.52124   1.52554   1.52896   1.53607
 Alpha virt. eigenvalues --    1.53940   1.54200   1.55375   1.55861   1.56246
 Alpha virt. eigenvalues --    1.57071   1.57622   1.58227   1.58767   1.59539
 Alpha virt. eigenvalues --    1.59650   1.60533   1.61043   1.61880   1.62607
 Alpha virt. eigenvalues --    1.62948   1.63020   1.63632   1.64004   1.64753
 Alpha virt. eigenvalues --    1.65477   1.65950   1.66641   1.67249   1.67553
 Alpha virt. eigenvalues --    1.67738   1.68278   1.68601   1.68864   1.69755
 Alpha virt. eigenvalues --    1.70095   1.70796   1.71532   1.71794   1.72377
 Alpha virt. eigenvalues --    1.72929   1.73243   1.73795   1.74108   1.74493
 Alpha virt. eigenvalues --    1.75439   1.75505   1.75833   1.76080   1.76449
 Alpha virt. eigenvalues --    1.76925   1.77205   1.77634   1.77956   1.78193
 Alpha virt. eigenvalues --    1.78619   1.79084   1.79321   1.79583   1.79797
 Alpha virt. eigenvalues --    1.80500   1.80735   1.81586   1.81732   1.82184
 Alpha virt. eigenvalues --    1.82722   1.82765   1.83436   1.83778   1.84502
 Alpha virt. eigenvalues --    1.84886   1.85095   1.85522   1.85645   1.85961
 Alpha virt. eigenvalues --    1.86397   1.86698   1.87327   1.87749   1.88215
 Alpha virt. eigenvalues --    1.88411   1.89129   1.89457   1.89903   1.90657
 Alpha virt. eigenvalues --    1.90873   1.91433   1.91890   1.92262   1.93021
 Alpha virt. eigenvalues --    1.93496   1.93614   1.94012   1.94219   1.94538
 Alpha virt. eigenvalues --    1.94902   1.95144   1.95424   1.95854   1.97321
 Alpha virt. eigenvalues --    1.98093   1.98629   1.99058   1.99406   2.00014
 Alpha virt. eigenvalues --    2.00462   2.00632   2.01565   2.01863   2.02724
 Alpha virt. eigenvalues --    2.03514   2.04107   2.04882   2.05156   2.05598
 Alpha virt. eigenvalues --    2.05813   2.06217   2.06417   2.07170   2.07628
 Alpha virt. eigenvalues --    2.07769   2.08935   2.09155   2.09368   2.10322
 Alpha virt. eigenvalues --    2.10648   2.11414   2.11858   2.12106   2.12352
 Alpha virt. eigenvalues --    2.12836   2.13322   2.13648   2.14057   2.14936
 Alpha virt. eigenvalues --    2.15040   2.16187   2.16655   2.17375   2.17800
 Alpha virt. eigenvalues --    2.18138   2.19016   2.19311   2.20364   2.20887
 Alpha virt. eigenvalues --    2.21663   2.22027   2.22368   2.23238   2.23555
 Alpha virt. eigenvalues --    2.24143   2.24889   2.25237   2.26693   2.26961
 Alpha virt. eigenvalues --    2.27533   2.28005   2.28716   2.29546   2.30208
 Alpha virt. eigenvalues --    2.30603   2.32623   2.32823   2.33132   2.33611
 Alpha virt. eigenvalues --    2.35016   2.35273   2.36139   2.37335   2.37793
 Alpha virt. eigenvalues --    2.38177   2.38536   2.39275   2.39869   2.40569
 Alpha virt. eigenvalues --    2.41101   2.42998   2.44419   2.45287   2.45698
 Alpha virt. eigenvalues --    2.46428   2.46657   2.48151   2.48887   2.49505
 Alpha virt. eigenvalues --    2.50207   2.50511   2.51067   2.51615   2.52642
 Alpha virt. eigenvalues --    2.54458   2.54597   2.55511   2.55915   2.57002
 Alpha virt. eigenvalues --    2.58306   2.58998   2.59400   2.59921   2.60742
 Alpha virt. eigenvalues --    2.61663   2.62736   2.63248   2.63574   2.63778
 Alpha virt. eigenvalues --    2.64278   2.65165   2.65721   2.66119   2.67330
 Alpha virt. eigenvalues --    2.67657   2.68079   2.68604   2.69229   2.69713
 Alpha virt. eigenvalues --    2.69853   2.70752   2.71806   2.72679   2.73239
 Alpha virt. eigenvalues --    2.73583   2.74063   2.74277   2.74433   2.75538
 Alpha virt. eigenvalues --    2.75998   2.77058   2.78078   2.78165   2.79122
 Alpha virt. eigenvalues --    2.79858   2.80580   2.81387   2.81989   2.82458
 Alpha virt. eigenvalues --    2.82879   2.83691   2.84243   2.85362   2.85563
 Alpha virt. eigenvalues --    2.86348   2.86619   2.87462   2.89091   2.89733
 Alpha virt. eigenvalues --    2.90520   2.91491   2.92502   2.93627   2.93960
 Alpha virt. eigenvalues --    2.94270   2.94900   2.95790   2.96231   2.97049
 Alpha virt. eigenvalues --    2.97836   2.99039   2.99710   3.00799   3.01782
 Alpha virt. eigenvalues --    3.02023   3.03106   3.03476   3.04396   3.05643
 Alpha virt. eigenvalues --    3.07863   3.08110   3.08442   3.10160   3.10803
 Alpha virt. eigenvalues --    3.12104   3.12938   3.14024   3.14907   3.17512
 Alpha virt. eigenvalues --    3.17780   3.18079   3.18573   3.18773   3.20943
 Alpha virt. eigenvalues --    3.21527   3.22027   3.25008   3.29849   3.32719
 Alpha virt. eigenvalues --    3.36192   3.37463   3.41166   3.44553   3.46165
 Alpha virt. eigenvalues --    3.49997   3.56020   3.56499   3.59183   3.64214
 Alpha virt. eigenvalues --    3.65134   3.66826   3.69342   3.69726   3.69965
 Alpha virt. eigenvalues --    3.71654
          Condensed to atoms (all electrons):
 Mulliken charges:
               1
     1  O   -0.229748
     2  O   -0.189193
     3  O   -0.184481
     4  O   -0.259163
     5  O   -0.243459
     6  O   -0.331139
     7  N    0.063930
     8  N   -0.029607
     9  N   -0.081293
    10  N   -0.310676
    11  C   -0.083781
    12  C    0.051226
    13  C   -0.211717
    14  C    0.040606
    15  C   -0.131468
    16  C    0.097140
    17  C   -0.014353
    18  C   -0.107950
    19  C   -0.011684
    20  C   -0.043369
    21  C    0.025241
    22  C    0.031987
    23  C   -0.041433
    24  C    0.146762
    25  C   -0.022927
    26  C    0.202363
    27  C    0.108888
    28  C    0.012624
    29  C   -0.037431
    30  C    0.016505
    31  C   -0.114766
    32  C   -0.010327
    33  C   -0.095817
    34  C    0.145131
    35  C   -0.109403
    36  C   -0.058337
    37  C    0.142518
    38  C    0.056093
    39  C    0.193923
    40  C    0.030641
    41  C    0.156561
    42  C    0.095231
    43  C   -0.017551
    44  H    0.073149
    45  H   -0.051429
    46  H    0.057036
    47  H    0.043518
    48  H    0.047009
    49  H    0.006725
    50  H    0.023243
    51  H   -0.029166
    52  H    0.112530
    53  H    0.036993
    54  H   -0.000139
    55  H   -0.073058
    56  H    0.134888
    57  H    0.040264
    58  H    0.058978
    59  H    0.014490
    60  H    0.019203
    61  H    0.050418
    62  H   -0.001275
    63  H    0.068277
    64  H   -0.051861
    65  H    0.052687
    66  H    0.046486
    67  H    0.023442
    68  H    0.003117
    69  H    0.097815
    70  H    0.018932
    71  H   -0.008099
    72  H    0.009752
    73  H    0.018994
    74  H    0.038271
    75  H    0.003750
    76  H    0.006366
    77  H   -0.024787
    78  H   -0.006859
    79  H    0.082269
    80  H    0.200606
    81  H    0.211171
 Sum of Mulliken charges =  -0.00000
 Mulliken charges with hydrogens summed into heavy atoms:
               1
     1  O   -0.229748
     2  O    0.011412
     3  O    0.026689
     4  O   -0.259163
     5  O   -0.243459
     6  O   -0.331139
     7  N    0.137079
     8  N    0.082922
     9  N    0.053595
    10  N   -0.310676
    11  C   -0.083781
    12  C    0.051226
    13  C   -0.211717
    14  C    0.040606
    15  C   -0.131468
    16  C    0.097140
    17  C   -0.065782
    18  C   -0.107950
    19  C    0.088870
    20  C    0.003640
    21  C    0.025241
    22  C    0.031987
    23  C   -0.041433
    24  C    0.176729
    25  C   -0.052093
    26  C    0.166160
    27  C    0.108888
    28  C    0.111866
    29  C   -0.003738
    30  C    0.133925
    31  C   -0.166628
    32  C    0.112289
    33  C   -0.092700
    34  C    0.145131
    35  C   -0.109403
    36  C   -0.058337
    37  C    0.142518
    38  C    0.164741
    39  C    0.193923
    40  C    0.059387
    41  C    0.156561
    42  C    0.143619
    43  C    0.033072
 Electronic spatial extent (au):  <R**2>=          30321.0418
 Charge=             -0.0000 electrons
 Dipole moment (field-independent basis, Debye):
    X=             -3.2891    Y=              0.0221    Z=             -0.7177  Tot=              3.3665
 Quadrupole moment (field-independent basis, Debye-Ang):
   XX=           -249.9319   YY=           -242.5308   ZZ=           -251.1840
   XY=             15.1798   XZ=             18.7269   YZ=            -15.0878
 Traceless Quadrupole moment (field-independent basis, Debye-Ang):
   XX=             -2.0497   YY=              5.3515   ZZ=             -3.3018
   XY=             15.1798   XZ=             18.7269   YZ=            -15.0878
 Octapole moment (field-independent basis, Debye-Ang**2):
  XXX=             -3.8527  YYY=            159.8680  ZZZ=            -17.6172  XYY=           -179.2963
  XXY=            -37.1543  XXZ=           -134.6022  XZZ=            -63.3196  YZZ=            -37.3182
  YYZ=             39.4016  XYZ=            -80.6197
 Hexadecapole moment (field-independent basis, Debye-Ang**3):
 XXXX=         -21617.9262 YYYY=         -16462.7742 ZZZZ=          -1686.7667 XXXY=            842.0260
 XXXZ=           1044.1843 YYYX=           1017.3956 YYYZ=           -493.5009 ZZZX=            124.1528
 ZZZY=             16.7092 XXYY=          -6407.4995 XXZZ=          -3810.5975 YYZZ=          -3082.4109
 XXYZ=            144.2054 YYXZ=            324.6272 ZZXY=            218.2582
 N-N= 5.050020650005D+03 E-N=-1.463151109765D+04  KE= 1.928868871500D+03
 1\1\GINC-PADAWAN\SP\RB3LYP TD-FC\SVP\C33H38N4O6\PADAWAN\03-Jul-2019\0\
 \# td=(NStates=1) B3LYP/SVP\\TD\\0,1\O,0,-4.2524067515,-4.931877559,1.
 8313471631\O,0,3.0425682855,-5.0519865055,0.9194960869\O,0,6.817078012
 1,-1.6143387036,1.9671793974\O,0,3.8318682443,-3.2065186769,-0.2017335
 128\O,0,7.5501345501,-0.5016600611,0.0811220795\O,0,-2.931828769,2.460
 7741282,-0.5107226337\N,0,-0.2401710118,-0.548739067,-0.5187088838\N,0
 ,1.548543347,1.8860190344,-0.3728388615\N,0,-3.3080527943,-3.154616574
 7,0.7044267613\N,0,-0.7052390196,2.9250036498,0.0413402882\C,0,0.65611
 78761,-2.3048384422,-1.4060729024\C,0,0.9231852208,-1.0351207438,-0.90
 26991188\C,0,-0.7411282415,-2.5821765799,-1.214323495\C,0,-1.303190741
 1,-1.3915494663,-0.6809872287\C,0,3.7154900098,1.4897621427,-0.3191761
 844\C,0,2.5047825841,0.9560274282,-0.6431785029\C,0,2.2098262328,-0.39
 73769956,-0.8821076854\C,0,3.5368643265,2.8695767599,0.0383618265\C,0,
 1.6127026754,-3.2628979911,-2.1000273483\C,0,-5.4168005868,-2.86895251
 02,1.4062978941\C,0,-3.6057644357,-1.8482798039,0.3430302348\C,0,2.130
 5273648,3.0435743516,-0.0041027869\C,0,-5.0199646928,-1.6010890728,0.5
 814821921\C,0,5.0765529172,0.7494698639,-0.2972886876\C,0,-2.594434259
 1,-0.9912476802,-0.1792043942\C,0,-1.5462042825,-3.790018755,-1.795019
 8188\C,0,-4.3097006385,-3.8025144832,1.3454696726\C,0,2.0280139351,-4.
 5058896127,-1.3172709539\C,0,5.3594647489,0.0008719637,0.9799505423\C,
 0,4.3859246538,3.9782606754,0.4726394642\C,0,1.2880874871,4.128627413,
 0.3397356942\C,0,-6.7376884194,-3.4576505449,1.0111801801\C,0,-5.87509
 70903,-0.6112669107,0.1637435413\C,0,-0.0613740567,4.0987581256,0.2615
 879707\C,0,-1.0224873473,5.2060781415,0.4975882243\C,0,-2.3208415579,4
 .6576572671,0.1499208981\C,0,3.0101575978,-4.1306157318,-0.0863309439\
 C,0,-5.4204557551,0.5303683254,-0.6842898938\C,0,6.7065505341,-0.79760
 52301,0.9275236506\C,0,-3.6624237853,5.3766187204,0.1185463653\C,0,-2.
 0349930509,3.3215071117,-0.0735831281\C,0,-0.681358727,6.5240080708,0.
 8974487965\C,0,-4.3238619488,5.2986758243,-1.2909981913\H,0,-0.4536969
 546,0.3430411699,-0.3648062203\H,0,3.0328706481,-0.9921273539,-0.95359
 54469\H,0,2.6562155029,-2.6750791045,-2.5849250396\H,0,1.0434453507,-3
 .571431254,-3.106459006\H,0,-5.3800997373,-2.546713296,2.4560061405\H,
 0,5.0155940719,-0.0597165903,-1.0112414714\H,0,5.9094995174,1.46025555
 37,-0.4284764222\H,0,-2.8319894166,0.0332511154,-0.2095413516\H,0,0.54
 54517758,1.8695968036,-0.378755321\H,0,-1.6863133671,-4.6211266832,-1.
 0405135612\H,0,-2.4574358546,-3.5267332597,-2.206778811\H,0,-1.1828034
 602,-4.0942864974,-2.6081964089\H,0,-2.3553879251,-3.4536550962,0.4241
 350787\H,0,1.2742382531,-5.2144541437,-0.8740027902\H,0,2.7289489993,-
 5.1920933162,-1.9314085228\H,0,4.5374689799,-0.6349946629,1.3560353396
 \H,0,5.1972840738,0.7850845472,1.7287506782\H,0,4.6495454801,4.8070611
 225,-0.3439957714\H,0,5.4192950212,3.6102185551,0.5187976694\H,0,3.946
 1416468,4.3211575879,1.6331290298\H,0,1.837084487,5.0150106785,0.52846
 39216\H,0,-7.6604376121,-2.8532404075,1.3587371433\H,0,-6.6638804519,-
 4.5465310352,1.4140372441\H,0,-6.647580455,-3.6617735935,-0.1260505167
 \H,0,-6.9338579081,-0.9212130298,0.4529132924\H,0,-4.5185008222,1.1113
 759585,-0.3771749788\H,0,-6.3587742548,1.2142805031,-0.9107553916\H,0,
 -5.104839796,0.2136115234,-1.5773545003\H,0,-3.6083328188,6.5014945546
 ,0.5284997265\H,0,-4.4547269109,4.8961219441,0.7411801443\H,0,-0.42418
 15627,6.7045910245,2.0048103226\H,0,-1.5424703573,7.2729607508,0.85550
 49022\H,0,0.0243916072,6.8487671624,0.2454855057\H,0,-3.9950074077,6.0
 282904547,-1.8812623287\H,0,-5.3824609533,5.6002031364,-1.1722170989\H
 ,0,-4.2318466616,4.1046806384,-1.7207315812\H,0,3.6011485154,-4.545600
 7726,1.5901197944\H,0,7.7478228069,-2.0319325823,2.030620445\\Version=
 ES64L-G16RevA.03\State=1-A\HF=-1949.0968175\RMSD=7.647e-09\PG=C01 [X(C
 33H38N4O6)]\\@


 The impersonal hand of government can
 never replace the helping hand of a neighbor.
                        -- Hubert H. Humphrey
 Job cpu time:       0 days  4 hours 52 minutes 46.1 seconds.
 Elapsed time:       0 days  3 hours 15 minutes 24.4 seconds.
 File lengths (MBytes):  RWF=   2591 Int=      0 D2E=      0 Chk=     65 Scr=      1
 Normal termination of Gaussian 16 at Wed Jul  3 02:54:24 2019.
