 Entering Gaussian System, Link 0=g16
 Input=Geometria-190-.com
 Output=Geometria-190-.log
 Initial command:
 /usr/local/g16/l1.exe "/home/padawan/israel-mol/phycocyanobilin/spectra/emi/Gau-1536.inp" -scrdir="/home/padawan/israel-mol/phycocyanobilin/spectra/emi/"
 Entering Link 1 = /usr/local/g16/l1.exe PID=      1538.
  
 Copyright (c) 1988,1990,1992,1993,1995,1998,2003,2009,2016,
            Gaussian, Inc.  All Rights Reserved.
  
 This is part of the Gaussian(R) 16 program.  It is based on
 the Gaussian(R) 09 system (copyright 2009, Gaussian, Inc.),
 the Gaussian(R) 03 system (copyright 2003, Gaussian, Inc.),
 the Gaussian(R) 98 system (copyright 1998, Gaussian, Inc.),
 the Gaussian(R) 94 system (copyright 1995, Gaussian, Inc.),
 the Gaussian 92(TM) system (copyright 1992, Gaussian, Inc.),
 the Gaussian 90(TM) system (copyright 1990, Gaussian, Inc.),
 the Gaussian 88(TM) system (copyright 1988, Gaussian, Inc.),
 the Gaussian 86(TM) system (copyright 1986, Carnegie Mellon
 University), and the Gaussian 82(TM) system (copyright 1983,
 Carnegie Mellon University). Gaussian is a federally registered
 trademark of Gaussian, Inc.
  
 This software contains proprietary and confidential information,
 including trade secrets, belonging to Gaussian, Inc.
  
 This software is provided under written license and may be
 used, copied, transmitted, or stored only in accord with that
 written license.
  
 The following legend is applicable only to US Government
 contracts under FAR:
  
                    RESTRICTED RIGHTS LEGEND
  
 Use, reproduction and disclosure by the US Government is
 subject to restrictions as set forth in subparagraphs (a)
 and (c) of the Commercial Computer Software - Restricted
 Rights clause in FAR 52.227-19.
  
 Gaussian, Inc.
 340 Quinnipiac St., Bldg. 40, Wallingford CT 06492
  
  
 ---------------------------------------------------------------
 Warning -- This program may not be used in any manner that
 competes with the business of Gaussian, Inc. or will provide
 assistance to any competitor of Gaussian, Inc.  The licensee
 of this program is prohibited from giving any competitor of
 Gaussian, Inc. access to this program.  By using this program,
 the user acknowledges that Gaussian, Inc. is engaged in the
 business of creating and licensing software in the field of
 computational chemistry and represents and warrants to the
 licensee that it is not a competitor of Gaussian, Inc. and that
 it will not use this program in any manner prohibited above.
 ---------------------------------------------------------------
  

 Cite this work as:
 Gaussian 16, Revision A.03,
 M. J. Frisch, G. W. Trucks, H. B. Schlegel, G. E. Scuseria, 
 M. A. Robb, J. R. Cheeseman, G. Scalmani, V. Barone, 
 G. A. Petersson, H. Nakatsuji, X. Li, M. Caricato, A. V. Marenich, 
 J. Bloino, B. G. Janesko, R. Gomperts, B. Mennucci, H. P. Hratchian, 
 J. V. Ortiz, A. F. Izmaylov, J. L. Sonnenberg, D. Williams-Young, 
 F. Ding, F. Lipparini, F. Egidi, J. Goings, B. Peng, A. Petrone, 
 T. Henderson, D. Ranasinghe, V. G. Zakrzewski, J. Gao, N. Rega, 
 G. Zheng, W. Liang, M. Hada, M. Ehara, K. Toyota, R. Fukuda, 
 J. Hasegawa, M. Ishida, T. Nakajima, Y. Honda, O. Kitao, H. Nakai, 
 T. Vreven, K. Throssell, J. A. Montgomery, Jr., J. E. Peralta, 
 F. Ogliaro, M. J. Bearpark, J. J. Heyd, E. N. Brothers, K. N. Kudin, 
 V. N. Staroverov, T. A. Keith, R. Kobayashi, J. Normand, 
 K. Raghavachari, A. P. Rendell, J. C. Burant, S. S. Iyengar, 
 J. Tomasi, M. Cossi, J. M. Millam, M. Klene, C. Adamo, R. Cammi, 
 J. W. Ochterski, R. L. Martin, K. Morokuma, O. Farkas, 
 J. B. Foresman, and D. J. Fox, Gaussian, Inc., Wallingford CT, 2016.
 
 ******************************************
 Gaussian 16:  ES64L-G16RevA.03 25-Dec-2016
                29-Jun-2019 
 ******************************************
 %nproc=4
 Will use up to    4 processors via shared memory.
 %Mem=2GB
 --------------------------
 # td=(NStates=1) B3LYP/SVP
 --------------------------
 1/38=1,172=1/1;
 2/12=2,17=6,18=5,40=1/2;
 3/5=18,7=101,11=9,25=1,30=1,74=-5/1,2,3,8;
 4//1;
 5/5=2,38=5/2;
 8/6=1,10=1,108=1/1;
 9/41=1,42=1,70=2/14;
 6/7=2,8=2,9=2,10=2/1;
 99/5=1,9=1/99;
 --
 TD
 --
 Symbolic Z-matrix:
 Charge =  0 Multiplicity = 1
 8                    -4.21682  -4.95055   1.76184 
 8                     2.7259   -4.85328   1.1013 
 8                     6.90503  -1.62817   1.76962 
 8                     3.74066  -3.17239   0.00427 
 8                     7.63422  -0.45715  -0.00744 
 8                    -3.10602   2.30801  -0.39824 
 7                    -0.25004  -0.43632  -0.79355 
 7                     1.60739   1.87511  -0.5278 
 7                    -3.22946  -3.09505   0.71163 
 7                    -0.76063   2.91164  -0.09527 
 6                     0.66564  -2.35285  -1.37086 
 6                     1.00996  -1.06835  -0.99584 
 6                    -0.70003  -2.54294  -1.10195 
 6                    -1.26646  -1.36936  -0.76169 
 6                     3.7801    1.53104  -0.2542 
 6                     2.61039   0.95268  -0.58611 
 6                     2.26069  -0.41062  -1.00972 
 6                     3.54291   2.84329   0.08005 
 6                     1.59301  -3.42577  -2.01332 
 6                    -5.50026  -2.77388   1.34348 
 6                    -3.44149  -1.88041   0.22069 
 6                     2.10055   3.06645  -0.04678 
 6                    -4.90781  -1.6474    0.45715 
 6                     5.10965   0.83579  -0.24828 
 6                    -2.53435  -0.9783   -0.33584 
 6                    -1.50339  -3.75834  -1.51006 
 6                    -4.29496  -3.81341   1.28808 
 6                     2.08737  -4.44144  -1.0797 
 6                     5.33831  -0.23015   0.88514 
 6                     4.54597   3.95457   0.50686 
 6                     1.26186   4.07939   0.26663 
 6                    -6.7961   -3.40016   0.85385 
 6                    -5.75708  -0.61781   0.091 
 6                    -0.21165   4.02025   0.19295 
 6                    -1.09631   5.14119   0.52143 
 6                    -2.32442   4.54855   0.32724 
 6                     2.88808  -4.05687   0.03246 
 6                    -5.51002   0.50635  -0.70884 
 6                     6.77855  -0.63157   0.86349 
 6                    -3.72234   5.33849   0.39088 
 6                    -2.20574   3.06127  -0.10099 
 6                    -0.69712   6.48485   0.8033 
 6                    -4.32776   5.53383  -0.99401 
 1                    -0.33977   0.60223  -0.49018 
 1                     3.20281  -1.07394  -1.20827 
 1                     2.59871  -2.90657  -2.39037 
 1                     1.26096  -3.90172  -2.88525 
 1                    -5.57631  -2.34825   2.47095 
 1                     5.34628   0.37201  -1.31626 
 1                     6.07743   1.50077  -0.23243 
 1                    -2.72061   0.15572  -0.53941 
 1                     0.59474   1.94991  -0.65624 
 1                    -1.58438  -4.54972  -0.7128 
 1                    -2.73449  -3.63393  -1.64966 
 1                    -0.97924  -4.46583  -2.33899 
 1                    -2.21122  -3.39373   0.74459 
 1                     1.02115  -4.96861  -0.81276 
 1                     2.79622  -5.21733  -1.58802 
 1                     4.86334  -1.11195   0.6765 
 1                     4.89517   0.28629   1.77501 
 1                     4.34841   4.93008   0.06457 
 1                     5.5394    3.62698   0.43926 
 1                     4.22446   4.23136   1.60438 
 1                     1.79178   5.04899   0.35626 
 1                    -7.59222  -2.97748   0.94857 
 1                    -6.8892   -4.47369   1.12248 
 1                    -6.57369  -3.48405  -0.27212 
 1                    -6.61457  -0.42774   0.66067 
 1                    -4.90973   1.28503  -0.13181 
 1                    -6.28753   1.42561  -0.93148 
 1                    -4.91669   0.48092  -1.63236 
 1                    -3.6382    6.28543   1.00873 
 1                    -4.18964   4.68572   1.14565 
 1                     0.23531   6.45092   1.50182 
 1                    -1.50194   7.13534   1.04168 
 1                    -0.15428   6.78263  -0.1384 
 1                    -3.54211   5.86545  -1.54346 
 1                    -5.17419   6.30459  -0.83835 
 1                    -4.71141   4.50278  -1.42589 
 1                     3.31532  -4.29142   1.77167 
 1                     7.73055  -2.19744   1.65543 
 
 Stoichiometry    C33H38N4O6
 Framework group  C1[X(C33H38N4O6)]
 Deg. of freedom   237
 Full point group                 C1      NOp   1
 Largest Abelian subgroup         C1      NOp   1
 Largest concise Abelian subgroup C1      NOp   1
                         Standard orientation:                         
 ---------------------------------------------------------------------
 Center     Atomic      Atomic             Coordinates (Angstroms)
 Number     Number       Type             X           Y           Z
 ---------------------------------------------------------------------
      1          8           0        4.262930   -4.919227   -1.745278
      2          8           0       -2.681979   -4.876849   -1.102184
      3          8           0       -6.885103   -1.686020   -1.784418
      4          8           0       -3.712909   -3.202973   -0.009502
      5          8           0       -7.628099   -0.518987   -0.010455
      6          8           0        3.088649    2.332492    0.404174
      7          7           0        0.253752   -0.434194    0.795314
      8          7           0       -1.621450    1.862001    0.522436
      9          7           0        3.258123   -3.070580   -0.699541
     10          7           0        0.739277    2.917004    0.094699
     11          6           0       -0.648002   -2.357386    1.372411
     12          6           0       -1.001657   -1.076084    0.995143
     13          6           0        0.719818   -2.536820    1.107120
     14          6           0        1.277680   -1.359098    0.767000
     15          6           0       -3.790641    1.500253    0.243780
     16          6           0       -2.617181    0.931631    0.579238
     17          6           0       -2.257640   -0.428370    1.005191
     18          6           0       -3.563135    2.814013   -0.091291
     19          6           0       -1.568362   -3.437016    2.013712
     20          6           0        5.527850   -2.731911   -1.326070
     21          6           0        3.459186   -1.853764   -0.209387
     22          6           0       -2.122929    3.048842    0.038892
     23          6           0        4.924187   -1.609272   -0.442438
     24          6           0       -5.114564    0.794376    0.235296
     25          6           0        2.543463   -0.958350    0.343899
     26          6           0        1.531852   -3.745307    1.518548
     27          6           0        4.330774   -3.780992   -1.272558
     28          6           0       -2.052235   -4.457601    1.079958
     29          6           0       -5.331851   -0.274563   -0.897543
     30          6           0       -4.573981    3.916766   -0.521812
     31          6           0       -1.291592    4.068138   -0.273514
     32          6           0        6.827436   -3.347276   -0.832532
     33          6           0        5.764260   -0.572520   -0.075279
     34          6           0        0.182159    4.020874   -0.196094
     35          6           0        1.058644    5.148514   -0.523575
     36          6           0        2.290965    4.565928   -0.325677
     37          6           0       -2.853204   -4.080631   -0.034611
     38          6           0        5.506216    0.550467    0.722724
     39          6           0       -6.768876   -0.687477   -0.879051
     40          6           0        3.682670    5.366977   -0.386685
     41          6           0        2.183120    3.078206    0.103858
     42          6           0        0.649414    6.488638   -0.807892
     43          6           0        4.283038    5.568622    0.999502
     44          1           0        0.335919    0.604713    0.491049
     45          1           0       -3.194911   -1.098999    1.202106
     46          1           0       -2.579127   -2.925484    2.387686
     47          1           0       -1.234695   -3.909367    2.886981
     48          1           0        5.603315   -2.306883   -2.453802
     49          1           0       -5.350150    0.329847    1.303181
     50          1           0       -6.087593    1.451569    0.216304
     51          1           0        2.720129    0.177341    0.546711
     52          1           0       -0.609754    1.945051    0.653322
     53          1           0        1.621175   -4.536863    0.722348
     54          1           0        2.761567   -3.610904    1.661088
     55          1           0        1.011310   -4.456100    2.346929
     56          1           0        2.242391   -3.377437   -0.734719
     57          1           0       -0.981167   -4.976496    0.816251
     58          1           0       -2.756119   -5.238595    1.587352
     59          1           0       -4.850360   -1.152311   -0.686761
     60          1           0       -4.890632    0.244470   -1.786856
     61          1           0       -4.385340    4.894301   -0.080077
     62          1           0       -5.564920    3.581306   -0.456335
     63          1           0       -4.251947    4.194957   -1.618818
     64          1           0       -1.829025    5.033369   -0.365513
     65          1           0        7.620378   -2.918334   -0.925713
     66          1           0        6.929797   -4.420310   -1.099762
     67          1           0        6.602883   -3.431741    0.292969
     68          1           0        6.621627   -0.376201   -0.643019
     69          1           0        4.901155    1.323710    0.143354
     70          1           0        6.275775    1.476165    0.946306
     71          1           0        4.910793    0.521269    1.644785
     72          1           0        3.592497    6.312555   -1.005761
     73          1           0        4.157070    4.717165   -1.139577
     74          1           0       -0.280966    6.446493   -1.508702
     75          1           0        1.449592    7.145291   -1.044970
     76          1           0        0.101846    6.783057    0.132129
     77          1           0        3.493384    5.894529    1.546630
     78          1           0        5.123656    6.345974    0.845128
     79          1           0        4.673848    4.541138    1.433457
     80          1           0       -3.274199   -4.320437   -1.774625
     81          1           0       -7.706328   -2.261759   -1.671678
 ---------------------------------------------------------------------
 Rotational constants (GHZ):           0.0764271           0.0558184           0.0343713
 Standard basis: SVP (5D, 7F)
 There are   835 symmetry adapted cartesian basis functions of A   symmetry.
 There are   792 symmetry adapted basis functions of A   symmetry.
   792 basis functions,  1341 primitive gaussians,   835 cartesian basis functions
   156 alpha electrons      156 beta electrons
       nuclear repulsion energy      5067.6972816111 Hartrees.
 NAtoms=   81 NActive=   81 NUniq=   81 SFac= 1.00D+00 NAtFMM=   60 NAOKFM=T Big=T
 Integral buffers will be    131072 words long.
 Regular integral format.
 Two-electron integral symmetry is turned on.
 One-electron integrals computed using PRISM.
 NBasis=   792 RedAO= T EigKep=  2.85D-04  NBF=   792
 NBsUse=   792 1.00D-06 EigRej= -1.00D+00 NBFU=   792
 ExpMin= 1.22D-01 ExpMax= 2.27D+03 ExpMxC= 3.41D+02 IAcc=3 IRadAn=         5 AccDes= 0.00D+00
 Harris functional with IExCor=  402 and IRadAn=       5 diagonalized for initial guess.
 HarFok:  IExCor=  402 AccDes= 0.00D+00 IRadAn=         5 IDoV= 1 UseB2=F ITyADJ=14
 ICtDFT=  3500011 ScaDFX=  1.000000  1.000000  1.000000  1.000000
 FoFCou: FMM=F IPFlag=           0 FMFlag=      100000 FMFlg1=        2001
         NFxFlg=           0 DoJE=T BraDBF=F KetDBF=T FulRan=T
         wScrn=  0.000000 ICntrl=       500 IOpCl=  0 I1Cent=   200000004 NGrid=           0
         NMat0=    1 NMatS0=      1 NMatT0=    0 NMatD0=    1 NMtDS0=    0 NMtDT0=    0
 Petite list used in FoFCou.
 Requested convergence on RMS density matrix=1.00D-08 within 128 cycles.
 Requested convergence on MAX density matrix=1.00D-06.
 Requested convergence on             energy=1.00D-06.
 No special actions if energy rises.
 Integral accuracy reduced to 1.0D-05 until final iterations.
 Initial convergence to 1.0D-05 achieved.  Increase integral accuracy.
 SCF Done:  E(RB3LYP) =  -1949.06517393     A.U. after   17 cycles
            NFock= 17  Conv=0.47D-08     -V/T= 2.0106
 DoSCS=F DFT=T ScalE2(SS,OS)=  1.000000  1.000000
 ExpMin= 1.22D-01 ExpMax= 2.27D+03 ExpMxC= 3.41D+02 IAcc=3 IRadAn=         5 AccDes= 0.00D+00
 HarFok:  IExCor=  205 AccDes= 0.00D+00 IRadAn=         5 IDoV=-2 UseB2=F ITyADJ=14
 ICtDFT= 12500011 ScaDFX=  1.000000  1.000000  1.000000  1.000000
 GSVD:  LWork=       -2193 too small for GESVD, short by        9890 words or        9890 for optimal perf.
 Range of M.O.s used for correlation:    44   792
 NBasis=   792 NAE=   156 NBE=   156 NFC=    43 NFV=     0
 NROrb=    749 NOA=   113 NOB=   113 NVA=   636 NVB=   636

 **** Warning!!: The smallest alpha delta epsilon is  0.63316005D-01

 Orbital symmetries:
       Occupied  (A) (A) (A) (A) (A) (A) (A) (A) (A) (A) (A) (A)
                 (A) (A) (A) (A) (A) (A) (A) (A) (A) (A) (A) (A)
                 (A) (A) (A) (A) (A) (A) (A) (A) (A) (A) (A) (A)
                 (A) (A) (A) (A) (A) (A) (A) (A) (A) (A) (A) (A)
                 (A) (A) (A) (A) (A) (A) (A) (A) (A) (A) (A) (A)
                 (A) (A) (A) (A) (A) (A) (A) (A) (A) (A) (A) (A)
                 (A) (A) (A) (A) (A) (A) (A) (A) (A) (A) (A) (A)
                 (A) (A) (A) (A) (A) (A) (A) (A) (A) (A) (A) (A)
                 (A) (A) (A) (A) (A) (A) (A) (A) (A) (A) (A) (A)
                 (A) (A) (A) (A) (A) (A) (A) (A) (A) (A) (A) (A)
                 (A) (A) (A) (A) (A) (A) (A) (A) (A) (A) (A) (A)
                 (A) (A) (A) (A) (A) (A) (A) (A) (A) (A) (A) (A)
                 (A) (A) (A) (A) (A) (A) (A) (A) (A) (A) (A) (A)
       Virtual   (A) (A) (A) (A) (A) (A) (A) (A) (A) (A) (A) (A)
                 (A) (A) (A) (A) (A) (A) (A) (A) (A) (A) (A) (A)
                 (A) (A) (A) (A) (A) (A) (A) (A) (A) (A) (A) (A)
                 (A) (A) (A) (A) (A) (A) (A) (A) (A) (A) (A) (A)
                 (A) (A) (A) (A) (A) (A) (A) (A) (A) (A) (A) (A)
                 (A) (A) (A) (A) (A) (A) (A) (A) (A) (A) (A) (A)
                 (A) (A) (A) (A) (A) (A) (A) (A) (A) (A) (A) (A)
                 (A) (A) (A) (A) (A) (A) (A) (A) (A) (A) (A) (A)
                 (A) (A) (A) (A) (A) (A) (A) (A) (A) (A) (A) (A)
                 (A) (A) (A) (A) (A) (A) (A) (A) (A) (A) (A) (A)
                 (A) (A) (A) (A) (A) (A) (A) (A) (A) (A) (A) (A)
                 (A) (A) (A) (A) (A) (A) (A) (A) (A) (A) (A) (A)
                 (A) (A) (A) (A) (A) (A) (A) (A) (A) (A) (A) (A)
                 (A) (A) (A) (A) (A) (A) (A) (A) (A) (A) (A) (A)
                 (A) (A) (A) (A) (A) (A) (A) (A) (A) (A) (A) (A)
                 (A) (A) (A) (A) (A) (A) (A) (A) (A) (A) (A) (A)
                 (A) (A) (A) (A) (A) (A) (A) (A) (A) (A) (A) (A)
                 (A) (A) (A) (A) (A) (A) (A) (A) (A) (A) (A) (A)
                 (A) (A) (A) (A) (A) (A) (A) (A) (A) (A) (A) (A)
                 (A) (A) (A) (A) (A) (A) (A) (A) (A) (A) (A) (A)
                 (A) (A) (A) (A) (A) (A) (A) (A) (A) (A) (A) (A)
                 (A) (A) (A) (A) (A) (A) (A) (A) (A) (A) (A) (A)
                 (A) (A) (A) (A) (A) (A) (A) (A) (A) (A) (A) (A)
                 (A) (A) (A) (A) (A) (A) (A) (A) (A) (A) (A) (A)
                 (A) (A) (A) (A) (A) (A) (A) (A) (A) (A) (A) (A)
                 (A) (A) (A) (A) (A) (A) (A) (A) (A) (A) (A) (A)
                 (A) (A) (A) (A) (A) (A) (A) (A) (A) (A) (A) (A)
                 (A) (A) (A) (A) (A) (A) (A) (A) (A) (A) (A) (A)
                 (A) (A) (A) (A) (A) (A) (A) (A) (A) (A) (A) (A)
                 (A) (A) (A) (A) (A) (A) (A) (A) (A) (A) (A) (A)
                 (A) (A) (A) (A) (A) (A) (A) (A) (A) (A) (A) (A)
                 (A) (A) (A) (A) (A) (A) (A) (A) (A) (A) (A) (A)
                 (A) (A) (A) (A) (A) (A) (A) (A) (A) (A) (A) (A)
                 (A) (A) (A) (A) (A) (A) (A) (A) (A) (A) (A) (A)
                 (A) (A) (A) (A) (A) (A) (A) (A) (A) (A) (A) (A)
                 (A) (A) (A) (A) (A) (A) (A) (A) (A) (A) (A) (A)
                 (A) (A) (A) (A) (A) (A) (A) (A) (A) (A) (A) (A)
                 (A) (A) (A) (A) (A) (A) (A) (A) (A) (A) (A) (A)
                 (A) (A) (A) (A) (A) (A) (A) (A) (A) (A) (A) (A)
                 (A) (A) (A) (A) (A) (A) (A) (A) (A) (A) (A) (A)
                 (A) (A) (A) (A) (A) (A) (A) (A) (A) (A) (A) (A)
                 (A) (A) (A) (A) (A) (A) (A) (A) (A) (A) (A) (A)
                 (A) (A) (A) (A) (A) (A) (A) (A) (A) (A) (A) (A)
                 (A) (A) (A) (A) (A) (A) (A) (A) (A) (A) (A) (A)
                 (A) (A) (A) (A) (A) (A) (A) (A) (A) (A) (A) (A)
                 (A) (A) (A) (A) (A) (A) (A) (A) (A) (A) (A) (A)
                 (A) (A) (A) (A) (A) (A) (A) (A) (A) (A) (A) (A)
                 (A) (A) (A) (A) (A) (A) (A) (A) (A) (A) (A) (A)
                 (A) (A) (A) (A) (A) (A) (A) (A) (A) (A) (A) (A)
                 (A) (A) (A) (A) (A) (A) (A) (A) (A) (A) (A) (A)
                 (A) (A) (A) (A) (A) (A) (A) (A) (A) (A) (A) (A)
                 (A) (A) (A) (A) (A) (A) (A) (A) (A) (A) (A) (A)
                 (A) (A) (A) (A) (A) (A) (A) (A) (A) (A) (A) (A)
     4 initial guesses have been made.
 Convergence on wavefunction:    0.001000000000000
 Iteration     1 Dimension     4 NMult     0 NNew      4
 CISAX will form     4 AO SS matrices at one time.
 Iteration     2 Dimension     6 NMult     4 NNew      2
 Iteration     3 Dimension     8 NMult     6 NNew      2
 Iteration     4 Dimension    10 NMult     8 NNew      2
 Iteration     5 Dimension    12 NMult    10 NNew      2
 Iteration     6 Dimension    14 NMult    12 NNew      2
 ***********************************************************************
 Excited states from <AA,BB:AA,BB> singles matrix:
 ***********************************************************************
 
 Ground to excited state transition densities written to RWF  633
 Ground to excited state transition electric dipole moments (Au):
       state          X           Y           Z        Dip. S.      Osc.
         1        -0.8533      2.5618     -0.1741      7.3214      0.2844
 Ground to excited state transition velocity dipole moments (Au):
       state          X           Y           Z        Dip. S.      Osc.
         1         0.0522     -0.1426      0.0103      0.0232      0.2651
 Ground to excited state transition magnetic dipole moments (Au):
       state          X           Y           Z
         1         0.3136      0.5331      2.4394
 Ground to excited state transition velocity quadrupole moments (Au):
       state          XX          YY          ZZ          XY          XZ          YZ
         1         0.4275     -0.5156      0.0577     -0.3658     -0.0571      0.0223
 <0|del|b> * <b|rxdel|0> + <0|del|b> * <b|delr+rdel|0>
 Rotatory Strengths (R) in cgs (10**-40 erg-esu-cm/Gauss)
       state          XX          YY          ZZ    R(velocity)    E-M Angle
         1      -380.6033    282.3712   -319.6704   -139.3008       95.16
 1/2[<0|r|b>*<b|rxdel|0> + (<0|rxdel|b>*<b|r|0>)*]
 Rotatory Strengths (R) in cgs (10**-40 erg-esu-cm/Gauss)
       state          XX          YY          ZZ     R(length)
         1       189.2556   -965.7510    300.3725   -158.7076
  1/2[<0|del|b>*<b|r|0> + (<0|r|b>*<b|del|0>)*] (Au)
       state          X           Y           Z        Dip. S.   Osc.(frdel)
         1        -0.0445     -0.3654     -0.0018      0.4117      0.2745

 Excitation energies and oscillator strengths:
 
 Excited State   1:      Singlet-A      1.5857 eV  781.87 nm  f=0.2844  <S**2>=0.000
     156 ->157         0.70916
     156 <-157        -0.13863
 This state for optimization and/or second-order correction.
 Total Energy, E(TD-HF/TD-DFT) =  -1949.00689904    
 Copying the excited state density for this state as the 1-particle RhoCI density.
 SavETr:  write IOETrn=   770 NScale= 10 NData=  16 NLR=1 NState=    1 LETran=      28.

 **********************************************************************

            Population analysis using the SCF density.

 **********************************************************************

 Orbital symmetries:
       Occupied  (A) (A) (A) (A) (A) (A) (A) (A) (A) (A) (A) (A)
                 (A) (A) (A) (A) (A) (A) (A) (A) (A) (A) (A) (A)
                 (A) (A) (A) (A) (A) (A) (A) (A) (A) (A) (A) (A)
                 (A) (A) (A) (A) (A) (A) (A) (A) (A) (A) (A) (A)
                 (A) (A) (A) (A) (A) (A) (A) (A) (A) (A) (A) (A)
                 (A) (A) (A) (A) (A) (A) (A) (A) (A) (A) (A) (A)
                 (A) (A) (A) (A) (A) (A) (A) (A) (A) (A) (A) (A)
                 (A) (A) (A) (A) (A) (A) (A) (A) (A) (A) (A) (A)
                 (A) (A) (A) (A) (A) (A) (A) (A) (A) (A) (A) (A)
                 (A) (A) (A) (A) (A) (A) (A) (A) (A) (A) (A) (A)
                 (A) (A) (A) (A) (A) (A) (A) (A) (A) (A) (A) (A)
                 (A) (A) (A) (A) (A) (A) (A) (A) (A) (A) (A) (A)
                 (A) (A) (A) (A) (A) (A) (A) (A) (A) (A) (A) (A)
       Virtual   (A) (A) (A) (A) (A) (A) (A) (A) (A) (A) (A) (A)
                 (A) (A) (A) (A) (A) (A) (A) (A) (A) (A) (A) (A)
                 (A) (A) (A) (A) (A) (A) (A) (A) (A) (A) (A) (A)
                 (A) (A) (A) (A) (A) (A) (A) (A) (A) (A) (A) (A)
                 (A) (A) (A) (A) (A) (A) (A) (A) (A) (A) (A) (A)
                 (A) (A) (A) (A) (A) (A) (A) (A) (A) (A) (A) (A)
                 (A) (A) (A) (A) (A) (A) (A) (A) (A) (A) (A) (A)
                 (A) (A) (A) (A) (A) (A) (A) (A) (A) (A) (A) (A)
                 (A) (A) (A) (A) (A) (A) (A) (A) (A) (A) (A) (A)
                 (A) (A) (A) (A) (A) (A) (A) (A) (A) (A) (A) (A)
                 (A) (A) (A) (A) (A) (A) (A) (A) (A) (A) (A) (A)
                 (A) (A) (A) (A) (A) (A) (A) (A) (A) (A) (A) (A)
                 (A) (A) (A) (A) (A) (A) (A) (A) (A) (A) (A) (A)
                 (A) (A) (A) (A) (A) (A) (A) (A) (A) (A) (A) (A)
                 (A) (A) (A) (A) (A) (A) (A) (A) (A) (A) (A) (A)
                 (A) (A) (A) (A) (A) (A) (A) (A) (A) (A) (A) (A)
                 (A) (A) (A) (A) (A) (A) (A) (A) (A) (A) (A) (A)
                 (A) (A) (A) (A) (A) (A) (A) (A) (A) (A) (A) (A)
                 (A) (A) (A) (A) (A) (A) (A) (A) (A) (A) (A) (A)
                 (A) (A) (A) (A) (A) (A) (A) (A) (A) (A) (A) (A)
                 (A) (A) (A) (A) (A) (A) (A) (A) (A) (A) (A) (A)
                 (A) (A) (A) (A) (A) (A) (A) (A) (A) (A) (A) (A)
                 (A) (A) (A) (A) (A) (A) (A) (A) (A) (A) (A) (A)
                 (A) (A) (A) (A) (A) (A) (A) (A) (A) (A) (A) (A)
                 (A) (A) (A) (A) (A) (A) (A) (A) (A) (A) (A) (A)
                 (A) (A) (A) (A) (A) (A) (A) (A) (A) (A) (A) (A)
                 (A) (A) (A) (A) (A) (A) (A) (A) (A) (A) (A) (A)
                 (A) (A) (A) (A) (A) (A) (A) (A) (A) (A) (A) (A)
                 (A) (A) (A) (A) (A) (A) (A) (A) (A) (A) (A) (A)
                 (A) (A) (A) (A) (A) (A) (A) (A) (A) (A) (A) (A)
                 (A) (A) (A) (A) (A) (A) (A) (A) (A) (A) (A) (A)
                 (A) (A) (A) (A) (A) (A) (A) (A) (A) (A) (A) (A)
                 (A) (A) (A) (A) (A) (A) (A) (A) (A) (A) (A) (A)
                 (A) (A) (A) (A) (A) (A) (A) (A) (A) (A) (A) (A)
                 (A) (A) (A) (A) (A) (A) (A) (A) (A) (A) (A) (A)
                 (A) (A) (A) (A) (A) (A) (A) (A) (A) (A) (A) (A)
                 (A) (A) (A) (A) (A) (A) (A) (A) (A) (A) (A) (A)
                 (A) (A) (A) (A) (A) (A) (A) (A) (A) (A) (A) (A)
                 (A) (A) (A) (A) (A) (A) (A) (A) (A) (A) (A) (A)
                 (A) (A) (A) (A) (A) (A) (A) (A) (A) (A) (A) (A)
                 (A) (A) (A) (A) (A) (A) (A) (A) (A) (A) (A) (A)
                 (A) (A) (A) (A) (A) (A) (A) (A) (A) (A) (A) (A)
                 (A) (A) (A) (A) (A) (A) (A) (A) (A) (A) (A) (A)
                 (A) (A) (A) (A) (A) (A) (A) (A) (A) (A) (A) (A)
                 (A) (A) (A) (A) (A) (A) (A) (A) (A) (A) (A) (A)
                 (A) (A) (A) (A) (A) (A) (A) (A) (A) (A) (A) (A)
                 (A) (A) (A) (A) (A) (A) (A) (A) (A) (A) (A) (A)
                 (A) (A) (A) (A) (A) (A) (A) (A) (A) (A) (A) (A)
                 (A) (A) (A) (A) (A) (A) (A) (A) (A) (A) (A) (A)
                 (A) (A) (A) (A) (A) (A) (A) (A) (A) (A) (A) (A)
                 (A) (A) (A) (A) (A) (A) (A) (A) (A) (A) (A) (A)
                 (A) (A) (A) (A) (A) (A) (A) (A) (A) (A) (A) (A)
                 (A) (A) (A) (A) (A) (A) (A) (A) (A) (A) (A) (A)
 The electronic state is 1-A.
 Alpha  occ. eigenvalues --  -19.20068 -19.17709 -19.14030 -19.13291 -19.12684
 Alpha  occ. eigenvalues --  -19.12521 -14.38415 -14.36873 -14.34724 -14.29790
 Alpha  occ. eigenvalues --  -10.33083 -10.32120 -10.30778 -10.29025 -10.25212
 Alpha  occ. eigenvalues --  -10.23270 -10.23262 -10.22973 -10.22663 -10.22621
 Alpha  occ. eigenvalues --  -10.22410 -10.22365 -10.22174 -10.22090 -10.21301
 Alpha  occ. eigenvalues --  -10.20809 -10.20364 -10.20315 -10.20268 -10.20115
 Alpha  occ. eigenvalues --  -10.20035 -10.19986 -10.19913 -10.19622 -10.19499
 Alpha  occ. eigenvalues --  -10.19332 -10.19314 -10.19164 -10.19105 -10.18734
 Alpha  occ. eigenvalues --  -10.18598 -10.18165 -10.17610  -1.10904  -1.08364
 Alpha  occ. eigenvalues --   -1.03900  -1.03433  -1.00989  -0.99097  -0.98516
 Alpha  occ. eigenvalues --   -0.97528  -0.96772  -0.93858  -0.82984  -0.82093
 Alpha  occ. eigenvalues --   -0.81520  -0.80896  -0.80045  -0.78729  -0.78439
 Alpha  occ. eigenvalues --   -0.77437  -0.76831  -0.75833  -0.74494  -0.72090
 Alpha  occ. eigenvalues --   -0.70967  -0.69815  -0.69362  -0.68594  -0.68216
 Alpha  occ. eigenvalues --   -0.67427  -0.65932  -0.64059  -0.62903  -0.61509
 Alpha  occ. eigenvalues --   -0.60190  -0.59915  -0.58739  -0.58123  -0.56466
 Alpha  occ. eigenvalues --   -0.56047  -0.55306  -0.54954  -0.54106  -0.52929
 Alpha  occ. eigenvalues --   -0.52756  -0.52070  -0.51138  -0.50425  -0.50047
 Alpha  occ. eigenvalues --   -0.49980  -0.49190  -0.48897  -0.48180  -0.47492
 Alpha  occ. eigenvalues --   -0.47178  -0.47049  -0.46256  -0.45922  -0.45140
 Alpha  occ. eigenvalues --   -0.44888  -0.44655  -0.44634  -0.44330  -0.43824
 Alpha  occ. eigenvalues --   -0.43521  -0.43384  -0.42737  -0.42710  -0.42605
 Alpha  occ. eigenvalues --   -0.41815  -0.41661  -0.41357  -0.40987  -0.40877
 Alpha  occ. eigenvalues --   -0.40712  -0.40632  -0.40422  -0.40095  -0.39973
 Alpha  occ. eigenvalues --   -0.39421  -0.39100  -0.38920  -0.38342  -0.38107
 Alpha  occ. eigenvalues --   -0.38045  -0.37976  -0.37593  -0.37316  -0.36856
 Alpha  occ. eigenvalues --   -0.36772  -0.36608  -0.36091  -0.35175  -0.34552
 Alpha  occ. eigenvalues --   -0.33884  -0.33552  -0.33294  -0.33084  -0.32789
 Alpha  occ. eigenvalues --   -0.32627  -0.31588  -0.31456  -0.30295  -0.30182
 Alpha  occ. eigenvalues --   -0.29649  -0.28184  -0.27005  -0.26904  -0.25431
 Alpha  occ. eigenvalues --   -0.25077  -0.24587  -0.24273  -0.23385  -0.21328
 Alpha  occ. eigenvalues --   -0.17060
 Alpha virt. eigenvalues --   -0.10728  -0.06532  -0.04572  -0.02034  -0.01913
 Alpha virt. eigenvalues --   -0.00920   0.02455   0.03026   0.03124   0.04113
 Alpha virt. eigenvalues --    0.04551   0.04670   0.05024   0.05462   0.05838
 Alpha virt. eigenvalues --    0.06416   0.06860   0.07202   0.07706   0.07847
 Alpha virt. eigenvalues --    0.08231   0.08454   0.08719   0.09226   0.09372
 Alpha virt. eigenvalues --    0.09813   0.09951   0.10205   0.10370   0.10541
 Alpha virt. eigenvalues --    0.10819   0.11059   0.11749   0.12037   0.12376
 Alpha virt. eigenvalues --    0.12642   0.12970   0.13433   0.13949   0.14062
 Alpha virt. eigenvalues --    0.14506   0.14986   0.15448   0.15855   0.16091
 Alpha virt. eigenvalues --    0.16335   0.17136   0.17254   0.17899   0.18016
 Alpha virt. eigenvalues --    0.18524   0.18805   0.19321   0.19873   0.20171
 Alpha virt. eigenvalues --    0.20719   0.21080   0.21329   0.21751   0.22347
 Alpha virt. eigenvalues --    0.22837   0.23283   0.23398   0.23967   0.24508
 Alpha virt. eigenvalues --    0.25111   0.25195   0.25355   0.25641   0.26007
 Alpha virt. eigenvalues --    0.26629   0.27014   0.27198   0.27394   0.28232
 Alpha virt. eigenvalues --    0.29016   0.29338   0.29767   0.30277   0.30812
 Alpha virt. eigenvalues --    0.31293   0.32137   0.32540   0.32968   0.33254
 Alpha virt. eigenvalues --    0.34277   0.34769   0.35008   0.35435   0.35790
 Alpha virt. eigenvalues --    0.36671   0.37016   0.37633   0.38116   0.38600
 Alpha virt. eigenvalues --    0.39059   0.39464   0.39980   0.40304   0.41275
 Alpha virt. eigenvalues --    0.41441   0.41621   0.42113   0.42345   0.42670
 Alpha virt. eigenvalues --    0.43003   0.43310   0.43650   0.44233   0.44513
 Alpha virt. eigenvalues --    0.44731   0.45277   0.45434   0.46077   0.46407
 Alpha virt. eigenvalues --    0.46514   0.46904   0.47369   0.47538   0.47885
 Alpha virt. eigenvalues --    0.48026   0.48284   0.48505   0.48926   0.49277
 Alpha virt. eigenvalues --    0.49445   0.50038   0.50400   0.50653   0.50922
 Alpha virt. eigenvalues --    0.51553   0.51874   0.52250   0.52804   0.54055
 Alpha virt. eigenvalues --    0.54262   0.54578   0.55011   0.55325   0.55713
 Alpha virt. eigenvalues --    0.56326   0.56675   0.57155   0.57253   0.57384
 Alpha virt. eigenvalues --    0.57689   0.57916   0.58012   0.58715   0.58833
 Alpha virt. eigenvalues --    0.59050   0.59495   0.59629   0.59675   0.60491
 Alpha virt. eigenvalues --    0.60764   0.60928   0.61199   0.61373   0.61592
 Alpha virt. eigenvalues --    0.61958   0.62262   0.62456   0.62609   0.62942
 Alpha virt. eigenvalues --    0.63062   0.63254   0.63740   0.63903   0.64290
 Alpha virt. eigenvalues --    0.64549   0.64750   0.65228   0.65511   0.65777
 Alpha virt. eigenvalues --    0.65977   0.66327   0.66706   0.66835   0.67015
 Alpha virt. eigenvalues --    0.67196   0.67308   0.67489   0.67867   0.68155
 Alpha virt. eigenvalues --    0.68310   0.68390   0.68776   0.69114   0.69415
 Alpha virt. eigenvalues --    0.69859   0.70292   0.70396   0.70748   0.71144
 Alpha virt. eigenvalues --    0.71289   0.71903   0.71978   0.72064   0.72567
 Alpha virt. eigenvalues --    0.72815   0.73106   0.73605   0.73892   0.73989
 Alpha virt. eigenvalues --    0.74444   0.74789   0.74995   0.75302   0.75823
 Alpha virt. eigenvalues --    0.75993   0.76179   0.76566   0.76767   0.77165
 Alpha virt. eigenvalues --    0.77807   0.77962   0.78230   0.78518   0.79042
 Alpha virt. eigenvalues --    0.79845   0.80630   0.80936   0.81267   0.82102
 Alpha virt. eigenvalues --    0.83011   0.83630   0.84152   0.84892   0.85249
 Alpha virt. eigenvalues --    0.85984   0.86441   0.87792   0.88266   0.89353
 Alpha virt. eigenvalues --    0.89886   0.90300   0.90816   0.91294   0.91575
 Alpha virt. eigenvalues --    0.92580   0.93575   0.94117   0.94862   0.95068
 Alpha virt. eigenvalues --    0.95442   0.95927   0.96755   0.97237   0.98070
 Alpha virt. eigenvalues --    0.98522   0.98984   0.99254   0.99681   1.00193
 Alpha virt. eigenvalues --    1.00278   1.01631   1.02146   1.02543   1.03515
 Alpha virt. eigenvalues --    1.04960   1.05798   1.05973   1.06525   1.07155
 Alpha virt. eigenvalues --    1.07512   1.07727   1.09095   1.09250   1.09989
 Alpha virt. eigenvalues --    1.10474   1.11625   1.12294   1.12815   1.13333
 Alpha virt. eigenvalues --    1.15153   1.15441   1.16440   1.16989   1.17359
 Alpha virt. eigenvalues --    1.17923   1.18552   1.19339   1.20005   1.20513
 Alpha virt. eigenvalues --    1.20872   1.21024   1.21931   1.23553   1.23662
 Alpha virt. eigenvalues --    1.24109   1.25228   1.25557   1.26005   1.26710
 Alpha virt. eigenvalues --    1.26848   1.27647   1.28159   1.29380   1.29780
 Alpha virt. eigenvalues --    1.30260   1.31654   1.32560   1.32768   1.33846
 Alpha virt. eigenvalues --    1.34301   1.34986   1.35131   1.35876   1.36066
 Alpha virt. eigenvalues --    1.36465   1.37128   1.37346   1.38613   1.38934
 Alpha virt. eigenvalues --    1.39981   1.40506   1.42043   1.42488   1.42908
 Alpha virt. eigenvalues --    1.43509   1.44255   1.44515   1.44549   1.45274
 Alpha virt. eigenvalues --    1.45922   1.46642   1.47627   1.48248   1.48975
 Alpha virt. eigenvalues --    1.49003   1.49905   1.50105   1.50456   1.50777
 Alpha virt. eigenvalues --    1.50884   1.51989   1.52424   1.53215   1.53832
 Alpha virt. eigenvalues --    1.54140   1.55638   1.56204   1.56442   1.56827
 Alpha virt. eigenvalues --    1.57948   1.58233   1.59624   1.59950   1.60516
 Alpha virt. eigenvalues --    1.61106   1.61337   1.62215   1.63229   1.63324
 Alpha virt. eigenvalues --    1.64150   1.64678   1.65107   1.65176   1.66145
 Alpha virt. eigenvalues --    1.66407   1.66549   1.67257   1.68133   1.68247
 Alpha virt. eigenvalues --    1.68501   1.68814   1.69489   1.69620   1.69836
 Alpha virt. eigenvalues --    1.70289   1.70834   1.71291   1.71664   1.71903
 Alpha virt. eigenvalues --    1.72482   1.72804   1.73080   1.73721   1.74035
 Alpha virt. eigenvalues --    1.74887   1.75527   1.75746   1.75939   1.76184
 Alpha virt. eigenvalues --    1.76562   1.76759   1.77187   1.77246   1.77689
 Alpha virt. eigenvalues --    1.78437   1.78623   1.79152   1.79643   1.80115
 Alpha virt. eigenvalues --    1.80379   1.80821   1.81152   1.81267   1.81325
 Alpha virt. eigenvalues --    1.81857   1.82007   1.82794   1.83054   1.83188
 Alpha virt. eigenvalues --    1.83887   1.84251   1.84866   1.85235   1.85402
 Alpha virt. eigenvalues --    1.85920   1.86151   1.86406   1.86706   1.87125
 Alpha virt. eigenvalues --    1.87323   1.87517   1.88299   1.88522   1.89097
 Alpha virt. eigenvalues --    1.89242   1.89765   1.90275   1.90977   1.91340
 Alpha virt. eigenvalues --    1.91892   1.92291   1.92843   1.93196   1.94059
 Alpha virt. eigenvalues --    1.94123   1.94710   1.94838   1.95448   1.96108
 Alpha virt. eigenvalues --    1.96502   1.96713   1.97206   1.97511   1.97890
 Alpha virt. eigenvalues --    1.98622   1.99213   1.99725   2.00089   2.01012
 Alpha virt. eigenvalues --    2.01270   2.02045   2.02335   2.02481   2.02898
 Alpha virt. eigenvalues --    2.03122   2.04079   2.04305   2.04760   2.05330
 Alpha virt. eigenvalues --    2.05765   2.06087   2.06790   2.08437   2.08962
 Alpha virt. eigenvalues --    2.09991   2.10588   2.10875   2.11362   2.11917
 Alpha virt. eigenvalues --    2.13047   2.13297   2.13448   2.14125   2.14489
 Alpha virt. eigenvalues --    2.15048   2.16181   2.16669   2.17209   2.17948
 Alpha virt. eigenvalues --    2.18605   2.19662   2.19917   2.20944   2.21166
 Alpha virt. eigenvalues --    2.21462   2.22408   2.23178   2.23749   2.24152
 Alpha virt. eigenvalues --    2.25195   2.25986   2.27252   2.27350   2.27708
 Alpha virt. eigenvalues --    2.28426   2.29241   2.29669   2.30093   2.31148
 Alpha virt. eigenvalues --    2.31972   2.32496   2.33369   2.33875   2.34931
 Alpha virt. eigenvalues --    2.35506   2.35690   2.35786   2.36917   2.37751
 Alpha virt. eigenvalues --    2.38694   2.39254   2.39983   2.40882   2.41972
 Alpha virt. eigenvalues --    2.42184   2.42421   2.43409   2.43989   2.44856
 Alpha virt. eigenvalues --    2.45656   2.46598   2.47136   2.47553   2.48563
 Alpha virt. eigenvalues --    2.48973   2.49310   2.49467   2.50760   2.51099
 Alpha virt. eigenvalues --    2.51587   2.52908   2.53401   2.54219   2.54567
 Alpha virt. eigenvalues --    2.55899   2.56595   2.56860   2.57677   2.58987
 Alpha virt. eigenvalues --    2.59167   2.59819   2.60261   2.61018   2.62428
 Alpha virt. eigenvalues --    2.63655   2.64026   2.64293   2.64912   2.65790
 Alpha virt. eigenvalues --    2.66017   2.66453   2.67211   2.67790   2.68630
 Alpha virt. eigenvalues --    2.68954   2.69177   2.69563   2.70676   2.70817
 Alpha virt. eigenvalues --    2.70926   2.72017   2.72842   2.73434   2.74000
 Alpha virt. eigenvalues --    2.75443   2.75867   2.76728   2.77466   2.78776
 Alpha virt. eigenvalues --    2.79358   2.79837   2.80495   2.80708   2.81157
 Alpha virt. eigenvalues --    2.82760   2.83082   2.83612   2.84081   2.84566
 Alpha virt. eigenvalues --    2.85806   2.86390   2.86460   2.87329   2.88626
 Alpha virt. eigenvalues --    2.88952   2.89678   2.90324   2.91255   2.92394
 Alpha virt. eigenvalues --    2.92747   2.93230   2.93875   2.94637   2.96247
 Alpha virt. eigenvalues --    2.96764   2.97792   2.98552   3.00027   3.00383
 Alpha virt. eigenvalues --    3.00970   3.02308   3.02845   3.05629   3.06197
 Alpha virt. eigenvalues --    3.06538   3.08187   3.08725   3.10538   3.10904
 Alpha virt. eigenvalues --    3.12228   3.13694   3.15024   3.15793   3.16547
 Alpha virt. eigenvalues --    3.18742   3.19258   3.19655   3.20821   3.21589
 Alpha virt. eigenvalues --    3.23802   3.25448   3.27927   3.30188   3.31660
 Alpha virt. eigenvalues --    3.37681   3.40737   3.43212   3.45672   3.46133
 Alpha virt. eigenvalues --    3.48926   3.52217   3.53879   3.56259   3.59199
 Alpha virt. eigenvalues --    3.63133   3.64108   3.64169   3.70538   3.71682
 Alpha virt. eigenvalues --    3.71943
          Condensed to atoms (all electrons):
 Mulliken charges:
               1
     1  O   -0.214266
     2  O   -0.199649
     3  O   -0.220454
     4  O   -0.249946
     5  O   -0.247078
     6  O   -0.189424
     7  N   -0.165992
     8  N   -0.083408
     9  N   -0.102544
    10  N   -0.313392
    11  C   -0.072076
    12  C    0.081244
    13  C   -0.167217
    14  C    0.109852
    15  C   -0.018641
    16  C    0.059269
    17  C   -0.078291
    18  C   -0.134003
    19  C    0.124561
    20  C   -0.129007
    21  C    0.096666
    22  C    0.040246
    23  C   -0.073260
    24  C   -0.050723
    25  C   -0.109419
    26  C   -0.031385
    27  C    0.166230
    28  C   -0.037430
    29  C    0.047117
    30  C    0.127009
    31  C   -0.113595
    32  C    0.168333
    33  C   -0.031626
    34  C    0.047871
    35  C   -0.081604
    36  C   -0.264112
    37  C    0.137135
    38  C   -0.029328
    39  C    0.161003
    40  C    0.031691
    41  C    0.222059
    42  C    0.135637
    43  C    0.026116
    44  H    0.157265
    45  H    0.043432
    46  H    0.012966
    47  H   -0.003500
    48  H    0.066837
    49  H    0.032502
    50  H    0.032189
    51  H    0.052216
    52  H    0.127576
    53  H    0.013904
    54  H    0.067073
    55  H    0.035000
    56  H    0.157779
    57  H    0.046821
    58  H    0.067580
    59  H    0.026050
    60  H    0.049588
    61  H    0.014972
    62  H    0.007925
    63  H    0.022084
    64  H   -0.032713
    65  H   -0.066799
    66  H    0.029389
    67  H    0.005657
    68  H   -0.015408
    69  H    0.064674
    70  H    0.011887
    71  H    0.030157
    72  H   -0.004903
    73  H    0.008066
    74  H    0.032082
    75  H    0.014475
    76  H    0.026850
    77  H    0.000411
    78  H    0.029844
    79  H    0.049039
    80  H    0.213841
    81  H    0.199022
 Sum of Mulliken charges =  -0.00000
 Mulliken charges with hydrogens summed into heavy atoms:
               1
     1  O   -0.214266
     2  O    0.014192
     3  O   -0.021432
     4  O   -0.249946
     5  O   -0.247078
     6  O   -0.189424
     7  N   -0.008727
     8  N    0.044168
     9  N    0.055235
    10  N   -0.313392
    11  C   -0.072076
    12  C    0.081244
    13  C   -0.167217
    14  C    0.109852
    15  C   -0.018641
    16  C    0.059269
    17  C   -0.034860
    18  C   -0.134003
    19  C    0.134026
    20  C   -0.062170
    21  C    0.096666
    22  C    0.040246
    23  C   -0.073260
    24  C    0.013968
    25  C   -0.057203
    26  C    0.084591
    27  C    0.166230
    28  C    0.076972
    29  C    0.122755
    30  C    0.171990
    31  C   -0.146308
    32  C    0.136580
    33  C   -0.047034
    34  C    0.047871
    35  C   -0.081604
    36  C   -0.264112
    37  C    0.137135
    38  C    0.077390
    39  C    0.161003
    40  C    0.034855
    41  C    0.222059
    42  C    0.209044
    43  C    0.105411
 Electronic spatial extent (au):  <R**2>=          30117.1209
 Charge=             -0.0000 electrons
 Dipole moment (field-independent basis, Debye):
    X=             -0.8601    Y=              1.3259    Z=             -0.7996  Tot=              1.7712
 Quadrupole moment (field-independent basis, Debye-Ang):
   XX=           -259.0865   YY=           -238.7574   ZZ=           -255.6295
   XY=             19.8290   XZ=             10.1297   YZ=            -12.6419
 Traceless Quadrupole moment (field-independent basis, Debye-Ang):
   XX=             -7.9287   YY=             12.4004   ZZ=             -4.4717
   XY=             19.8290   XZ=             10.1297   YZ=            -12.6419
 Octapole moment (field-independent basis, Debye-Ang**2):
  XXX=             88.7802  YYY=            152.5321  ZZZ=            -23.8072  XYY=           -162.3497
  XXY=            -34.2767  XXZ=           -110.2257  XZZ=            -50.7517  YZZ=            -31.4184
  YYZ=             46.2821  XYZ=            -46.5278
 Hexadecapole moment (field-independent basis, Debye-Ang**3):
 XXXX=         -22506.3308 YYYY=         -16265.8526 ZZZZ=          -1562.4983 XXXY=            778.2100
 XXXZ=            609.6749 YYYX=            950.2345 YYYZ=           -448.9107 ZZZX=             52.1243
 ZZZY=             68.5622 XXYY=          -6269.1469 XXZZ=          -3940.7540 YYZZ=          -3061.6268
 XXYZ=             37.0904 YYXZ=            244.0930 ZZXY=            207.5260
 N-N= 5.067697281611D+03 E-N=-1.466630326328D+04  KE= 1.928538100611D+03
 1\1\GINC-PADAWAN\SP\RB3LYP TD-FC\SVP\C33H38N4O6\PADAWAN\29-Jun-2019\0\
 \# td=(NStates=1) B3LYP/SVP\\TD\\0,1\O,0,-4.2168231931,-4.9505494261,1
 .7618402124\O,0,2.7258966184,-4.8532766345,1.1013042677\O,0,6.90502680
 7,-1.6281700867,1.7696196415\O,0,3.7406591234,-3.1723852635,0.00426708
 73\O,0,7.6342229589,-0.4571456097,-0.0074367764\O,0,-3.1060161877,2.30
 80088517,-0.3982413855\N,0,-0.2500419989,-0.4363178249,-0.7935463675\N
 ,0,1.6073892316,1.8751079433,-0.527804358\N,0,-3.2294649355,-3.0950506
 181,0.7116274813\N,0,-0.7606345592,2.9116423136,-0.0952733731\C,0,0.66
 56388282,-2.3528532437,-1.370859381\C,0,1.0099638987,-1.0683540671,-0.
 9958384327\C,0,-0.7000341321,-2.5429426565,-1.1019522579\C,0,-1.266457
 0677,-1.3693572471,-0.7616852985\C,0,3.7800964704,1.5310362701,-0.2541
 996868\C,0,2.6103931451,0.9526770932,-0.5861127963\C,0,2.2606913193,-0
 .4106183197,-1.0097204466\C,0,3.5429149316,2.8432941316,0.0800459949\C
 ,0,1.5930107062,-3.4257742787,-2.0133186775\C,0,-5.5002589326,-2.77388
 30032,1.3434816125\C,0,-3.4414880081,-1.8804130172,0.2206880006\C,0,2.
 1005543675,3.0664466389,-0.0467770543\C,0,-4.9078134776,-1.6474037043,
 0.4571497589\C,0,5.1096462265,0.8357884957,-0.2482837871\C,0,-2.534348
 2505,-0.978296385,-0.3358400578\C,0,-1.5033900011,-3.7583355867,-1.510
 0613229\C,0,-4.2949591643,-3.8134055724,1.288083934\C,0,2.0873698707,-
 4.441443168,-1.0796971965\C,0,5.3383126337,-0.2301511386,0.8851410613\
 C,0,4.5459706584,3.9545683061,0.5068628866\C,0,1.2618648649,4.07939248
 95,0.2666283834\C,0,-6.796104261,-3.4001647963,0.8538544475\C,0,-5.757
 0752881,-0.6178075648,0.0909962665\C,0,-0.2116490842,4.0202502748,0.19
 2951107\C,0,-1.0963147301,5.1411916529,0.5214306086\C,0,-2.3244219159,
 4.548546356,0.3272386299\C,0,2.8880753895,-4.056868357,0.0324609353\C,
 0,-5.510024712,0.5063459232,-0.708842349\C,0,6.7785477338,-0.631568626
 5,0.8634872469\C,0,-3.7223397769,5.338494908,0.3908835991\C,0,-2.20574
 01256,3.0612710881,-0.1009858684\C,0,-0.6971203031,6.4848541554,0.8032
 993815\C,0,-4.3277623388,5.5338293396,-0.9940084923\H,0,-0.3397655615,
 0.6022270885,-0.4901787576\H,0,3.2028076418,-1.0739355348,-1.208270914
 5\H,0,2.5987097523,-2.9065722538,-2.3903655837\H,0,1.2609571019,-3.901
 7242833,-2.8852468848\H,0,-5.5763093582,-2.34825345,2.4709476347\H,0,5
 .3462771402,0.3720065821,-1.3162619735\H,0,6.07742631,1.5007696051,-0.
 2324268173\H,0,-2.7206082785,0.1557233626,-0.5394143389\H,0,0.59473670
 43,1.9499148354,-0.6562430698\H,0,-1.5843831741,-4.5497195425,-0.71280
 07899\H,0,-2.7344935604,-3.6339339798,-1.6496630994\H,0,-0.9792431042,
 -4.4658336522,-2.3389894882\H,0,-2.2112235087,-3.3937291036,0.74458712
 39\H,0,1.0211529446,-4.9686095593,-0.8127566656\H,0,2.796215726,-5.217
 3258395,-1.5880241843\H,0,4.8633415672,-1.1119523586,0.6764973858\H,0,
 4.8951738628,0.2862946682,1.7750053036\H,0,4.3484053661,4.9300834247,0
 .0645650847\H,0,5.5393970314,3.6269802312,0.4392597156\H,0,4.224459478
 5,4.231358608,1.6043761545\H,0,1.7917799566,5.0489940768,0.3562567009\
 H,0,-7.5922207904,-2.9774828318,0.9485661262\H,0,-6.8892029842,-4.4736
 937515,1.1224780882\H,0,-6.5736930663,-3.4840458207,-0.2721151231\H,0,
 -6.6145659789,-0.4277436829,0.6606740685\H,0,-4.9097299451,1.285033324
 2,-0.1318104423\H,0,-6.2875271301,1.4256116362,-0.9314774638\H,0,-4.91
 66909811,0.480918254,-1.6323600008\H,0,-3.6381958051,6.2854329484,1.00
 87277493\H,0,-4.1896404022,4.685720904,1.1456505914\H,0,0.2353143869,6
 .450915657,1.5018200236\H,0,-1.5019363039,7.1353369884,1.0416835201\H,
 0,-0.1542762596,6.7826305488,-0.1384028832\H,0,-3.5421121182,5.8654541
 711,-1.5434585484\H,0,-5.1741901262,6.3045935755,-0.8383537126\H,0,-4.
 7114146184,4.5027804483,-1.4258920972\H,0,3.3153199325,-4.291415354,1.
 7716679492\H,0,7.7305510797,-2.1974391329,1.6554329263\\Version=ES64L-
 G16RevA.03\State=1-A\HF=-1949.0651739\RMSD=4.725e-09\PG=C01 [X(C33H38N
 4O6)]\\@


 A SCIENTIST IS SOMEONE WHOSE CURIOSITY SURVIVES
 EDUCATION'S ASSAULTS ON IT.
                          - SIR HERMANN BONDI
 Job cpu time:       0 days  3 hours 53 minutes 44.7 seconds.
 Elapsed time:       0 days  2 hours 35 minutes 36.9 seconds.
 File lengths (MBytes):  RWF=   2591 Int=      0 D2E=      0 Chk=     65 Scr=      1
 Normal termination of Gaussian 16 at Sat Jun 29 11:45:38 2019.
