 Entering Gaussian System, Link 0=g16
 Input=Geometria-458-.com
 Output=Geometria-458-.log
 Initial command:
 /usr/local/g16/l1.exe "/home/padawan/israel-mol/phycocyanobilin/spectra/emi/Gau-4222.inp" -scrdir="/home/padawan/israel-mol/phycocyanobilin/spectra/emi/"
 Entering Link 1 = /usr/local/g16/l1.exe PID=      4224.
  
 Copyright (c) 1988,1990,1992,1993,1995,1998,2003,2009,2016,
            Gaussian, Inc.  All Rights Reserved.
  
 This is part of the Gaussian(R) 16 program.  It is based on
 the Gaussian(R) 09 system (copyright 2009, Gaussian, Inc.),
 the Gaussian(R) 03 system (copyright 2003, Gaussian, Inc.),
 the Gaussian(R) 98 system (copyright 1998, Gaussian, Inc.),
 the Gaussian(R) 94 system (copyright 1995, Gaussian, Inc.),
 the Gaussian 92(TM) system (copyright 1992, Gaussian, Inc.),
 the Gaussian 90(TM) system (copyright 1990, Gaussian, Inc.),
 the Gaussian 88(TM) system (copyright 1988, Gaussian, Inc.),
 the Gaussian 86(TM) system (copyright 1986, Carnegie Mellon
 University), and the Gaussian 82(TM) system (copyright 1983,
 Carnegie Mellon University). Gaussian is a federally registered
 trademark of Gaussian, Inc.
  
 This software contains proprietary and confidential information,
 including trade secrets, belonging to Gaussian, Inc.
  
 This software is provided under written license and may be
 used, copied, transmitted, or stored only in accord with that
 written license.
  
 The following legend is applicable only to US Government
 contracts under FAR:
  
                    RESTRICTED RIGHTS LEGEND
  
 Use, reproduction and disclosure by the US Government is
 subject to restrictions as set forth in subparagraphs (a)
 and (c) of the Commercial Computer Software - Restricted
 Rights clause in FAR 52.227-19.
  
 Gaussian, Inc.
 340 Quinnipiac St., Bldg. 40, Wallingford CT 06492
  
  
 ---------------------------------------------------------------
 Warning -- This program may not be used in any manner that
 competes with the business of Gaussian, Inc. or will provide
 assistance to any competitor of Gaussian, Inc.  The licensee
 of this program is prohibited from giving any competitor of
 Gaussian, Inc. access to this program.  By using this program,
 the user acknowledges that Gaussian, Inc. is engaged in the
 business of creating and licensing software in the field of
 computational chemistry and represents and warrants to the
 licensee that it is not a competitor of Gaussian, Inc. and that
 it will not use this program in any manner prohibited above.
 ---------------------------------------------------------------
  

 Cite this work as:
 Gaussian 16, Revision A.03,
 M. J. Frisch, G. W. Trucks, H. B. Schlegel, G. E. Scuseria, 
 M. A. Robb, J. R. Cheeseman, G. Scalmani, V. Barone, 
 G. A. Petersson, H. Nakatsuji, X. Li, M. Caricato, A. V. Marenich, 
 J. Bloino, B. G. Janesko, R. Gomperts, B. Mennucci, H. P. Hratchian, 
 J. V. Ortiz, A. F. Izmaylov, J. L. Sonnenberg, D. Williams-Young, 
 F. Ding, F. Lipparini, F. Egidi, J. Goings, B. Peng, A. Petrone, 
 T. Henderson, D. Ranasinghe, V. G. Zakrzewski, J. Gao, N. Rega, 
 G. Zheng, W. Liang, M. Hada, M. Ehara, K. Toyota, R. Fukuda, 
 J. Hasegawa, M. Ishida, T. Nakajima, Y. Honda, O. Kitao, H. Nakai, 
 T. Vreven, K. Throssell, J. A. Montgomery, Jr., J. E. Peralta, 
 F. Ogliaro, M. J. Bearpark, J. J. Heyd, E. N. Brothers, K. N. Kudin, 
 V. N. Staroverov, T. A. Keith, R. Kobayashi, J. Normand, 
 K. Raghavachari, A. P. Rendell, J. C. Burant, S. S. Iyengar, 
 J. Tomasi, M. Cossi, J. M. Millam, M. Klene, C. Adamo, R. Cammi, 
 J. W. Ochterski, R. L. Martin, K. Morokuma, O. Farkas, 
 J. B. Foresman, and D. J. Fox, Gaussian, Inc., Wallingford CT, 2016.
 
 ******************************************
 Gaussian 16:  ES64L-G16RevA.03 25-Dec-2016
                 3-Jul-2019 
 ******************************************
 %nproc=4
 Will use up to    4 processors via shared memory.
 %Mem=2GB
 --------------------------
 # td=(NStates=1) B3LYP/SVP
 --------------------------
 1/38=1,172=1/1;
 2/12=2,17=6,18=5,40=1/2;
 3/5=18,7=101,11=9,25=1,30=1,74=-5/1,2,3,8;
 4//1;
 5/5=2,38=5/2;
 8/6=1,10=1,108=1/1;
 9/41=1,42=1,70=2/14;
 6/7=2,8=2,9=2,10=2/1;
 99/5=1,9=1/99;
 --
 TD
 --
 Symbolic Z-matrix:
 Charge =  0 Multiplicity = 1
 8                    -4.28056  -4.9684    1.7927 
 8                     3.01983  -5.14143   1.00485 
 8                     7.00497  -1.62028   1.65585 
 8                     3.50949  -3.06317   0.12829 
 8                     7.70557  -0.32704  -0.09264 
 8                    -2.93096   2.39644  -0.33665 
 7                    -0.26241  -0.45557  -0.4691 
 7                     1.53108   1.80753  -0.29413 
 7                    -3.37843  -3.23945   0.81176 
 7                    -0.81442   2.84513  -0.05433 
 6                     0.56229  -2.31937  -1.45087 
 6                     0.97768  -1.06381  -0.91088 
 6                    -0.78787  -2.53962  -1.27463 
 6                    -1.30557  -1.43051  -0.56351 
 6                     3.81908   1.55166  -0.17315 
 6                     2.52506   0.86241  -0.54586 
 6                     2.1825   -0.40642  -0.83478 
 6                     3.67443   2.8651    0.07662 
 6                     1.62849  -3.24988  -2.00448 
 6                    -5.54073  -2.90737   1.22418 
 6                    -3.57977  -1.89729   0.33191 
 6                     2.13689   3.06781   0.04675 
 6                    -4.99997  -1.65523   0.46523 
 6                     5.17135   0.77134  -0.29977 
 6                    -2.65511  -1.07654  -0.27784 
 6                    -1.57956  -3.7235   -1.74642 
 6                    -4.33053  -3.76942   1.39106 
 6                     1.96179  -4.45811  -1.0068 
 6                     5.40024  -0.17529   0.89344 
 6                     4.54769   4.01124   0.47887 
 6                     1.30117   4.15038   0.28679 
 6                    -6.7508   -3.57999   0.5957 
 6                    -5.77411  -0.58271   0.16144 
 6                    -0.10553   4.07532   0.14274 
 6                    -0.98021   5.23506   0.36032 
 6                    -2.3289    4.69904   0.21391 
 6                     3.03586  -4.20186   0.06516 
 6                    -5.4921    0.5839   -0.63238 
 6                     6.82964  -0.68702   0.72447 
 6                    -3.70312   5.2208    0.24322 
 6                    -2.11882   3.25652  -0.0785 
 6                    -0.6607    6.62157   0.76926 
 6                    -4.36687   5.59509  -1.13582 
 1                    -0.27445   0.43252  -0.18523 
 1                     3.0009   -0.99291  -0.93245 
 1                     2.65083  -2.8007   -2.30392 
 1                     1.18274  -3.55951  -2.92871 
 1                    -5.76262  -2.47351   2.42625 
 1                     5.3206    0.32115  -1.3332 
 1                     5.842     1.6625   -0.32707 
 1                    -3.01096   0.03373  -0.43607 
 1                     0.49308   1.94485  -0.70184 
 1                    -1.41077  -4.56514  -1.1683 
 1                    -2.49267  -3.44131  -1.95478 
 1                    -1.28486  -4.04949  -2.83128 
 1                    -2.357    -3.47719   0.93189 
 1                     1.0296   -4.64145  -0.56088 
 1                     2.4249   -5.35514  -1.55357 
 1                     4.80256  -1.13156   0.84574 
 1                     5.27014   0.3815    1.95729 
 1                     4.73782   4.79964  -0.36602 
 1                     5.64288   3.78613   0.80099 
 1                     4.08724   4.38328   1.43652 
 1                     1.65966   5.17952   0.53147 
 1                    -7.63609  -3.08949   0.52027 
 1                    -7.1198   -4.53617   1.06446 
 1                    -6.40998  -3.99827  -0.46228 
 1                    -6.6779   -0.56876   0.6323 
 1                    -4.90477   1.35174  -0.14516 
 1                    -6.51065   0.89334  -0.96584 
 1                    -4.83592   0.30923  -1.47657 
 1                    -3.75372   6.03413   0.97561 
 1                    -4.38639   4.30243   0.50863 
 1                     0.06177   6.67428   1.56476 
 1                    -1.63286   7.21628   0.8501 
 1                    -0.17625   7.07585   0.05674 
 1                    -3.71888   6.36269  -1.94231 
 1                    -5.42915   5.83591  -1.1677 
 1                    -4.37308   4.7019   -1.65072 
 1                     3.67158  -4.73452   1.58226 
 1                     7.98396  -1.84929   1.51019 
 
 Stoichiometry    C33H38N4O6
 Framework group  C1[X(C33H38N4O6)]
 Deg. of freedom   237
 Full point group                 C1      NOp   1
 Largest Abelian subgroup         C1      NOp   1
 Largest concise Abelian subgroup C1      NOp   1
                         Standard orientation:                         
 ---------------------------------------------------------------------
 Center     Atomic      Atomic             Coordinates (Angstroms)
 Number     Number       Type             X           Y           Z
 ---------------------------------------------------------------------
      1          8           0        4.475615   -4.802360   -1.771891
      2          8           0       -2.809658   -5.269309   -0.963789
      3          8           0       -6.937520   -1.919369   -1.628819
      4          8           0       -3.382199   -3.206778   -0.100409
      5          8           0       -7.686565   -0.643682    0.112460
      6          8           0        2.829706    2.515710    0.309751
      7          7           0        0.280830   -0.442415    0.468995
      8          7           0       -1.604478    1.743879    0.282987
      9          7           0        3.505538   -3.105014   -0.800629
     10          7           0        0.695878    2.875149    0.029855
     11          6           0       -0.464364   -2.331525    1.465836
     12          6           0       -0.932213   -1.097913    0.918225
     13          6           0        0.893289   -2.497414    1.287606
     14          6           0        1.363356   -1.373033    0.567443
     15          6           0       -3.880316    1.393470    0.169767
     16          6           0       -2.558228    0.760555    0.543872
     17          6           0       -2.163187   -0.491074    0.840710
     18          6           0       -3.790297    2.709944   -0.089498
     19          6           0       -1.490173   -3.301082    2.028682
     20          6           0        5.651418   -2.687384   -1.220996
     21          6           0        3.652717   -1.752382   -0.330645
     22          6           0       -2.262312    2.975795   -0.065061
     23          6           0        5.061467   -1.453182   -0.469356
     24          6           0       -5.199110    0.559222    0.305335
     25          6           0        2.696555   -0.965988    0.275804
     26          6           0        1.734012   -3.644448    1.765546
     27          6           0        4.477250   -3.599538   -1.378724
     28          6           0       -1.775894   -4.528984    1.040298
     29          6           0       -5.391708   -0.404391   -0.880667
     30          6           0       -4.710817    3.816421   -0.497424
     31          6           0       -1.472308    4.090036   -0.314798
     32          6           0        6.889540   -3.305332   -0.591020
     33          6           0        5.791615   -0.347678   -0.175052
     34          6           0       -0.063384    4.073788   -0.173901
     35          6           0        0.762436    5.266893   -0.401827
     36          6           0        2.132333    4.787725   -0.255213
     37          6           0       -2.862072   -4.324595   -0.030611
     38          6           0        5.463794    0.811950    0.611385
     39          6           0       -6.798498   -0.973161   -0.704413
     40          6           0        3.483894    5.365229   -0.291740
     41          6           0        1.982340    3.339894    0.047762
     42          6           0        0.385308    6.636200   -0.819547
     43          6           0        4.134920    5.776151    1.082929
     44          1           0        0.255730    0.443398    0.178925
     45          1           0       -2.956580   -1.109955    0.944591
     46          1           0       -2.529396   -2.892145    2.327663
     47          1           0       -1.029933   -3.585636    2.953877
     48          1           0        5.852506   -2.253268   -2.426631
     49          1           0       -5.327348    0.110582    1.342260
     50          1           0       -5.905720    1.422269    0.328192
     51          1           0        3.006881    0.159037    0.425385
     52          1           0       -0.572042    1.926560    0.687016
     53          1           0        1.598576   -4.496360    1.193723
     54          1           0        2.635249   -3.323559    1.969553
     55          1           0        1.455475   -3.974602    2.853405
     56          1           0        2.494453   -3.385320   -0.916433
     57          1           0       -0.838008   -4.677042    0.593231
     58          1           0       -2.200510   -5.440384    1.594497
     59          1           0       -4.755155   -1.334973   -0.827888
     60          1           0       -5.287056    0.149756   -1.948698
     61          1           0       -4.931197    4.602286    0.342460
     62          1           0       -5.796583    3.544278   -0.815105
     63          1           0       -4.268254    4.200285   -1.458835
     64          1           0       -1.873318    5.101843   -0.565689
     65          1           0        7.754112   -2.778392   -0.521318
     66          1           0        7.296395   -4.248840   -1.054091
     67          1           0        6.568640   -3.729773    0.470730
     68          1           0        6.692978   -0.299959   -0.648355
     69          1           0        4.844297    1.551579    0.120375
     70          1           0        6.469548    1.165271    0.940021
     71          1           0        4.821410    0.516535    1.459174
     72          1           0        3.499353    6.174761   -1.029899
     73          1           0        4.203680    4.473827   -0.552544
     74          1           0       -0.340558    6.653604   -1.613504
     75          1           0        1.332042    7.269722   -0.907065
     76          1           0       -0.115726    7.075228   -0.108938
     77          1           0        3.457838    6.522184    1.885752
     78          1           0        5.186486    6.060587    1.110354
     79          1           0        4.179000    4.887625    1.604007
     80          1           0       -3.478906   -4.893577   -1.542302
     81          1           0       -7.905939   -2.187339   -1.479015
 ---------------------------------------------------------------------
 Rotational constants (GHZ):           0.0749382           0.0550966           0.0337284
 Standard basis: SVP (5D, 7F)
 There are   835 symmetry adapted cartesian basis functions of A   symmetry.
 There are   792 symmetry adapted basis functions of A   symmetry.
   792 basis functions,  1341 primitive gaussians,   835 cartesian basis functions
   156 alpha electrons      156 beta electrons
       nuclear repulsion energy      5034.9400030636 Hartrees.
 NAtoms=   81 NActive=   81 NUniq=   81 SFac= 1.00D+00 NAtFMM=   60 NAOKFM=T Big=T
 Integral buffers will be    131072 words long.
 Regular integral format.
 Two-electron integral symmetry is turned on.
 One-electron integrals computed using PRISM.
 NBasis=   792 RedAO= T EigKep=  3.85D-04  NBF=   792
 NBsUse=   792 1.00D-06 EigRej= -1.00D+00 NBFU=   792
 ExpMin= 1.22D-01 ExpMax= 2.27D+03 ExpMxC= 3.41D+02 IAcc=3 IRadAn=         5 AccDes= 0.00D+00
 Harris functional with IExCor=  402 and IRadAn=       5 diagonalized for initial guess.
 HarFok:  IExCor=  402 AccDes= 0.00D+00 IRadAn=         5 IDoV= 1 UseB2=F ITyADJ=14
 ICtDFT=  3500011 ScaDFX=  1.000000  1.000000  1.000000  1.000000
 FoFCou: FMM=F IPFlag=           0 FMFlag=      100000 FMFlg1=        2001
         NFxFlg=           0 DoJE=T BraDBF=F KetDBF=T FulRan=T
         wScrn=  0.000000 ICntrl=       500 IOpCl=  0 I1Cent=   200000004 NGrid=           0
         NMat0=    1 NMatS0=      1 NMatT0=    0 NMatD0=    1 NMtDS0=    0 NMtDT0=    0
 Petite list used in FoFCou.
 Requested convergence on RMS density matrix=1.00D-08 within 128 cycles.
 Requested convergence on MAX density matrix=1.00D-06.
 Requested convergence on             energy=1.00D-06.
 No special actions if energy rises.
 Integral accuracy reduced to 1.0D-05 until final iterations.
 EnCoef did     3 forward-backward iterations
 Initial convergence to 1.0D-05 achieved.  Increase integral accuracy.
 SCF Done:  E(RB3LYP) =  -1949.08649431     A.U. after   18 cycles
            NFock= 18  Conv=0.77D-08     -V/T= 2.0106
 DoSCS=F DFT=T ScalE2(SS,OS)=  1.000000  1.000000
 ExpMin= 1.22D-01 ExpMax= 2.27D+03 ExpMxC= 3.41D+02 IAcc=3 IRadAn=         5 AccDes= 0.00D+00
 HarFok:  IExCor=  205 AccDes= 0.00D+00 IRadAn=         5 IDoV=-2 UseB2=F ITyADJ=14
 ICtDFT= 12500011 ScaDFX=  1.000000  1.000000  1.000000  1.000000
 GSVD:  LWork=       -2193 too small for GESVD, short by        9890 words or        9890 for optimal perf.
 Range of M.O.s used for correlation:    44   792
 NBasis=   792 NAE=   156 NBE=   156 NFC=    43 NFV=     0
 NROrb=    749 NOA=   113 NOB=   113 NVA=   636 NVB=   636

 **** Warning!!: The smallest alpha delta epsilon is  0.69230635D-01

 Orbital symmetries:
       Occupied  (A) (A) (A) (A) (A) (A) (A) (A) (A) (A) (A) (A)
                 (A) (A) (A) (A) (A) (A) (A) (A) (A) (A) (A) (A)
                 (A) (A) (A) (A) (A) (A) (A) (A) (A) (A) (A) (A)
                 (A) (A) (A) (A) (A) (A) (A) (A) (A) (A) (A) (A)
                 (A) (A) (A) (A) (A) (A) (A) (A) (A) (A) (A) (A)
                 (A) (A) (A) (A) (A) (A) (A) (A) (A) (A) (A) (A)
                 (A) (A) (A) (A) (A) (A) (A) (A) (A) (A) (A) (A)
                 (A) (A) (A) (A) (A) (A) (A) (A) (A) (A) (A) (A)
                 (A) (A) (A) (A) (A) (A) (A) (A) (A) (A) (A) (A)
                 (A) (A) (A) (A) (A) (A) (A) (A) (A) (A) (A) (A)
                 (A) (A) (A) (A) (A) (A) (A) (A) (A) (A) (A) (A)
                 (A) (A) (A) (A) (A) (A) (A) (A) (A) (A) (A) (A)
                 (A) (A) (A) (A) (A) (A) (A) (A) (A) (A) (A) (A)
       Virtual   (A) (A) (A) (A) (A) (A) (A) (A) (A) (A) (A) (A)
                 (A) (A) (A) (A) (A) (A) (A) (A) (A) (A) (A) (A)
                 (A) (A) (A) (A) (A) (A) (A) (A) (A) (A) (A) (A)
                 (A) (A) (A) (A) (A) (A) (A) (A) (A) (A) (A) (A)
                 (A) (A) (A) (A) (A) (A) (A) (A) (A) (A) (A) (A)
                 (A) (A) (A) (A) (A) (A) (A) (A) (A) (A) (A) (A)
                 (A) (A) (A) (A) (A) (A) (A) (A) (A) (A) (A) (A)
                 (A) (A) (A) (A) (A) (A) (A) (A) (A) (A) (A) (A)
                 (A) (A) (A) (A) (A) (A) (A) (A) (A) (A) (A) (A)
                 (A) (A) (A) (A) (A) (A) (A) (A) (A) (A) (A) (A)
                 (A) (A) (A) (A) (A) (A) (A) (A) (A) (A) (A) (A)
                 (A) (A) (A) (A) (A) (A) (A) (A) (A) (A) (A) (A)
                 (A) (A) (A) (A) (A) (A) (A) (A) (A) (A) (A) (A)
                 (A) (A) (A) (A) (A) (A) (A) (A) (A) (A) (A) (A)
                 (A) (A) (A) (A) (A) (A) (A) (A) (A) (A) (A) (A)
                 (A) (A) (A) (A) (A) (A) (A) (A) (A) (A) (A) (A)
                 (A) (A) (A) (A) (A) (A) (A) (A) (A) (A) (A) (A)
                 (A) (A) (A) (A) (A) (A) (A) (A) (A) (A) (A) (A)
                 (A) (A) (A) (A) (A) (A) (A) (A) (A) (A) (A) (A)
                 (A) (A) (A) (A) (A) (A) (A) (A) (A) (A) (A) (A)
                 (A) (A) (A) (A) (A) (A) (A) (A) (A) (A) (A) (A)
                 (A) (A) (A) (A) (A) (A) (A) (A) (A) (A) (A) (A)
                 (A) (A) (A) (A) (A) (A) (A) (A) (A) (A) (A) (A)
                 (A) (A) (A) (A) (A) (A) (A) (A) (A) (A) (A) (A)
                 (A) (A) (A) (A) (A) (A) (A) (A) (A) (A) (A) (A)
                 (A) (A) (A) (A) (A) (A) (A) (A) (A) (A) (A) (A)
                 (A) (A) (A) (A) (A) (A) (A) (A) (A) (A) (A) (A)
                 (A) (A) (A) (A) (A) (A) (A) (A) (A) (A) (A) (A)
                 (A) (A) (A) (A) (A) (A) (A) (A) (A) (A) (A) (A)
                 (A) (A) (A) (A) (A) (A) (A) (A) (A) (A) (A) (A)
                 (A) (A) (A) (A) (A) (A) (A) (A) (A) (A) (A) (A)
                 (A) (A) (A) (A) (A) (A) (A) (A) (A) (A) (A) (A)
                 (A) (A) (A) (A) (A) (A) (A) (A) (A) (A) (A) (A)
                 (A) (A) (A) (A) (A) (A) (A) (A) (A) (A) (A) (A)
                 (A) (A) (A) (A) (A) (A) (A) (A) (A) (A) (A) (A)
                 (A) (A) (A) (A) (A) (A) (A) (A) (A) (A) (A) (A)
                 (A) (A) (A) (A) (A) (A) (A) (A) (A) (A) (A) (A)
                 (A) (A) (A) (A) (A) (A) (A) (A) (A) (A) (A) (A)
                 (A) (A) (A) (A) (A) (A) (A) (A) (A) (A) (A) (A)
                 (A) (A) (A) (A) (A) (A) (A) (A) (A) (A) (A) (A)
                 (A) (A) (A) (A) (A) (A) (A) (A) (A) (A) (A) (A)
                 (A) (A) (A) (A) (A) (A) (A) (A) (A) (A) (A) (A)
                 (A) (A) (A) (A) (A) (A) (A) (A) (A) (A) (A) (A)
                 (A) (A) (A) (A) (A) (A) (A) (A) (A) (A) (A) (A)
                 (A) (A) (A) (A) (A) (A) (A) (A) (A) (A) (A) (A)
                 (A) (A) (A) (A) (A) (A) (A) (A) (A) (A) (A) (A)
                 (A) (A) (A) (A) (A) (A) (A) (A) (A) (A) (A) (A)
                 (A) (A) (A) (A) (A) (A) (A) (A) (A) (A) (A) (A)
                 (A) (A) (A) (A) (A) (A) (A) (A) (A) (A) (A) (A)
                 (A) (A) (A) (A) (A) (A) (A) (A) (A) (A) (A) (A)
                 (A) (A) (A) (A) (A) (A) (A) (A) (A) (A) (A) (A)
                 (A) (A) (A) (A) (A) (A) (A) (A) (A) (A) (A) (A)
                 (A) (A) (A) (A) (A) (A) (A) (A) (A) (A) (A) (A)
     4 initial guesses have been made.
 Convergence on wavefunction:    0.001000000000000
 Iteration     1 Dimension     4 NMult     0 NNew      4
 CISAX will form     4 AO SS matrices at one time.
 Iteration     2 Dimension     6 NMult     4 NNew      2
 Iteration     3 Dimension     8 NMult     6 NNew      2
 Iteration     4 Dimension    10 NMult     8 NNew      2
 Iteration     5 Dimension    12 NMult    10 NNew      2
 Iteration     6 Dimension    14 NMult    12 NNew      2
 ***********************************************************************
 Excited states from <AA,BB:AA,BB> singles matrix:
 ***********************************************************************
 
 Ground to excited state transition densities written to RWF  633
 Ground to excited state transition electric dipole moments (Au):
       state          X           Y           Z        Dip. S.      Osc.
         1         0.7605     -2.3950      0.1189      6.3288      0.2628
 Ground to excited state transition velocity dipole moments (Au):
       state          X           Y           Z        Dip. S.      Osc.
         1        -0.0494      0.1446     -0.0076      0.0234      0.2504
 Ground to excited state transition magnetic dipole moments (Au):
       state          X           Y           Z
         1        -0.2413     -0.4804     -2.2329
 Ground to excited state transition velocity quadrupole moments (Au):
       state          XX          YY          ZZ          XY          XZ          YZ
         1        -0.4125      0.5971     -0.0589      0.4084      0.0803     -0.0014
 <0|del|b> * <b|rxdel|0> + <0|del|b> * <b|delr+rdel|0>
 Rotatory Strengths (R) in cgs (10**-40 erg-esu-cm/Gauss)
       state          XX          YY          ZZ    R(velocity)    E-M Angle
         1      -381.6008    181.6527   -261.0298   -153.6593       96.64
 1/2[<0|r|b>*<b|rxdel|0> + (<0|rxdel|b>*<b|r|0>)*]
 Rotatory Strengths (R) in cgs (10**-40 erg-esu-cm/Gauss)
       state          XX          YY          ZZ     R(length)
         1       129.7931   -813.5944    187.7508   -165.3502
  1/2[<0|del|b>*<b|r|0> + (<0|r|b>*<b|del|0>)*] (Au)
       state          X           Y           Z        Dip. S.   Osc.(frdel)
         1        -0.0376     -0.3463     -0.0009      0.3847      0.2565

 Excitation energies and oscillator strengths:
 
 Excited State   1:      Singlet-A      1.6952 eV  731.38 nm  f=0.2628  <S**2>=0.000
     156 ->157         0.70598
     156 <-157        -0.11194
 This state for optimization and/or second-order correction.
 Total Energy, E(TD-HF/TD-DFT) =  -1949.02419617    
 Copying the excited state density for this state as the 1-particle RhoCI density.
 SavETr:  write IOETrn=   770 NScale= 10 NData=  16 NLR=1 NState=    1 LETran=      28.

 **********************************************************************

            Population analysis using the SCF density.

 **********************************************************************

 Orbital symmetries:
       Occupied  (A) (A) (A) (A) (A) (A) (A) (A) (A) (A) (A) (A)
                 (A) (A) (A) (A) (A) (A) (A) (A) (A) (A) (A) (A)
                 (A) (A) (A) (A) (A) (A) (A) (A) (A) (A) (A) (A)
                 (A) (A) (A) (A) (A) (A) (A) (A) (A) (A) (A) (A)
                 (A) (A) (A) (A) (A) (A) (A) (A) (A) (A) (A) (A)
                 (A) (A) (A) (A) (A) (A) (A) (A) (A) (A) (A) (A)
                 (A) (A) (A) (A) (A) (A) (A) (A) (A) (A) (A) (A)
                 (A) (A) (A) (A) (A) (A) (A) (A) (A) (A) (A) (A)
                 (A) (A) (A) (A) (A) (A) (A) (A) (A) (A) (A) (A)
                 (A) (A) (A) (A) (A) (A) (A) (A) (A) (A) (A) (A)
                 (A) (A) (A) (A) (A) (A) (A) (A) (A) (A) (A) (A)
                 (A) (A) (A) (A) (A) (A) (A) (A) (A) (A) (A) (A)
                 (A) (A) (A) (A) (A) (A) (A) (A) (A) (A) (A) (A)
       Virtual   (A) (A) (A) (A) (A) (A) (A) (A) (A) (A) (A) (A)
                 (A) (A) (A) (A) (A) (A) (A) (A) (A) (A) (A) (A)
                 (A) (A) (A) (A) (A) (A) (A) (A) (A) (A) (A) (A)
                 (A) (A) (A) (A) (A) (A) (A) (A) (A) (A) (A) (A)
                 (A) (A) (A) (A) (A) (A) (A) (A) (A) (A) (A) (A)
                 (A) (A) (A) (A) (A) (A) (A) (A) (A) (A) (A) (A)
                 (A) (A) (A) (A) (A) (A) (A) (A) (A) (A) (A) (A)
                 (A) (A) (A) (A) (A) (A) (A) (A) (A) (A) (A) (A)
                 (A) (A) (A) (A) (A) (A) (A) (A) (A) (A) (A) (A)
                 (A) (A) (A) (A) (A) (A) (A) (A) (A) (A) (A) (A)
                 (A) (A) (A) (A) (A) (A) (A) (A) (A) (A) (A) (A)
                 (A) (A) (A) (A) (A) (A) (A) (A) (A) (A) (A) (A)
                 (A) (A) (A) (A) (A) (A) (A) (A) (A) (A) (A) (A)
                 (A) (A) (A) (A) (A) (A) (A) (A) (A) (A) (A) (A)
                 (A) (A) (A) (A) (A) (A) (A) (A) (A) (A) (A) (A)
                 (A) (A) (A) (A) (A) (A) (A) (A) (A) (A) (A) (A)
                 (A) (A) (A) (A) (A) (A) (A) (A) (A) (A) (A) (A)
                 (A) (A) (A) (A) (A) (A) (A) (A) (A) (A) (A) (A)
                 (A) (A) (A) (A) (A) (A) (A) (A) (A) (A) (A) (A)
                 (A) (A) (A) (A) (A) (A) (A) (A) (A) (A) (A) (A)
                 (A) (A) (A) (A) (A) (A) (A) (A) (A) (A) (A) (A)
                 (A) (A) (A) (A) (A) (A) (A) (A) (A) (A) (A) (A)
                 (A) (A) (A) (A) (A) (A) (A) (A) (A) (A) (A) (A)
                 (A) (A) (A) (A) (A) (A) (A) (A) (A) (A) (A) (A)
                 (A) (A) (A) (A) (A) (A) (A) (A) (A) (A) (A) (A)
                 (A) (A) (A) (A) (A) (A) (A) (A) (A) (A) (A) (A)
                 (A) (A) (A) (A) (A) (A) (A) (A) (A) (A) (A) (A)
                 (A) (A) (A) (A) (A) (A) (A) (A) (A) (A) (A) (A)
                 (A) (A) (A) (A) (A) (A) (A) (A) (A) (A) (A) (A)
                 (A) (A) (A) (A) (A) (A) (A) (A) (A) (A) (A) (A)
                 (A) (A) (A) (A) (A) (A) (A) (A) (A) (A) (A) (A)
                 (A) (A) (A) (A) (A) (A) (A) (A) (A) (A) (A) (A)
                 (A) (A) (A) (A) (A) (A) (A) (A) (A) (A) (A) (A)
                 (A) (A) (A) (A) (A) (A) (A) (A) (A) (A) (A) (A)
                 (A) (A) (A) (A) (A) (A) (A) (A) (A) (A) (A) (A)
                 (A) (A) (A) (A) (A) (A) (A) (A) (A) (A) (A) (A)
                 (A) (A) (A) (A) (A) (A) (A) (A) (A) (A) (A) (A)
                 (A) (A) (A) (A) (A) (A) (A) (A) (A) (A) (A) (A)
                 (A) (A) (A) (A) (A) (A) (A) (A) (A) (A) (A) (A)
                 (A) (A) (A) (A) (A) (A) (A) (A) (A) (A) (A) (A)
                 (A) (A) (A) (A) (A) (A) (A) (A) (A) (A) (A) (A)
                 (A) (A) (A) (A) (A) (A) (A) (A) (A) (A) (A) (A)
                 (A) (A) (A) (A) (A) (A) (A) (A) (A) (A) (A) (A)
                 (A) (A) (A) (A) (A) (A) (A) (A) (A) (A) (A) (A)
                 (A) (A) (A) (A) (A) (A) (A) (A) (A) (A) (A) (A)
                 (A) (A) (A) (A) (A) (A) (A) (A) (A) (A) (A) (A)
                 (A) (A) (A) (A) (A) (A) (A) (A) (A) (A) (A) (A)
                 (A) (A) (A) (A) (A) (A) (A) (A) (A) (A) (A) (A)
                 (A) (A) (A) (A) (A) (A) (A) (A) (A) (A) (A) (A)
                 (A) (A) (A) (A) (A) (A) (A) (A) (A) (A) (A) (A)
                 (A) (A) (A) (A) (A) (A) (A) (A) (A) (A) (A) (A)
                 (A) (A) (A) (A) (A) (A) (A) (A) (A) (A) (A) (A)
                 (A) (A) (A) (A) (A) (A) (A) (A) (A) (A) (A) (A)
 The electronic state is 1-A.
 Alpha  occ. eigenvalues --  -19.21884 -19.19725 -19.15057 -19.13199 -19.09743
 Alpha  occ. eigenvalues --  -19.07330 -14.37210 -14.36097 -14.35788 -14.28814
 Alpha  occ. eigenvalues --  -10.34343 -10.32503 -10.26621 -10.25462 -10.25160
 Alpha  occ. eigenvalues --  -10.23939 -10.23776 -10.23386 -10.23097 -10.22541
 Alpha  occ. eigenvalues --  -10.22213 -10.22054 -10.21736 -10.21720 -10.21482
 Alpha  occ. eigenvalues --  -10.21454 -10.21452 -10.20936 -10.20790 -10.20206
 Alpha  occ. eigenvalues --  -10.19986 -10.19795 -10.19731 -10.19637 -10.19624
 Alpha  occ. eigenvalues --  -10.19371 -10.19216 -10.19162 -10.19029 -10.18681
 Alpha  occ. eigenvalues --  -10.18461 -10.18316 -10.17048  -1.13433  -1.10374
 Alpha  occ. eigenvalues --   -1.02858  -1.02831  -1.02050  -0.99587  -0.96160
 Alpha  occ. eigenvalues --   -0.94831  -0.93232  -0.89772  -0.82123  -0.81716
 Alpha  occ. eigenvalues --   -0.81356  -0.81268  -0.79546  -0.79002  -0.77248
 Alpha  occ. eigenvalues --   -0.77175  -0.76908  -0.75765  -0.75132  -0.72840
 Alpha  occ. eigenvalues --   -0.71555  -0.70341  -0.69502  -0.68878  -0.67790
 Alpha  occ. eigenvalues --   -0.66938  -0.65948  -0.64651  -0.63049  -0.61524
 Alpha  occ. eigenvalues --   -0.60807  -0.59238  -0.58528  -0.58048  -0.57528
 Alpha  occ. eigenvalues --   -0.55838  -0.54990  -0.53700  -0.53394  -0.53039
 Alpha  occ. eigenvalues --   -0.52554  -0.52035  -0.51258  -0.50912  -0.49451
 Alpha  occ. eigenvalues --   -0.49306  -0.49080  -0.48889  -0.47875  -0.47673
 Alpha  occ. eigenvalues --   -0.47369  -0.46626  -0.46268  -0.45950  -0.45651
 Alpha  occ. eigenvalues --   -0.44845  -0.44830  -0.44468  -0.44152  -0.44031
 Alpha  occ. eigenvalues --   -0.43515  -0.43048  -0.42714  -0.42533  -0.41894
 Alpha  occ. eigenvalues --   -0.41694  -0.41410  -0.41125  -0.40996  -0.40770
 Alpha  occ. eigenvalues --   -0.40596  -0.40337  -0.40194  -0.39981  -0.39849
 Alpha  occ. eigenvalues --   -0.39599  -0.39303  -0.38869  -0.38530  -0.38363
 Alpha  occ. eigenvalues --   -0.37841  -0.37518  -0.37345  -0.37005  -0.36798
 Alpha  occ. eigenvalues --   -0.36033  -0.35389  -0.35243  -0.35039  -0.34684
 Alpha  occ. eigenvalues --   -0.34186  -0.34027  -0.33595  -0.33204  -0.32696
 Alpha  occ. eigenvalues --   -0.32486  -0.32362  -0.31719  -0.29631  -0.29409
 Alpha  occ. eigenvalues --   -0.28651  -0.27778  -0.26365  -0.25477  -0.25277
 Alpha  occ. eigenvalues --   -0.24437  -0.24302  -0.23202  -0.22323  -0.21727
 Alpha  occ. eigenvalues --   -0.17810
 Alpha virt. eigenvalues --   -0.10886  -0.06412  -0.03914  -0.02875  -0.00869
 Alpha virt. eigenvalues --    0.00678   0.01299   0.02921   0.03565   0.03818
 Alpha virt. eigenvalues --    0.04071   0.04374   0.04753   0.05231   0.06583
 Alpha virt. eigenvalues --    0.06868   0.07069   0.07752   0.07842   0.08181
 Alpha virt. eigenvalues --    0.08413   0.08555   0.08746   0.09058   0.09228
 Alpha virt. eigenvalues --    0.09336   0.09883   0.10070   0.10500   0.11102
 Alpha virt. eigenvalues --    0.11846   0.11955   0.12067   0.12214   0.12925
 Alpha virt. eigenvalues --    0.13226   0.13248   0.13740   0.14263   0.14571
 Alpha virt. eigenvalues --    0.14765   0.15061   0.15126   0.15408   0.15605
 Alpha virt. eigenvalues --    0.16358   0.16584   0.17070   0.17486   0.18237
 Alpha virt. eigenvalues --    0.18317   0.18864   0.19334   0.19671   0.20211
 Alpha virt. eigenvalues --    0.20425   0.20907   0.21366   0.21523   0.21766
 Alpha virt. eigenvalues --    0.22522   0.22783   0.23206   0.23305   0.23496
 Alpha virt. eigenvalues --    0.23925   0.24482   0.25568   0.25787   0.25932
 Alpha virt. eigenvalues --    0.26185   0.26656   0.27150   0.27561   0.27950
 Alpha virt. eigenvalues --    0.28776   0.29584   0.30097   0.30739   0.31121
 Alpha virt. eigenvalues --    0.31498   0.32342   0.32747   0.33064   0.33573
 Alpha virt. eigenvalues --    0.33671   0.34170   0.34878   0.35805   0.36246
 Alpha virt. eigenvalues --    0.36672   0.37325   0.37819   0.38282   0.38500
 Alpha virt. eigenvalues --    0.39458   0.39924   0.40339   0.40623   0.40758
 Alpha virt. eigenvalues --    0.40929   0.41290   0.41749   0.42081   0.42520
 Alpha virt. eigenvalues --    0.43105   0.43493   0.43642   0.44068   0.44503
 Alpha virt. eigenvalues --    0.44908   0.45553   0.45710   0.46202   0.46271
 Alpha virt. eigenvalues --    0.46447   0.46775   0.46925   0.47417   0.47442
 Alpha virt. eigenvalues --    0.48277   0.48687   0.49307   0.49512   0.50214
 Alpha virt. eigenvalues --    0.50407   0.50762   0.51030   0.51147   0.51558
 Alpha virt. eigenvalues --    0.51874   0.52054   0.52395   0.52970   0.53438
 Alpha virt. eigenvalues --    0.53842   0.54133   0.54328   0.54509   0.55088
 Alpha virt. eigenvalues --    0.55352   0.55725   0.56062   0.56734   0.56874
 Alpha virt. eigenvalues --    0.57136   0.57501   0.58094   0.58641   0.58901
 Alpha virt. eigenvalues --    0.59049   0.59310   0.59697   0.60037   0.60117
 Alpha virt. eigenvalues --    0.60586   0.60851   0.61253   0.61500   0.61659
 Alpha virt. eigenvalues --    0.62023   0.62106   0.62351   0.62688   0.63286
 Alpha virt. eigenvalues --    0.63374   0.63480   0.63884   0.64058   0.64463
 Alpha virt. eigenvalues --    0.64510   0.64880   0.65033   0.65299   0.65654
 Alpha virt. eigenvalues --    0.65881   0.65968   0.66193   0.66562   0.66835
 Alpha virt. eigenvalues --    0.66884   0.67299   0.67743   0.67923   0.68093
 Alpha virt. eigenvalues --    0.68338   0.68752   0.69014   0.69809   0.70027
 Alpha virt. eigenvalues --    0.70179   0.70371   0.70524   0.70730   0.71228
 Alpha virt. eigenvalues --    0.71349   0.71516   0.72171   0.72543   0.72796
 Alpha virt. eigenvalues --    0.72989   0.73206   0.73667   0.73970   0.74399
 Alpha virt. eigenvalues --    0.74702   0.75202   0.75541   0.75621   0.76000
 Alpha virt. eigenvalues --    0.76444   0.76562   0.76776   0.77391   0.77443
 Alpha virt. eigenvalues --    0.78331   0.78714   0.78810   0.79266   0.79906
 Alpha virt. eigenvalues --    0.80343   0.80780   0.81446   0.81746   0.82454
 Alpha virt. eigenvalues --    0.83017   0.83805   0.84409   0.85506   0.85880
 Alpha virt. eigenvalues --    0.85976   0.86773   0.87324   0.88196   0.88629
 Alpha virt. eigenvalues --    0.89385   0.89926   0.90393   0.90645   0.91898
 Alpha virt. eigenvalues --    0.92150   0.92984   0.93210   0.93518   0.94241
 Alpha virt. eigenvalues --    0.94592   0.95474   0.95873   0.96256   0.96815
 Alpha virt. eigenvalues --    0.97301   0.97517   0.97967   0.99327   0.99722
 Alpha virt. eigenvalues --    1.00930   1.01466   1.02282   1.02537   1.03468
 Alpha virt. eigenvalues --    1.04192   1.04651   1.05341   1.05764   1.06336
 Alpha virt. eigenvalues --    1.08095   1.08854   1.09403   1.10466   1.10859
 Alpha virt. eigenvalues --    1.11250   1.11925   1.12118   1.13771   1.13853
 Alpha virt. eigenvalues --    1.14221   1.14921   1.15466   1.16098   1.16750
 Alpha virt. eigenvalues --    1.17239   1.17998   1.18047   1.18694   1.19993
 Alpha virt. eigenvalues --    1.20334   1.21118   1.21749   1.22040   1.23178
 Alpha virt. eigenvalues --    1.23612   1.24068   1.24750   1.26128   1.26182
 Alpha virt. eigenvalues --    1.26768   1.27681   1.28140   1.28375   1.29493
 Alpha virt. eigenvalues --    1.30228   1.31492   1.32576   1.33695   1.33810
 Alpha virt. eigenvalues --    1.34536   1.35009   1.35701   1.36317   1.36347
 Alpha virt. eigenvalues --    1.37187   1.37841   1.38719   1.38929   1.40005
 Alpha virt. eigenvalues --    1.40829   1.41205   1.41737   1.42216   1.42857
 Alpha virt. eigenvalues --    1.43349   1.43650   1.44928   1.45890   1.46374
 Alpha virt. eigenvalues --    1.47701   1.47770   1.48365   1.49174   1.49542
 Alpha virt. eigenvalues --    1.50764   1.51231   1.51617   1.51698   1.52243
 Alpha virt. eigenvalues --    1.52580   1.53092   1.53265   1.53741   1.54193
 Alpha virt. eigenvalues --    1.54658   1.55183   1.55376   1.56255   1.57420
 Alpha virt. eigenvalues --    1.57470   1.57774   1.58321   1.58726   1.59197
 Alpha virt. eigenvalues --    1.59971   1.60216   1.60621   1.60945   1.61400
 Alpha virt. eigenvalues --    1.61835   1.62675   1.63699   1.64005   1.64914
 Alpha virt. eigenvalues --    1.65149   1.65567   1.66392   1.66769   1.67683
 Alpha virt. eigenvalues --    1.68461   1.68842   1.69338   1.69615   1.69831
 Alpha virt. eigenvalues --    1.69906   1.70708   1.70837   1.71180   1.71777
 Alpha virt. eigenvalues --    1.71974   1.72329   1.72545   1.72927   1.73352
 Alpha virt. eigenvalues --    1.73642   1.74080   1.74700   1.74986   1.75379
 Alpha virt. eigenvalues --    1.75801   1.76062   1.76583   1.76890   1.77582
 Alpha virt. eigenvalues --    1.78046   1.78670   1.79121   1.79687   1.79822
 Alpha virt. eigenvalues --    1.80232   1.80723   1.81299   1.81713   1.82097
 Alpha virt. eigenvalues --    1.82637   1.82877   1.83287   1.83674   1.84503
 Alpha virt. eigenvalues --    1.84822   1.85131   1.85267   1.85479   1.85847
 Alpha virt. eigenvalues --    1.86391   1.86934   1.87365   1.87476   1.87653
 Alpha virt. eigenvalues --    1.87698   1.87972   1.88914   1.89394   1.89859
 Alpha virt. eigenvalues --    1.90280   1.90670   1.91410   1.91789   1.92066
 Alpha virt. eigenvalues --    1.92274   1.92491   1.93755   1.94340   1.94446
 Alpha virt. eigenvalues --    1.94739   1.95306   1.95752   1.96072   1.96122
 Alpha virt. eigenvalues --    1.96796   1.97273   1.97675   1.98482   1.98960
 Alpha virt. eigenvalues --    1.99965   2.00736   2.01467   2.01785   2.02094
 Alpha virt. eigenvalues --    2.02193   2.02507   2.03379   2.03706   2.04581
 Alpha virt. eigenvalues --    2.05018   2.05303   2.05719   2.06258   2.06975
 Alpha virt. eigenvalues --    2.07188   2.08086   2.08765   2.09013   2.09847
 Alpha virt. eigenvalues --    2.10276   2.10770   2.10840   2.11522   2.12062
 Alpha virt. eigenvalues --    2.12556   2.13913   2.14576   2.15077   2.15734
 Alpha virt. eigenvalues --    2.16541   2.17425   2.18306   2.18352   2.18691
 Alpha virt. eigenvalues --    2.18793   2.19313   2.20184   2.20905   2.22024
 Alpha virt. eigenvalues --    2.22706   2.23195   2.23584   2.24261   2.24861
 Alpha virt. eigenvalues --    2.25996   2.26887   2.27119   2.27658   2.28629
 Alpha virt. eigenvalues --    2.29137   2.29990   2.30401   2.31157   2.31283
 Alpha virt. eigenvalues --    2.32182   2.32754   2.33191   2.33829   2.34256
 Alpha virt. eigenvalues --    2.35285   2.35861   2.36260   2.37372   2.37510
 Alpha virt. eigenvalues --    2.38456   2.39800   2.39912   2.40307   2.41404
 Alpha virt. eigenvalues --    2.42688   2.42814   2.43957   2.44447   2.45343
 Alpha virt. eigenvalues --    2.45804   2.45880   2.46525   2.46989   2.47476
 Alpha virt. eigenvalues --    2.49341   2.49615   2.50256   2.50935   2.51115
 Alpha virt. eigenvalues --    2.51762   2.52258   2.52815   2.53891   2.55137
 Alpha virt. eigenvalues --    2.55410   2.56426   2.58063   2.60132   2.60422
 Alpha virt. eigenvalues --    2.60734   2.61664   2.62289   2.62767   2.63358
 Alpha virt. eigenvalues --    2.63713   2.64497   2.64862   2.65050   2.65559
 Alpha virt. eigenvalues --    2.65949   2.67617   2.68103   2.68843   2.69620
 Alpha virt. eigenvalues --    2.70861   2.71444   2.72071   2.73757   2.74064
 Alpha virt. eigenvalues --    2.74810   2.75043   2.75983   2.76432   2.77009
 Alpha virt. eigenvalues --    2.77283   2.77876   2.79044   2.79766   2.79922
 Alpha virt. eigenvalues --    2.80405   2.81855   2.82742   2.82975   2.83144
 Alpha virt. eigenvalues --    2.83448   2.84470   2.85013   2.85833   2.85969
 Alpha virt. eigenvalues --    2.86597   2.86887   2.88689   2.89035   2.89433
 Alpha virt. eigenvalues --    2.89978   2.90175   2.92460   2.92869   2.93288
 Alpha virt. eigenvalues --    2.93715   2.94744   2.95162   2.95739   2.96509
 Alpha virt. eigenvalues --    2.98703   2.98893   2.99946   3.00741   3.02763
 Alpha virt. eigenvalues --    3.03196   3.04401   3.04867   3.05412   3.06818
 Alpha virt. eigenvalues --    3.07127   3.07754   3.09978   3.10751   3.11405
 Alpha virt. eigenvalues --    3.11796   3.12434   3.15133   3.15973   3.16826
 Alpha virt. eigenvalues --    3.17151   3.18393   3.19134   3.19327   3.22023
 Alpha virt. eigenvalues --    3.23089   3.23410   3.24884   3.28106   3.28705
 Alpha virt. eigenvalues --    3.33685   3.37091   3.37913   3.40533   3.41205
 Alpha virt. eigenvalues --    3.48538   3.51692   3.55595   3.58666   3.59606
 Alpha virt. eigenvalues --    3.63195   3.63263   3.71281   3.73764   3.73906
 Alpha virt. eigenvalues --    3.77270
          Condensed to atoms (all electrons):
 Mulliken charges:
               1
     1  O   -0.290758
     2  O   -0.122038
     3  O   -0.174930
     4  O   -0.241524
     5  O   -0.270786
     6  O   -0.198110
     7  N   -0.092273
     8  N   -0.218551
     9  N    0.009882
    10  N   -0.316077
    11  C   -0.087999
    12  C    0.096903
    13  C   -0.183955
    14  C    0.079159
    15  C   -0.103392
    16  C    0.087210
    17  C    0.023731
    18  C   -0.053589
    19  C    0.107810
    20  C   -0.106833
    21  C    0.065304
    22  C    0.107872
    23  C    0.003526
    24  C    0.073502
    25  C   -0.150098
    26  C    0.191181
    27  C    0.044705
    28  C    0.013190
    29  C   -0.050934
    30  C    0.014174
    31  C   -0.129075
    32  C    0.079747
    33  C   -0.144400
    34  C    0.078720
    35  C   -0.151851
    36  C   -0.165853
    37  C    0.134888
    38  C    0.097282
    39  C    0.145387
    40  C    0.045811
    41  C    0.128817
    42  C    0.222210
    43  C   -0.009209
    44  H    0.063542
    45  H   -0.066566
    46  H    0.021486
    47  H   -0.006216
    48  H    0.056497
    49  H    0.041187
    50  H    0.010024
    51  H    0.072666
    52  H    0.206537
    53  H    0.018093
    54  H   -0.019731
    55  H    0.008575
    56  H    0.149270
    57  H    0.026693
    58  H    0.042880
    59  H    0.072671
    60  H    0.072338
    61  H    0.056764
    62  H    0.029453
    63  H    0.046669
    64  H   -0.024258
    65  H   -0.012755
    66  H    0.024087
    67  H    0.022100
    68  H   -0.043356
    69  H    0.065202
    70  H    0.011861
    71  H    0.023734
    72  H    0.009876
    73  H    0.037403
    74  H    0.013928
    75  H    0.028067
    76  H   -0.039403
    77  H    0.019518
    78  H    0.015763
    79  H   -0.002956
    80  H    0.169554
    81  H    0.190026
 Sum of Mulliken charges =  -0.00000
 Mulliken charges with hydrogens summed into heavy atoms:
               1
     1  O   -0.290758
     2  O    0.047516
     3  O    0.015097
     4  O   -0.241524
     5  O   -0.270786
     6  O   -0.198110
     7  N   -0.028732
     8  N   -0.012015
     9  N    0.159152
    10  N   -0.316077
    11  C   -0.087999
    12  C    0.096903
    13  C   -0.183955
    14  C    0.079159
    15  C   -0.103392
    16  C    0.087210
    17  C   -0.042835
    18  C   -0.053589
    19  C    0.123079
    20  C   -0.050336
    21  C    0.065304
    22  C    0.107872
    23  C    0.003526
    24  C    0.124713
    25  C   -0.077432
    26  C    0.198119
    27  C    0.044705
    28  C    0.082763
    29  C    0.094075
    30  C    0.147060
    31  C   -0.153333
    32  C    0.113178
    33  C   -0.187756
    34  C    0.078720
    35  C   -0.151851
    36  C   -0.165853
    37  C    0.134888
    38  C    0.198079
    39  C    0.145387
    40  C    0.093090
    41  C    0.128817
    42  C    0.224803
    43  C    0.023116
 Electronic spatial extent (au):  <R**2>=          30631.4970
 Charge=             -0.0000 electrons
 Dipole moment (field-independent basis, Debye):
    X=             -4.5011    Y=              2.2712    Z=             -0.0416  Tot=              5.0418
 Quadrupole moment (field-independent basis, Debye-Ang):
   XX=           -249.0186   YY=           -241.2678   ZZ=           -254.7285
   XY=             24.6798   XZ=             19.2925   YZ=            -15.1962
 Traceless Quadrupole moment (field-independent basis, Debye-Ang):
   XX=             -0.6803   YY=              7.0705   ZZ=             -6.3902
   XY=             24.6798   XZ=             19.2925   YZ=            -15.1962
 Octapole moment (field-independent basis, Debye-Ang**2):
  XXX=             28.2638  YYY=            166.6677  ZZZ=            -13.2179  XYY=           -251.9511
  XXY=              8.9232  XXZ=            -87.8925  XZZ=            -56.8097  YZZ=            -24.3650
  YYZ=             41.5812  XYZ=            -69.1491
 Hexadecapole moment (field-independent basis, Debye-Ang**3):
 XXXX=         -22165.5659 YYYY=         -16721.9330 ZZZZ=          -1529.3434 XXXY=            975.5087
 XXXZ=            944.8219 YYYX=           1063.2180 YYYZ=           -452.6022 ZZZX=             98.4761
 ZZZY=             30.1357 XXYY=          -6500.0349 XXZZ=          -4003.5189 YYZZ=          -3136.5065
 XXYZ=            -46.0758 YYXZ=            404.7067 ZZXY=            197.1375
 N-N= 5.034940003064D+03 E-N=-1.460157045402D+04  KE= 1.928693475309D+03
 1\1\GINC-PADAWAN\SP\RB3LYP TD-FC\SVP\C33H38N4O6\PADAWAN\03-Jul-2019\0\
 \# td=(NStates=1) B3LYP/SVP\\TD\\0,1\O,0,-4.2805595668,-4.9684012113,1
 .7927032987\O,0,3.0198260113,-5.1414254493,1.0048546228\O,0,7.00496680
 1,-1.6202792976,1.6558482643\O,0,3.5094860061,-3.0631743424,0.12828948
 95\O,0,7.7055700936,-0.3270425994,-0.0926352962\O,0,-2.930958682,2.396
 4376946,-0.3366452259\N,0,-0.262413236,-0.4555697501,-0.4691039233\N,0
 ,1.5310816009,1.8075311856,-0.2941309907\N,0,-3.378429832,-3.239445057
 5,0.8117574943\N,0,-0.8144199377,2.845125662,-0.0543292787\C,0,0.56228
 84931,-2.3193698954,-1.4508673818\C,0,0.9776806704,-1.0638136131,-0.91
 08799369\C,0,-0.787872916,-2.5396223244,-1.2746295257\C,0,-1.305570979
 1,-1.4305133627,-0.5635054805\C,0,3.8190803688,1.5516583323,-0.1731515
 82\C,0,2.5250646123,0.8624080663,-0.5458587709\C,0,2.1825035006,-0.406
 4178997,-0.8347829529\C,0,3.6744280829,2.8650963118,0.0766156519\C,0,1
 .6284942545,-3.249876689,-2.0044777934\C,0,-5.54073298,-2.9073663515,1
 .2241796823\C,0,-3.5797718365,-1.8972947054,0.3319091227\C,0,2.1368880
 009,3.0678067749,0.0467522986\C,0,-4.9999726936,-1.6552344873,0.465230
 567\C,0,5.1713523971,0.7713420511,-0.2997689356\C,0,-2.6551103267,-1.0
 76536209,-0.2778442582\C,0,-1.5795576179,-3.7235021033,-1.7464249593\C
 ,0,-4.3305327217,-3.7694211739,1.391064232\C,0,1.9617873124,-4.4581148
 352,-1.0067999068\C,0,5.4002388263,-0.1752856521,0.8934418914\C,0,4.54
 76908304,4.0112439737,0.4788700873\C,0,1.3011687953,4.1503795883,0.286
 7903996\C,0,-6.7507997306,-3.5799927791,0.595698632\C,0,-5.7741069913,
 -0.5827140554,0.1614433112\C,0,-0.1055284721,4.0753157814,0.1427360855
 \C,0,-0.9802131199,5.2350610398,0.3603244979\C,0,-2.3289023639,4.69904
 14055,0.2139072967\C,0,3.035860168,-4.2018628565,0.0651642056\C,0,-5.4
 921029198,0.583903679,-0.6323847033\C,0,6.8296428433,-0.687024172,0.72
 44733455\C,0,-3.7031178547,5.2208031388,0.2432188326\C,0,-2.1188214337
 ,3.2565206131,-0.0785036202\C,0,-0.6606966608,6.6215678268,0.769255977
 2\C,0,-4.3668662492,5.5950854652,-1.1358226738\H,0,-0.2744490298,0.432
 5201178,-0.1852282625\H,0,3.0008974507,-0.9929074319,-0.9324533327\H,0
 ,2.6508349648,-2.8007016668,-2.3039169388\H,0,1.1827392801,-3.55951006
 19,-2.9287112312\H,0,-5.7626179891,-2.4735059753,2.4262531652\H,0,5.32
 0604573,0.3211514965,-1.3332036677\H,0,5.8420027677,1.6624957777,-0.32
 70662812\H,0,-3.0109573134,0.0337311634,-0.4360740049\H,0,0.4930765383
 ,1.9448543293,-0.7018376293\H,0,-1.4107658124,-4.5651410846,-1.1682963
 394\H,0,-2.4926693779,-3.4413147179,-1.9547836115\H,0,-1.2848636663,-4
 .049492018,-2.8312787172\H,0,-2.3569980861,-3.4771874494,0.9318858538\
 H,0,1.0296037897,-4.641446843,-0.560881478\H,0,2.4248985943,-5.3551396
 209,-1.553570739\H,0,4.8025554885,-1.1315643198,0.8457443105\H,0,5.270
 1413595,0.3815041891,1.9572935325\H,0,4.737824308,4.7996403804,-0.3660
 179736\H,0,5.6428773794,3.7861261458,0.8009858882\H,0,4.0872357562,4.3
 832838005,1.4365193688\H,0,1.6596567443,5.1795171291,0.5314742226\H,0,
 -7.6360851768,-3.0894940329,0.5202732969\H,0,-7.1197960435,-4.53616999
 91,1.0644622866\H,0,-6.4099766947,-3.9982672428,-0.46228414\H,0,-6.677
 9023125,-0.5687577843,0.6323012312\H,0,-4.904769449,1.3517399949,-0.14
 51617775\H,0,-6.5106494423,0.8933384088,-0.9658409002\H,0,-4.835922904
 3,0.3092310853,-1.4765744222\H,0,-3.7537173572,6.0341278179,0.97561443
 79\H,0,-4.3863900772,4.3024325752,0.508626889\H,0,0.0617670322,6.67427
 79932,1.5647563172\H,0,-1.6328593962,7.2162750822,0.8501043621\H,0,-0.
 1762484568,7.0758498707,0.0567366308\H,0,-3.718879795,6.3626938951,-1.
 9423084333\H,0,-5.4291456218,5.8359067068,-1.1676966469\H,0,-4.3730807
 85,4.7019003603,-1.6507245805\H,0,3.6715755581,-4.7345196645,1.5822590
 083\H,0,7.9839564202,-1.8492943184,1.5101884018\\Version=ES64L-G16RevA
 .03\State=1-A\HF=-1949.0864943\RMSD=7.699e-09\PG=C01 [X(C33H38N4O6)]\\
 @


 THERE IS NO CURE FOR BIRTH AND DEATH SAVE TO ENJOY THE INTERVAL.

                               -- GEORGE SANTAYANA
 Job cpu time:       0 days  3 hours 46 minutes 39.5 seconds.
 Elapsed time:       0 days  2 hours 31 minutes 27.7 seconds.
 File lengths (MBytes):  RWF=   2591 Int=      0 D2E=      0 Chk=     65 Scr=      1
 Normal termination of Gaussian 16 at Wed Jul  3 06:16:45 2019.
