 Entering Gaussian System, Link 0=g16
 Input=Geometria-474-.com
 Output=Geometria-474-.log
 Initial command:
 /usr/local/g09/l1.exe "/home/padawan/israel-mol/chlorophyll-b/spectra/emi/Gau-20996.inp" -scrdir="/home/padawan/israel-mol/chlorophyll-b/spectra/emi/"
 Entering Link 1 = /usr/local/g09/l1.exe PID=     20998.
  
 Copyright (c) 1988,1990,1992,1993,1995,1998,2003,2009,2013,
            Gaussian, Inc.  All Rights Reserved.
  
 This is part of the Gaussian(R) 09 program.  It is based on
 the Gaussian(R) 03 system (copyright 2003, Gaussian, Inc.),
 the Gaussian(R) 98 system (copyright 1998, Gaussian, Inc.),
 the Gaussian(R) 94 system (copyright 1995, Gaussian, Inc.),
 the Gaussian 92(TM) system (copyright 1992, Gaussian, Inc.),
 the Gaussian 90(TM) system (copyright 1990, Gaussian, Inc.),
 the Gaussian 88(TM) system (copyright 1988, Gaussian, Inc.),
 the Gaussian 86(TM) system (copyright 1986, Carnegie Mellon
 University), and the Gaussian 82(TM) system (copyright 1983,
 Carnegie Mellon University). Gaussian is a federally registered
 trademark of Gaussian, Inc.
  
 This software contains proprietary and confidential information,
 including trade secrets, belonging to Gaussian, Inc.
  
 This software is provided under written license and may be
 used, copied, transmitted, or stored only in accord with that
 written license.
  
 The following legend is applicable only to US Government
 contracts under FAR:
  
                    RESTRICTED RIGHTS LEGEND
  
 Use, reproduction and disclosure by the US Government is
 subject to restrictions as set forth in subparagraphs (a)
 and (c) of the Commercial Computer Software - Restricted
 Rights clause in FAR 52.227-19.
  
 Gaussian, Inc.
 340 Quinnipiac St., Bldg. 40, Wallingford CT 06492
  
  
 ---------------------------------------------------------------
 Warning -- This program may not be used in any manner that
 competes with the business of Gaussian, Inc. or will provide
 assistance to any competitor of Gaussian, Inc.  The licensee
 of this program is prohibited from giving any competitor of
 Gaussian, Inc. access to this program.  By using this program,
 the user acknowledges that Gaussian, Inc. is engaged in the
 business of creating and licensing software in the field of
 computational chemistry and represents and warrants to the
 licensee that it is not a competitor of Gaussian, Inc. and that
 it will not use this program in any manner prohibited above.
 ---------------------------------------------------------------
  

 Cite this work as:
 Gaussian 09, Revision D.01,
 M. J. Frisch, G. W. Trucks, H. B. Schlegel, G. E. Scuseria, 
 M. A. Robb, J. R. Cheeseman, G. Scalmani, V. Barone, B. Mennucci, 
 G. A. Petersson, H. Nakatsuji, M. Caricato, X. Li, H. P. Hratchian, 
 A. F. Izmaylov, J. Bloino, G. Zheng, J. L. Sonnenberg, M. Hada, 
 M. Ehara, K. Toyota, R. Fukuda, J. Hasegawa, M. Ishida, T. Nakajima, 
 Y. Honda, O. Kitao, H. Nakai, T. Vreven, J. A. Montgomery, Jr., 
 J. E. Peralta, F. Ogliaro, M. Bearpark, J. J. Heyd, E. Brothers, 
 K. N. Kudin, V. N. Staroverov, T. Keith, R. Kobayashi, J. Normand, 
 K. Raghavachari, A. Rendell, J. C. Burant, S. S. Iyengar, J. Tomasi, 
 M. Cossi, N. Rega, J. M. Millam, M. Klene, J. E. Knox, J. B. Cross, 
 V. Bakken, C. Adamo, J. Jaramillo, R. Gomperts, R. E. Stratmann, 
 O. Yazyev, A. J. Austin, R. Cammi, C. Pomelli, J. W. Ochterski, 
 R. L. Martin, K. Morokuma, V. G. Zakrzewski, G. A. Voth, 
 P. Salvador, J. J. Dannenberg, S. Dapprich, A. D. Daniels, 
 O. Farkas, J. B. Foresman, J. V. Ortiz, J. Cioslowski, 
 and D. J. Fox, Gaussian, Inc., Wallingford CT, 2013.
 
 ******************************************
 Gaussian 09:  ES64L-G09RevD.01 24-Apr-2013
                 9-Oct-2019 
 ******************************************
 %nproc=3
 Will use up to    3 processors via shared memory.
 %Mem=2GB
 ----------------------------------------------------------------------
 # td=(NStates=1) iop(3/107=0140000000,3/108=0140000000) iop(3/107=0140
 000000,3/108=0140000000) CAM-B3LYP/6-31G(d,p)
 ----------------------------------------------------------------------
 1/38=1/1;
 2/12=2,17=6,18=5,40=1/2;
 3/5=1,6=6,7=101,11=9,16=1,25=1,30=1,74=-40,107=140000000,108=140000000/1,2,8,3;
 4//1;
 5/5=2,38=5/2;
 8/6=1,10=2,108=1/1;
 9/41=1,42=1,70=2/14;
 6/7=2,8=2,9=2,10=2/1;
 99/5=1,9=1/99;
 --
 TD
 --
 Symbolic Z-matrix:
 Charge =  0 Multiplicity = 1
 12                   -5.64602   1.23043   0.18062 
 6                    -5.02628  -2.15811  -0.34695 
 6                    -3.5131    1.20124   2.79105 
 6                    -6.2676    4.53365   0.64782 
 6                    -7.95156   1.15665  -2.38181 
 7                    -4.43176  -0.24541   0.98934 
 6                    -4.22601  -1.61574   0.67332 
 6                    -3.16394  -2.29092   1.40971 
 6                    -2.91127  -1.36339   2.63873 
 6                    -3.67136  -0.06255   2.12405 
 6                    -3.44653  -1.84709   3.99363 
 6                    -2.01035  -2.68555   0.58322 
 6                    -0.99272  -3.43612   1.40578 
 6                     0.21693  -3.91115   0.65198 
 8                     0.56084  -3.52583  -0.48752 
 8                     0.98287  -4.7632    1.365 
 7                    -4.89885   2.66387   1.46495 
 6                    -3.99046   2.42853   2.53616 
 6                    -3.87043   3.65931   3.30493 
 6                    -4.56274   4.59125   2.62495 
 6                    -5.26925   3.95999   1.52902 
 6                    -2.92548   3.85597   4.48583 
 6                    -4.69261   5.99096   2.96558 
 8                    -4.1287    6.622     3.93969 
 7                    -6.76945   2.5523   -0.79171 
 6                    -6.94876   3.91952  -0.40105 
 6                    -7.84582   4.56461  -1.27246 
 6                    -8.41902   3.68442  -2.04323 
 6                    -7.653     2.44473  -1.79685 
 6                    -8.16869   6.05204  -1.15388 
 6                    -9.48726   3.89069  -3.17271 
 6                    -8.74026   4.00178  -4.54837 
 7                    -6.30304  -0.10528  -1.1359 
 6                    -7.27949  -0.01423  -2.18353 
 6                    -7.53115  -1.29147  -2.77981 
 6                    -6.65025  -2.08433  -2.07109 
 6                    -5.95264  -1.30884  -1.08088 
 6                    -8.50991  -1.65103  -3.85021 
 6                    -6.22935  -3.44974  -2.03976 
 8                    -6.52633  -4.41056  -2.70014 
 6                    -5.01845  -3.57907  -0.87655 
 6                    -5.22041  -4.60875   0.06722 
 8                    -5.70045  -4.45101   1.15548 
 8                    -4.78886  -5.92235  -0.36961 
 6                    -5.24734  -6.97049   0.40453 
 6                     2.25029  -5.16635   0.74421 
 6                     3.34255  -4.2038    1.16387 
 6                     4.00027  -3.40905   0.37713 
 6                     3.71081  -3.22505  -1.11866 
 6                     5.25924  -2.50792   0.84967 
 6                     6.55756  -2.79275   0.11656 
 6                     7.62358  -1.87876   0.67982 
 6                     8.92748  -2.04467  -0.05191 
 6                     9.55269  -3.42894   0.20034 
 6                     9.90048  -0.82586   0.43661 
 6                     11.22298  -0.84413  -0.40138 
 6                     12.15005   0.40442   0.02134 
 6                     13.51415   0.50089  -0.66114 
 6                     14.40138  -0.71002  -0.38357 
 6                     14.18514   1.88484  -0.26419 
 6                     15.5178   2.1767   -1.01487 
 6                     16.09545   3.57133  -0.6777 
 6                     17.38023   3.95987  -1.3967 
 6                     17.15909   3.90609  -3.03693 
 6                     17.89684   5.21625  -0.89762 
 1                    -2.9994    1.16531   3.72099 
 1                    -6.49093   5.6558    0.90647 
 1                    -8.87313   1.24756  -3.09198 
 1                    -3.64108  -3.1003    1.83483 
 1                    -1.91753  -1.1332    2.52712 
 1                    -2.78604  -2.78335   4.41743 
 1                    -3.30884  -0.97098   4.89666 
 1                    -4.62557  -2.06711   4.13454 
 1                    -2.45386  -3.36668  -0.20715 
 1                    -1.51856  -1.79936   0.06941 
 1                    -0.59353  -2.91685   2.29758 
 1                    -1.5464   -4.32172   1.71257 
 1                    -1.91684   3.67612   4.30799 
 1                    -3.17042   4.78037   4.97063 
 1                    -3.26605   3.01938   5.16992 
 1                    -5.35985   6.61021   2.26964 
 1                    -10.08662   2.97724  -3.2378 
 1                    -10.0215   4.79366  -3.06377 
 1                    -9.52623   4.34392  -5.16579 
 1                    -7.94233   4.81885  -4.49847 
 1                    -8.27199   3.10875  -4.76135 
 1                    -8.39275  -1.05933  -4.7407 
 1                    -8.57418  -2.79479  -3.98306 
 1                    -9.65531  -1.49854  -3.47972 
 1                    -4.21458  -3.74875  -1.47382 
 1                     2.4903   -6.21257   0.9597 
 1                     2.34315  -5.03338  -0.39654 
 1                     3.7558   -4.15985   2.31285 
 1                     2.68909  -3.44281  -1.11423 
 1                     3.7651   -2.08031  -1.16326 
 1                     4.23577  -3.94721  -1.73131 
 1                     5.21576  -1.28563   0.84058 
 1                     5.49803  -2.75057   1.94933 
 1                     6.90738  -3.86552   0.41613 
 1                     6.57302  -2.63903  -1.09937 
 1                     7.2696   -0.8954    0.66637 
 1                     7.77293  -2.12276   1.84114 
 1                     8.76845  -1.85044  -1.11781 
 1                     8.90116  -4.10241  -0.12313 
 1                     10.29303  -3.56508  -0.3933 
 1                     10.06915  -3.70665   1.25479 
 1                     9.42397   0.14671   0.34512 
 1                     10.18436  -1.10831   1.52132 
 1                     11.79619  -1.76466  -0.38185 
 1                     10.88704  -0.77956  -1.42439 
 1                     11.45435   1.41539  -0.2328 
 1                     12.17635   0.40707   1.26819 
 1                     13.50603   0.42989  -1.65399 
 1                     14.24405  -0.93008   0.59544 
 1                     13.95132  -1.66189  -0.82224 
 1                     15.53826  -0.67787  -0.6405 
 1                     13.48579   2.75686  -0.39287 
 1                     14.39426   1.72473   0.90984 
 1                     16.31299   1.34029  -1.02323 
 1                     15.38122   2.21912  -2.09362 
 1                     15.28771   4.42703  -0.97029 
 1                     16.0671   3.71772   0.28417 
 1                     17.98247   3.04038  -1.19479 
 1                     16.41586   4.7523   -3.26394 
 1                     18.04494   4.16073  -3.65199 
 1                     16.85942   2.97647  -3.38183 
 1                     17.95832   5.29991   0.10864 
 1                     18.81251   5.46502  -1.29926 
 1                     17.22795   6.05244  -1.30741 
 1                    -5.08935  -8.19661  -0.06824 
 1                    -6.26238  -6.83146   0.49118 
 1                    -4.60952  -7.05117   1.31625 
 8                    -7.76926   6.86681  -0.43301 
 1                    -8.98424   6.20725  -1.93349 
 
 Stoichiometry    C54H68MgN4O7
 Framework group  C1[X(C54H68MgN4O7)]
 Deg. of freedom   396
 Full point group                 C1      NOp   1
 Largest Abelian subgroup         C1      NOp   1
 Largest concise Abelian subgroup C1      NOp   1
                         Standard orientation:                         
 ---------------------------------------------------------------------
 Center     Atomic      Atomic             Coordinates (Angstroms)
 Number     Number       Type             X           Y           Z
 ---------------------------------------------------------------------
      1         12           0       -5.646782    1.220181    0.172676
      2          6           0       -5.019944   -2.164661   -0.370047
      3          6           0       -3.519794    1.181891    2.787823
      4          6           0       -6.275178    4.519992    0.654606
      5          6           0       -7.946317    1.154969   -2.395375
      6          7           0       -4.431809   -0.257505    0.976947
      7          6           0       -4.222950   -1.625915    0.654700
      8          6           0       -3.161394   -2.302854    1.390208
      9          6           0       -2.913148   -1.380917    2.624335
     10          6           0       -3.674330   -0.078886    2.114286
     11          6           0       -3.450666   -1.872177    3.975615
     12          6           0       -2.005230   -2.691439    0.564454
     13          6           0       -0.988181   -3.444265    1.385667
     14          6           0        0.224010   -3.913502    0.632330
     15          8           0        0.569857   -3.522017   -0.504480
     16          8           0        0.989800   -4.767714    1.342927
     17          7           0       -4.905045    2.648596    1.465721
     18          6           0       -3.998705    2.409586    2.537845
     19          6           0       -3.882570    3.636787    3.312904
     20          6           0       -4.574948    4.570850    2.635905
     21          6           0       -5.277844    3.943748    1.535279
     22          6           0       -2.940672    3.829300    4.496923
     23          6           0       -4.708032    5.968649    2.983086
     24          8           0       -4.147444    6.595882    3.961561
     25          7           0       -6.770281    2.544854   -0.795752
     26          6           0       -6.952861    3.909831   -0.398814
     27          6           0       -7.849049    4.557625   -1.269116
     28          6           0       -8.418957    3.680232   -2.045498
     29          6           0       -7.651341    2.440681   -1.803435
     30          6           0       -8.174777    6.043895   -1.143996
     31          6           0       -9.484958    3.890187   -3.176406
     32          6           0       -8.735015    4.009307   -4.549785
     33          7           0       -6.298459   -0.110197   -1.151876
     34          6           0       -7.272672   -0.015711   -2.201287
     35          6           0       -7.520739   -1.290450   -2.804385
     36          6           0       -6.640089   -2.085246   -2.097528
     37          6           0       -5.946099   -1.313413   -1.101935
     38          6           0       -8.496420   -1.646454   -3.878771
     39          6           0       -6.216882   -3.450065   -2.071918
     40          8           0       -6.510678   -4.408143   -2.737674
     41          6           0       -5.008429   -3.582993   -0.906582
     42          6           0       -5.210753   -4.617628    0.031679
     43          8           0       -5.693560   -4.466056    1.119591
     44          8           0       -4.775919   -5.928325   -0.410588
     45          6           0       -5.234344   -6.981040    0.357357
     46          6           0        2.259339   -5.165628    0.723083
     47          6           0        3.348955   -4.203258    1.149952
     48          6           0        4.007091   -3.403527    0.368626
     49          6           0        3.720731   -3.212697   -1.126906
     50          6           0        5.263408   -2.502541    0.848457
     51          6           0        6.563896   -2.781541    0.116950
     52          6           0        7.627033   -1.868475    0.687123
     53          6           0        8.932890   -2.028545   -0.042418
     54          6           0        9.559930   -3.412953    0.204494
     55          6           0        9.902642   -0.810465    0.454299
     56          6           0       11.227086   -0.822338   -0.380729
     57          6           0       12.151019    0.425724    0.050223
     58          6           0       13.516505    0.527894   -0.628641
     59          6           0       14.405201   -0.682827   -0.354964
     60          6           0       14.184174    1.911045   -0.223391
     61          6           0       15.518041    2.208878   -0.969565
     62          6           0       16.092488    3.602836   -0.624248
     63          6           0       17.378235    3.997120   -1.338388
     64          6           0       17.160945    3.950984   -2.979360
     65          6           0       17.891516    5.251926   -0.831979
     66          1           0       -3.008154    1.142295    3.718752
     67          1           0       -6.501049    5.640474    0.918235
     68          1           0       -8.866423    1.247758   -3.107208
     69          1           0       -3.638100   -3.115134    1.810268
     70          1           0       -1.919565   -1.148470    2.516139
     71          1           0       -2.789520   -2.809362    4.396347
     72          1           0       -3.316568   -1.000262    4.883234
     73          1           0       -4.629648   -2.094926    4.112738
     74          1           0       -2.445751   -3.369452   -0.230258
     75          1           0       -1.513815   -1.801890    0.056114
     76          1           0       -0.591943   -2.928683    2.280912
     77          1           0       -1.541027   -4.332313    1.686843
     78          1           0       -1.931315    3.652067    4.320522
     79          1           0       -3.188332    4.750884    4.985678
     80          1           0       -3.281345    2.988774    5.176127
     81          1           0       -5.374753    6.590146    2.288652
     82          1           0      -10.082584    2.976037   -3.247347
     83          1           0      -10.021020    4.791685   -3.064274
     84          1           0       -9.520160    4.353109   -5.167331
     85          1           0       -7.938619    4.827504   -4.494056
     86          1           0       -8.264700    3.118136   -4.766059
     87          1           0       -8.378253   -1.050192   -4.766091
     88          1           0       -8.558397   -2.789651   -4.017367
     89          1           0       -9.642931   -1.497753   -3.510177
     90          1           0       -4.202902   -3.748357   -1.502826
     91          1           0        2.500670   -6.212471    0.934003
     92          1           0        2.354573   -5.026911   -0.416784
     93          1           0        3.759502   -4.164216    2.300081
     94          1           0        2.699384   -3.432243   -1.125893
     95          1           0        3.773139   -2.067668   -1.165783
     96          1           0        4.248347   -3.930940   -1.741881
     97          1           0        5.217817   -1.280307    0.845257
     98          1           0        5.500105   -2.750166    1.947464
     99          1           0        6.914895   -3.855156    0.412068
    100          1           0        6.581866   -2.621832   -1.098176
    101          1           0        7.271371   -0.885671    0.677667
    102          1           0        7.774145   -2.117903    1.847575
    103          1           0        8.775963   -1.829374   -1.107715
    104          1           0        8.910315   -4.085953   -0.123771
    105          1           0       10.301862   -3.544901   -0.388103
    106          1           0       10.074460   -3.694926    1.258749
    107          1           0        9.424659    0.161722    0.366478
    108          1           0       10.184533   -1.097730    1.538264
    109          1           0       11.801856   -1.741967   -0.364390
    110          1           0       10.893384   -0.753341   -1.404187
    111          1           0       11.454137    1.436728   -0.200566
    112          1           0       12.174458    0.422315    1.297121
    113          1           0       13.510781    0.461743   -1.621848
    114          1           0       14.246021   -0.907945    0.622593
    115          1           0       13.957800   -1.633311   -0.799323
    116          1           0       15.542614   -0.647452   -0.609123
    117          1           0       13.483603    2.782475   -0.349402
    118          1           0       14.390884    1.745543    0.950323
    119          1           0       16.314701    1.373895   -0.980195
    120          1           0       15.383857    2.256346   -2.048410
    121          1           0       15.283933    4.458558   -0.914500
    122          1           0       16.061680    3.744462    0.338259
    123          1           0       17.981606    3.077687   -1.139601
    124          1           0       16.416759    4.797016   -3.203936
    125          1           0       18.047747    4.210171   -3.591137
    126          1           0       16.863678    3.022554   -3.329496
    127          1           0       17.950549    5.330763    0.174817
    128          1           0       18.807664    5.504246   -1.230295
    129          1           0       17.222104    6.088955   -1.239205
    130          1           0       -5.073138   -8.204554   -0.121044
    131          1           0       -6.249818   -6.844193    0.442356
    132          1           0       -4.598477   -7.065086    1.270139
    133          8           0       -7.778416    6.855814   -0.418231
    134          1           0       -8.988812    6.201514   -1.924712
 ---------------------------------------------------------------------
 Rotational constants (GHZ):      0.0342234      0.0081088      0.0071715
 Standard basis: 6-31G(d,p) (6D, 7F)
 There are  1334 symmetry adapted cartesian basis functions of A   symmetry.
 There are  1334 symmetry adapted basis functions of A   symmetry.
  1334 basis functions,  2348 primitive gaussians,  1334 cartesian basis functions
   244 alpha electrons      244 beta electrons
       nuclear repulsion energy      9118.8655942042 Hartrees.
 NAtoms=  134 NActive=  134 NUniq=  134 SFac= 1.00D+00 NAtFMM=   60 NAOKFM=T Big=T
 Integral buffers will be    131072 words long.
 Raffenetti 1 integral format.
 Two-electron integral symmetry is turned on.
 One-electron integrals computed using PRISM.
 NBasis=  1334 RedAO= T EigKep=  2.93D-04  NBF=  1334
 NBsUse=  1334 1.00D-06 EigRej= -1.00D+00 NBFU=  1334
 ExpMin= 4.21D-02 ExpMax= 1.17D+04 ExpMxC= 1.76D+03 IAcc=2 IRadAn=         4 AccDes= 0.00D+00
 Harris functional with IExCor=20419 and IRadAn=       4 diagonalized for initial guess.
 HarFok:  IExCor=20419 AccDes= 0.00D+00 IRadAn=         4 IDoV= 1 UseB2=F ITyADJ=14
 ICtDFT=  3500011 ScaDFX=  1.000000  1.000000  1.000000  1.000000
 FoFCou: FMM=F IPFlag=           0 FMFlag=      100000 FMFlg1=        2001
         NFxFlg=           0 DoJE=T BraDBF=F KetDBF=T FulRan=T
         wScrn=  0.000000 ICntrl=     500 IOpCl=  0 I1Cent=   200000004 NGrid=           0
         NMat0=    1 NMatS0=      1 NMatT0=    0 NMatD0=    1 NMtDS0=    0 NMtDT0=    0
 Petite list used in FoFCou.
 Requested convergence on RMS density matrix=1.00D-08 within 128 cycles.
 Requested convergence on MAX density matrix=1.00D-06.
 Requested convergence on             energy=1.00D-06.
 No special actions if energy rises.
 SCF Done:  E(RCAM-B3LYP) =  -3043.48407107     A.U. after   16 cycles
            NFock= 16  Conv=0.45D-08     -V/T= 2.0090
 DoSCS=F DFT=T ScalE2(SS,OS)=  1.000000  1.000000
 ExpMin= 4.21D-02 ExpMax= 1.17D+04 ExpMxC= 1.76D+03 IAcc=3 IRadAn=         5 AccDes= 0.00D+00
 HarFok:  IExCor=  205 AccDes= 0.00D+00 IRadAn=         5 IDoV=-2 UseB2=F ITyADJ=14
 ICtDFT= 12500011 ScaDFX=  1.000000  1.000000  1.000000  1.000000
 Range of M.O.s used for correlation:    71  1334
 NBasis=  1334 NAE=   244 NBE=   244 NFC=    70 NFV=     0
 NROrb=   1264 NOA=   174 NOB=   174 NVA=  1090 NVB=  1090
 Would need an additional       2379600800000 words for in-memory AO integral storage.
 Orbital symmetries:
       Occupied  (A) (A) (A) (A) (A) (A) (A) (A) (A) (A) (A) (A)
                 (A) (A) (A) (A) (A) (A) (A) (A) (A) (A) (A) (A)
                 (A) (A) (A) (A) (A) (A) (A) (A) (A) (A) (A) (A)
                 (A) (A) (A) (A) (A) (A) (A) (A) (A) (A) (A) (A)
                 (A) (A) (A) (A) (A) (A) (A) (A) (A) (A) (A) (A)
                 (A) (A) (A) (A) (A) (A) (A) (A) (A) (A) (A) (A)
                 (A) (A) (A) (A) (A) (A) (A) (A) (A) (A) (A) (A)
                 (A) (A) (A) (A) (A) (A) (A) (A) (A) (A) (A) (A)
                 (A) (A) (A) (A) (A) (A) (A) (A) (A) (A) (A) (A)
                 (A) (A) (A) (A) (A) (A) (A) (A) (A) (A) (A) (A)
                 (A) (A) (A) (A) (A) (A) (A) (A) (A) (A) (A) (A)
                 (A) (A) (A) (A) (A) (A) (A) (A) (A) (A) (A) (A)
                 (A) (A) (A) (A) (A) (A) (A) (A) (A) (A) (A) (A)
                 (A) (A) (A) (A) (A) (A) (A) (A) (A) (A) (A) (A)
                 (A) (A) (A) (A) (A) (A) (A) (A) (A) (A) (A) (A)
                 (A) (A) (A) (A) (A) (A) (A) (A) (A) (A) (A) (A)
                 (A) (A) (A) (A) (A) (A) (A) (A) (A) (A) (A) (A)
                 (A) (A) (A) (A) (A) (A) (A) (A) (A) (A) (A) (A)
                 (A) (A) (A) (A) (A) (A) (A) (A) (A) (A) (A) (A)
                 (A) (A) (A) (A) (A) (A) (A) (A) (A) (A) (A) (A)
                 (A) (A) (A) (A)
       Virtual   (A) (A) (A) (A) (A) (A) (A) (A) (A) (A) (A) (A)
                 (A) (A) (A) (A) (A) (A) (A) (A) (A) (A) (A) (A)
                 (A) (A) (A) (A) (A) (A) (A) (A) (A) (A) (A) (A)
                 (A) (A) (A) (A) (A) (A) (A) (A) (A) (A) (A) (A)
                 (A) (A) (A) (A) (A) (A) (A) (A) (A) (A) (A) (A)
                 (A) (A) (A) (A) (A) (A) (A) (A) (A) (A) (A) (A)
                 (A) (A) (A) (A) (A) (A) (A) (A) (A) (A) (A) (A)
                 (A) (A) (A) (A) (A) (A) (A) (A) (A) (A) (A) (A)
                 (A) (A) (A) (A) (A) (A) (A) (A) (A) (A) (A) (A)
                 (A) (A) (A) (A) (A) (A) (A) (A) (A) (A) (A) (A)
                 (A) (A) (A) (A) (A) (A) (A) (A) (A) (A) (A) (A)
                 (A) (A) (A) (A) (A) (A) (A) (A) (A) (A) (A) (A)
                 (A) (A) (A) (A) (A) (A) (A) (A) (A) (A) (A) (A)
                 (A) (A) (A) (A) (A) (A) (A) (A) (A) (A) (A) (A)
                 (A) (A) (A) (A) (A) (A) (A) (A) (A) (A) (A) (A)
                 (A) (A) (A) (A) (A) (A) (A) (A) (A) (A) (A) (A)
                 (A) (A) (A) (A) (A) (A) (A) (A) (A) (A) (A) (A)
                 (A) (A) (A) (A) (A) (A) (A) (A) (A) (A) (A) (A)
                 (A) (A) (A) (A) (A) (A) (A) (A) (A) (A) (A) (A)
                 (A) (A) (A) (A) (A) (A) (A) (A) (A) (A) (A) (A)
                 (A) (A) (A) (A) (A) (A) (A) (A) (A) (A) (A) (A)
                 (A) (A) (A) (A) (A) (A) (A) (A) (A) (A) (A) (A)
                 (A) (A) (A) (A) (A) (A) (A) (A) (A) (A) (A) (A)
                 (A) (A) (A) (A) (A) (A) (A) (A) (A) (A) (A) (A)
                 (A) (A) (A) (A) (A) (A) (A) (A) (A) (A) (A) (A)
                 (A) (A) (A) (A) (A) (A) (A) (A) (A) (A) (A) (A)
                 (A) (A) (A) (A) (A) (A) (A) (A) (A) (A) (A) (A)
                 (A) (A) (A) (A) (A) (A) (A) (A) (A) (A) (A) (A)
                 (A) (A) (A) (A) (A) (A) (A) (A) (A) (A) (A) (A)
                 (A) (A) (A) (A) (A) (A) (A) (A) (A) (A) (A) (A)
                 (A) (A) (A) (A) (A) (A) (A) (A) (A) (A) (A) (A)
                 (A) (A) (A) (A) (A) (A) (A) (A) (A) (A) (A) (A)
                 (A) (A) (A) (A) (A) (A) (A) (A) (A) (A) (A) (A)
                 (A) (A) (A) (A) (A) (A) (A) (A) (A) (A) (A) (A)
                 (A) (A) (A) (A) (A) (A) (A) (A) (A) (A) (A) (A)
                 (A) (A) (A) (A) (A) (A) (A) (A) (A) (A) (A) (A)
                 (A) (A) (A) (A) (A) (A) (A) (A) (A) (A) (A) (A)
                 (A) (A) (A) (A) (A) (A) (A) (A) (A) (A) (A) (A)
                 (A) (A) (A) (A) (A) (A) (A) (A) (A) (A) (A) (A)
                 (A) (A) (A) (A) (A) (A) (A) (A) (A) (A) (A) (A)
                 (A) (A) (A) (A) (A) (A) (A) (A) (A) (A) (A) (A)
                 (A) (A) (A) (A) (A) (A) (A) (A) (A) (A) (A) (A)
                 (A) (A) (A) (A) (A) (A) (A) (A) (A) (A) (A) (A)
                 (A) (A) (A) (A) (A) (A) (A) (A) (A) (A) (A) (A)
                 (A) (A) (A) (A) (A) (A) (A) (A) (A) (A) (A) (A)
                 (A) (A) (A) (A) (A) (A) (A) (A) (A) (A) (A) (A)
                 (A) (A) (A) (A) (A) (A) (A) (A) (A) (A) (A) (A)
                 (A) (A) (A) (A) (A) (A) (A) (A) (A) (A) (A) (A)
                 (A) (A) (A) (A) (A) (A) (A) (A) (A) (A) (A) (A)
                 (A) (A) (A) (A) (A) (A) (A) (A) (A) (A) (A) (A)
                 (A) (A) (A) (A) (A) (A) (A) (A) (A) (A) (A) (A)
                 (A) (A) (A) (A) (A) (A) (A) (A) (A) (A) (A) (A)
                 (A) (A) (A) (A) (A) (A) (A) (A) (A) (A) (A) (A)
                 (A) (A) (A) (A) (A) (A) (A) (A) (A) (A) (A) (A)
                 (A) (A) (A) (A) (A) (A) (A) (A) (A) (A) (A) (A)
                 (A) (A) (A) (A) (A) (A) (A) (A) (A) (A) (A) (A)
                 (A) (A) (A) (A) (A) (A) (A) (A) (A) (A) (A) (A)
                 (A) (A) (A) (A) (A) (A) (A) (A) (A) (A) (A) (A)
                 (A) (A) (A) (A) (A) (A) (A) (A) (A) (A) (A) (A)
                 (A) (A) (A) (A) (A) (A) (A) (A) (A) (A) (A) (A)
                 (A) (A) (A) (A) (A) (A) (A) (A) (A) (A) (A) (A)
                 (A) (A) (A) (A) (A) (A) (A) (A) (A) (A) (A) (A)
                 (A) (A) (A) (A) (A) (A) (A) (A) (A) (A) (A) (A)
                 (A) (A) (A) (A) (A) (A) (A) (A) (A) (A) (A) (A)
                 (A) (A) (A) (A) (A) (A) (A) (A) (A) (A) (A) (A)
                 (A) (A) (A) (A) (A) (A) (A) (A) (A) (A) (A) (A)
                 (A) (A) (A) (A) (A) (A) (A) (A) (A) (A) (A) (A)
                 (A) (A) (A) (A) (A) (A) (A) (A) (A) (A) (A) (A)
                 (A) (A) (A) (A) (A) (A) (A) (A) (A) (A) (A) (A)
                 (A) (A) (A) (A) (A) (A) (A) (A) (A) (A) (A) (A)
                 (A) (A) (A) (A) (A) (A) (A) (A) (A) (A) (A) (A)
                 (A) (A) (A) (A) (A) (A) (A) (A) (A) (A) (A) (A)
                 (A) (A) (A) (A) (A) (A) (A) (A) (A) (A) (A) (A)
                 (A) (A) (A) (A) (A) (A) (A) (A) (A) (A) (A) (A)
                 (A) (A) (A) (A) (A) (A) (A) (A) (A) (A) (A) (A)
                 (A) (A) (A) (A) (A) (A) (A) (A) (A) (A) (A) (A)
                 (A) (A) (A) (A) (A) (A) (A) (A) (A) (A) (A) (A)
                 (A) (A) (A) (A) (A) (A) (A) (A) (A) (A) (A) (A)
                 (A) (A) (A) (A) (A) (A) (A) (A) (A) (A) (A) (A)
                 (A) (A) (A) (A) (A) (A) (A) (A) (A) (A) (A) (A)
                 (A) (A) (A) (A) (A) (A) (A) (A) (A) (A) (A) (A)
                 (A) (A) (A) (A) (A) (A) (A) (A) (A) (A) (A) (A)
                 (A) (A) (A) (A) (A) (A) (A) (A) (A) (A) (A) (A)
                 (A) (A) (A) (A) (A) (A) (A) (A) (A) (A) (A) (A)
                 (A) (A) (A) (A) (A) (A) (A) (A) (A) (A) (A) (A)
                 (A) (A) (A) (A) (A) (A) (A) (A) (A) (A) (A) (A)
                 (A) (A) (A) (A) (A) (A) (A) (A) (A) (A) (A) (A)
                 (A) (A) (A) (A) (A) (A) (A) (A) (A) (A) (A) (A)
                 (A) (A) (A) (A) (A) (A) (A) (A) (A) (A) (A) (A)
                 (A) (A) (A) (A) (A) (A) (A) (A) (A) (A) (A) (A)
                 (A) (A) (A) (A) (A) (A) (A) (A) (A) (A)
     8 initial guesses have been made.
 Convergence on wavefunction:    0.001000000000000
 Iteration     1 Dimension     8 NMult     0 NNew      8
 CISAX will form     8 AO SS matrices at one time.
 Iteration     2 Dimension    12 NMult     8 NNew      4
 Iteration     3 Dimension    16 NMult    12 NNew      4
 Iteration     4 Dimension    20 NMult    16 NNew      4
 Iteration     5 Dimension    24 NMult    20 NNew      4
 Iteration     6 Dimension    28 NMult    24 NNew      4
 ***********************************************************************
 Excited states from <AA,BB:AA,BB> singles matrix:
 ***********************************************************************
 
 Ground to excited state transition densities written to RWF  633
 Ground to excited state transition electric dipole moments (Au):
       state          X           Y           Z        Dip. S.      Osc.
         1        -1.1988     -0.8555     -1.7017      5.0647      0.2361
 Ground to excited state transition velocity dipole moments (Au):
       state          X           Y           Z        Dip. S.      Osc.
         1         0.0791      0.0576      0.1136      0.0225      0.2144
 Ground to excited state transition magnetic dipole moments (Au):
       state          X           Y           Z
         1         1.1544      1.5176     -1.5356
 Ground to excited state transition velocity quadrupole moments (Au):
       state          XX          YY          ZZ          XY          XZ          YZ
         1        -1.6295      0.0613      0.2031     -0.4184     -1.1544      0.2896
 <0|del|b> * <b|rxdel|0> + <0|del|b> * <b|delr+rdel|0>
 Rotatory Strengths (R) in cgs (10**-40 erg-esu-cm/Gauss)
       state          XX          YY          ZZ    R(velocity)    E-M Angle
         1      -345.0378    -64.1035    451.7463     14.2017       89.34
 1/2[<0|r|b>*<b|rxdel|0> + (<0|rxdel|b>*<b|r|0>)*]
 Rotatory Strengths (R) in cgs (10**-40 erg-esu-cm/Gauss)
       state          XX          YY          ZZ     R(length)
         1       978.5778    918.1739  -1847.8892     16.2875
  1/2[<0|del|b>*<b|r|0> + (<0|r|b>*<b|del|0>)*] (Au)
       state          X           Y           Z        Dip. S.   Osc.(frdel)
         1        -0.0949     -0.0492     -0.1934      0.3375      0.2250

 Excitation energies and oscillator strengths:
 
 Excited State   1:      Singlet-A      1.9028 eV  651.59 nm  f=0.2361  <S**2>=0.000
     243 -> 246        0.18976
     244 -> 245        0.67816
 This state for optimization and/or second-order correction.
 Total Energy, E(TD-HF/TD-KS) =  -3043.41414421    
 Copying the excited state density for this state as the 1-particle RhoCI density.
 SavETr:  write IOETrn=   770 NScale= 10 NData=  16 NLR=1 NState=    1 LETran=      28.

 **********************************************************************

            Population analysis using the SCF density.

 **********************************************************************

 Orbital symmetries:
       Occupied  (A) (A) (A) (A) (A) (A) (A) (A) (A) (A) (A) (A)
                 (A) (A) (A) (A) (A) (A) (A) (A) (A) (A) (A) (A)
                 (A) (A) (A) (A) (A) (A) (A) (A) (A) (A) (A) (A)
                 (A) (A) (A) (A) (A) (A) (A) (A) (A) (A) (A) (A)
                 (A) (A) (A) (A) (A) (A) (A) (A) (A) (A) (A) (A)
                 (A) (A) (A) (A) (A) (A) (A) (A) (A) (A) (A) (A)
                 (A) (A) (A) (A) (A) (A) (A) (A) (A) (A) (A) (A)
                 (A) (A) (A) (A) (A) (A) (A) (A) (A) (A) (A) (A)
                 (A) (A) (A) (A) (A) (A) (A) (A) (A) (A) (A) (A)
                 (A) (A) (A) (A) (A) (A) (A) (A) (A) (A) (A) (A)
                 (A) (A) (A) (A) (A) (A) (A) (A) (A) (A) (A) (A)
                 (A) (A) (A) (A) (A) (A) (A) (A) (A) (A) (A) (A)
                 (A) (A) (A) (A) (A) (A) (A) (A) (A) (A) (A) (A)
                 (A) (A) (A) (A) (A) (A) (A) (A) (A) (A) (A) (A)
                 (A) (A) (A) (A) (A) (A) (A) (A) (A) (A) (A) (A)
                 (A) (A) (A) (A) (A) (A) (A) (A) (A) (A) (A) (A)
                 (A) (A) (A) (A) (A) (A) (A) (A) (A) (A) (A) (A)
                 (A) (A) (A) (A) (A) (A) (A) (A) (A) (A) (A) (A)
                 (A) (A) (A) (A) (A) (A) (A) (A) (A) (A) (A) (A)
                 (A) (A) (A) (A) (A) (A) (A) (A) (A) (A) (A) (A)
                 (A) (A) (A) (A)
       Virtual   (A) (A) (A) (A) (A) (A) (A) (A) (A) (A) (A) (A)
                 (A) (A) (A) (A) (A) (A) (A) (A) (A) (A) (A) (A)
                 (A) (A) (A) (A) (A) (A) (A) (A) (A) (A) (A) (A)
                 (A) (A) (A) (A) (A) (A) (A) (A) (A) (A) (A) (A)
                 (A) (A) (A) (A) (A) (A) (A) (A) (A) (A) (A) (A)
                 (A) (A) (A) (A) (A) (A) (A) (A) (A) (A) (A) (A)
                 (A) (A) (A) (A) (A) (A) (A) (A) (A) (A) (A) (A)
                 (A) (A) (A) (A) (A) (A) (A) (A) (A) (A) (A) (A)
                 (A) (A) (A) (A) (A) (A) (A) (A) (A) (A) (A) (A)
                 (A) (A) (A) (A) (A) (A) (A) (A) (A) (A) (A) (A)
                 (A) (A) (A) (A) (A) (A) (A) (A) (A) (A) (A) (A)
                 (A) (A) (A) (A) (A) (A) (A) (A) (A) (A) (A) (A)
                 (A) (A) (A) (A) (A) (A) (A) (A) (A) (A) (A) (A)
                 (A) (A) (A) (A) (A) (A) (A) (A) (A) (A) (A) (A)
                 (A) (A) (A) (A) (A) (A) (A) (A) (A) (A) (A) (A)
                 (A) (A) (A) (A) (A) (A) (A) (A) (A) (A) (A) (A)
                 (A) (A) (A) (A) (A) (A) (A) (A) (A) (A) (A) (A)
                 (A) (A) (A) (A) (A) (A) (A) (A) (A) (A) (A) (A)
                 (A) (A) (A) (A) (A) (A) (A) (A) (A) (A) (A) (A)
                 (A) (A) (A) (A) (A) (A) (A) (A) (A) (A) (A) (A)
                 (A) (A) (A) (A) (A) (A) (A) (A) (A) (A) (A) (A)
                 (A) (A) (A) (A) (A) (A) (A) (A) (A) (A) (A) (A)
                 (A) (A) (A) (A) (A) (A) (A) (A) (A) (A) (A) (A)
                 (A) (A) (A) (A) (A) (A) (A) (A) (A) (A) (A) (A)
                 (A) (A) (A) (A) (A) (A) (A) (A) (A) (A) (A) (A)
                 (A) (A) (A) (A) (A) (A) (A) (A) (A) (A) (A) (A)
                 (A) (A) (A) (A) (A) (A) (A) (A) (A) (A) (A) (A)
                 (A) (A) (A) (A) (A) (A) (A) (A) (A) (A) (A) (A)
                 (A) (A) (A) (A) (A) (A) (A) (A) (A) (A) (A) (A)
                 (A) (A) (A) (A) (A) (A) (A) (A) (A) (A) (A) (A)
                 (A) (A) (A) (A) (A) (A) (A) (A) (A) (A) (A) (A)
                 (A) (A) (A) (A) (A) (A) (A) (A) (A) (A) (A) (A)
                 (A) (A) (A) (A) (A) (A) (A) (A) (A) (A) (A) (A)
                 (A) (A) (A) (A) (A) (A) (A) (A) (A) (A) (A) (A)
                 (A) (A) (A) (A) (A) (A) (A) (A) (A) (A) (A) (A)
                 (A) (A) (A) (A) (A) (A) (A) (A) (A) (A) (A) (A)
                 (A) (A) (A) (A) (A) (A) (A) (A) (A) (A) (A) (A)
                 (A) (A) (A) (A) (A) (A) (A) (A) (A) (A) (A) (A)
                 (A) (A) (A) (A) (A) (A) (A) (A) (A) (A) (A) (A)
                 (A) (A) (A) (A) (A) (A) (A) (A) (A) (A) (A) (A)
                 (A) (A) (A) (A) (A) (A) (A) (A) (A) (A) (A) (A)
                 (A) (A) (A) (A) (A) (A) (A) (A) (A) (A) (A) (A)
                 (A) (A) (A) (A) (A) (A) (A) (A) (A) (A) (A) (A)
                 (A) (A) (A) (A) (A) (A) (A) (A) (A) (A) (A) (A)
                 (A) (A) (A) (A) (A) (A) (A) (A) (A) (A) (A) (A)
                 (A) (A) (A) (A) (A) (A) (A) (A) (A) (A) (A) (A)
                 (A) (A) (A) (A) (A) (A) (A) (A) (A) (A) (A) (A)
                 (A) (A) (A) (A) (A) (A) (A) (A) (A) (A) (A) (A)
                 (A) (A) (A) (A) (A) (A) (A) (A) (A) (A) (A) (A)
                 (A) (A) (A) (A) (A) (A) (A) (A) (A) (A) (A) (A)
                 (A) (A) (A) (A) (A) (A) (A) (A) (A) (A) (A) (A)
                 (A) (A) (A) (A) (A) (A) (A) (A) (A) (A) (A) (A)
                 (A) (A) (A) (A) (A) (A) (A) (A) (A) (A) (A) (A)
                 (A) (A) (A) (A) (A) (A) (A) (A) (A) (A) (A) (A)
                 (A) (A) (A) (A) (A) (A) (A) (A) (A) (A) (A) (A)
                 (A) (A) (A) (A) (A) (A) (A) (A) (A) (A) (A) (A)
                 (A) (A) (A) (A) (A) (A) (A) (A) (A) (A) (A) (A)
                 (A) (A) (A) (A) (A) (A) (A) (A) (A) (A) (A) (A)
                 (A) (A) (A) (A) (A) (A) (A) (A) (A) (A) (A) (A)
                 (A) (A) (A) (A) (A) (A) (A) (A) (A) (A) (A) (A)
                 (A) (A) (A) (A) (A) (A) (A) (A) (A) (A) (A) (A)
                 (A) (A) (A) (A) (A) (A) (A) (A) (A) (A) (A) (A)
                 (A) (A) (A) (A) (A) (A) (A) (A) (A) (A) (A) (A)
                 (A) (A) (A) (A) (A) (A) (A) (A) (A) (A) (A) (A)
                 (A) (A) (A) (A) (A) (A) (A) (A) (A) (A) (A) (A)
                 (A) (A) (A) (A) (A) (A) (A) (A) (A) (A) (A) (A)
                 (A) (A) (A) (A) (A) (A) (A) (A) (A) (A) (A) (A)
                 (A) (A) (A) (A) (A) (A) (A) (A) (A) (A) (A) (A)
                 (A) (A) (A) (A) (A) (A) (A) (A) (A) (A) (A) (A)
                 (A) (A) (A) (A) (A) (A) (A) (A) (A) (A) (A) (A)
                 (A) (A) (A) (A) (A) (A) (A) (A) (A) (A) (A) (A)
                 (A) (A) (A) (A) (A) (A) (A) (A) (A) (A) (A) (A)
                 (A) (A) (A) (A) (A) (A) (A) (A) (A) (A) (A) (A)
                 (A) (A) (A) (A) (A) (A) (A) (A) (A) (A) (A) (A)
                 (A) (A) (A) (A) (A) (A) (A) (A) (A) (A) (A) (A)
                 (A) (A) (A) (A) (A) (A) (A) (A) (A) (A) (A) (A)
                 (A) (A) (A) (A) (A) (A) (A) (A) (A) (A) (A) (A)
                 (A) (A) (A) (A) (A) (A) (A) (A) (A) (A) (A) (A)
                 (A) (A) (A) (A) (A) (A) (A) (A) (A) (A) (A) (A)
                 (A) (A) (A) (A) (A) (A) (A) (A) (A) (A) (A) (A)
                 (A) (A) (A) (A) (A) (A) (A) (A) (A) (A) (A) (A)
                 (A) (A) (A) (A) (A) (A) (A) (A) (A) (A) (A) (A)
                 (A) (A) (A) (A) (A) (A) (A) (A) (A) (A) (A) (A)
                 (A) (A) (A) (A) (A) (A) (A) (A) (A) (A) (A) (A)
                 (A) (A) (A) (A) (A) (A) (A) (A) (A) (A) (A) (A)
                 (A) (A) (A) (A) (A) (A) (A) (A) (A) (A) (A) (A)
                 (A) (A) (A) (A) (A) (A) (A) (A) (A) (A) (A) (A)
                 (A) (A) (A) (A) (A) (A) (A) (A) (A) (A) (A) (A)
                 (A) (A) (A) (A) (A) (A) (A) (A) (A) (A) (A) (A)
                 (A) (A) (A) (A) (A) (A) (A) (A) (A) (A) (A) (A)
                 (A) (A) (A) (A) (A) (A) (A) (A) (A) (A)
 The electronic state is 1-A.
 Alpha  occ. eigenvalues --  -46.80943 -19.23290 -19.20989 -19.19377 -19.17909
 Alpha  occ. eigenvalues --  -19.17861 -19.17088 -19.16594 -14.39872 -14.37236
 Alpha  occ. eigenvalues --  -14.37073 -14.36591 -10.35661 -10.35120 -10.32009
 Alpha  occ. eigenvalues --  -10.31700 -10.30407 -10.28737 -10.28608 -10.27605
 Alpha  occ. eigenvalues --  -10.27447 -10.26815 -10.26677 -10.26556 -10.26536
 Alpha  occ. eigenvalues --  -10.26205 -10.26200 -10.26122 -10.25670 -10.25322
 Alpha  occ. eigenvalues --  -10.25163 -10.24768 -10.24673 -10.24600 -10.24565
 Alpha  occ. eigenvalues --  -10.24497 -10.24328 -10.24236 -10.24228 -10.24092
 Alpha  occ. eigenvalues --  -10.23718 -10.23450 -10.23143 -10.22936 -10.22792
 Alpha  occ. eigenvalues --  -10.22626 -10.22475 -10.22427 -10.22358 -10.22132
 Alpha  occ. eigenvalues --  -10.21895 -10.21888 -10.21800 -10.21694 -10.21493
 Alpha  occ. eigenvalues --  -10.21366 -10.20943 -10.20744 -10.20671 -10.20481
 Alpha  occ. eigenvalues --  -10.20473 -10.20057 -10.19999 -10.19755 -10.18842
 Alpha  occ. eigenvalues --  -10.18609  -3.09776  -1.84693  -1.84274  -1.84188
 Alpha  occ. eigenvalues --   -1.13085  -1.12454  -1.11824  -1.08300  -1.05261
 Alpha  occ. eigenvalues --   -1.03229  -1.02406  -1.02342  -1.00017  -0.99528
 Alpha  occ. eigenvalues --   -0.98643  -0.88590  -0.87767  -0.85650  -0.85617
 Alpha  occ. eigenvalues --   -0.85500  -0.84581  -0.84379  -0.84243  -0.83597
 Alpha  occ. eigenvalues --   -0.83301  -0.83087  -0.82130  -0.80324  -0.80060
 Alpha  occ. eigenvalues --   -0.79527  -0.78365  -0.77561  -0.76946  -0.76397
 Alpha  occ. eigenvalues --   -0.75554  -0.75330  -0.74433  -0.72576  -0.71456
 Alpha  occ. eigenvalues --   -0.71405  -0.71367  -0.70339  -0.69995  -0.69758
 Alpha  occ. eigenvalues --   -0.69036  -0.68310  -0.67510  -0.67237  -0.66719
 Alpha  occ. eigenvalues --   -0.66075  -0.64562  -0.64346  -0.63118  -0.61886
 Alpha  occ. eigenvalues --   -0.61192  -0.60595  -0.59890  -0.59316  -0.58862
 Alpha  occ. eigenvalues --   -0.58728  -0.58612  -0.58337  -0.58218  -0.57697
 Alpha  occ. eigenvalues --   -0.56359  -0.56174  -0.55510  -0.55306  -0.54602
 Alpha  occ. eigenvalues --   -0.54129  -0.53752  -0.53046  -0.52805  -0.52243
 Alpha  occ. eigenvalues --   -0.52164  -0.51877  -0.51592  -0.51005  -0.50519
 Alpha  occ. eigenvalues --   -0.49901  -0.49658  -0.49462  -0.49350  -0.49231
 Alpha  occ. eigenvalues --   -0.48887  -0.48690  -0.48514  -0.48234  -0.48156
 Alpha  occ. eigenvalues --   -0.47785  -0.47568  -0.47520  -0.47436  -0.46885
 Alpha  occ. eigenvalues --   -0.46691  -0.46671  -0.46377  -0.46019  -0.45915
 Alpha  occ. eigenvalues --   -0.45702  -0.45518  -0.45340  -0.44962  -0.44728
 Alpha  occ. eigenvalues --   -0.44646  -0.44570  -0.44561  -0.44120  -0.43902
 Alpha  occ. eigenvalues --   -0.43766  -0.43686  -0.43404  -0.43076  -0.42812
 Alpha  occ. eigenvalues --   -0.42623  -0.42487  -0.42363  -0.42160  -0.42056
 Alpha  occ. eigenvalues --   -0.41934  -0.41690  -0.41526  -0.41233  -0.41069
 Alpha  occ. eigenvalues --   -0.40919  -0.40707  -0.40540  -0.40356  -0.40296
 Alpha  occ. eigenvalues --   -0.40100  -0.40039  -0.39379  -0.39163  -0.38875
 Alpha  occ. eigenvalues --   -0.38833  -0.38801  -0.38644  -0.38403  -0.38317
 Alpha  occ. eigenvalues --   -0.38134  -0.37997  -0.37551  -0.37490  -0.37142
 Alpha  occ. eigenvalues --   -0.36615  -0.36389  -0.35997  -0.35841  -0.35724
 Alpha  occ. eigenvalues --   -0.35560  -0.35496  -0.35146  -0.34852  -0.34838
 Alpha  occ. eigenvalues --   -0.34647  -0.34316  -0.34047  -0.33895  -0.33030
 Alpha  occ. eigenvalues --   -0.32941  -0.32756  -0.32129  -0.32067  -0.31956
 Alpha  occ. eigenvalues --   -0.31200  -0.30999  -0.30619  -0.30505  -0.29785
 Alpha  occ. eigenvalues --   -0.29735  -0.29166  -0.28702  -0.28373  -0.28132
 Alpha  occ. eigenvalues --   -0.27824  -0.27208  -0.23768  -0.20888
 Alpha virt. eigenvalues --   -0.08736  -0.06084  -0.01915  -0.00744   0.00562
 Alpha virt. eigenvalues --    0.01760   0.02629   0.03083   0.03928   0.04723
 Alpha virt. eigenvalues --    0.04901   0.05874   0.07764   0.08018   0.08912
 Alpha virt. eigenvalues --    0.09525   0.10168   0.10364   0.10584   0.10760
 Alpha virt. eigenvalues --    0.10786   0.11318   0.11597   0.11648   0.11870
 Alpha virt. eigenvalues --    0.12184   0.12358   0.12378   0.12415   0.12993
 Alpha virt. eigenvalues --    0.13315   0.13440   0.13498   0.13600   0.13692
 Alpha virt. eigenvalues --    0.13880   0.13997   0.14374   0.14598   0.14607
 Alpha virt. eigenvalues --    0.14932   0.14965   0.15144   0.15577   0.15835
 Alpha virt. eigenvalues --    0.15973   0.16038   0.16284   0.16471   0.16772
 Alpha virt. eigenvalues --    0.17079   0.17268   0.17508   0.17619   0.17836
 Alpha virt. eigenvalues --    0.17997   0.18150   0.18266   0.18671   0.18821
 Alpha virt. eigenvalues --    0.19033   0.19256   0.19305   0.19428   0.19540
 Alpha virt. eigenvalues --    0.19653   0.19873   0.19997   0.20056   0.20456
 Alpha virt. eigenvalues --    0.20582   0.20858   0.20947   0.20988   0.21396
 Alpha virt. eigenvalues --    0.21539   0.21692   0.21859   0.21889   0.22089
 Alpha virt. eigenvalues --    0.22107   0.22499   0.22614   0.22866   0.23015
 Alpha virt. eigenvalues --    0.23239   0.23378   0.23578   0.23764   0.23843
 Alpha virt. eigenvalues --    0.24190   0.24343   0.24542   0.24658   0.24701
 Alpha virt. eigenvalues --    0.24957   0.25079   0.25409   0.25507   0.25551
 Alpha virt. eigenvalues --    0.25918   0.25954   0.26265   0.26417   0.26661
 Alpha virt. eigenvalues --    0.27061   0.27135   0.27291   0.27863   0.27965
 Alpha virt. eigenvalues --    0.28213   0.28293   0.28716   0.28871   0.29062
 Alpha virt. eigenvalues --    0.29387   0.29790   0.29963   0.30166   0.30730
 Alpha virt. eigenvalues --    0.30881   0.31202   0.31672   0.31850   0.32108
 Alpha virt. eigenvalues --    0.32480   0.32544   0.32860   0.33165   0.33332
 Alpha virt. eigenvalues --    0.33910   0.34050   0.34501   0.35071   0.35462
 Alpha virt. eigenvalues --    0.36358   0.37215   0.37535   0.37971   0.38410
 Alpha virt. eigenvalues --    0.38589   0.38780   0.39543   0.40465   0.41394
 Alpha virt. eigenvalues --    0.41441   0.42376   0.42793   0.43478   0.43845
 Alpha virt. eigenvalues --    0.44094   0.45449   0.45683   0.46823   0.47006
 Alpha virt. eigenvalues --    0.47982   0.48416   0.48580   0.49200   0.49721
 Alpha virt. eigenvalues --    0.49953   0.50417   0.51007   0.51079   0.51180
 Alpha virt. eigenvalues --    0.51495   0.51568   0.52239   0.52483   0.53002
 Alpha virt. eigenvalues --    0.53174   0.53346   0.53529   0.53984   0.54068
 Alpha virt. eigenvalues --    0.54306   0.54444   0.54528   0.54816   0.55131
 Alpha virt. eigenvalues --    0.55310   0.55453   0.55481   0.56028   0.56199
 Alpha virt. eigenvalues --    0.56413   0.56491   0.56549   0.56807   0.57062
 Alpha virt. eigenvalues --    0.57376   0.57415   0.57770   0.57913   0.58156
 Alpha virt. eigenvalues --    0.58691   0.58884   0.59048   0.59226   0.59568
 Alpha virt. eigenvalues --    0.59775   0.60020   0.60349   0.60366   0.60611
 Alpha virt. eigenvalues --    0.60667   0.60828   0.61332   0.61600   0.61682
 Alpha virt. eigenvalues --    0.62230   0.62618   0.62804   0.62861   0.63170
 Alpha virt. eigenvalues --    0.63404   0.63792   0.64073   0.64339   0.64383
 Alpha virt. eigenvalues --    0.64689   0.64841   0.65200   0.65641   0.65954
 Alpha virt. eigenvalues --    0.66216   0.66522   0.66626   0.66891   0.67331
 Alpha virt. eigenvalues --    0.67488   0.67831   0.68208   0.68320   0.68993
 Alpha virt. eigenvalues --    0.69190   0.69435   0.69648   0.69753   0.69990
 Alpha virt. eigenvalues --    0.70208   0.70535   0.70627   0.70962   0.71248
 Alpha virt. eigenvalues --    0.71437   0.71546   0.72109   0.72433   0.72798
 Alpha virt. eigenvalues --    0.73358   0.73498   0.73619   0.74170   0.74285
 Alpha virt. eigenvalues --    0.74397   0.75140   0.75238   0.75417   0.75829
 Alpha virt. eigenvalues --    0.76003   0.76100   0.76300   0.76416   0.76597
 Alpha virt. eigenvalues --    0.76706   0.76874   0.76961   0.77268   0.77539
 Alpha virt. eigenvalues --    0.77830   0.78367   0.78613   0.78640   0.78864
 Alpha virt. eigenvalues --    0.79155   0.79256   0.79931   0.79974   0.80076
 Alpha virt. eigenvalues --    0.80503   0.80712   0.80785   0.81176   0.81401
 Alpha virt. eigenvalues --    0.81474   0.81776   0.81922   0.82287   0.82325
 Alpha virt. eigenvalues --    0.82643   0.82918   0.83215   0.83522   0.83682
 Alpha virt. eigenvalues --    0.83988   0.84241   0.84568   0.84676   0.85101
 Alpha virt. eigenvalues --    0.85197   0.85506   0.85759   0.85991   0.86293
 Alpha virt. eigenvalues --    0.86344   0.86851   0.86978   0.87180   0.87305
 Alpha virt. eigenvalues --    0.87335   0.87421   0.87892   0.87962   0.88361
 Alpha virt. eigenvalues --    0.88597   0.88719   0.88843   0.89087   0.89170
 Alpha virt. eigenvalues --    0.89250   0.89336   0.89520   0.89765   0.89921
 Alpha virt. eigenvalues --    0.90114   0.90455   0.90709   0.90770   0.90879
 Alpha virt. eigenvalues --    0.91317   0.91418   0.91485   0.91904   0.92055
 Alpha virt. eigenvalues --    0.92215   0.92333   0.92487   0.92676   0.92949
 Alpha virt. eigenvalues --    0.93203   0.93408   0.94053   0.94295   0.94563
 Alpha virt. eigenvalues --    0.94708   0.95015   0.95360   0.96042   0.96210
 Alpha virt. eigenvalues --    0.96442   0.96550   0.97040   0.97055   0.97207
 Alpha virt. eigenvalues --    0.97434   0.97558   0.97710   0.97811   0.97915
 Alpha virt. eigenvalues --    0.98084   0.98237   0.98507   0.98970   0.99240
 Alpha virt. eigenvalues --    0.99603   0.99822   0.99973   1.00142   1.00183
 Alpha virt. eigenvalues --    1.00342   1.00631   1.01173   1.01179   1.01794
 Alpha virt. eigenvalues --    1.01919   1.02141   1.02387   1.02695   1.02763
 Alpha virt. eigenvalues --    1.02817   1.03100   1.03434   1.03780   1.04168
 Alpha virt. eigenvalues --    1.04208   1.04910   1.05278   1.05536   1.06076
 Alpha virt. eigenvalues --    1.06612   1.06654   1.06960   1.07198   1.07384
 Alpha virt. eigenvalues --    1.07856   1.08582   1.08642   1.08869   1.09429
 Alpha virt. eigenvalues --    1.09684   1.09978   1.10521   1.10653   1.11120
 Alpha virt. eigenvalues --    1.11309   1.12004   1.12153   1.12337   1.13180
 Alpha virt. eigenvalues --    1.13488   1.13619   1.14502   1.15275   1.15564
 Alpha virt. eigenvalues --    1.16203   1.16588   1.17575   1.18502   1.18918
 Alpha virt. eigenvalues --    1.19161   1.19260   1.19650   1.20964   1.21816
 Alpha virt. eigenvalues --    1.22142   1.22598   1.23164   1.23665   1.23909
 Alpha virt. eigenvalues --    1.24066   1.24305   1.25071   1.26134   1.26600
 Alpha virt. eigenvalues --    1.26791   1.27844   1.28415   1.29656   1.29855
 Alpha virt. eigenvalues --    1.29991   1.30148   1.30521   1.30964   1.31406
 Alpha virt. eigenvalues --    1.31650   1.31910   1.32492   1.33352   1.33583
 Alpha virt. eigenvalues --    1.33871   1.34150   1.34557   1.34837   1.35203
 Alpha virt. eigenvalues --    1.35602   1.36061   1.36404   1.36846   1.37364
 Alpha virt. eigenvalues --    1.37459   1.38865   1.39704   1.39872   1.40268
 Alpha virt. eigenvalues --    1.40529   1.40704   1.41563   1.41704   1.42302
 Alpha virt. eigenvalues --    1.42927   1.43846   1.45065   1.45271   1.46368
 Alpha virt. eigenvalues --    1.46880   1.47433   1.47632   1.47749   1.48361
 Alpha virt. eigenvalues --    1.48584   1.49211   1.49408   1.49669   1.49860
 Alpha virt. eigenvalues --    1.50114   1.50315   1.50427   1.51069   1.51351
 Alpha virt. eigenvalues --    1.52204   1.52766   1.53274   1.53510   1.53586
 Alpha virt. eigenvalues --    1.53985   1.54180   1.55035   1.55535   1.55761
 Alpha virt. eigenvalues --    1.55847   1.55917   1.56252   1.56560   1.57084
 Alpha virt. eigenvalues --    1.58229   1.58433   1.58685   1.59258   1.59468
 Alpha virt. eigenvalues --    1.60383   1.60669   1.61059   1.61469   1.62241
 Alpha virt. eigenvalues --    1.62297   1.62889   1.63141   1.63275   1.64246
 Alpha virt. eigenvalues --    1.64881   1.65385   1.65934   1.66302   1.66350
 Alpha virt. eigenvalues --    1.66815   1.67029   1.67842   1.68091   1.68419
 Alpha virt. eigenvalues --    1.68444   1.69245   1.69377   1.70215   1.70370
 Alpha virt. eigenvalues --    1.70714   1.71530   1.71838   1.72376   1.72426
 Alpha virt. eigenvalues --    1.72824   1.72912   1.73424   1.73748   1.74118
 Alpha virt. eigenvalues --    1.74190   1.74320   1.74915   1.75468   1.75732
 Alpha virt. eigenvalues --    1.76340   1.76477   1.76910   1.77418   1.77542
 Alpha virt. eigenvalues --    1.78110   1.78444   1.79143   1.79626   1.79800
 Alpha virt. eigenvalues --    1.80463   1.80836   1.80905   1.81104   1.81454
 Alpha virt. eigenvalues --    1.81703   1.81817   1.82149   1.82249   1.82811
 Alpha virt. eigenvalues --    1.82926   1.83124   1.83300   1.83630   1.84173
 Alpha virt. eigenvalues --    1.84340   1.84623   1.84770   1.84887   1.85078
 Alpha virt. eigenvalues --    1.85154   1.85344   1.85400   1.85691   1.86625
 Alpha virt. eigenvalues --    1.86697   1.86858   1.87136   1.87274   1.87377
 Alpha virt. eigenvalues --    1.87551   1.88021   1.88194   1.88530   1.88552
 Alpha virt. eigenvalues --    1.89060   1.89303   1.89685   1.90106   1.90170
 Alpha virt. eigenvalues --    1.90358   1.90395   1.90590   1.90936   1.91228
 Alpha virt. eigenvalues --    1.91410   1.92233   1.92341   1.92488   1.92710
 Alpha virt. eigenvalues --    1.93045   1.93369   1.93453   1.93652   1.94000
 Alpha virt. eigenvalues --    1.94199   1.94388   1.94903   1.95092   1.95221
 Alpha virt. eigenvalues --    1.95783   1.96099   1.96119   1.96395   1.97008
 Alpha virt. eigenvalues --    1.97295   1.97435   1.97622   1.98037   1.98338
 Alpha virt. eigenvalues --    1.98789   1.99180   1.99860   2.00573   2.01222
 Alpha virt. eigenvalues --    2.01231   2.01616   2.01795   2.01832   2.02077
 Alpha virt. eigenvalues --    2.02676   2.02701   2.03201   2.03502   2.03942
 Alpha virt. eigenvalues --    2.04392   2.04432   2.04915   2.05101   2.05469
 Alpha virt. eigenvalues --    2.05854   2.06139   2.06374   2.06451   2.06656
 Alpha virt. eigenvalues --    2.07052   2.07188   2.07364   2.07501   2.07971
 Alpha virt. eigenvalues --    2.08286   2.08824   2.08853   2.09036   2.09172
 Alpha virt. eigenvalues --    2.09590   2.09753   2.09976   2.10193   2.10663
 Alpha virt. eigenvalues --    2.11347   2.11677   2.11782   2.12281   2.12653
 Alpha virt. eigenvalues --    2.12889   2.13032   2.13368   2.14258   2.14511
 Alpha virt. eigenvalues --    2.14804   2.15112   2.15191   2.15420   2.15924
 Alpha virt. eigenvalues --    2.16155   2.16621   2.16885   2.17422   2.17589
 Alpha virt. eigenvalues --    2.17928   2.18124   2.18422   2.18828   2.19165
 Alpha virt. eigenvalues --    2.19203   2.19394   2.19470   2.20168   2.20595
 Alpha virt. eigenvalues --    2.20679   2.20786   2.20922   2.21446   2.21851
 Alpha virt. eigenvalues --    2.22186   2.22588   2.22831   2.23212   2.23235
 Alpha virt. eigenvalues --    2.23582   2.24735   2.24909   2.25308   2.25470
 Alpha virt. eigenvalues --    2.25860   2.26157   2.26339   2.26584   2.27205
 Alpha virt. eigenvalues --    2.27272   2.27852   2.27871   2.28450   2.28813
 Alpha virt. eigenvalues --    2.29244   2.29686   2.30181   2.30680   2.30868
 Alpha virt. eigenvalues --    2.30988   2.31593   2.32187   2.32292   2.32653
 Alpha virt. eigenvalues --    2.32912   2.32972   2.33303   2.33345   2.33701
 Alpha virt. eigenvalues --    2.33710   2.34197   2.34396   2.34532   2.34911
 Alpha virt. eigenvalues --    2.35340   2.35955   2.36222   2.36412   2.37130
 Alpha virt. eigenvalues --    2.37399   2.37708   2.38159   2.38687   2.38943
 Alpha virt. eigenvalues --    2.39193   2.39849   2.40386   2.40451   2.40568
 Alpha virt. eigenvalues --    2.41203   2.41340   2.41567   2.41776   2.42015
 Alpha virt. eigenvalues --    2.42417   2.42563   2.42779   2.42994   2.43396
 Alpha virt. eigenvalues --    2.43579   2.43983   2.44381   2.44724   2.45333
 Alpha virt. eigenvalues --    2.45563   2.45872   2.46068   2.46328   2.46585
 Alpha virt. eigenvalues --    2.46911   2.47169   2.47392   2.47880   2.48268
 Alpha virt. eigenvalues --    2.48512   2.49442   2.50174   2.50341   2.51156
 Alpha virt. eigenvalues --    2.51266   2.51713   2.52001   2.52365   2.52800
 Alpha virt. eigenvalues --    2.52881   2.53218   2.53748   2.55171   2.55308
 Alpha virt. eigenvalues --    2.55647   2.55848   2.55934   2.56449   2.56731
 Alpha virt. eigenvalues --    2.57001   2.57254   2.57443   2.58123   2.58726
 Alpha virt. eigenvalues --    2.58976   2.59155   2.59791   2.59970   2.60274
 Alpha virt. eigenvalues --    2.61005   2.61197   2.61378   2.61708   2.62446
 Alpha virt. eigenvalues --    2.62489   2.62636   2.63122   2.63167   2.63596
 Alpha virt. eigenvalues --    2.64002   2.64308   2.64776   2.64862   2.65361
 Alpha virt. eigenvalues --    2.65555   2.65871   2.66083   2.66165   2.66626
 Alpha virt. eigenvalues --    2.66681   2.67691   2.67945   2.68160   2.68797
 Alpha virt. eigenvalues --    2.68966   2.69734   2.70047   2.70133   2.70531
 Alpha virt. eigenvalues --    2.70818   2.71231   2.71934   2.72036   2.72220
 Alpha virt. eigenvalues --    2.72659   2.72911   2.73386   2.73860   2.74167
 Alpha virt. eigenvalues --    2.74278   2.74517   2.74865   2.75529   2.75550
 Alpha virt. eigenvalues --    2.75805   2.76402   2.76586   2.76644   2.76861
 Alpha virt. eigenvalues --    2.77376   2.77643   2.77951   2.78035   2.79199
 Alpha virt. eigenvalues --    2.79571   2.79660   2.79813   2.79991   2.80548
 Alpha virt. eigenvalues --    2.80824   2.82433   2.82535   2.82876   2.83008
 Alpha virt. eigenvalues --    2.83275   2.83903   2.84311   2.84429   2.84576
 Alpha virt. eigenvalues --    2.85338   2.85433   2.85856   2.86028   2.86376
 Alpha virt. eigenvalues --    2.86767   2.86921   2.87527   2.87714   2.88021
 Alpha virt. eigenvalues --    2.88874   2.89025   2.89780   2.90233   2.90582
 Alpha virt. eigenvalues --    2.90735   2.91485   2.91637   2.91785   2.91885
 Alpha virt. eigenvalues --    2.92383   2.92600   2.93102   2.93467   2.93882
 Alpha virt. eigenvalues --    2.94015   2.94964   2.95343   2.95916   2.96167
 Alpha virt. eigenvalues --    2.96411   2.96694   2.97126   2.97244   2.97696
 Alpha virt. eigenvalues --    2.97780   2.98185   2.99415   2.99759   2.99816
 Alpha virt. eigenvalues --    2.99929   3.00192   3.01120   3.01855   3.02392
 Alpha virt. eigenvalues --    3.02485   3.03417   3.03738   3.04099   3.04406
 Alpha virt. eigenvalues --    3.04730   3.04746   3.05747   3.07693   3.07867
 Alpha virt. eigenvalues --    3.08243   3.08642   3.08879   3.10433   3.10855
 Alpha virt. eigenvalues --    3.12003   3.13018   3.13274   3.14750   3.15064
 Alpha virt. eigenvalues --    3.15537   3.16869   3.17434   3.18130   3.19552
 Alpha virt. eigenvalues --    3.19575   3.20048   3.21169   3.21499   3.21616
 Alpha virt. eigenvalues --    3.21760   3.23032   3.23518   3.23785   3.25454
 Alpha virt. eigenvalues --    3.25943   3.26733   3.26741   3.27252   3.28020
 Alpha virt. eigenvalues --    3.28546   3.28826   3.29451   3.29676   3.31121
 Alpha virt. eigenvalues --    3.31471   3.33341   3.33547   3.34700   3.36611
 Alpha virt. eigenvalues --    3.37258   3.38165   3.39513   3.40068   3.40372
 Alpha virt. eigenvalues --    3.40729   3.40915   3.41079   3.41470   3.42008
 Alpha virt. eigenvalues --    3.43648   3.43740   3.44871   3.45652   3.46426
 Alpha virt. eigenvalues --    3.46736   3.47384   3.48054   3.49566   3.50528
 Alpha virt. eigenvalues --    3.51518   3.51669   3.53088   3.53481   3.53862
 Alpha virt. eigenvalues --    3.54646   3.55453   3.56275   3.56570   3.58060
 Alpha virt. eigenvalues --    3.58411   3.59345   3.60851   3.61511   3.62118
 Alpha virt. eigenvalues --    3.62825   3.62976   3.63359   3.65186   3.66124
 Alpha virt. eigenvalues --    3.68724   3.71380   3.75795   3.82785   3.85144
 Alpha virt. eigenvalues --    3.97639   4.04484   4.05176   4.05797   4.09888
 Alpha virt. eigenvalues --    4.16189   4.16934   4.18109   4.19901   4.20517
 Alpha virt. eigenvalues --    4.21393   4.22086   4.22748   4.24096   4.26698
 Alpha virt. eigenvalues --    4.27309   4.28919   4.29632   4.31372   4.31716
 Alpha virt. eigenvalues --    4.32143   4.35402   4.35826   4.37218   4.37782
 Alpha virt. eigenvalues --    4.38642   4.39441   4.42680   4.42928   4.43696
 Alpha virt. eigenvalues --    4.44476   4.45357   4.47162   4.47576   4.48637
 Alpha virt. eigenvalues --    4.49268   4.50741   4.53421   4.53451   4.54413
 Alpha virt. eigenvalues --    4.54608   4.55225   4.55442   4.56834   4.57286
 Alpha virt. eigenvalues --    4.57681   4.61165   4.63742   4.63826   4.64737
 Alpha virt. eigenvalues --    4.65996   4.68139   4.69637   4.71796   4.74212
 Alpha virt. eigenvalues --    4.74477   4.76901   4.78439   4.80727   4.80941
 Alpha virt. eigenvalues --    4.82429   4.83164   4.83990   4.91551   4.99027
          Condensed to atoms (all electrons):
 Mulliken charges:
               1
     1  Mg   0.815702
     2  C    0.035002
     3  C   -0.206416
     4  C   -0.204516
     5  C   -0.185977
     6  N   -0.613584
     7  C    0.309182
     8  C   -0.153023
     9  C   -0.105632
    10  C    0.298883
    11  C   -0.302070
    12  C   -0.171345
    13  C   -0.264062
    14  C    0.603506
    15  O   -0.482239
    16  O   -0.454364
    17  N   -0.715078
    18  C    0.310855
    19  C    0.038174
    20  C    0.000878
    21  C    0.328973
    22  C   -0.364746
    23  C    0.215858
    24  O   -0.455374
    25  N   -0.672375
    26  C    0.285143
    27  C   -0.005226
    28  C   -0.002433
    29  C    0.269071
    30  C    0.292985
    31  C   -0.249102
    32  C   -0.304711
    33  N   -0.754502
    34  C    0.226765
    35  C    0.114071
    36  C   -0.014559
    37  C    0.416397
    38  C   -0.392233
    39  C    0.319531
    40  O   -0.437756
    41  C   -0.325356
    42  C    0.636911
    43  O   -0.455173
    44  O   -0.484799
    45  C   -0.046262
    46  C   -0.019133
    47  C   -0.122637
    48  C    0.116408
    49  C   -0.379486
    50  C   -0.216357
    51  C   -0.155886
    52  C   -0.147910
    53  C   -0.073097
    54  C   -0.298866
    55  C   -0.173352
    56  C   -0.189893
    57  C   -0.158604
    58  C   -0.041763
    59  C   -0.326623
    60  C   -0.162176
    61  C   -0.191811
    62  C   -0.143439
    63  C   -0.054461
    64  C   -0.325480
    65  C   -0.303047
    66  H    0.070937
    67  H    0.133870
    68  H    0.084128
    69  H    0.139000
    70  H    0.122091
    71  H    0.101824
    72  H    0.087478
    73  H    0.130263
    74  H    0.119336
    75  H    0.122540
    76  H    0.146054
    77  H    0.144302
    78  H    0.141151
    79  H    0.163772
    80  H    0.104475
    81  H    0.083493
    82  H    0.115769
    83  H    0.122254
    84  H    0.118497
    85  H    0.106766
    86  H    0.122998
    87  H    0.140565
    88  H    0.151881
    89  H    0.110424
    90  H    0.167738
    91  H    0.127321
    92  H    0.129184
    93  H    0.059966
    94  H    0.158603
    95  H    0.111015
    96  H    0.125606
    97  H    0.076225
    98  H    0.087180
    99  H    0.093906
   100  H    0.073717
   101  H    0.089884
   102  H    0.069795
   103  H    0.083026
   104  H    0.109105
   105  H    0.111695
   106  H    0.082020
   107  H    0.093326
   108  H    0.081060
   109  H    0.096284
   110  H    0.094055
   111  H    0.057507
   112  H    0.065546
   113  H    0.101861
   114  H    0.114073
   115  H    0.088525
   116  H    0.096400
   117  H    0.094211
   118  H    0.067709
   119  H    0.077693
   120  H    0.099322
   121  H    0.045605
   122  H    0.100407
   123  H    0.080034
   124  H    0.091885
   125  H    0.095566
   126  H    0.113891
   127  H    0.112005
   128  H    0.107461
   129  H    0.087186
   130  H    0.068819
   131  H    0.131709
   132  H    0.109205
   133  O   -0.373660
   134  H    0.035103
 Sum of Mulliken charges =   0.00000
 Mulliken charges with hydrogens summed into heavy atoms:
               1
     1  Mg   0.815702
     2  C    0.035002
     3  C   -0.135478
     4  C   -0.070646
     5  C   -0.101848
     6  N   -0.613584
     7  C    0.309182
     8  C   -0.014023
     9  C    0.016459
    10  C    0.298883
    11  C    0.017495
    12  C    0.070531
    13  C    0.026294
    14  C    0.603506
    15  O   -0.482239
    16  O   -0.454364
    17  N   -0.715078
    18  C    0.310855
    19  C    0.038174
    20  C    0.000878
    21  C    0.328973
    22  C    0.044652
    23  C    0.299351
    24  O   -0.455374
    25  N   -0.672375
    26  C    0.285143
    27  C   -0.005226
    28  C   -0.002433
    29  C    0.269071
    30  C    0.328088
    31  C   -0.011079
    32  C    0.043549
    33  N   -0.754502
    34  C    0.226765
    35  C    0.114071
    36  C   -0.014559
    37  C    0.416397
    38  C    0.010637
    39  C    0.319531
    40  O   -0.437756
    41  C   -0.157618
    42  C    0.636911
    43  O   -0.455173
    44  O   -0.484799
    45  C    0.263471
    46  C    0.237371
    47  C   -0.062671
    48  C    0.116408
    49  C    0.015737
    50  C   -0.052952
    51  C    0.011737
    52  C    0.011769
    53  C    0.009928
    54  C    0.003953
    55  C    0.001034
    56  C    0.000446
    57  C   -0.035551
    58  C    0.060098
    59  C   -0.027626
    60  C   -0.000255
    61  C   -0.014796
    62  C    0.002572
    63  C    0.025573
    64  C   -0.024138
    65  C    0.003604
   133  O   -0.373660
 Electronic spatial extent (au):  <R**2>=         147345.1770
 Charge=              0.0000 electrons
 Dipole moment (field-independent basis, Debye):
    X=              0.1611    Y=             -3.7519    Z=             -1.6743  Tot=              4.1116
 Quadrupole moment (field-independent basis, Debye-Ang):
   XX=           -357.9158   YY=           -445.6285   ZZ=           -396.1526
   XY=             -5.5276   XZ=             23.4080   YZ=            -38.2090
 Traceless Quadrupole moment (field-independent basis, Debye-Ang):
   XX=             41.9832   YY=            -45.7295   ZZ=              3.7464
   XY=             -5.5276   XZ=             23.4080   YZ=            -38.2090
 Octapole moment (field-independent basis, Debye-Ang**2):
  XXX=           -354.8594  YYY=           -473.9321  ZZZ=            -37.9042  XYY=            268.9489
  XXY=             28.6844  XXZ=           -334.2560  XZZ=            -84.5131  YZZ=            -43.0005
  YYZ=           -123.7837  XYZ=            215.7218
 Hexadecapole moment (field-independent basis, Debye-Ang**3):
 XXXX=        -156032.2900 YYYY=         -32061.6492 ZZZZ=          -9467.9868 XXXY=          -1251.9276
 XXXZ=           1994.0400 YYYX=           1616.5348 YYYZ=          -1628.6537 ZZZX=            430.3651
 ZZZY=           -460.6961 XXYY=         -33236.3097 XXZZ=         -28020.6136 YYZZ=          -7331.6713
 XXYZ=          -1124.0413 YYXZ=            654.3247 ZZXY=           -102.6669
 N-N= 9.118865594204D+03 E-N=-2.532170961600D+04  KE= 3.016273567260D+03

 Test job not archived.
 1\1\GINC-PEDRO-RYZENSSD\SP\RCAM-B3LYP TD-FC\6-31G(d,p)\C54H68Mg1N4O7\P
 ADAWAN\09-Oct-2019\0\\# td=(NStates=1) iop(3/107=0140000000,3/108=0140
 000000) iop(3/107=0140000000,3/108=0140000000) CAM-B3LYP/6-31G(d,p)\\T
 D\\0,1\Mg,0,-5.6460203332,1.230433071,0.1806207309\C,0,-5.0262827501,-
 2.1581097757,-0.3469477599\C,0,-3.5131027702,1.2012426658,2.7910505433
 \C,0,-6.2676031826,4.5336513882,0.6478171429\C,0,-7.9515560736,1.15665
 43478,-2.3818122751\N,0,-4.4317602605,-0.2454104641,0.9893391009\C,0,-
 4.2260078212,-1.6157427557,0.6733210506\C,0,-3.1639377955,-2.290920290
 6,1.4097065593\C,0,-2.9112652819,-1.3633870084,2.6387306597\C,0,-3.671
 3639364,-0.0625454071,2.1240530639\C,0,-3.4465267607,-1.8470914017,3.9
 936272221\C,0,-2.0103458779,-2.6855525485,0.5832225084\C,0,-0.99271703
 46,-3.4361186998,1.4057844553\C,0,0.2169275602,-3.9111459867,0.6519833
 594\O,0,0.5608399379,-3.525832272,-0.4875187673\O,0,0.9828699692,-4.76
 32014649,1.3650024887\N,0,-4.8988484358,2.6638666234,1.4649531819\C,0,
 -3.9904631335,2.4285308691,2.5361588417\C,0,-3.87042758,3.6593060131,3
 .3049294373\C,0,-4.5627420299,4.5912475903,2.624948379\C,0,-5.26924628
 7,3.9599906756,1.5290180537\C,0,-2.925481173,3.855972681,4.4858324537\
 C,0,-4.6926119612,5.9909591301,2.965581995\O,0,-4.1286953568,6.6219970
 299,3.9396879413\N,0,-6.7694485945,2.5523031628,-0.7917118389\C,0,-6.9
 487570735,3.9195223577,-0.4010483079\C,0,-7.8458197222,4.5646075176,-1
 .2724600551\C,0,-8.4190249353,3.6844175719,-2.0432288753\C,0,-7.652999
 1114,2.4447326474,-1.7968534551\C,0,-8.1686891476,6.0520365734,-1.1538
 765223\C,0,-9.4872552039,3.8906900073,-3.1727098196\C,0,-8.740263007,4
 .0017815413,-4.5483680835\N,0,-6.3030360709,-0.1052757078,-1.135904610
 9\C,0,-7.2794915559,-0.0142323288,-2.183534276\C,0,-7.5311462312,-1.29
 14743001,-2.7798110057\C,0,-6.6502505088,-2.0843322065,-2.0710863185\C
 ,0,-5.9526431878,-1.308844914,-1.0808759523\C,0,-8.5099063653,-1.65103
 48921,-3.85020594\C,0,-6.2293465618,-3.4497440804,-2.0397593698\O,0,-6
 .5263258732,-4.4105560257,-2.7001402597\C,0,-5.0184520987,-3.579069673
 7,-0.8765542762\C,0,-5.2204091685,-4.6087460762,0.0672238734\O,0,-5.70
 0454228,-4.4510110345,1.1554826686\O,0,-4.7888588491,-5.9223461187,-0.
 3696111325\C,0,-5.247338083,-6.9704906402,0.4045279876\C,0,2.250291710
 8,-5.1663528955,0.7442124025\C,0,3.3425475649,-4.2038018795,1.16386767
 26\C,0,4.0002691306,-3.409050726,0.377130088\C,0,3.7108059779,-3.22504
 5693,-1.1186595348\C,0,5.25924013,-2.5079150597,0.8496668176\C,0,6.557
 5613608,-2.7927542284,0.1165619821\C,0,7.6235814848,-1.8787595218,0.67
 98218168\C,0,8.9274813566,-2.044670449,-0.0519119044\C,0,9.5526923493,
 -3.4289427968,0.2003431593\C,0,9.9004754831,-0.8258632072,0.4366116246
 \C,0,11.2229754548,-0.8441272078,-0.4013754481\C,0,12.1500526259,0.404
 4196325,0.0213429225\C,0,13.5141508092,0.5008897759,-0.6611358708\C,0,
 14.4013783108,-0.7100217322,-0.3835650417\C,0,14.185138452,1.884843256
 5,-0.2641940618\C,0,15.517801061,2.1766996053,-1.0148685946\C,0,16.095
 4491646,3.571329643,-0.6776988629\C,0,17.3802324179,3.959874903,-1.396
 7007179\C,0,17.1590948916,3.9060861713,-3.0369260126\C,0,17.8968431035
 ,5.216249751,-0.8976207191\H,0,-2.9993954454,1.1653133949,3.7209897102
 \H,0,-6.4909299759,5.6558017824,0.9064704097\H,0,-8.8731325124,1.24755
 90174,-3.0919845794\H,0,-3.6410811733,-3.100303147,1.834829225\H,0,-1.
 9175328393,-1.1332009283,2.5271248785\H,0,-2.786037929,-2.7833549164,4
 .4174316891\H,0,-3.3088374838,-0.9709792156,4.8966558015\H,0,-4.625574
 2332,-2.0671146295,4.1345366763\H,0,-2.4538625519,-3.366679713,-0.2071
 484494\H,0,-1.518562556,-1.7993585633,0.0694077821\H,0,-0.5935337435,-
 2.9168516575,2.2975842995\H,0,-1.546404119,-4.3217190082,1.7125702937\
 H,0,-1.9168403361,3.6761222989,4.3079931804\H,0,-3.1704246965,4.780367
 6759,4.9706327262\H,0,-3.2660465372,3.0193751316,5.1699239692\H,0,-5.3
 598498443,6.6102090034,2.2696390797\H,0,-10.0866226448,2.9772448764,-3
 .2378049351\H,0,-10.0214996329,4.7936569002,-3.0637693695\H,0,-9.52622
 83837,4.3439222922,-5.1657928899\H,0,-7.9423281988,4.818853826,-4.4984
 695288\H,0,-8.2719874736,3.1087451884,-4.7613502497\H,0,-8.3927458562,
 -1.0593291906,-4.7407040394\H,0,-8.5741770456,-2.794786539,-3.98305764
 97\H,0,-9.65530878,-1.4985364882,-3.4797222573\H,0,-4.2145832343,-3.74
 87506981,-1.4738223123\H,0,2.4902969735,-6.21256855,0.9597043583\H,0,2
 .3431476414,-5.0333818646,-0.3965350886\H,0,3.7558015626,-4.1598461069
 ,2.3128496491\H,0,2.6890863605,-3.4428058355,-1.1142340735\H,0,3.76510
 38484,-2.0803127319,-1.163264544\H,0,4.235766084,-3.947206577,-1.73131
 45888\H,0,5.2157554445,-1.285634108,0.8405844495\H,0,5.4980321616,-2.7
 505693741,1.9493288192\H,0,6.907379958,-3.8655208516,0.4161309348\H,0,
 6.5730161411,-2.6390261186,-1.0993696232\H,0,7.2695977614,-0.895396093
 9,0.6663653898\H,0,7.7729262028,-2.1227605246,1.8411415866\H,0,8.76845
 27449,-1.850443085,-1.1178099997\H,0,8.9011622816,-4.1024091008,-0.123
 1347837\H,0,10.2930323326,-3.5650798627,-0.3932969116\H,0,10.069153663
 ,-3.7066463932,1.2547864416\H,0,9.4239734582,0.1467130817,0.3451236868
 \H,0,10.1843573943,-1.1083091502,1.5213230696\H,0,11.7961915503,-1.764
 6637881,-0.3818474925\H,0,10.8870446447,-0.7795595915,-1.424393283\H,0
 ,11.4543454526,1.4153946113,-0.2328004904\H,0,12.1763483935,0.40707199
 05,1.2681859937\H,0,13.5060313454,0.4298877316,-1.653991604\H,0,14.244
 0546327,-0.9300760249,0.595444642\H,0,13.9513155181,-1.6618893678,-0.8
 222384779\H,0,15.5382636829,-0.6778711148,-0.6404964526\H,0,13.4857878
 244,2.7568639856,-0.3928691642\H,0,14.3942570379,1.7247288874,0.909839
 8113\H,0,16.3129900261,1.3402894904,-1.023230138\H,0,15.3812229178,2.2
 191201634,-2.0936228932\H,0,15.2877102331,4.4270259103,-0.9702883088\H
 ,0,16.0670963435,3.7177177312,0.2841708759\H,0,17.9824680636,3.0403775
 463,-1.1947938673\H,0,16.4158587227,4.7523025092,-3.263940673\H,0,18.0
 449368836,4.1607324664,-3.6519926329\H,0,16.8594206274,2.9764725585,-3
 .3818287361\H,0,17.9583237064,5.2999106441,0.1086400297\H,0,18.8125088
 617,5.4650227288,-1.2992620673\H,0,17.2279453643,6.0524396541,-1.30740
 9093\H,0,-5.0893468193,-8.1966107605,-0.0682411401\H,0,-6.262376729,-6
 .8314625277,0.4911789612\H,0,-4.6095231697,-7.0511749937,1.3162544938\
 O,0,-7.7692598213,6.8668067121,-0.4330067291\H,0,-8.984241808,6.207248
 1405,-1.9334918167\\Version=ES64L-G09RevD.01\State=1-A\HF=-3043.484071
 1\RMSD=4.456e-09\PG=C01 [X(C54H68Mg1N4O7)]\\@


 FLOATING POINT NUMBERS ARE LIKE SANDPILES:
 EVERY TIME THAT YOU MOVE ONE, YOU LOSE A LITTLE SAND 
 AND YOU PICK UP A LITTLE DIRT.
 Job cpu time:       0 days  5 hours 44 minutes 34.3 seconds.
 File lengths (MBytes):  RWF=   2102 Int=      0 D2E=      0 Chk=    163 Scr=      1
 Normal termination of Gaussian 09 at Wed Oct  9 07:39:06 2019.
