 Entering Gaussian System, Link 0=g16
 Input=Geometria-178-.com
 Output=Geometria-178-.log
 Initial command:
 /usr/local/g09/l1.exe "/home/padawan/israel-mol/chlorophyll-b/spectra/emi/Gau-91607.inp" -scrdir="/home/padawan/israel-mol/chlorophyll-b/spectra/emi/"
 Entering Link 1 = /usr/local/g09/l1.exe PID=     91609.
  
 Copyright (c) 1988,1990,1992,1993,1995,1998,2003,2009,2013,
            Gaussian, Inc.  All Rights Reserved.
  
 This is part of the Gaussian(R) 09 program.  It is based on
 the Gaussian(R) 03 system (copyright 2003, Gaussian, Inc.),
 the Gaussian(R) 98 system (copyright 1998, Gaussian, Inc.),
 the Gaussian(R) 94 system (copyright 1995, Gaussian, Inc.),
 the Gaussian 92(TM) system (copyright 1992, Gaussian, Inc.),
 the Gaussian 90(TM) system (copyright 1990, Gaussian, Inc.),
 the Gaussian 88(TM) system (copyright 1988, Gaussian, Inc.),
 the Gaussian 86(TM) system (copyright 1986, Carnegie Mellon
 University), and the Gaussian 82(TM) system (copyright 1983,
 Carnegie Mellon University). Gaussian is a federally registered
 trademark of Gaussian, Inc.
  
 This software contains proprietary and confidential information,
 including trade secrets, belonging to Gaussian, Inc.
  
 This software is provided under written license and may be
 used, copied, transmitted, or stored only in accord with that
 written license.
  
 The following legend is applicable only to US Government
 contracts under FAR:
  
                    RESTRICTED RIGHTS LEGEND
  
 Use, reproduction and disclosure by the US Government is
 subject to restrictions as set forth in subparagraphs (a)
 and (c) of the Commercial Computer Software - Restricted
 Rights clause in FAR 52.227-19.
  
 Gaussian, Inc.
 340 Quinnipiac St., Bldg. 40, Wallingford CT 06492
  
  
 ---------------------------------------------------------------
 Warning -- This program may not be used in any manner that
 competes with the business of Gaussian, Inc. or will provide
 assistance to any competitor of Gaussian, Inc.  The licensee
 of this program is prohibited from giving any competitor of
 Gaussian, Inc. access to this program.  By using this program,
 the user acknowledges that Gaussian, Inc. is engaged in the
 business of creating and licensing software in the field of
 computational chemistry and represents and warrants to the
 licensee that it is not a competitor of Gaussian, Inc. and that
 it will not use this program in any manner prohibited above.
 ---------------------------------------------------------------
  

 Cite this work as:
 Gaussian 09, Revision D.01,
 M. J. Frisch, G. W. Trucks, H. B. Schlegel, G. E. Scuseria, 
 M. A. Robb, J. R. Cheeseman, G. Scalmani, V. Barone, B. Mennucci, 
 G. A. Petersson, H. Nakatsuji, M. Caricato, X. Li, H. P. Hratchian, 
 A. F. Izmaylov, J. Bloino, G. Zheng, J. L. Sonnenberg, M. Hada, 
 M. Ehara, K. Toyota, R. Fukuda, J. Hasegawa, M. Ishida, T. Nakajima, 
 Y. Honda, O. Kitao, H. Nakai, T. Vreven, J. A. Montgomery, Jr., 
 J. E. Peralta, F. Ogliaro, M. Bearpark, J. J. Heyd, E. Brothers, 
 K. N. Kudin, V. N. Staroverov, T. Keith, R. Kobayashi, J. Normand, 
 K. Raghavachari, A. Rendell, J. C. Burant, S. S. Iyengar, J. Tomasi, 
 M. Cossi, N. Rega, J. M. Millam, M. Klene, J. E. Knox, J. B. Cross, 
 V. Bakken, C. Adamo, J. Jaramillo, R. Gomperts, R. E. Stratmann, 
 O. Yazyev, A. J. Austin, R. Cammi, C. Pomelli, J. W. Ochterski, 
 R. L. Martin, K. Morokuma, V. G. Zakrzewski, G. A. Voth, 
 P. Salvador, J. J. Dannenberg, S. Dapprich, A. D. Daniels, 
 O. Farkas, J. B. Foresman, J. V. Ortiz, J. Cioslowski, 
 and D. J. Fox, Gaussian, Inc., Wallingford CT, 2013.
 
 ******************************************
 Gaussian 09:  ES64L-G09RevD.01 24-Apr-2013
                 4-Oct-2019 
 ******************************************
 %nproc=3
 Will use up to    3 processors via shared memory.
 %Mem=2GB
 ----------------------------------------------------------------------
 # td=(NStates=1) iop(3/107=0140000000,3/108=0140000000) iop(3/107=0140
 000000,3/108=0140000000) CAM-B3LYP/6-31G(d,p)
 ----------------------------------------------------------------------
 1/38=1/1;
 2/12=2,17=6,18=5,40=1/2;
 3/5=1,6=6,7=101,11=9,16=1,25=1,30=1,74=-40,107=140000000,108=140000000/1,2,8,3;
 4//1;
 5/5=2,38=5/2;
 8/6=1,10=2,108=1/1;
 9/41=1,42=1,70=2/14;
 6/7=2,8=2,9=2,10=2/1;
 99/5=1,9=1/99;
 --
 TD
 --
 Symbolic Z-matrix:
 Charge =  0 Multiplicity = 1
 12                   -5.62642   1.23502   0.15302 
 6                    -5.00226  -2.10542  -0.37115 
 6                    -3.24961   1.16368   2.6384 
 6                    -6.20075   4.54222   0.59503 
 6                    -8.07655   1.13269  -2.43302 
 7                    -4.30718  -0.23498   0.98625 
 6                    -4.17538  -1.6732    0.62947 
 6                    -3.21403  -2.37711   1.46443 
 6                    -2.89834  -1.30815   2.6652 
 6                    -3.6219   -0.04129   2.10475 
 6                    -3.27484  -1.84776   4.02276 
 6                    -1.93146  -2.73945   0.66855 
 6                    -0.90415  -3.40527   1.44833 
 6                     0.24817  -3.87261   0.54235 
 8                     0.4884   -3.3936   -0.55239 
 8                     1.06644  -4.72565   1.12575 
 7                    -4.88649   2.57823   1.4374 
 6                    -3.89419   2.42043   2.41587 
 6                    -3.70494   3.65092   3.10902 
 6                    -4.61891   4.62493   2.58192 
 6                    -5.33255   3.93695   1.5058 
 6                    -2.72977   3.926     4.24998 
 6                    -4.67753   5.93436   2.9804 
 8                    -3.9445    6.46417   3.90022 
 7                    -6.99035   2.64803  -0.75219 
 6                    -6.98667   3.9426   -0.38651 
 6                    -8.04001   4.54955  -1.13994 
 6                    -8.57041   3.59725  -2.06738 
 6                    -7.86719   2.36758  -1.71566 
 6                    -8.33089   5.92652  -1.15497 
 6                    -9.65275   3.81649  -3.04998 
 6                    -9.13345   3.95168  -4.48019 
 7                    -6.36982  -0.08151  -1.14938 
 6                    -7.46198  -0.03218  -2.11154 
 6                    -7.55706  -1.35902  -2.67915 
 6                    -6.60056  -2.15862  -2.15877 
 6                    -5.9367   -1.35221  -1.13635 
 6                    -8.58723  -1.79737  -3.81234 
 6                    -6.21865  -3.54328  -2.05495 
 8                    -6.67053  -4.546    -2.63436 
 6                    -5.09687  -3.56567  -0.92012 
 6                    -5.46128  -4.59459   0.14678 
 8                    -5.91935  -4.36485   1.24074 
 8                    -5.14347  -5.86314  -0.30705 
 6                    -5.40138  -6.86131   0.65524 
 6                     2.41523  -4.93295   0.49466 
 6                     3.49475  -3.99732   0.89034 
 6                     4.12066  -2.9984    0.11223 
 6                     3.76674  -2.91012  -1.30809 
 6                     5.22359  -2.39169   0.7188 
 6                     6.60982  -2.45249   0.06828 
 6                     7.68743  -1.64217   0.66366 
 6                     9.064    -2.01023   0.00489 
 6                     9.56139  -3.41404   0.2881 
 6                     10.10782  -0.95925   0.53054 
 6                     11.51533  -0.97198  -0.19412 
 6                     12.39023   0.11732   0.27862 
 6                     13.6414   0.41759  -0.50849 
 6                     14.59442  -0.8212   -0.33169 
 6                     14.35827   1.63126  -0.09452 
 6                     15.57818   2.04391  -0.8046 
 6                     16.08453   3.52525  -0.56189 
 6                     17.31947   3.91604  -1.44711 
 6                     16.88747   3.95766  -2.9089 
 6                     17.99035   5.16595  -0.91071 
 1                    -2.59481   1.06556   3.41761 
 1                    -6.27039   5.60117   0.75654 
 1                    -8.59484   0.99849  -3.2433 
 1                    -3.67318  -3.26666   1.85011 
 1                    -1.77047  -1.28933   2.56491 
 1                    -2.98274  -2.88252   4.00371 
 1                    -2.89619  -1.10006   4.83379 
 1                    -4.38229  -1.91597   3.81296 
 1                    -1.93355  -3.24089  -0.19369 
 1                    -1.53615  -1.75766   0.29654 
 1                    -0.61461  -2.79987   2.37526 
 1                    -1.35402  -4.3446    1.79003 
 1                    -1.71424   3.58097   3.9214 
 1                    -2.6899    4.95893   4.43007 
 1                    -3.07738   3.50306   5.14005 
 1                    -5.33085   6.58389   2.49773 
 1                    -10.22903   2.91576  -2.96859 
 1                    -10.30817   4.78973  -2.8394 
 1                    -10.07258   4.06171  -5.05462 
 1                    -8.41221   4.69798  -4.65411 
 1                    -8.39473   3.24691  -4.72828 
 1                    -8.62837  -1.13092  -4.63949 
 1                    -8.34974  -2.85437  -4.20949 
 1                    -9.64518  -1.73266  -3.31273 
 1                    -4.11196  -3.77263  -1.45819 
 1                     2.71835  -6.08696   0.75267 
 1                     2.25911  -4.88022  -0.71318 
 1                     3.80255  -4.14798   1.90511 
 1                     2.57219  -2.88455  -1.40942 
 1                     4.15162  -1.99157  -1.79451 
 1                     4.23298  -3.87649  -1.90788 
 1                     4.91465  -1.057     0.56592 
 1                     5.13471  -2.54413   1.84398 
 1                     6.88339  -3.49038   0.08514 
 1                     6.17978  -2.29676  -1.07158 
 1                     7.46207  -0.62075   0.51266 
 1                     7.95064  -1.85083   1.84439 
 1                     8.8779   -1.81178  -1.05287 
 1                     8.87486  -4.08121  -0.04564 
 1                     10.57942  -3.63199  -0.2623 
 1                     9.75263  -3.60557   1.23745 
 1                     9.75903   0.16042   0.29947 
 1                     10.25337  -1.07892   1.4806 
 1                     11.94645  -1.85021  -0.04927 
 1                     11.384   -0.72155  -1.31063 
 1                     11.93755   1.09854   0.18187 
 1                     12.2637   0.09702   1.39044 
 1                     13.44725   0.22305  -1.69197 
 1                     14.87353  -1.04772   0.84007 
 1                     14.12425  -1.85262  -0.59461 
 1                     15.46087  -0.87845  -1.14847 
 1                     13.57125   2.4016   -0.0937 
 1                     14.59622   1.45804   1.06419 
 1                     16.37036   1.451    -0.60617 
 1                     15.41705   1.83452  -1.80929 
 1                     15.3178   4.30211  -0.53308 
 1                     16.48725   3.60879   0.43813 
 1                     18.22695   3.23382  -1.14909 
 1                     15.93821   4.51146  -3.19494 
 1                     17.76551   4.18635  -3.68144 
 1                     16.52646   2.87841  -3.34883 
 1                     18.38407   5.15066   0.16079 
 1                     18.79735   5.34983  -1.5372 
 1                     17.34853   6.02488  -0.99495 
 1                    -5.13782  -7.7049    0.22762 
 1                    -6.43421  -7.01356   0.72837 
 1                    -4.93026  -6.77238   1.66484 
 8                    -7.95447   6.79032  -0.37491 
 1                    -9.07756   6.27463  -1.86941 
 
 Stoichiometry    C54H68MgN4O7
 Framework group  C1[X(C54H68MgN4O7)]
 Deg. of freedom   396
 Full point group                 C1      NOp   1
 Largest Abelian subgroup         C1      NOp   1
 Largest concise Abelian subgroup C1      NOp   1
                         Standard orientation:                         
 ---------------------------------------------------------------------
 Center     Atomic      Atomic             Coordinates (Angstroms)
 Number     Number       Type             X           Y           Z
 ---------------------------------------------------------------------
      1         12           0       -5.630973    1.222758    0.161476
      2          6           0       -4.999595   -2.118913   -0.345989
      3          6           0       -3.246521    1.171478    2.640021
      4          6           0       -6.212680    4.530852    0.586823
      5          6           0       -8.088587    1.099612   -2.416538
      6          7           0       -4.305365   -0.239124    0.998881
      7          6           0       -4.170855   -1.678958    0.649706
      8          6           0       -3.205149   -2.375688    1.485666
      9          6           0       -2.888669   -1.299237    2.679515
     10          6           0       -3.617240   -0.037418    2.114214
     11          6           0       -3.259659   -1.832262    4.041182
     12          6           0       -1.924022   -2.739095    0.687942
     13          6           0       -0.892622   -3.397868    1.468304
     14          6           0        0.258195   -3.867235    0.561464
     15          8           0        0.493873   -3.393700   -0.536641
     16          8           0        1.080457   -4.714864    1.147121
     17          7           0       -4.890725    2.575027    1.436128
     18          6           0       -3.895083    2.425278    2.412455
     19          6           0       -3.706990    3.660096    3.098179
     20          6           0       -4.625099    4.628765    2.568438
     21          6           0       -5.340161    3.932935    1.498313
     22          6           0       -2.729123    3.944082    4.234640
     23          6           0       -4.685974    5.940239    2.959804
     24          8           0       -3.951577    6.477078    3.874446
     25          7           0       -7.001338    2.627128   -0.747450
     26          6           0       -6.999969    3.923722   -0.388987
     27          6           0       -8.057163    4.523698   -1.142596
     28          6           0       -8.587838    3.564866   -2.063123
     29          6           0       -7.880328    2.339025   -1.706690
     30          6           0       -8.351709    5.899805   -1.164404
     31          6           0       -9.673703    3.775800   -3.043650
     32          6           0       -9.159063    3.904375   -4.476155
     33          7           0       -6.374818   -0.102954   -1.131324
     34          6           0       -7.469988   -0.061843   -2.090442
     35          6           0       -7.563277   -1.392065   -2.650378
     36          6           0       -6.603111   -2.186246   -2.128445
     37          6           0       -5.938313   -1.372419   -1.112542
     38          6           0       -8.595696   -1.839413   -3.777997
     39          6           0       -6.217244   -3.569306   -2.018085
     40          8           0       -6.668225   -4.576413   -2.590545
     41          6           0       -5.092007   -3.582434   -0.886540
     42          6           0       -5.450500   -4.606353    0.187162
     43          8           0       -5.905876   -4.371721    1.281206
     44          8           0       -5.130716   -5.876570   -0.260570
     45          6           0       -5.383101   -6.870036    0.708038
     46          6           0        2.427886   -4.922146    0.513121
     47          6           0        3.506126   -3.981506    0.900332
     48          6           0        4.127059   -2.985298    0.114795
     49          6           0        3.768640   -2.905861   -1.304921
     50          6           0        5.230201   -2.372338    0.714647
     51          6           0        6.614624   -2.433128    0.060285
     52          6           0        7.691882   -1.616682    0.647894
     53          6           0        9.067427   -1.984802   -0.012970
     54          6           0        9.569371   -3.385711    0.276537
     55          6           0       10.110052   -0.928182    0.503669
     56          6           0       11.515414   -0.941266   -0.225163
     57          6           0       12.388850    0.152937    0.238870
     58          6           0       13.636860    0.452093   -0.553672
     59          6           0       14.593662   -0.783198   -0.372864
     60          6           0       14.351764    1.669919   -0.148622
     61          6           0       15.568444    2.081798   -0.864668
     62          6           0       16.071618    3.565786   -0.631730
     63          6           0       17.302856    3.954877   -1.522834
     64          6           0       16.866357    3.987225   -2.983529
     65          6           0       17.972056    5.209511   -0.995429
     66          1           0       -2.589134    1.079418    3.417788
     67          1           0       -6.284625    5.590493    0.742645
     68          1           0       -8.608961    0.959547   -3.224492
     69          1           0       -3.660794   -3.264276    1.877671
     70          1           0       -1.761153   -1.278019    2.575711
     71          1           0       -2.964891   -2.866347    4.027005
     72          1           0       -2.880541   -1.079068    4.846894
     73          1           0       -4.367552   -1.904536    3.835115
     74          1           0       -1.927385   -3.245333   -0.171484
     75          1           0       -1.532426   -1.758367    0.309285
     76          1           0       -0.601891   -2.786564    2.390977
     77          1           0       -1.338994   -4.336461    1.816579
     78          1           0       -1.713678    3.599890    3.904924
     79          1           0       -2.691428    4.978096    4.408861
     80          1           0       -3.072937    3.525201    5.128096
     81          1           0       -5.342447    6.585351    2.475503
     82          1           0      -10.247356    2.874028   -2.955512
     83          1           0      -10.331045    4.748472   -2.836506
     84          1           0      -10.100202    4.008753   -5.048350
     85          1           0       -8.440310    4.651586   -4.656395
     86          1           0       -8.419235    3.200173   -4.722548
     87          1           0       -8.641073   -1.177687   -4.608714
     88          1           0       -8.356617   -2.897986   -4.169976
     89          1           0       -9.652300   -1.774691   -3.275555
     90          1           0       -4.108180   -3.789813   -1.426425
     91          1           0        2.734821   -6.073900    0.776635
     92          1           0        2.267998   -4.876549   -0.694510
     93          1           0        3.817364   -4.125709    1.914989
     94          1           0        2.573731   -2.883979   -1.402788
     95          1           0        4.149636   -1.989030   -1.797601
     96          1           0        4.235614   -3.874328   -1.900736
     97          1           0        4.917286   -1.039331    0.555274
     98          1           0        5.145104   -2.518737    1.840916
     99          1           0        6.890978   -3.470192    0.082091
    100          1           0        6.180751   -2.284877   -1.079113
    101          1           0        7.463378   -0.596715    0.491898
    102          1           0        7.959195   -1.818081    1.828968
    103          1           0        8.877635   -1.792736   -1.071257
    104          1           0        8.883598   -4.056519   -0.051411
    105          1           0       10.586311   -3.604052   -0.275720
    106          1           0        9.763967   -3.571444    1.226359
    107          1           0        9.757621    0.189268    0.267428
    108          1           0       10.258780   -1.042177    1.453934
    109          1           0       11.949272   -1.817547   -0.076733
    110          1           0       11.380069   -0.697407   -1.342644
    111          1           0       11.933305    1.132417    0.138035
    112          1           0       12.265717    0.138498    1.351163
    113          1           0       13.439659    0.250453   -1.735455
    114          1           0       14.876888   -1.002452    0.799288
    115          1           0       14.125428   -1.817289   -0.628618
    116          1           0       15.457799   -0.842726   -1.191924
    117          1           0       13.562724    2.438189   -0.149711
    118          1           0       14.593653    1.503782    1.010302
    119          1           0       16.362775    1.492082   -0.665338
    120          1           0       15.404846    1.866400   -1.867693
    121          1           0       15.302939    4.340793   -0.604933
    122          1           0       16.477121    3.655950    0.366582
    123          1           0       18.213028    3.276701   -1.223771
    124          1           0       15.914789    4.536933   -3.269777
    125          1           0       17.741467    4.213900   -3.759970
    126          1           0       16.506870    2.904601   -3.416350
    127          1           0       18.369028    5.201210    0.074942
    128          1           0       18.776677    5.392007   -1.625361
    129          1           0       17.327720    6.066267   -1.082501
    130          1           0       -5.118604   -7.715304    0.284318
    131          1           0       -6.415302   -7.024581    0.785133
    132          1           0       -4.909176   -6.774249    1.715697
    133          8           0       -7.975226    6.768914   -0.390305
    134          1           0       -9.101444    6.241976   -1.878510
 ---------------------------------------------------------------------
 Rotational constants (GHZ):      0.0353158      0.0080046      0.0071068
 Standard basis: 6-31G(d,p) (6D, 7F)
 There are  1334 symmetry adapted cartesian basis functions of A   symmetry.
 There are  1334 symmetry adapted basis functions of A   symmetry.
  1334 basis functions,  2348 primitive gaussians,  1334 cartesian basis functions
   244 alpha electrons      244 beta electrons
       nuclear repulsion energy      9105.0230233783 Hartrees.
 NAtoms=  134 NActive=  134 NUniq=  134 SFac= 1.00D+00 NAtFMM=   60 NAOKFM=T Big=T
 Integral buffers will be    131072 words long.
 Raffenetti 1 integral format.
 Two-electron integral symmetry is turned on.
 One-electron integrals computed using PRISM.
 NBasis=  1334 RedAO= T EigKep=  3.38D-04  NBF=  1334
 NBsUse=  1334 1.00D-06 EigRej= -1.00D+00 NBFU=  1334
 ExpMin= 4.21D-02 ExpMax= 1.17D+04 ExpMxC= 1.76D+03 IAcc=2 IRadAn=         4 AccDes= 0.00D+00
 Harris functional with IExCor=20419 and IRadAn=       4 diagonalized for initial guess.
 HarFok:  IExCor=20419 AccDes= 0.00D+00 IRadAn=         4 IDoV= 1 UseB2=F ITyADJ=14
 ICtDFT=  3500011 ScaDFX=  1.000000  1.000000  1.000000  1.000000
 FoFCou: FMM=F IPFlag=           0 FMFlag=      100000 FMFlg1=        2001
         NFxFlg=           0 DoJE=T BraDBF=F KetDBF=T FulRan=T
         wScrn=  0.000000 ICntrl=     500 IOpCl=  0 I1Cent=   200000004 NGrid=           0
         NMat0=    1 NMatS0=      1 NMatT0=    0 NMatD0=    1 NMtDS0=    0 NMtDT0=    0
 Petite list used in FoFCou.
 Requested convergence on RMS density matrix=1.00D-08 within 128 cycles.
 Requested convergence on MAX density matrix=1.00D-06.
 Requested convergence on             energy=1.00D-06.
 No special actions if energy rises.
 SCF Done:  E(RCAM-B3LYP) =  -3043.48004788     A.U. after   16 cycles
            NFock= 16  Conv=0.52D-08     -V/T= 2.0089
 DoSCS=F DFT=T ScalE2(SS,OS)=  1.000000  1.000000
 ExpMin= 4.21D-02 ExpMax= 1.17D+04 ExpMxC= 1.76D+03 IAcc=3 IRadAn=         5 AccDes= 0.00D+00
 HarFok:  IExCor=  205 AccDes= 0.00D+00 IRadAn=         5 IDoV=-2 UseB2=F ITyADJ=14
 ICtDFT= 12500011 ScaDFX=  1.000000  1.000000  1.000000  1.000000
 Range of M.O.s used for correlation:    71  1334
 NBasis=  1334 NAE=   244 NBE=   244 NFC=    70 NFV=     0
 NROrb=   1264 NOA=   174 NOB=   174 NVA=  1090 NVB=  1090
 Would need an additional       2379600800000 words for in-memory AO integral storage.
 Orbital symmetries:
       Occupied  (A) (A) (A) (A) (A) (A) (A) (A) (A) (A) (A) (A)
                 (A) (A) (A) (A) (A) (A) (A) (A) (A) (A) (A) (A)
                 (A) (A) (A) (A) (A) (A) (A) (A) (A) (A) (A) (A)
                 (A) (A) (A) (A) (A) (A) (A) (A) (A) (A) (A) (A)
                 (A) (A) (A) (A) (A) (A) (A) (A) (A) (A) (A) (A)
                 (A) (A) (A) (A) (A) (A) (A) (A) (A) (A) (A) (A)
                 (A) (A) (A) (A) (A) (A) (A) (A) (A) (A) (A) (A)
                 (A) (A) (A) (A) (A) (A) (A) (A) (A) (A) (A) (A)
                 (A) (A) (A) (A) (A) (A) (A) (A) (A) (A) (A) (A)
                 (A) (A) (A) (A) (A) (A) (A) (A) (A) (A) (A) (A)
                 (A) (A) (A) (A) (A) (A) (A) (A) (A) (A) (A) (A)
                 (A) (A) (A) (A) (A) (A) (A) (A) (A) (A) (A) (A)
                 (A) (A) (A) (A) (A) (A) (A) (A) (A) (A) (A) (A)
                 (A) (A) (A) (A) (A) (A) (A) (A) (A) (A) (A) (A)
                 (A) (A) (A) (A) (A) (A) (A) (A) (A) (A) (A) (A)
                 (A) (A) (A) (A) (A) (A) (A) (A) (A) (A) (A) (A)
                 (A) (A) (A) (A) (A) (A) (A) (A) (A) (A) (A) (A)
                 (A) (A) (A) (A) (A) (A) (A) (A) (A) (A) (A) (A)
                 (A) (A) (A) (A) (A) (A) (A) (A) (A) (A) (A) (A)
                 (A) (A) (A) (A) (A) (A) (A) (A) (A) (A) (A) (A)
                 (A) (A) (A) (A)
       Virtual   (A) (A) (A) (A) (A) (A) (A) (A) (A) (A) (A) (A)
                 (A) (A) (A) (A) (A) (A) (A) (A) (A) (A) (A) (A)
                 (A) (A) (A) (A) (A) (A) (A) (A) (A) (A) (A) (A)
                 (A) (A) (A) (A) (A) (A) (A) (A) (A) (A) (A) (A)
                 (A) (A) (A) (A) (A) (A) (A) (A) (A) (A) (A) (A)
                 (A) (A) (A) (A) (A) (A) (A) (A) (A) (A) (A) (A)
                 (A) (A) (A) (A) (A) (A) (A) (A) (A) (A) (A) (A)
                 (A) (A) (A) (A) (A) (A) (A) (A) (A) (A) (A) (A)
                 (A) (A) (A) (A) (A) (A) (A) (A) (A) (A) (A) (A)
                 (A) (A) (A) (A) (A) (A) (A) (A) (A) (A) (A) (A)
                 (A) (A) (A) (A) (A) (A) (A) (A) (A) (A) (A) (A)
                 (A) (A) (A) (A) (A) (A) (A) (A) (A) (A) (A) (A)
                 (A) (A) (A) (A) (A) (A) (A) (A) (A) (A) (A) (A)
                 (A) (A) (A) (A) (A) (A) (A) (A) (A) (A) (A) (A)
                 (A) (A) (A) (A) (A) (A) (A) (A) (A) (A) (A) (A)
                 (A) (A) (A) (A) (A) (A) (A) (A) (A) (A) (A) (A)
                 (A) (A) (A) (A) (A) (A) (A) (A) (A) (A) (A) (A)
                 (A) (A) (A) (A) (A) (A) (A) (A) (A) (A) (A) (A)
                 (A) (A) (A) (A) (A) (A) (A) (A) (A) (A) (A) (A)
                 (A) (A) (A) (A) (A) (A) (A) (A) (A) (A) (A) (A)
                 (A) (A) (A) (A) (A) (A) (A) (A) (A) (A) (A) (A)
                 (A) (A) (A) (A) (A) (A) (A) (A) (A) (A) (A) (A)
                 (A) (A) (A) (A) (A) (A) (A) (A) (A) (A) (A) (A)
                 (A) (A) (A) (A) (A) (A) (A) (A) (A) (A) (A) (A)
                 (A) (A) (A) (A) (A) (A) (A) (A) (A) (A) (A) (A)
                 (A) (A) (A) (A) (A) (A) (A) (A) (A) (A) (A) (A)
                 (A) (A) (A) (A) (A) (A) (A) (A) (A) (A) (A) (A)
                 (A) (A) (A) (A) (A) (A) (A) (A) (A) (A) (A) (A)
                 (A) (A) (A) (A) (A) (A) (A) (A) (A) (A) (A) (A)
                 (A) (A) (A) (A) (A) (A) (A) (A) (A) (A) (A) (A)
                 (A) (A) (A) (A) (A) (A) (A) (A) (A) (A) (A) (A)
                 (A) (A) (A) (A) (A) (A) (A) (A) (A) (A) (A) (A)
                 (A) (A) (A) (A) (A) (A) (A) (A) (A) (A) (A) (A)
                 (A) (A) (A) (A) (A) (A) (A) (A) (A) (A) (A) (A)
                 (A) (A) (A) (A) (A) (A) (A) (A) (A) (A) (A) (A)
                 (A) (A) (A) (A) (A) (A) (A) (A) (A) (A) (A) (A)
                 (A) (A) (A) (A) (A) (A) (A) (A) (A) (A) (A) (A)
                 (A) (A) (A) (A) (A) (A) (A) (A) (A) (A) (A) (A)
                 (A) (A) (A) (A) (A) (A) (A) (A) (A) (A) (A) (A)
                 (A) (A) (A) (A) (A) (A) (A) (A) (A) (A) (A) (A)
                 (A) (A) (A) (A) (A) (A) (A) (A) (A) (A) (A) (A)
                 (A) (A) (A) (A) (A) (A) (A) (A) (A) (A) (A) (A)
                 (A) (A) (A) (A) (A) (A) (A) (A) (A) (A) (A) (A)
                 (A) (A) (A) (A) (A) (A) (A) (A) (A) (A) (A) (A)
                 (A) (A) (A) (A) (A) (A) (A) (A) (A) (A) (A) (A)
                 (A) (A) (A) (A) (A) (A) (A) (A) (A) (A) (A) (A)
                 (A) (A) (A) (A) (A) (A) (A) (A) (A) (A) (A) (A)
                 (A) (A) (A) (A) (A) (A) (A) (A) (A) (A) (A) (A)
                 (A) (A) (A) (A) (A) (A) (A) (A) (A) (A) (A) (A)
                 (A) (A) (A) (A) (A) (A) (A) (A) (A) (A) (A) (A)
                 (A) (A) (A) (A) (A) (A) (A) (A) (A) (A) (A) (A)
                 (A) (A) (A) (A) (A) (A) (A) (A) (A) (A) (A) (A)
                 (A) (A) (A) (A) (A) (A) (A) (A) (A) (A) (A) (A)
                 (A) (A) (A) (A) (A) (A) (A) (A) (A) (A) (A) (A)
                 (A) (A) (A) (A) (A) (A) (A) (A) (A) (A) (A) (A)
                 (A) (A) (A) (A) (A) (A) (A) (A) (A) (A) (A) (A)
                 (A) (A) (A) (A) (A) (A) (A) (A) (A) (A) (A) (A)
                 (A) (A) (A) (A) (A) (A) (A) (A) (A) (A) (A) (A)
                 (A) (A) (A) (A) (A) (A) (A) (A) (A) (A) (A) (A)
                 (A) (A) (A) (A) (A) (A) (A) (A) (A) (A) (A) (A)
                 (A) (A) (A) (A) (A) (A) (A) (A) (A) (A) (A) (A)
                 (A) (A) (A) (A) (A) (A) (A) (A) (A) (A) (A) (A)
                 (A) (A) (A) (A) (A) (A) (A) (A) (A) (A) (A) (A)
                 (A) (A) (A) (A) (A) (A) (A) (A) (A) (A) (A) (A)
                 (A) (A) (A) (A) (A) (A) (A) (A) (A) (A) (A) (A)
                 (A) (A) (A) (A) (A) (A) (A) (A) (A) (A) (A) (A)
                 (A) (A) (A) (A) (A) (A) (A) (A) (A) (A) (A) (A)
                 (A) (A) (A) (A) (A) (A) (A) (A) (A) (A) (A) (A)
                 (A) (A) (A) (A) (A) (A) (A) (A) (A) (A) (A) (A)
                 (A) (A) (A) (A) (A) (A) (A) (A) (A) (A) (A) (A)
                 (A) (A) (A) (A) (A) (A) (A) (A) (A) (A) (A) (A)
                 (A) (A) (A) (A) (A) (A) (A) (A) (A) (A) (A) (A)
                 (A) (A) (A) (A) (A) (A) (A) (A) (A) (A) (A) (A)
                 (A) (A) (A) (A) (A) (A) (A) (A) (A) (A) (A) (A)
                 (A) (A) (A) (A) (A) (A) (A) (A) (A) (A) (A) (A)
                 (A) (A) (A) (A) (A) (A) (A) (A) (A) (A) (A) (A)
                 (A) (A) (A) (A) (A) (A) (A) (A) (A) (A) (A) (A)
                 (A) (A) (A) (A) (A) (A) (A) (A) (A) (A) (A) (A)
                 (A) (A) (A) (A) (A) (A) (A) (A) (A) (A) (A) (A)
                 (A) (A) (A) (A) (A) (A) (A) (A) (A) (A) (A) (A)
                 (A) (A) (A) (A) (A) (A) (A) (A) (A) (A) (A) (A)
                 (A) (A) (A) (A) (A) (A) (A) (A) (A) (A) (A) (A)
                 (A) (A) (A) (A) (A) (A) (A) (A) (A) (A) (A) (A)
                 (A) (A) (A) (A) (A) (A) (A) (A) (A) (A) (A) (A)
                 (A) (A) (A) (A) (A) (A) (A) (A) (A) (A) (A) (A)
                 (A) (A) (A) (A) (A) (A) (A) (A) (A) (A) (A) (A)
                 (A) (A) (A) (A) (A) (A) (A) (A) (A) (A) (A) (A)
                 (A) (A) (A) (A) (A) (A) (A) (A) (A) (A) (A) (A)
                 (A) (A) (A) (A) (A) (A) (A) (A) (A) (A) (A) (A)
                 (A) (A) (A) (A) (A) (A) (A) (A) (A) (A) (A) (A)
                 (A) (A) (A) (A) (A) (A) (A) (A) (A) (A)
     8 initial guesses have been made.
 Convergence on wavefunction:    0.001000000000000
 Iteration     1 Dimension     8 NMult     0 NNew      8
 CISAX will form     8 AO SS matrices at one time.
 Iteration     2 Dimension    12 NMult     8 NNew      4
 Iteration     3 Dimension    16 NMult    12 NNew      4
 Iteration     4 Dimension    20 NMult    16 NNew      4
 Iteration     5 Dimension    24 NMult    20 NNew      4
 Iteration     6 Dimension    28 NMult    24 NNew      4
 Iteration     7 Dimension    32 NMult    28 NNew      4
 ***********************************************************************
 Excited states from <AA,BB:AA,BB> singles matrix:
 ***********************************************************************
 
 Ground to excited state transition densities written to RWF  633
 Ground to excited state transition electric dipole moments (Au):
       state          X           Y           Z        Dip. S.      Osc.
         1         0.9974      0.6998      1.2833      3.1315      0.1534
 Ground to excited state transition velocity dipole moments (Au):
       state          X           Y           Z        Dip. S.      Osc.
         1        -0.0701     -0.0495     -0.0899      0.0154      0.1400
 Ground to excited state transition magnetic dipole moments (Au):
       state          X           Y           Z
         1        -1.3666     -1.3505      1.7728
 Ground to excited state transition velocity quadrupole moments (Au):
       state          XX          YY          ZZ          XY          XZ          YZ
         1         1.3918      0.0556     -0.1939      0.3520      0.8571     -0.1916
 <0|del|b> * <b|rxdel|0> + <0|del|b> * <b|delr+rdel|0>
 Rotatory Strengths (R) in cgs (10**-40 erg-esu-cm/Gauss)
       state          XX          YY          ZZ    R(velocity)    E-M Angle
         1      -393.1386    -89.0366    513.6774     10.5007       89.42
 1/2[<0|r|b>*<b|rxdel|0> + (<0|rxdel|b>*<b|r|0>)*]
 Rotatory Strengths (R) in cgs (10**-40 erg-esu-cm/Gauss)
       state          XX          YY          ZZ     R(length)
         1       963.9071    668.3279  -1608.8251      7.8033
  1/2[<0|del|b>*<b|r|0> + (<0|r|b>*<b|del|0>)*] (Au)
       state          X           Y           Z        Dip. S.   Osc.(frdel)
         1        -0.0699     -0.0346     -0.1153      0.2198      0.1466

 Excitation energies and oscillator strengths:
 
 Excited State   1:      Singlet-A      1.9993 eV  620.15 nm  f=0.1534  <S**2>=0.000
     243 -> 246       -0.24699
     244 -> 245        0.64646
 This state for optimization and/or second-order correction.
 Total Energy, E(TD-HF/TD-KS) =  -3043.40657635    
 Copying the excited state density for this state as the 1-particle RhoCI density.
 SavETr:  write IOETrn=   770 NScale= 10 NData=  16 NLR=1 NState=    1 LETran=      28.

 **********************************************************************

            Population analysis using the SCF density.

 **********************************************************************

 Orbital symmetries:
       Occupied  (A) (A) (A) (A) (A) (A) (A) (A) (A) (A) (A) (A)
                 (A) (A) (A) (A) (A) (A) (A) (A) (A) (A) (A) (A)
                 (A) (A) (A) (A) (A) (A) (A) (A) (A) (A) (A) (A)
                 (A) (A) (A) (A) (A) (A) (A) (A) (A) (A) (A) (A)
                 (A) (A) (A) (A) (A) (A) (A) (A) (A) (A) (A) (A)
                 (A) (A) (A) (A) (A) (A) (A) (A) (A) (A) (A) (A)
                 (A) (A) (A) (A) (A) (A) (A) (A) (A) (A) (A) (A)
                 (A) (A) (A) (A) (A) (A) (A) (A) (A) (A) (A) (A)
                 (A) (A) (A) (A) (A) (A) (A) (A) (A) (A) (A) (A)
                 (A) (A) (A) (A) (A) (A) (A) (A) (A) (A) (A) (A)
                 (A) (A) (A) (A) (A) (A) (A) (A) (A) (A) (A) (A)
                 (A) (A) (A) (A) (A) (A) (A) (A) (A) (A) (A) (A)
                 (A) (A) (A) (A) (A) (A) (A) (A) (A) (A) (A) (A)
                 (A) (A) (A) (A) (A) (A) (A) (A) (A) (A) (A) (A)
                 (A) (A) (A) (A) (A) (A) (A) (A) (A) (A) (A) (A)
                 (A) (A) (A) (A) (A) (A) (A) (A) (A) (A) (A) (A)
                 (A) (A) (A) (A) (A) (A) (A) (A) (A) (A) (A) (A)
                 (A) (A) (A) (A) (A) (A) (A) (A) (A) (A) (A) (A)
                 (A) (A) (A) (A) (A) (A) (A) (A) (A) (A) (A) (A)
                 (A) (A) (A) (A) (A) (A) (A) (A) (A) (A) (A) (A)
                 (A) (A) (A) (A)
       Virtual   (A) (A) (A) (A) (A) (A) (A) (A) (A) (A) (A) (A)
                 (A) (A) (A) (A) (A) (A) (A) (A) (A) (A) (A) (A)
                 (A) (A) (A) (A) (A) (A) (A) (A) (A) (A) (A) (A)
                 (A) (A) (A) (A) (A) (A) (A) (A) (A) (A) (A) (A)
                 (A) (A) (A) (A) (A) (A) (A) (A) (A) (A) (A) (A)
                 (A) (A) (A) (A) (A) (A) (A) (A) (A) (A) (A) (A)
                 (A) (A) (A) (A) (A) (A) (A) (A) (A) (A) (A) (A)
                 (A) (A) (A) (A) (A) (A) (A) (A) (A) (A) (A) (A)
                 (A) (A) (A) (A) (A) (A) (A) (A) (A) (A) (A) (A)
                 (A) (A) (A) (A) (A) (A) (A) (A) (A) (A) (A) (A)
                 (A) (A) (A) (A) (A) (A) (A) (A) (A) (A) (A) (A)
                 (A) (A) (A) (A) (A) (A) (A) (A) (A) (A) (A) (A)
                 (A) (A) (A) (A) (A) (A) (A) (A) (A) (A) (A) (A)
                 (A) (A) (A) (A) (A) (A) (A) (A) (A) (A) (A) (A)
                 (A) (A) (A) (A) (A) (A) (A) (A) (A) (A) (A) (A)
                 (A) (A) (A) (A) (A) (A) (A) (A) (A) (A) (A) (A)
                 (A) (A) (A) (A) (A) (A) (A) (A) (A) (A) (A) (A)
                 (A) (A) (A) (A) (A) (A) (A) (A) (A) (A) (A) (A)
                 (A) (A) (A) (A) (A) (A) (A) (A) (A) (A) (A) (A)
                 (A) (A) (A) (A) (A) (A) (A) (A) (A) (A) (A) (A)
                 (A) (A) (A) (A) (A) (A) (A) (A) (A) (A) (A) (A)
                 (A) (A) (A) (A) (A) (A) (A) (A) (A) (A) (A) (A)
                 (A) (A) (A) (A) (A) (A) (A) (A) (A) (A) (A) (A)
                 (A) (A) (A) (A) (A) (A) (A) (A) (A) (A) (A) (A)
                 (A) (A) (A) (A) (A) (A) (A) (A) (A) (A) (A) (A)
                 (A) (A) (A) (A) (A) (A) (A) (A) (A) (A) (A) (A)
                 (A) (A) (A) (A) (A) (A) (A) (A) (A) (A) (A) (A)
                 (A) (A) (A) (A) (A) (A) (A) (A) (A) (A) (A) (A)
                 (A) (A) (A) (A) (A) (A) (A) (A) (A) (A) (A) (A)
                 (A) (A) (A) (A) (A) (A) (A) (A) (A) (A) (A) (A)
                 (A) (A) (A) (A) (A) (A) (A) (A) (A) (A) (A) (A)
                 (A) (A) (A) (A) (A) (A) (A) (A) (A) (A) (A) (A)
                 (A) (A) (A) (A) (A) (A) (A) (A) (A) (A) (A) (A)
                 (A) (A) (A) (A) (A) (A) (A) (A) (A) (A) (A) (A)
                 (A) (A) (A) (A) (A) (A) (A) (A) (A) (A) (A) (A)
                 (A) (A) (A) (A) (A) (A) (A) (A) (A) (A) (A) (A)
                 (A) (A) (A) (A) (A) (A) (A) (A) (A) (A) (A) (A)
                 (A) (A) (A) (A) (A) (A) (A) (A) (A) (A) (A) (A)
                 (A) (A) (A) (A) (A) (A) (A) (A) (A) (A) (A) (A)
                 (A) (A) (A) (A) (A) (A) (A) (A) (A) (A) (A) (A)
                 (A) (A) (A) (A) (A) (A) (A) (A) (A) (A) (A) (A)
                 (A) (A) (A) (A) (A) (A) (A) (A) (A) (A) (A) (A)
                 (A) (A) (A) (A) (A) (A) (A) (A) (A) (A) (A) (A)
                 (A) (A) (A) (A) (A) (A) (A) (A) (A) (A) (A) (A)
                 (A) (A) (A) (A) (A) (A) (A) (A) (A) (A) (A) (A)
                 (A) (A) (A) (A) (A) (A) (A) (A) (A) (A) (A) (A)
                 (A) (A) (A) (A) (A) (A) (A) (A) (A) (A) (A) (A)
                 (A) (A) (A) (A) (A) (A) (A) (A) (A) (A) (A) (A)
                 (A) (A) (A) (A) (A) (A) (A) (A) (A) (A) (A) (A)
                 (A) (A) (A) (A) (A) (A) (A) (A) (A) (A) (A) (A)
                 (A) (A) (A) (A) (A) (A) (A) (A) (A) (A) (A) (A)
                 (A) (A) (A) (A) (A) (A) (A) (A) (A) (A) (A) (A)
                 (A) (A) (A) (A) (A) (A) (A) (A) (A) (A) (A) (A)
                 (A) (A) (A) (A) (A) (A) (A) (A) (A) (A) (A) (A)
                 (A) (A) (A) (A) (A) (A) (A) (A) (A) (A) (A) (A)
                 (A) (A) (A) (A) (A) (A) (A) (A) (A) (A) (A) (A)
                 (A) (A) (A) (A) (A) (A) (A) (A) (A) (A) (A) (A)
                 (A) (A) (A) (A) (A) (A) (A) (A) (A) (A) (A) (A)
                 (A) (A) (A) (A) (A) (A) (A) (A) (A) (A) (A) (A)
                 (A) (A) (A) (A) (A) (A) (A) (A) (A) (A) (A) (A)
                 (A) (A) (A) (A) (A) (A) (A) (A) (A) (A) (A) (A)
                 (A) (A) (A) (A) (A) (A) (A) (A) (A) (A) (A) (A)
                 (A) (A) (A) (A) (A) (A) (A) (A) (A) (A) (A) (A)
                 (A) (A) (A) (A) (A) (A) (A) (A) (A) (A) (A) (A)
                 (A) (A) (A) (A) (A) (A) (A) (A) (A) (A) (A) (A)
                 (A) (A) (A) (A) (A) (A) (A) (A) (A) (A) (A) (A)
                 (A) (A) (A) (A) (A) (A) (A) (A) (A) (A) (A) (A)
                 (A) (A) (A) (A) (A) (A) (A) (A) (A) (A) (A) (A)
                 (A) (A) (A) (A) (A) (A) (A) (A) (A) (A) (A) (A)
                 (A) (A) (A) (A) (A) (A) (A) (A) (A) (A) (A) (A)
                 (A) (A) (A) (A) (A) (A) (A) (A) (A) (A) (A) (A)
                 (A) (A) (A) (A) (A) (A) (A) (A) (A) (A) (A) (A)
                 (A) (A) (A) (A) (A) (A) (A) (A) (A) (A) (A) (A)
                 (A) (A) (A) (A) (A) (A) (A) (A) (A) (A) (A) (A)
                 (A) (A) (A) (A) (A) (A) (A) (A) (A) (A) (A) (A)
                 (A) (A) (A) (A) (A) (A) (A) (A) (A) (A) (A) (A)
                 (A) (A) (A) (A) (A) (A) (A) (A) (A) (A) (A) (A)
                 (A) (A) (A) (A) (A) (A) (A) (A) (A) (A) (A) (A)
                 (A) (A) (A) (A) (A) (A) (A) (A) (A) (A) (A) (A)
                 (A) (A) (A) (A) (A) (A) (A) (A) (A) (A) (A) (A)
                 (A) (A) (A) (A) (A) (A) (A) (A) (A) (A) (A) (A)
                 (A) (A) (A) (A) (A) (A) (A) (A) (A) (A) (A) (A)
                 (A) (A) (A) (A) (A) (A) (A) (A) (A) (A) (A) (A)
                 (A) (A) (A) (A) (A) (A) (A) (A) (A) (A) (A) (A)
                 (A) (A) (A) (A) (A) (A) (A) (A) (A) (A) (A) (A)
                 (A) (A) (A) (A) (A) (A) (A) (A) (A) (A) (A) (A)
                 (A) (A) (A) (A) (A) (A) (A) (A) (A) (A) (A) (A)
                 (A) (A) (A) (A) (A) (A) (A) (A) (A) (A) (A) (A)
                 (A) (A) (A) (A) (A) (A) (A) (A) (A) (A) (A) (A)
                 (A) (A) (A) (A) (A) (A) (A) (A) (A) (A) (A) (A)
                 (A) (A) (A) (A) (A) (A) (A) (A) (A) (A)
 The electronic state is 1-A.
 Alpha  occ. eigenvalues --  -46.81582 -19.22870 -19.22700 -19.18540 -19.17906
 Alpha  occ. eigenvalues --  -19.17104 -19.15557 -19.15431 -14.39014 -14.37493
 Alpha  occ. eigenvalues --  -14.37296 -14.36867 -10.36039 -10.35287 -10.32390
 Alpha  occ. eigenvalues --  -10.29864 -10.28541 -10.28247 -10.28161 -10.27358
 Alpha  occ. eigenvalues --  -10.27193 -10.27186 -10.27039 -10.26812 -10.26775
 Alpha  occ. eigenvalues --  -10.26262 -10.26222 -10.25976 -10.25489 -10.25066
 Alpha  occ. eigenvalues --  -10.25036 -10.24658 -10.24551 -10.24497 -10.24434
 Alpha  occ. eigenvalues --  -10.24416 -10.24283 -10.24195 -10.24093 -10.24072
 Alpha  occ. eigenvalues --  -10.23783 -10.23478 -10.23393 -10.23000 -10.22995
 Alpha  occ. eigenvalues --  -10.22846 -10.22797 -10.22778 -10.22757 -10.22356
 Alpha  occ. eigenvalues --  -10.22197 -10.22094 -10.22057 -10.21962 -10.21892
 Alpha  occ. eigenvalues --  -10.21746 -10.21331 -10.20921 -10.20650 -10.20542
 Alpha  occ. eigenvalues --  -10.20140 -10.19988 -10.19790 -10.19657 -10.19544
 Alpha  occ. eigenvalues --  -10.19034  -3.10130  -1.85071  -1.84620  -1.84522
 Alpha  occ. eigenvalues --   -1.13798  -1.13793  -1.06177  -1.05976  -1.05231
 Alpha  occ. eigenvalues --   -1.04298  -1.02212  -1.00801  -0.99630  -0.98704
 Alpha  occ. eigenvalues --   -0.97316  -0.88726  -0.87602  -0.87179  -0.86253
 Alpha  occ. eigenvalues --   -0.85648  -0.84831  -0.84518  -0.84049  -0.83776
 Alpha  occ. eigenvalues --   -0.83366  -0.82741  -0.82396  -0.80959  -0.80684
 Alpha  occ. eigenvalues --   -0.79558  -0.79109  -0.78121  -0.78094  -0.76901
 Alpha  occ. eigenvalues --   -0.75722  -0.75511  -0.74527  -0.73572  -0.72656
 Alpha  occ. eigenvalues --   -0.72465  -0.71092  -0.70592  -0.70223  -0.69758
 Alpha  occ. eigenvalues --   -0.69358  -0.69083  -0.67967  -0.67599  -0.66831
 Alpha  occ. eigenvalues --   -0.66466  -0.65353  -0.64443  -0.63251  -0.62755
 Alpha  occ. eigenvalues --   -0.62388  -0.61637  -0.61189  -0.59740  -0.59302
 Alpha  occ. eigenvalues --   -0.58373  -0.58262  -0.58054  -0.57227  -0.57066
 Alpha  occ. eigenvalues --   -0.56883  -0.56504  -0.55610  -0.55234  -0.55021
 Alpha  occ. eigenvalues --   -0.54278  -0.53832  -0.53169  -0.52882  -0.52264
 Alpha  occ. eigenvalues --   -0.52013  -0.51929  -0.51579  -0.51329  -0.50905
 Alpha  occ. eigenvalues --   -0.50856  -0.50098  -0.50030  -0.49865  -0.49211
 Alpha  occ. eigenvalues --   -0.49057  -0.48891  -0.48620  -0.48504  -0.48061
 Alpha  occ. eigenvalues --   -0.47792  -0.47633  -0.47382  -0.47056  -0.46976
 Alpha  occ. eigenvalues --   -0.46913  -0.46652  -0.46513  -0.46237  -0.46136
 Alpha  occ. eigenvalues --   -0.45859  -0.45673  -0.45342  -0.45142  -0.44957
 Alpha  occ. eigenvalues --   -0.44896  -0.44687  -0.44292  -0.44249  -0.43808
 Alpha  occ. eigenvalues --   -0.43538  -0.43433  -0.43273  -0.43206  -0.43176
 Alpha  occ. eigenvalues --   -0.42899  -0.42605  -0.42534  -0.42334  -0.42279
 Alpha  occ. eigenvalues --   -0.41980  -0.41714  -0.41621  -0.41442  -0.41148
 Alpha  occ. eigenvalues --   -0.40876  -0.40816  -0.40458  -0.40188  -0.40027
 Alpha  occ. eigenvalues --   -0.39698  -0.39670  -0.39473  -0.39313  -0.39116
 Alpha  occ. eigenvalues --   -0.38873  -0.38837  -0.38648  -0.38368  -0.38198
 Alpha  occ. eigenvalues --   -0.38052  -0.37829  -0.37783  -0.37330  -0.37233
 Alpha  occ. eigenvalues --   -0.37041  -0.36554  -0.36080  -0.35913  -0.35785
 Alpha  occ. eigenvalues --   -0.35545  -0.35320  -0.35260  -0.34947  -0.34866
 Alpha  occ. eigenvalues --   -0.34291  -0.34139  -0.33825  -0.33774  -0.33700
 Alpha  occ. eigenvalues --   -0.33398  -0.32584  -0.32269  -0.32132  -0.31894
 Alpha  occ. eigenvalues --   -0.31783  -0.31443  -0.30747  -0.30549  -0.30430
 Alpha  occ. eigenvalues --   -0.29384  -0.28581  -0.27704  -0.27230  -0.26707
 Alpha  occ. eigenvalues --   -0.26503  -0.26019  -0.23802  -0.22033
 Alpha virt. eigenvalues --   -0.09136  -0.07287  -0.02460  -0.01165   0.00100
 Alpha virt. eigenvalues --    0.00672   0.02317   0.03118   0.03787   0.04039
 Alpha virt. eigenvalues --    0.04374   0.05694   0.08138   0.08423   0.08818
 Alpha virt. eigenvalues --    0.09581   0.10170   0.10264   0.10390   0.10588
 Alpha virt. eigenvalues --    0.11031   0.11267   0.11601   0.11865   0.11984
 Alpha virt. eigenvalues --    0.11997   0.12224   0.12756   0.12812   0.13412
 Alpha virt. eigenvalues --    0.13508   0.13616   0.14053   0.14157   0.14466
 Alpha virt. eigenvalues --    0.14521   0.14586   0.14696   0.14960   0.15055
 Alpha virt. eigenvalues --    0.15378   0.15393   0.15443   0.15863   0.15984
 Alpha virt. eigenvalues --    0.16111   0.16407   0.16456   0.16650   0.16855
 Alpha virt. eigenvalues --    0.16934   0.16950   0.17293   0.17522   0.17539
 Alpha virt. eigenvalues --    0.17588   0.17973   0.18134   0.18249   0.18393
 Alpha virt. eigenvalues --    0.18453   0.18585   0.18779   0.18799   0.18961
 Alpha virt. eigenvalues --    0.19132   0.19738   0.19838   0.20121   0.20181
 Alpha virt. eigenvalues --    0.20236   0.20452   0.20628   0.20941   0.21109
 Alpha virt. eigenvalues --    0.21206   0.21420   0.21642   0.21842   0.21888
 Alpha virt. eigenvalues --    0.22107   0.22252   0.22470   0.22651   0.22865
 Alpha virt. eigenvalues --    0.23086   0.23243   0.23345   0.23478   0.23943
 Alpha virt. eigenvalues --    0.24013   0.24180   0.24574   0.24839   0.24886
 Alpha virt. eigenvalues --    0.24927   0.25149   0.25352   0.25595   0.25980
 Alpha virt. eigenvalues --    0.26041   0.26333   0.26429   0.26642   0.27096
 Alpha virt. eigenvalues --    0.27314   0.27579   0.27788   0.28233   0.28282
 Alpha virt. eigenvalues --    0.28617   0.28757   0.28909   0.29418   0.29587
 Alpha virt. eigenvalues --    0.29806   0.30186   0.30425   0.30630   0.30936
 Alpha virt. eigenvalues --    0.30999   0.31278   0.31430   0.31898   0.32356
 Alpha virt. eigenvalues --    0.32622   0.33130   0.33327   0.33864   0.34159
 Alpha virt. eigenvalues --    0.34448   0.34544   0.34846   0.35733   0.36574
 Alpha virt. eigenvalues --    0.36713   0.37454   0.37669   0.38038   0.38851
 Alpha virt. eigenvalues --    0.39241   0.39380   0.40096   0.40559   0.40909
 Alpha virt. eigenvalues --    0.41129   0.42132   0.42677   0.43010   0.43932
 Alpha virt. eigenvalues --    0.44404   0.44904   0.45352   0.46100   0.46666
 Alpha virt. eigenvalues --    0.47613   0.47712   0.47922   0.48774   0.49182
 Alpha virt. eigenvalues --    0.49317   0.49466   0.50433   0.50701   0.51107
 Alpha virt. eigenvalues --    0.51335   0.51706   0.52325   0.52589   0.52736
 Alpha virt. eigenvalues --    0.52954   0.53109   0.53182   0.53543   0.53735
 Alpha virt. eigenvalues --    0.53804   0.53999   0.54333   0.54587   0.54658
 Alpha virt. eigenvalues --    0.55117   0.55431   0.55844   0.55918   0.56167
 Alpha virt. eigenvalues --    0.56234   0.56505   0.56702   0.56782   0.57108
 Alpha virt. eigenvalues --    0.57384   0.57491   0.58045   0.58292   0.58347
 Alpha virt. eigenvalues --    0.58568   0.58831   0.58994   0.59127   0.59508
 Alpha virt. eigenvalues --    0.59669   0.60359   0.60624   0.60977   0.61481
 Alpha virt. eigenvalues --    0.61530   0.61703   0.61821   0.62089   0.62380
 Alpha virt. eigenvalues --    0.62458   0.62826   0.62872   0.62922   0.63627
 Alpha virt. eigenvalues --    0.63758   0.64126   0.64262   0.64473   0.64614
 Alpha virt. eigenvalues --    0.64836   0.65012   0.65661   0.65760   0.65895
 Alpha virt. eigenvalues --    0.66115   0.66525   0.66650   0.66836   0.67202
 Alpha virt. eigenvalues --    0.67299   0.67545   0.68040   0.68293   0.68526
 Alpha virt. eigenvalues --    0.68558   0.68923   0.69207   0.69464   0.69988
 Alpha virt. eigenvalues --    0.70238   0.70371   0.70504   0.70628   0.70776
 Alpha virt. eigenvalues --    0.71380   0.71619   0.71960   0.72018   0.72539
 Alpha virt. eigenvalues --    0.72943   0.73419   0.73554   0.73597   0.73698
 Alpha virt. eigenvalues --    0.73871   0.74210   0.74427   0.74814   0.75443
 Alpha virt. eigenvalues --    0.75661   0.75833   0.76074   0.76184   0.76397
 Alpha virt. eigenvalues --    0.76632   0.76814   0.77254   0.77419   0.77651
 Alpha virt. eigenvalues --    0.77787   0.78128   0.78187   0.78269   0.78426
 Alpha virt. eigenvalues --    0.78644   0.78989   0.79066   0.79312   0.79395
 Alpha virt. eigenvalues --    0.79906   0.80209   0.80892   0.81399   0.81412
 Alpha virt. eigenvalues --    0.81576   0.82120   0.82390   0.82592   0.82728
 Alpha virt. eigenvalues --    0.82883   0.83204   0.83331   0.83391   0.83843
 Alpha virt. eigenvalues --    0.83897   0.84067   0.84236   0.84683   0.84794
 Alpha virt. eigenvalues --    0.84979   0.85333   0.85417   0.85596   0.85718
 Alpha virt. eigenvalues --    0.86153   0.86213   0.86250   0.86504   0.86773
 Alpha virt. eigenvalues --    0.86899   0.87333   0.87515   0.87722   0.88000
 Alpha virt. eigenvalues --    0.88327   0.88511   0.88698   0.88758   0.88803
 Alpha virt. eigenvalues --    0.89095   0.89307   0.89402   0.89557   0.89797
 Alpha virt. eigenvalues --    0.90284   0.90568   0.90773   0.90897   0.90994
 Alpha virt. eigenvalues --    0.91265   0.91381   0.91891   0.92150   0.92234
 Alpha virt. eigenvalues --    0.92325   0.92592   0.92836   0.92883   0.93149
 Alpha virt. eigenvalues --    0.93295   0.93388   0.93574   0.93717   0.93922
 Alpha virt. eigenvalues --    0.94446   0.94668   0.94930   0.95023   0.95056
 Alpha virt. eigenvalues --    0.95508   0.95560   0.95645   0.95846   0.96209
 Alpha virt. eigenvalues --    0.96372   0.96503   0.96866   0.97008   0.97326
 Alpha virt. eigenvalues --    0.97545   0.97695   0.98188   0.98463   0.98836
 Alpha virt. eigenvalues --    0.99067   0.99354   0.99451   0.99885   0.99985
 Alpha virt. eigenvalues --    1.00367   1.00663   1.00712   1.00875   1.01089
 Alpha virt. eigenvalues --    1.01371   1.01401   1.01976   1.02373   1.02501
 Alpha virt. eigenvalues --    1.02801   1.02947   1.03180   1.03449   1.03758
 Alpha virt. eigenvalues --    1.04204   1.04288   1.04545   1.04810   1.05342
 Alpha virt. eigenvalues --    1.05914   1.06130   1.06321   1.06576   1.06834
 Alpha virt. eigenvalues --    1.07194   1.07427   1.08689   1.08842   1.09148
 Alpha virt. eigenvalues --    1.09367   1.09448   1.10073   1.10812   1.11101
 Alpha virt. eigenvalues --    1.11459   1.12215   1.12472   1.13405   1.13581
 Alpha virt. eigenvalues --    1.14046   1.14566   1.14830   1.15461   1.15887
 Alpha virt. eigenvalues --    1.16275   1.17048   1.17564   1.17999   1.18198
 Alpha virt. eigenvalues --    1.18632   1.19266   1.19972   1.20038   1.21075
 Alpha virt. eigenvalues --    1.21507   1.21908   1.22758   1.23036   1.23314
 Alpha virt. eigenvalues --    1.23943   1.24331   1.24932   1.26028   1.26366
 Alpha virt. eigenvalues --    1.26775   1.27240   1.27574   1.28343   1.28618
 Alpha virt. eigenvalues --    1.29272   1.29706   1.30047   1.30646   1.31261
 Alpha virt. eigenvalues --    1.31429   1.31944   1.32222   1.32769   1.33288
 Alpha virt. eigenvalues --    1.33565   1.33808   1.34383   1.34429   1.35577
 Alpha virt. eigenvalues --    1.35958   1.36067   1.36385   1.36621   1.37512
 Alpha virt. eigenvalues --    1.37846   1.38200   1.38663   1.39305   1.39466
 Alpha virt. eigenvalues --    1.39763   1.40379   1.40832   1.41503   1.41863
 Alpha virt. eigenvalues --    1.42126   1.42577   1.43302   1.44256   1.44618
 Alpha virt. eigenvalues --    1.44767   1.45324   1.46091   1.47148   1.47566
 Alpha virt. eigenvalues --    1.47583   1.48467   1.49377   1.49545   1.49797
 Alpha virt. eigenvalues --    1.50533   1.50662   1.50924   1.51099   1.51763
 Alpha virt. eigenvalues --    1.52346   1.52467   1.53105   1.53459   1.53761
 Alpha virt. eigenvalues --    1.54081   1.54748   1.55212   1.55452   1.56055
 Alpha virt. eigenvalues --    1.56821   1.56882   1.57160   1.57544   1.57588
 Alpha virt. eigenvalues --    1.57967   1.58618   1.58773   1.59369   1.60103
 Alpha virt. eigenvalues --    1.60591   1.60676   1.61003   1.61044   1.61755
 Alpha virt. eigenvalues --    1.62737   1.62955   1.63094   1.63520   1.64184
 Alpha virt. eigenvalues --    1.64502   1.64843   1.65469   1.65509   1.65836
 Alpha virt. eigenvalues --    1.66254   1.67250   1.68051   1.68461   1.68907
 Alpha virt. eigenvalues --    1.69036   1.69422   1.69480   1.70513   1.70807
 Alpha virt. eigenvalues --    1.71138   1.71355   1.71597   1.72258   1.72530
 Alpha virt. eigenvalues --    1.72677   1.73093   1.73318   1.74011   1.74443
 Alpha virt. eigenvalues --    1.75266   1.75323   1.75656   1.76183   1.76845
 Alpha virt. eigenvalues --    1.77053   1.77323   1.78014   1.78439   1.78648
 Alpha virt. eigenvalues --    1.78705   1.78851   1.79563   1.80060   1.80212
 Alpha virt. eigenvalues --    1.80441   1.80670   1.81041   1.81429   1.82124
 Alpha virt. eigenvalues --    1.82184   1.82718   1.82759   1.83071   1.83363
 Alpha virt. eigenvalues --    1.83675   1.83836   1.84324   1.84623   1.84713
 Alpha virt. eigenvalues --    1.84895   1.85206   1.85390   1.85603   1.85727
 Alpha virt. eigenvalues --    1.85966   1.86153   1.86294   1.86617   1.86686
 Alpha virt. eigenvalues --    1.86984   1.87356   1.87411   1.87645   1.87837
 Alpha virt. eigenvalues --    1.88273   1.88666   1.88888   1.88988   1.89328
 Alpha virt. eigenvalues --    1.89687   1.89770   1.90130   1.90307   1.90595
 Alpha virt. eigenvalues --    1.90803   1.91029   1.91318   1.91455   1.91831
 Alpha virt. eigenvalues --    1.92092   1.92225   1.92423   1.92609   1.92839
 Alpha virt. eigenvalues --    1.93420   1.93643   1.93812   1.93951   1.94439
 Alpha virt. eigenvalues --    1.94564   1.94909   1.95009   1.95265   1.95557
 Alpha virt. eigenvalues --    1.95821   1.95952   1.96173   1.96362   1.96670
 Alpha virt. eigenvalues --    1.96777   1.97388   1.98081   1.98563   1.98670
 Alpha virt. eigenvalues --    1.98876   1.99369   1.99685   2.00168   2.00488
 Alpha virt. eigenvalues --    2.00652   2.01256   2.01619   2.02148   2.02491
 Alpha virt. eigenvalues --    2.02765   2.02812   2.03136   2.03259   2.03300
 Alpha virt. eigenvalues --    2.04010   2.04302   2.04468   2.04841   2.05115
 Alpha virt. eigenvalues --    2.05342   2.05475   2.06133   2.06430   2.06682
 Alpha virt. eigenvalues --    2.06946   2.07256   2.07568   2.08100   2.08249
 Alpha virt. eigenvalues --    2.08337   2.08775   2.09157   2.09296   2.09396
 Alpha virt. eigenvalues --    2.09489   2.09703   2.10132   2.10522   2.11009
 Alpha virt. eigenvalues --    2.11283   2.11495   2.11591   2.12202   2.12304
 Alpha virt. eigenvalues --    2.12557   2.12898   2.12980   2.13147   2.13570
 Alpha virt. eigenvalues --    2.13870   2.14222   2.14467   2.15207   2.15412
 Alpha virt. eigenvalues --    2.15517   2.15792   2.15910   2.16168   2.16673
 Alpha virt. eigenvalues --    2.16700   2.17099   2.17276   2.17743   2.18413
 Alpha virt. eigenvalues --    2.18528   2.19387   2.20245   2.20466   2.21008
 Alpha virt. eigenvalues --    2.21099   2.21383   2.21597   2.21711   2.22439
 Alpha virt. eigenvalues --    2.22471   2.22647   2.23287   2.23388   2.23452
 Alpha virt. eigenvalues --    2.23634   2.24133   2.24592   2.25051   2.25532
 Alpha virt. eigenvalues --    2.26089   2.26435   2.26760   2.27088   2.27240
 Alpha virt. eigenvalues --    2.27549   2.27726   2.27782   2.28432   2.28638
 Alpha virt. eigenvalues --    2.29779   2.30039   2.30268   2.30714   2.30863
 Alpha virt. eigenvalues --    2.31373   2.32024   2.32176   2.32496   2.32906
 Alpha virt. eigenvalues --    2.33286   2.33475   2.33828   2.34064   2.34391
 Alpha virt. eigenvalues --    2.34663   2.34676   2.35147   2.35360   2.35586
 Alpha virt. eigenvalues --    2.35693   2.36182   2.36338   2.36726   2.36872
 Alpha virt. eigenvalues --    2.37760   2.37936   2.38460   2.38790   2.38928
 Alpha virt. eigenvalues --    2.39037   2.39579   2.39641   2.39870   2.40418
 Alpha virt. eigenvalues --    2.40697   2.41171   2.41629   2.41724   2.42081
 Alpha virt. eigenvalues --    2.42520   2.43201   2.43540   2.43803   2.43922
 Alpha virt. eigenvalues --    2.44071   2.44598   2.44938   2.45130   2.45260
 Alpha virt. eigenvalues --    2.45664   2.45932   2.46287   2.46729   2.46986
 Alpha virt. eigenvalues --    2.47472   2.47902   2.48033   2.48435   2.48936
 Alpha virt. eigenvalues --    2.49965   2.50209   2.50726   2.51245   2.51776
 Alpha virt. eigenvalues --    2.51959   2.51979   2.52698   2.52894   2.53070
 Alpha virt. eigenvalues --    2.53486   2.53620   2.54028   2.54745   2.55203
 Alpha virt. eigenvalues --    2.55539   2.55889   2.56103   2.56245   2.56525
 Alpha virt. eigenvalues --    2.56594   2.57311   2.57998   2.58404   2.58745
 Alpha virt. eigenvalues --    2.59056   2.59777   2.60085   2.60441   2.60486
 Alpha virt. eigenvalues --    2.60547   2.61386   2.61539   2.61796   2.62495
 Alpha virt. eigenvalues --    2.63105   2.63171   2.63542   2.63655   2.64153
 Alpha virt. eigenvalues --    2.64356   2.64525   2.64585   2.64833   2.65603
 Alpha virt. eigenvalues --    2.65848   2.66530   2.66696   2.66980   2.67378
 Alpha virt. eigenvalues --    2.67750   2.68254   2.68377   2.68577   2.69143
 Alpha virt. eigenvalues --    2.69178   2.69275   2.69719   2.70110   2.70589
 Alpha virt. eigenvalues --    2.71385   2.71701   2.72211   2.72261   2.72678
 Alpha virt. eigenvalues --    2.72750   2.72911   2.73340   2.73603   2.73786
 Alpha virt. eigenvalues --    2.74137   2.74286   2.74707   2.74994   2.75423
 Alpha virt. eigenvalues --    2.75523   2.75949   2.76233   2.76445   2.76632
 Alpha virt. eigenvalues --    2.77510   2.77998   2.78032   2.78607   2.78985
 Alpha virt. eigenvalues --    2.79447   2.79551   2.79802   2.80129   2.80416
 Alpha virt. eigenvalues --    2.80873   2.81414   2.81696   2.82026   2.82295
 Alpha virt. eigenvalues --    2.82967   2.83628   2.84040   2.84554   2.84642
 Alpha virt. eigenvalues --    2.85005   2.85323   2.85736   2.86092   2.86676
 Alpha virt. eigenvalues --    2.86757   2.87319   2.87610   2.87772   2.88482
 Alpha virt. eigenvalues --    2.89498   2.89717   2.89795   2.90463   2.90693
 Alpha virt. eigenvalues --    2.91854   2.92344   2.92488   2.93072   2.93168
 Alpha virt. eigenvalues --    2.93685   2.93929   2.94267   2.94678   2.94780
 Alpha virt. eigenvalues --    2.95073   2.95363   2.96162   2.96265   2.96676
 Alpha virt. eigenvalues --    2.97306   2.97607   2.97898   2.98181   2.98420
 Alpha virt. eigenvalues --    2.98509   2.99265   2.99774   2.99925   3.00226
 Alpha virt. eigenvalues --    3.00529   3.00692   3.00851   3.01401   3.01842
 Alpha virt. eigenvalues --    3.02280   3.02423   3.02825   3.03349   3.04179
 Alpha virt. eigenvalues --    3.04206   3.05462   3.05755   3.07121   3.07329
 Alpha virt. eigenvalues --    3.07329   3.08112   3.08605   3.09112   3.10203
 Alpha virt. eigenvalues --    3.10563   3.11307   3.13567   3.14807   3.17516
 Alpha virt. eigenvalues --    3.17942   3.18408   3.20268   3.20527   3.21839
 Alpha virt. eigenvalues --    3.21930   3.22731   3.23102   3.23669   3.24501
 Alpha virt. eigenvalues --    3.24885   3.25335   3.25618   3.26618   3.26917
 Alpha virt. eigenvalues --    3.27043   3.28331   3.28437   3.29838   3.29941
 Alpha virt. eigenvalues --    3.30158   3.30376   3.31176   3.31268   3.32098
 Alpha virt. eigenvalues --    3.32486   3.32760   3.33195   3.34073   3.34840
 Alpha virt. eigenvalues --    3.35532   3.35711   3.37251   3.37775   3.38508
 Alpha virt. eigenvalues --    3.38801   3.39816   3.42063   3.42331   3.42453
 Alpha virt. eigenvalues --    3.43289   3.44522   3.45099   3.46496   3.47135
 Alpha virt. eigenvalues --    3.47629   3.48546   3.48937   3.48998   3.49519
 Alpha virt. eigenvalues --    3.51329   3.52170   3.52967   3.53817   3.54518
 Alpha virt. eigenvalues --    3.55207   3.56814   3.57005   3.57207   3.59203
 Alpha virt. eigenvalues --    3.59520   3.59714   3.60738   3.61565   3.62388
 Alpha virt. eigenvalues --    3.63675   3.66885   3.68526   3.72699   3.73331
 Alpha virt. eigenvalues --    3.74043   3.75412   3.77993   3.81249   3.82789
 Alpha virt. eigenvalues --    3.99621   4.02137   4.02308   4.05493   4.08541
 Alpha virt. eigenvalues --    4.15513   4.15820   4.17100   4.18813   4.19325
 Alpha virt. eigenvalues --    4.19969   4.21845   4.22807   4.25017   4.25991
 Alpha virt. eigenvalues --    4.26269   4.28036   4.28267   4.30102   4.31269
 Alpha virt. eigenvalues --    4.31491   4.34962   4.35581   4.36220   4.37454
 Alpha virt. eigenvalues --    4.38016   4.38522   4.39904   4.41600   4.43404
 Alpha virt. eigenvalues --    4.43470   4.44724   4.46143   4.48581   4.48918
 Alpha virt. eigenvalues --    4.49494   4.49888   4.51223   4.51638   4.53054
 Alpha virt. eigenvalues --    4.53676   4.54673   4.55192   4.56839   4.57417
 Alpha virt. eigenvalues --    4.57789   4.63921   4.64253   4.65615   4.66110
 Alpha virt. eigenvalues --    4.66827   4.68627   4.68980   4.69970   4.72450
 Alpha virt. eigenvalues --    4.75517   4.76527   4.80571   4.81071   4.82369
 Alpha virt. eigenvalues --    4.83603   4.85488   4.85502   4.89829   4.95619
          Condensed to atoms (all electrons):
 Mulliken charges:
               1
     1  Mg   0.821517
     2  C    0.054157
     3  C   -0.162260
     4  C   -0.148129
     5  C   -0.106992
     6  N   -0.617848
     7  C    0.287891
     8  C   -0.174330
     9  C   -0.166005
    10  C    0.358719
    11  C   -0.295904
    12  C   -0.166423
    13  C   -0.265323
    14  C    0.597336
    15  O   -0.473095
    16  O   -0.454879
    17  N   -0.725422
    18  C    0.315765
    19  C    0.016875
    20  C    0.030544
    21  C    0.296808
    22  C   -0.379581
    23  C    0.198367
    24  O   -0.465786
    25  N   -0.696035
    26  C    0.331878
    27  C   -0.031685
    28  C    0.022146
    29  C    0.290250
    30  C    0.220924
    31  C   -0.242408
    32  C   -0.315142
    33  N   -0.747492
    34  C    0.267276
    35  C   -0.004266
    36  C    0.049670
    37  C    0.329979
    38  C   -0.377868
    39  C    0.369818
    40  O   -0.466232
    41  C   -0.327228
    42  C    0.634314
    43  O   -0.460191
    44  O   -0.448794
    45  C   -0.081535
    46  C   -0.015771
    47  C   -0.127322
    48  C    0.203506
    49  C   -0.398976
    50  C   -0.215068
    51  C   -0.161364
    52  C   -0.148252
    53  C   -0.069009
    54  C   -0.312761
    55  C   -0.174461
    56  C   -0.168595
    57  C   -0.166115
    58  C   -0.051409
    59  C   -0.301566
    60  C   -0.152472
    61  C   -0.169252
    62  C   -0.181091
    63  C   -0.040060
    64  C   -0.303717
    65  C   -0.318053
    66  H    0.074722
    67  H    0.133257
    68  H    0.076436
    69  H    0.120804
    70  H    0.103201
    71  H    0.124085
    72  H    0.114500
    73  H    0.123948
    74  H    0.123057
    75  H    0.116609
    76  H    0.132078
    77  H    0.126543
    78  H    0.107956
    79  H    0.176620
    80  H    0.133303
    81  H    0.094906
    82  H    0.118190
    83  H    0.108271
    84  H    0.114333
    85  H    0.120939
    86  H    0.110791
    87  H    0.132577
    88  H    0.149922
    89  H    0.121443
    90  H    0.164982
    91  H    0.104332
    92  H    0.117760
    93  H    0.083636
    94  H    0.158527
    95  H    0.111079
    96  H    0.107672
    97  H    0.017423
    98  H    0.097677
    99  H    0.105650
   100  H    0.080420
   101  H    0.106535
   102  H    0.069288
   103  H    0.087454
   104  H    0.110996
   105  H    0.092359
   106  H    0.114960
   107  H    0.067334
   108  H    0.096909
   109  H    0.105847
   110  H    0.074944
   111  H    0.081305
   112  H    0.083378
   113  H    0.070262
   114  H    0.075571
   115  H    0.083726
   116  H    0.080852
   117  H    0.083869
   118  H    0.072586
   119  H    0.110928
   120  H    0.094156
   121  H    0.088366
   122  H    0.088138
   123  H    0.078838
   124  H    0.109799
   125  H    0.084383
   126  H    0.082864
   127  H    0.095161
   128  H    0.108676
   129  H    0.098619
   130  H    0.124245
   131  H    0.128653
   132  H    0.116760
   133  O   -0.444425
   134  H    0.047440
 Sum of Mulliken charges =   0.00000
 Mulliken charges with hydrogens summed into heavy atoms:
               1
     1  Mg   0.821517
     2  C    0.054157
     3  C   -0.087538
     4  C   -0.014872
     5  C   -0.030556
     6  N   -0.617848
     7  C    0.287891
     8  C   -0.053526
     9  C   -0.062804
    10  C    0.358719
    11  C    0.066630
    12  C    0.073243
    13  C   -0.006701
    14  C    0.597336
    15  O   -0.473095
    16  O   -0.454879
    17  N   -0.725422
    18  C    0.315765
    19  C    0.016875
    20  C    0.030544
    21  C    0.296808
    22  C    0.038298
    23  C    0.293273
    24  O   -0.465786
    25  N   -0.696035
    26  C    0.331878
    27  C   -0.031685
    28  C    0.022146
    29  C    0.290250
    30  C    0.268364
    31  C   -0.015946
    32  C    0.030921
    33  N   -0.747492
    34  C    0.267276
    35  C   -0.004266
    36  C    0.049670
    37  C    0.329979
    38  C    0.026074
    39  C    0.369818
    40  O   -0.466232
    41  C   -0.162245
    42  C    0.634314
    43  O   -0.460191
    44  O   -0.448794
    45  C    0.288122
    46  C    0.206321
    47  C   -0.043687
    48  C    0.203506
    49  C   -0.021698
    50  C   -0.099968
    51  C    0.024707
    52  C    0.027570
    53  C    0.018446
    54  C    0.005554
    55  C   -0.010218
    56  C    0.012196
    57  C   -0.001431
    58  C    0.018853
    59  C   -0.061418
    60  C    0.003982
    61  C    0.035832
    62  C   -0.004587
    63  C    0.038778
    64  C   -0.026671
    65  C   -0.015597
   133  O   -0.444425
 Electronic spatial extent (au):  <R**2>=         148307.8204
 Charge=              0.0000 electrons
 Dipole moment (field-independent basis, Debye):
    X=              2.9415    Y=             -6.4543    Z=             -1.7889  Tot=              7.3151
 Quadrupole moment (field-independent basis, Debye-Ang):
   XX=           -378.4081   YY=           -447.8426   ZZ=           -393.8764
   XY=             14.5986   XZ=             26.6003   YZ=            -37.7450
 Traceless Quadrupole moment (field-independent basis, Debye-Ang):
   XX=             28.3010   YY=            -41.1336   ZZ=             12.8326
   XY=             14.5986   XZ=             26.6003   YZ=            -37.7450
 Octapole moment (field-independent basis, Debye-Ang**2):
  XXX=           -179.9618  YYY=           -606.4422  ZZZ=            -44.1191  XYY=            318.3385
  XXY=            -66.3746  XXZ=           -258.1671  XZZ=            -79.1596  YZZ=            -44.9655
  YYZ=            -80.9346  XYZ=            181.2057
 Hexadecapole moment (field-independent basis, Debye-Ang**3):
 XXXX=        -162100.5525 YYYY=         -31290.8932 ZZZZ=          -9039.7742 XXXY=            629.9810
 XXXZ=           2547.1455 YYYX=           2564.2323 YYYZ=          -1525.9176 ZZZX=            512.0530
 ZZZY=           -395.8858 XXYY=         -34618.3050 XXZZ=         -28478.9662 YYZZ=          -7009.7952
 XXYZ=          -1186.0718 YYXZ=            391.9151 ZZXY=           -143.7674
 N-N= 9.105023023378D+03 E-N=-2.529409847149D+04  KE= 3.016662413199D+03

 Test job not archived.
 1\1\GINC-PEDRO-RYZENSSD\SP\RCAM-B3LYP TD-FC\6-31G(d,p)\C54H68Mg1N4O7\P
 ADAWAN\04-Oct-2019\0\\# td=(NStates=1) iop(3/107=0140000000,3/108=0140
 000000) iop(3/107=0140000000,3/108=0140000000) CAM-B3LYP/6-31G(d,p)\\T
 D\\0,1\Mg,0,-5.626418373,1.2350235301,0.1530179706\C,0,-5.0022603478,-
 2.1054245072,-0.3711501801\C,0,-3.2496064205,1.1636789094,2.6383952777
 \C,0,-6.2007464969,4.5422222453,0.5950318644\C,0,-8.0765485729,1.13269
 19516,-2.4330173956\N,0,-4.3071778023,-0.234979421,0.9862487919\C,0,-4
 .1753827587,-1.6731985013,0.6294666652\C,0,-3.214032805,-2.3771089095,
 1.4644320318\C,0,-2.8983439898,-1.3081514848,2.6652033069\C,0,-3.62189
 89899,-0.0412932819,2.1047511337\C,0,-3.274839592,-1.8477614687,4.0227
 601354\C,0,-1.9314579891,-2.739447938,0.6685510412\C,0,-0.9041481777,-
 3.4052656145,1.4483287098\C,0,0.2481706845,-3.8726121333,0.5423523963\
 O,0,0.4884026942,-3.3935990487,-0.5523852539\O,0,1.066438326,-4.725647
 7096,1.1257485634\N,0,-4.8864871997,2.5782280595,1.4374004266\C,0,-3.8
 941935066,2.420430059,2.4158668125\C,0,-3.7049410313,3.650915174,3.109
 0198464\C,0,-4.6189076465,4.6249309586,2.5819240766\C,0,-5.3325526177,
 3.9369483713,1.5057957315\C,0,-2.7297716021,3.9259996837,4.2499788684\
 C,0,-4.677530453,5.9343634705,2.9804034771\O,0,-3.944496937,6.46417124
 73,3.9002239949\N,0,-6.9903506847,2.6480327358,-0.7521878865\C,0,-6.98
 66708649,3.942604666,-0.3865068538\C,0,-8.0400091411,4.5495460114,-1.1
 399368028\C,0,-8.5704100738,3.597248855,-2.0673812905\C,0,-7.867190530
 6,2.3675849326,-1.7156553353\C,0,-8.3308853672,5.9265240221,-1.1549666
 313\C,0,-9.6527517536,3.8164925876,-3.0499775464\C,0,-9.1334523259,3.9
 516765308,-4.4801912658\N,0,-6.3698227496,-0.0815133315,-1.149375958\C
 ,0,-7.4619798047,-0.032184124,-2.1115370763\C,0,-7.5570588225,-1.35902
 10548,-2.6791509397\C,0,-6.6005555393,-2.1586196353,-2.1587650864\C,0,
 -5.9367015937,-1.3522092504,-1.1363514998\C,0,-8.5872340981,-1.7973695
 256,-3.8123421536\C,0,-6.2186454916,-3.5432834343,-2.054950889\O,0,-6.
 6705302936,-4.5459995701,-2.6343636821\C,0,-5.0968699405,-3.5656683335
 ,-0.9201186327\C,0,-5.4612832559,-4.5945946611,0.1467818292\O,0,-5.919
 3461172,-4.3648524186,1.2407411944\O,0,-5.1434743106,-5.8631401981,-0.
 3070548769\C,0,-5.4013834875,-6.8613097221,0.6552430591\C,0,2.41522820
 44,-4.9329495552,0.494657447\C,0,3.4947527854,-3.9973212314,0.89034031
 98\C,0,4.1206611698,-2.9983996609,0.1122335984\C,0,3.7667415715,-2.910
 1242008,-1.3080884776\C,0,5.2235865647,-2.3916934375,0.7188037313\C,0,
 6.6098165864,-2.452490202,0.0682771536\C,0,7.6874278695,-1.6421658624,
 0.6636602006\C,0,9.063995008,-2.0102270047,0.0048937762\C,0,9.56139321
 94,-3.4140413066,0.2881019352\C,0,10.1078162172,-0.9592465456,0.530541
 0175\C,0,11.5153346908,-0.9719799931,-0.1941247231\C,0,12.3902266433,0
 .1173209226,0.2786186501\C,0,13.6414035345,0.417591446,-0.5084906063\C
 ,0,14.5944176148,-0.8212028503,-0.3316898542\C,0,14.3582657648,1.63125
 7898,-0.0945170941\C,0,15.5781770986,2.0439063259,-0.8045975675\C,0,16
 .0845280725,3.5252450345,-0.5618872817\C,0,17.3194663413,3.9160405196,
 -1.4471057584\C,0,16.8874677289,3.9576613288,-2.9089032103\C,0,17.9903
 524544,5.1659547215,-0.9107120282\H,0,-2.5948149874,1.0655634199,3.417
 6093721\H,0,-6.2703879217,5.6011663188,0.7565354162\H,0,-8.5948446836,
 0.9984941109,-3.2432997109\H,0,-3.6731843836,-3.2666597827,1.850110753
 2\H,0,-1.7704681328,-1.2893265409,2.5649086569\H,0,-2.982737599,-2.882
 5248334,4.0037103169\H,0,-2.8961862187,-1.1000621239,4.8337895149\H,0,
 -4.3822899048,-1.915969515,3.8129645191\H,0,-1.9335505207,-3.240887133
 7,-0.1936871033\H,0,-1.5361543151,-1.7576643938,0.2965404953\H,0,-0.61
 46058507,-2.7998699593,2.3752620673\H,0,-1.3540248811,-4.3446012964,1.
 7900280395\H,0,-1.7142400761,3.580972784,3.9214045216\H,0,-2.689896643
 7,4.9589255317,4.4300686698\H,0,-3.0773776703,3.5030635005,5.140050981
 9\H,0,-5.330846944,6.5838863711,2.497731889\H,0,-10.2290268852,2.91575
 87278,-2.9685880134\H,0,-10.3081682997,4.7897265072,-2.8393969323\H,0,
 -10.0725830192,4.0617140714,-5.0546217728\H,0,-8.4122051865,4.69798173
 88,-4.6541050923\H,0,-8.3947297479,3.2469090048,-4.7282769424\H,0,-8.6
 283694185,-1.1309163493,-4.6394939184\H,0,-8.3497446024,-2.8543724975,
 -4.2094902929\H,0,-9.6451777669,-1.7326599006,-3.3127255577\H,0,-4.111
 9629723,-3.7726330863,-1.4581907492\H,0,2.7183497788,-6.0869559887,0.7
 526736553\H,0,2.2591092375,-4.8802165481,-0.7131767528\H,0,3.802546237
 ,-4.1479849208,1.905108875\H,0,2.5721946714,-2.8845500099,-1.409423592
 5\H,0,4.1516225003,-1.991573858,-1.7945076683\H,0,4.232975805,-3.87648
 95053,-1.9078822455\H,0,4.9146453335,-1.0570012447,0.5659169828\H,0,5.
 134705829,-2.5441287301,1.8439782841\H,0,6.8833875588,-3.4903833378,0.
 0851378355\H,0,6.1797768172,-2.2967618922,-1.0715768439\H,0,7.46206700
 83,-0.6207486292,0.5126600193\H,0,7.9506439746,-1.8508333318,1.8443919
 116\H,0,8.87790369,-1.8117792186,-1.0528735061\H,0,8.8748596514,-4.081
 2069806,-0.0456370339\H,0,10.5794209715,-3.6319865534,-0.2623038123\H,
 0,9.7526320108,-3.6055662852,1.2374547085\H,0,9.7590269636,0.160424452
 8,0.2994691213\H,0,10.253374296,-1.0789162109,1.4805989972\H,0,11.9464
 465758,-1.8502123429,-0.0492742352\H,0,11.3840043406,-0.7215537909,-1.
 3106319069\H,0,11.9375537735,1.0985429261,0.1818709767\H,0,12.26369712
 84,0.0970209854,1.3904382189\H,0,13.4472454668,0.2230470475,-1.6919654
 013\H,0,14.87352758,-1.0477177891,0.8400691044\H,0,14.1242528118,-1.85
 26184407,-0.5946057147\H,0,15.4608659431,-0.8784511728,-1.1484672497\H
 ,0,13.5712463702,2.401598459,-0.0936992472\H,0,14.5962172339,1.4580422
 187,1.0641852458\H,0,16.3703557627,1.4510005616,-0.6061684318\H,0,15.4
 170465002,1.8345217036,-1.8092944603\H,0,15.3178032424,4.302113419,-0.
 5330845885\H,0,16.4872483587,3.6087868381,0.4381262714\H,0,18.22695251
 21,3.2338168902,-1.1490892968\H,0,15.9382109579,4.5114584247,-3.194943
 7733\H,0,17.7655089408,4.1863450277,-3.6814355772\H,0,16.526457331,2.8
 784127525,-3.3488254357\H,0,18.3840662806,5.1506557186,0.1607852442\H,
 0,18.7973473455,5.3498312096,-1.5371958607\H,0,17.3485274225,6.0248768
 978,-0.9949478469\H,0,-5.1378216668,-7.7049015896,0.2276184458\H,0,-6.
 4342139127,-7.0135607375,0.7283726806\H,0,-4.9302552429,-6.7723771139,
 1.6648393523\O,0,-7.9544683421,6.7903190633,-0.3749109195\H,0,-9.07756
 11399,6.2746348792,-1.869405408\\Version=ES64L-G09RevD.01\State=1-A\HF
 =-3043.4800479\RMSD=5.171e-09\PG=C01 [X(C54H68Mg1N4O7)]\\@


 BULLDOZER: SOMEONE WHO SLEEPS THROUGH SPEECHES.
 Job cpu time:       0 days  6 hours 23 minutes 17.9 seconds.
 File lengths (MBytes):  RWF=   2102 Int=      0 D2E=      0 Chk=    163 Scr=      1
 Normal termination of Gaussian 09 at Fri Oct  4 23:46:44 2019.
