 Entering Gaussian System, Link 0=g16
 Input=Geometria-491-.com
 Output=Geometria-491-.log
 Initial command:
 /usr/local/g09/l1.exe "/home/padawan/israel-mol/chlorophyll-b/spectra/emi/Gau-24712.inp" -scrdir="/home/padawan/israel-mol/chlorophyll-b/spectra/emi/"
 Entering Link 1 = /usr/local/g09/l1.exe PID=     24714.
  
 Copyright (c) 1988,1990,1992,1993,1995,1998,2003,2009,2013,
            Gaussian, Inc.  All Rights Reserved.
  
 This is part of the Gaussian(R) 09 program.  It is based on
 the Gaussian(R) 03 system (copyright 2003, Gaussian, Inc.),
 the Gaussian(R) 98 system (copyright 1998, Gaussian, Inc.),
 the Gaussian(R) 94 system (copyright 1995, Gaussian, Inc.),
 the Gaussian 92(TM) system (copyright 1992, Gaussian, Inc.),
 the Gaussian 90(TM) system (copyright 1990, Gaussian, Inc.),
 the Gaussian 88(TM) system (copyright 1988, Gaussian, Inc.),
 the Gaussian 86(TM) system (copyright 1986, Carnegie Mellon
 University), and the Gaussian 82(TM) system (copyright 1983,
 Carnegie Mellon University). Gaussian is a federally registered
 trademark of Gaussian, Inc.
  
 This software contains proprietary and confidential information,
 including trade secrets, belonging to Gaussian, Inc.
  
 This software is provided under written license and may be
 used, copied, transmitted, or stored only in accord with that
 written license.
  
 The following legend is applicable only to US Government
 contracts under FAR:
  
                    RESTRICTED RIGHTS LEGEND
  
 Use, reproduction and disclosure by the US Government is
 subject to restrictions as set forth in subparagraphs (a)
 and (c) of the Commercial Computer Software - Restricted
 Rights clause in FAR 52.227-19.
  
 Gaussian, Inc.
 340 Quinnipiac St., Bldg. 40, Wallingford CT 06492
  
  
 ---------------------------------------------------------------
 Warning -- This program may not be used in any manner that
 competes with the business of Gaussian, Inc. or will provide
 assistance to any competitor of Gaussian, Inc.  The licensee
 of this program is prohibited from giving any competitor of
 Gaussian, Inc. access to this program.  By using this program,
 the user acknowledges that Gaussian, Inc. is engaged in the
 business of creating and licensing software in the field of
 computational chemistry and represents and warrants to the
 licensee that it is not a competitor of Gaussian, Inc. and that
 it will not use this program in any manner prohibited above.
 ---------------------------------------------------------------
  

 Cite this work as:
 Gaussian 09, Revision D.01,
 M. J. Frisch, G. W. Trucks, H. B. Schlegel, G. E. Scuseria, 
 M. A. Robb, J. R. Cheeseman, G. Scalmani, V. Barone, B. Mennucci, 
 G. A. Petersson, H. Nakatsuji, M. Caricato, X. Li, H. P. Hratchian, 
 A. F. Izmaylov, J. Bloino, G. Zheng, J. L. Sonnenberg, M. Hada, 
 M. Ehara, K. Toyota, R. Fukuda, J. Hasegawa, M. Ishida, T. Nakajima, 
 Y. Honda, O. Kitao, H. Nakai, T. Vreven, J. A. Montgomery, Jr., 
 J. E. Peralta, F. Ogliaro, M. Bearpark, J. J. Heyd, E. Brothers, 
 K. N. Kudin, V. N. Staroverov, T. Keith, R. Kobayashi, J. Normand, 
 K. Raghavachari, A. Rendell, J. C. Burant, S. S. Iyengar, J. Tomasi, 
 M. Cossi, N. Rega, J. M. Millam, M. Klene, J. E. Knox, J. B. Cross, 
 V. Bakken, C. Adamo, J. Jaramillo, R. Gomperts, R. E. Stratmann, 
 O. Yazyev, A. J. Austin, R. Cammi, C. Pomelli, J. W. Ochterski, 
 R. L. Martin, K. Morokuma, V. G. Zakrzewski, G. A. Voth, 
 P. Salvador, J. J. Dannenberg, S. Dapprich, A. D. Daniels, 
 O. Farkas, J. B. Foresman, J. V. Ortiz, J. Cioslowski, 
 and D. J. Fox, Gaussian, Inc., Wallingford CT, 2013.
 
 ******************************************
 Gaussian 09:  ES64L-G09RevD.01 24-Apr-2013
                 9-Oct-2019 
 ******************************************
 %nproc=3
 Will use up to    3 processors via shared memory.
 %Mem=2GB
 ----------------------------------------------------------------------
 # td=(NStates=1) iop(3/107=0140000000,3/108=0140000000) iop(3/107=0140
 000000,3/108=0140000000) CAM-B3LYP/6-31G(d,p)
 ----------------------------------------------------------------------
 1/38=1/1;
 2/12=2,17=6,18=5,40=1/2;
 3/5=1,6=6,7=101,11=9,16=1,25=1,30=1,74=-40,107=140000000,108=140000000/1,2,8,3;
 4//1;
 5/5=2,38=5/2;
 8/6=1,10=2,108=1/1;
 9/41=1,42=1,70=2/14;
 6/7=2,8=2,9=2,10=2/1;
 99/5=1,9=1/99;
 --
 TD
 --
 Symbolic Z-matrix:
 Charge =  0 Multiplicity = 1
 12                   -5.62161   1.28742   0.0804 
 6                    -5.03259  -2.04512  -0.41236 
 6                    -3.44453   1.10964   2.78665 
 6                    -6.2434    4.52295   0.7479 
 6                    -7.97255   1.23773  -2.49723 
 7                    -4.26944  -0.26701   0.96576 
 6                    -4.26124  -1.61937   0.55948 
 6                    -3.21324  -2.27438   1.38724 
 6                    -2.95602  -1.35577   2.52719 
 6                    -3.47243  -0.01285   2.06507 
 6                    -3.5611   -1.66445   3.90942 
 6                    -1.9023   -2.67023   0.61419 
 6                    -0.969    -3.5515    1.47491 
 6                     0.27584  -3.94001   0.7761 
 8                     0.52906  -3.62195  -0.49431 
 8                     1.01148  -4.8199    1.43832 
 7                    -4.8265    2.51083   1.53626 
 6                    -3.9262    2.3944    2.47987 
 6                    -3.68062   3.62084   3.1801 
 6                    -4.48842   4.54562   2.56113 
 6                    -5.28554   3.82422   1.58382 
 6                    -2.72589   3.74401   4.30658 
 6                    -4.67136   5.98945   2.9695 
 8                    -4.03007   6.5262    3.80428 
 7                    -6.85588   2.63943  -0.82246 
 6                    -6.90561   3.93536  -0.36045 
 6                    -7.85859   4.68493  -1.25813 
 6                    -8.40996   3.68683  -2.0557 
 6                    -7.7658    2.45184  -1.80899 
 6                    -8.30777   6.05152  -1.12624 
 6                    -9.42732   3.86157  -3.18067 
 6                    -8.74069   4.10413  -4.5791 
 7                    -6.47942  -0.08804  -1.01007 
 6                    -7.36623   0.02301  -2.03415 
 6                    -7.53896  -1.32322  -2.74705 
 6                    -6.66941  -2.17778  -2.04259 
 6                    -6.03647  -1.44409  -1.03063 
 6                    -8.49105  -1.65684  -3.80708 
 6                    -6.15532  -3.54225  -1.9276 
 8                    -6.65114  -4.59805  -2.56338 
 6                    -5.04849  -3.50437  -0.91619 
 6                    -5.28501  -4.65933   0.07701 
 8                    -5.72538  -4.54679   1.17916 
 8                    -4.99537  -5.80368  -0.37743 
 6                    -5.25896  -6.98141   0.21709 
 6                     2.35479  -5.10681   0.88597 
 6                     3.31253  -4.07128   1.14549 
 6                     3.99458  -3.2482    0.27413 
 6                     3.71876  -3.28168  -1.21272 
 6                     5.17567  -2.34913   0.62642 
 6                     6.49555  -2.67266   0.15813 
 6                     7.63764  -1.73254   0.74808 
 6                     8.95695  -1.96266  -0.02187 
 6                     9.51563  -3.30298   0.24409 
 6                     10.0728  -0.93002   0.366 
 6                     11.30594  -0.89803  -0.33024 
 6                     12.15533   0.3049    0.16279 
 6                     13.55325   0.46725  -0.68581 
 6                     14.40296  -0.79248  -0.47219 
 6                     14.24843   1.78461  -0.24232 
 6                     15.40507   2.20284  -1.1236 
 6                     15.90922   3.51547  -0.69808 
 6                     17.24311   3.98827  -1.3247 
 6                     17.07595   3.99895  -2.87758 
 6                     17.80045   5.29794  -0.87475 
 1                    -2.54605   1.25249   3.66939 
 1                    -6.37612   5.51925   0.88843 
 1                    -8.61509   1.5019   -3.25097 
 1                    -3.81765  -3.17159   1.66768 
 1                    -1.83611  -1.36951   2.70592 
 1                    -2.93602  -2.67321   4.13093 
 1                    -3.23757  -0.85159   4.6914 
 1                    -4.6244   -1.85692   3.869 
 1                    -2.11908  -3.30309  -0.10458 
 1                    -1.38657  -1.6924    0.4177 
 1                    -0.8094   -3.22555   2.56111 
 1                    -1.71296  -4.3935    1.58408 
 1                    -1.63347   3.45651   4.23724 
 1                    -2.75123   4.84467   4.67965 
 1                    -2.98927   3.27659   5.33483 
 1                    -5.3258    6.59282   2.49695 
 1                    -10.1459   2.87989  -3.10768 
 1                    -10.23652   4.64846  -2.99279 
 1                    -9.59315   4.16418  -5.22927 
 1                    -8.10098   5.13324  -4.48519 
 1                    -8.24181   3.04476  -4.58801 
 1                    -8.42629  -0.97685  -4.69081 
 1                    -8.36814  -2.70953  -4.02683 
 1                    -9.75328  -1.59427  -3.5028 
 1                    -4.09166  -3.80622  -1.30502 
 1                     2.49744  -5.88787   1.50485 
 1                     2.08069  -5.46967  -0.13738 
 1                     3.7028   -4.21894   2.2881 
 1                     2.61509  -3.54973  -1.49522 
 1                     3.81532  -2.26047  -1.66313 
 1                     4.52032  -3.95663  -1.62417 
 1                     5.09861  -1.30649   0.40121 
 1                     5.26007  -2.40979   1.66497 
 1                     6.52755  -3.78517   0.07256 
 1                     6.77738  -2.5735   -1.03236 
 1                     7.29414  -0.74113   0.48539 
 1                     7.60079  -1.84331   1.92795 
 1                     8.5462   -1.84622  -1.15167 
 1                     8.86407  -3.85285  -0.04537 
 1                     10.42861  -3.67891  -0.38759 
 1                     9.76464  -3.5517    1.32625 
 1                     9.57086   0.22305   0.37022 
 1                     10.19815  -1.30622   1.51055 
 1                     11.78039  -1.76393  -0.01297 
 1                     11.27166  -0.69929  -1.37309 
 1                     11.68788   1.21118   0.33516 
 1                     12.52021   0.08301   1.35379 
 1                     13.07326   0.47012  -1.85762 
 1                     14.78188  -0.77838   0.69047 
 1                     14.039   -1.7718   -0.54908 
 1                     15.43081  -0.66725  -0.92719 
 1                     13.57801   2.64741  -0.1054 
 1                     14.67234   1.57849   0.76831 
 1                     16.09481   1.37357  -0.82977 
 1                     15.05324   2.09088  -2.26865 
 1                     15.26738   4.47304  -1.1454 
 1                     15.95993   3.49885   0.40025 
 1                     18.02197   3.19937  -1.15748 
 1                     16.34729   4.77931  -3.08793 
 1                     18.17134   4.22709  -3.29705 
 1                     16.68148   3.29824  -3.47793 
 1                     18.07375   5.14199   0.32927 
 1                     18.60816   5.57315  -1.28399 
 1                     17.2442   6.15134  -1.01084 
 1                    -4.86071  -7.9279   -0.1025 
 1                    -6.31666  -7.24333   0.43545 
 1                    -4.95714  -6.85896   1.29444 
 8                    -7.62391   6.87519  -0.39992 
 1                    -9.39968   6.29642  -1.56099 
 
 Stoichiometry    C54H68MgN4O7
 Framework group  C1[X(C54H68MgN4O7)]
 Deg. of freedom   396
 Full point group                 C1      NOp   1
 Largest Abelian subgroup         C1      NOp   1
 Largest concise Abelian subgroup C1      NOp   1
                         Standard orientation:                         
 ---------------------------------------------------------------------
 Center     Atomic      Atomic             Coordinates (Angstroms)
 Number     Number       Type             X           Y           Z
 ---------------------------------------------------------------------
      1         12           0       -5.619461    1.289637    0.088445
      2          6           0       -5.031712   -2.039757   -0.426574
      3          6           0       -3.442023    1.093086    2.793109
      4          6           0       -6.239997    4.520877    0.777551
      5          6           0       -7.970819    1.257938   -2.489093
      6          7           0       -4.267715   -0.271131    0.963227
      7          6           0       -4.260057   -1.620761    0.547960
      8          6           0       -3.212164   -2.281632    1.371183
      9          6           0       -2.954437   -1.370716    2.517175
     10          6           0       -3.470444   -0.024572    2.064078
     11          6           0       -3.559411   -1.688377    3.897415
     12          6           0       -1.901477   -2.672799    0.595302
     13          6           0       -0.968368   -3.560107    1.449998
     14          6           0        0.276233   -3.944400    0.748418
     15          8           0        0.529363   -3.617988   -0.519883
     16          8           0        1.011662   -4.828936    1.404657
     17          7           0       -4.823693    2.503054    1.552287
     18          6           0       -3.923284    2.380024    2.494963
     19          6           0       -3.677160    3.601696    3.203292
     20          6           0       -4.484732    4.530861    2.590621
     21          6           0       -5.282254    3.816257    1.608660
     22          6           0       -2.722214    3.717028    4.330424
     23          6           0       -4.667089    5.972003    3.008617
     24          8           0       -4.025474    6.502958    3.846851
     25          7           0       -6.853388    2.648066   -0.805211
     26          6           0       -6.902590    3.940913   -0.334581
     27          6           0       -7.855440    4.696774   -1.227098
     28          6           0       -8.407293    3.704197   -2.031206
     29          6           0       -7.763531    2.467369   -1.792824
     30          6           0       -8.304114    6.062612   -1.086053
     31          6           0       -9.424760    3.886778   -3.154829
     32          6           0       -8.738264    4.138398   -4.551722
     33          7           0       -6.477937   -0.078235   -1.011020
     34          6           0       -7.364862    0.039947   -2.034196
     35          6           0       -7.538179   -1.301448   -2.756008
     36          6           0       -6.668831   -2.160989   -2.057392
     37          6           0       -6.035471   -1.434270   -1.040670
     38          6           0       -8.490560   -1.627667   -3.818088
     39          6           0       -6.155206   -3.526378   -1.951558
     40          8           0       -6.651500   -4.577750   -2.594269
     41          6           0       -5.048202   -3.495621   -0.940093
     42          6           0       -5.284980   -4.657078    0.045441
     43          8           0       -5.725140   -4.551716    1.148375
     44          8           0       -4.995823   -5.798485   -0.416654
     45          6           0       -5.259740   -6.980048    0.170059
     46          6           0        2.354783   -5.112642    0.850196
     47          6           0        3.312935   -4.079204    1.116448
     48          6           0        3.995137   -3.250594    0.250480
     49          6           0        3.719073   -3.274079   -1.236515
     50          6           0        5.176605   -2.354302    0.608563
     51          6           0        6.496291   -2.675181    0.137915
     52          6           0        7.638815   -1.739416    0.733929
     53          6           0        8.957925   -1.964875   -0.037740
     54          6           0        9.516163   -3.307131    0.219205
     55          6           0       10.074202   -0.935236    0.356820
     56          6           0       11.307246   -0.899052   -0.339389
     57          6           0       12.157141    0.300271    0.161495
     58          6           0       13.554989    0.467763   -0.686221
     59          6           0       14.404276   -0.793659   -0.481126
     60          6           0       14.250707    1.781903   -0.234089
     61          6           0       15.407355    2.205575   -1.112747
     62          6           0       15.912039    3.515167   -0.678584
     63          6           0       17.245999    3.991645   -1.302257
     64          6           0       17.078600    4.012714   -2.855002
     65          6           0       17.803880    5.298094   -0.843686
     66          1           0       -2.543360    1.229739    3.676643
     67          1           0       -6.372338    5.516265    0.924729
     68          1           0       -8.613380    1.527347   -3.240954
     69          1           0       -3.816846   -3.180475    1.645741
     70          1           0       -1.834509   -1.386051    2.695636
     71          1           0       -2.934661   -2.698812    4.112114
     72          1           0       -3.235472   -0.880847    4.684731
     73          1           0       -4.622792   -1.880196    3.855884
     74          1           0       -2.118598   -3.300788   -0.127622
     75          1           0       -1.385433   -1.693863    0.405248
     76          1           0       -0.808474   -3.241450    2.538317
     77          1           0       -1.712607   -4.402546    1.553677
     78          1           0       -1.629908    3.429606    4.258992
     79          1           0       -2.747105    4.815193    4.710812
     80          1           0       -2.985599    3.242870    5.355579
     81          1           0       -5.321383    6.578735    2.540194
     82          1           0      -10.143678    2.904888   -3.088260
     83          1           0      -10.233652    4.672694   -2.961592
     84          1           0       -9.590795    4.203078   -5.201342
     85          1           0       -8.098174    5.166626   -4.451065
     86          1           0       -8.239765    3.078930   -4.567761
     87          1           0       -8.425689   -0.941841   -4.697282
     88          1           0       -8.368052   -2.678918   -4.044857
     89          1           0       -9.752715   -1.566675   -3.513203
     90          1           0       -4.091546   -3.795211   -1.331070
     91          1           0        2.497246   -5.897852    1.463845
     92          1           0        2.080394   -5.468587   -0.175498
     93          1           0        3.703321   -4.234605    2.257990
     94          1           0        2.615266   -3.539846   -1.520622
     95          1           0        3.815929   -2.249929   -1.680141
     96          1           0        4.520336   -3.946558   -1.652577
     97          1           0        5.099884   -1.310156    0.390303
     98          1           0        5.261141   -2.421896    1.646669
     99          1           0        6.527888   -3.787109    0.044940
    100          1           0        6.777973   -2.568200   -1.051933
    101          1           0        7.295625   -0.746154    0.477894
    102          1           0        7.602105   -1.858018    1.913044
    103          1           0        8.547038   -1.840775   -1.166680
    104          1           0        8.864362   -3.854835   -0.073799
    105          1           0       10.428908   -3.679176   -0.415099
    106          1           0        9.765256   -3.563135    1.299653
    107          1           0        9.572669    0.217963    0.368782
    108          1           0       10.199591   -1.319083    1.498819
    109          1           0       11.781433   -1.767214   -0.027964
    110          1           0       11.272875   -0.693365   -1.380888
    111          1           0       11.690036    1.205555    0.339964
    112          1           0       12.522126    0.070332    1.350943
    113          1           0       13.074811    0.478605   -1.857914
    114          1           0       14.783381   -0.787430    0.681550
    115          1           0       14.039961   -1.772316   -0.564470
    116          1           0       15.432105   -0.665770   -0.935436
    117          1           0       13.580608    2.644011   -0.091325
    118          1           0       14.674700    1.568914    0.775078
    119          1           0       16.096843    1.374123   -0.824550
    120          1           0       15.055308    2.101356   -2.258462
    121          1           0       15.270469    4.475916   -1.119417
    122          1           0       15.962909    3.491214    0.419607
    123          1           0       18.024607    3.201379   -1.140408
    124          1           0       16.350191    4.794715   -3.060043
    125          1           0       18.174009    4.243254   -3.273114
    126          1           0       16.683793    3.316163   -3.459936
    127          1           0       18.077303    5.134047    0.359227
    128          1           0       18.611620    5.575739   -1.251215
    129          1           0       17.247907    6.152580   -0.974009
    130          1           0       -4.861882   -7.924534   -0.155887
    131          1           0       -6.317503   -7.243041    0.386842
    132          1           0       -4.957708   -6.864870    1.248156
    133          8           0       -7.619840    6.881190   -0.354377
    134          1           0       -9.396005    6.310788   -1.518993
 ---------------------------------------------------------------------
 Rotational constants (GHZ):      0.0345276      0.0081394      0.0071875
 Standard basis: 6-31G(d,p) (6D, 7F)
 There are  1334 symmetry adapted cartesian basis functions of A   symmetry.
 There are  1334 symmetry adapted basis functions of A   symmetry.
  1334 basis functions,  2348 primitive gaussians,  1334 cartesian basis functions
   244 alpha electrons      244 beta electrons
       nuclear repulsion energy      9129.5372134869 Hartrees.
 NAtoms=  134 NActive=  134 NUniq=  134 SFac= 1.00D+00 NAtFMM=   60 NAOKFM=T Big=T
 Integral buffers will be    131072 words long.
 Raffenetti 1 integral format.
 Two-electron integral symmetry is turned on.
 One-electron integrals computed using PRISM.
 NBasis=  1334 RedAO= T EigKep=  3.31D-04  NBF=  1334
 NBsUse=  1334 1.00D-06 EigRej= -1.00D+00 NBFU=  1334
 ExpMin= 4.21D-02 ExpMax= 1.17D+04 ExpMxC= 1.76D+03 IAcc=2 IRadAn=         4 AccDes= 0.00D+00
 Harris functional with IExCor=20419 and IRadAn=       4 diagonalized for initial guess.
 HarFok:  IExCor=20419 AccDes= 0.00D+00 IRadAn=         4 IDoV= 1 UseB2=F ITyADJ=14
 ICtDFT=  3500011 ScaDFX=  1.000000  1.000000  1.000000  1.000000
 FoFCou: FMM=F IPFlag=           0 FMFlag=      100000 FMFlg1=        2001
         NFxFlg=           0 DoJE=T BraDBF=F KetDBF=T FulRan=T
         wScrn=  0.000000 ICntrl=     500 IOpCl=  0 I1Cent=   200000004 NGrid=           0
         NMat0=    1 NMatS0=      1 NMatT0=    0 NMatD0=    1 NMtDS0=    0 NMtDT0=    0
 Petite list used in FoFCou.
 Requested convergence on RMS density matrix=1.00D-08 within 128 cycles.
 Requested convergence on MAX density matrix=1.00D-06.
 Requested convergence on             energy=1.00D-06.
 No special actions if energy rises.
 SCF Done:  E(RCAM-B3LYP) =  -3043.33034794     A.U. after   16 cycles
            NFock= 16  Conv=0.49D-08     -V/T= 2.0091
 DoSCS=F DFT=T ScalE2(SS,OS)=  1.000000  1.000000
 ExpMin= 4.21D-02 ExpMax= 1.17D+04 ExpMxC= 1.76D+03 IAcc=3 IRadAn=         5 AccDes= 0.00D+00
 HarFok:  IExCor=  205 AccDes= 0.00D+00 IRadAn=         5 IDoV=-2 UseB2=F ITyADJ=14
 ICtDFT= 12500011 ScaDFX=  1.000000  1.000000  1.000000  1.000000
 Range of M.O.s used for correlation:    71  1334
 NBasis=  1334 NAE=   244 NBE=   244 NFC=    70 NFV=     0
 NROrb=   1264 NOA=   174 NOB=   174 NVA=  1090 NVB=  1090
 Would need an additional       2379600800000 words for in-memory AO integral storage.
 Orbital symmetries:
       Occupied  (A) (A) (A) (A) (A) (A) (A) (A) (A) (A) (A) (A)
                 (A) (A) (A) (A) (A) (A) (A) (A) (A) (A) (A) (A)
                 (A) (A) (A) (A) (A) (A) (A) (A) (A) (A) (A) (A)
                 (A) (A) (A) (A) (A) (A) (A) (A) (A) (A) (A) (A)
                 (A) (A) (A) (A) (A) (A) (A) (A) (A) (A) (A) (A)
                 (A) (A) (A) (A) (A) (A) (A) (A) (A) (A) (A) (A)
                 (A) (A) (A) (A) (A) (A) (A) (A) (A) (A) (A) (A)
                 (A) (A) (A) (A) (A) (A) (A) (A) (A) (A) (A) (A)
                 (A) (A) (A) (A) (A) (A) (A) (A) (A) (A) (A) (A)
                 (A) (A) (A) (A) (A) (A) (A) (A) (A) (A) (A) (A)
                 (A) (A) (A) (A) (A) (A) (A) (A) (A) (A) (A) (A)
                 (A) (A) (A) (A) (A) (A) (A) (A) (A) (A) (A) (A)
                 (A) (A) (A) (A) (A) (A) (A) (A) (A) (A) (A) (A)
                 (A) (A) (A) (A) (A) (A) (A) (A) (A) (A) (A) (A)
                 (A) (A) (A) (A) (A) (A) (A) (A) (A) (A) (A) (A)
                 (A) (A) (A) (A) (A) (A) (A) (A) (A) (A) (A) (A)
                 (A) (A) (A) (A) (A) (A) (A) (A) (A) (A) (A) (A)
                 (A) (A) (A) (A) (A) (A) (A) (A) (A) (A) (A) (A)
                 (A) (A) (A) (A) (A) (A) (A) (A) (A) (A) (A) (A)
                 (A) (A) (A) (A) (A) (A) (A) (A) (A) (A) (A) (A)
                 (A) (A) (A) (A)
       Virtual   (A) (A) (A) (A) (A) (A) (A) (A) (A) (A) (A) (A)
                 (A) (A) (A) (A) (A) (A) (A) (A) (A) (A) (A) (A)
                 (A) (A) (A) (A) (A) (A) (A) (A) (A) (A) (A) (A)
                 (A) (A) (A) (A) (A) (A) (A) (A) (A) (A) (A) (A)
                 (A) (A) (A) (A) (A) (A) (A) (A) (A) (A) (A) (A)
                 (A) (A) (A) (A) (A) (A) (A) (A) (A) (A) (A) (A)
                 (A) (A) (A) (A) (A) (A) (A) (A) (A) (A) (A) (A)
                 (A) (A) (A) (A) (A) (A) (A) (A) (A) (A) (A) (A)
                 (A) (A) (A) (A) (A) (A) (A) (A) (A) (A) (A) (A)
                 (A) (A) (A) (A) (A) (A) (A) (A) (A) (A) (A) (A)
                 (A) (A) (A) (A) (A) (A) (A) (A) (A) (A) (A) (A)
                 (A) (A) (A) (A) (A) (A) (A) (A) (A) (A) (A) (A)
                 (A) (A) (A) (A) (A) (A) (A) (A) (A) (A) (A) (A)
                 (A) (A) (A) (A) (A) (A) (A) (A) (A) (A) (A) (A)
                 (A) (A) (A) (A) (A) (A) (A) (A) (A) (A) (A) (A)
                 (A) (A) (A) (A) (A) (A) (A) (A) (A) (A) (A) (A)
                 (A) (A) (A) (A) (A) (A) (A) (A) (A) (A) (A) (A)
                 (A) (A) (A) (A) (A) (A) (A) (A) (A) (A) (A) (A)
                 (A) (A) (A) (A) (A) (A) (A) (A) (A) (A) (A) (A)
                 (A) (A) (A) (A) (A) (A) (A) (A) (A) (A) (A) (A)
                 (A) (A) (A) (A) (A) (A) (A) (A) (A) (A) (A) (A)
                 (A) (A) (A) (A) (A) (A) (A) (A) (A) (A) (A) (A)
                 (A) (A) (A) (A) (A) (A) (A) (A) (A) (A) (A) (A)
                 (A) (A) (A) (A) (A) (A) (A) (A) (A) (A) (A) (A)
                 (A) (A) (A) (A) (A) (A) (A) (A) (A) (A) (A) (A)
                 (A) (A) (A) (A) (A) (A) (A) (A) (A) (A) (A) (A)
                 (A) (A) (A) (A) (A) (A) (A) (A) (A) (A) (A) (A)
                 (A) (A) (A) (A) (A) (A) (A) (A) (A) (A) (A) (A)
                 (A) (A) (A) (A) (A) (A) (A) (A) (A) (A) (A) (A)
                 (A) (A) (A) (A) (A) (A) (A) (A) (A) (A) (A) (A)
                 (A) (A) (A) (A) (A) (A) (A) (A) (A) (A) (A) (A)
                 (A) (A) (A) (A) (A) (A) (A) (A) (A) (A) (A) (A)
                 (A) (A) (A) (A) (A) (A) (A) (A) (A) (A) (A) (A)
                 (A) (A) (A) (A) (A) (A) (A) (A) (A) (A) (A) (A)
                 (A) (A) (A) (A) (A) (A) (A) (A) (A) (A) (A) (A)
                 (A) (A) (A) (A) (A) (A) (A) (A) (A) (A) (A) (A)
                 (A) (A) (A) (A) (A) (A) (A) (A) (A) (A) (A) (A)
                 (A) (A) (A) (A) (A) (A) (A) (A) (A) (A) (A) (A)
                 (A) (A) (A) (A) (A) (A) (A) (A) (A) (A) (A) (A)
                 (A) (A) (A) (A) (A) (A) (A) (A) (A) (A) (A) (A)
                 (A) (A) (A) (A) (A) (A) (A) (A) (A) (A) (A) (A)
                 (A) (A) (A) (A) (A) (A) (A) (A) (A) (A) (A) (A)
                 (A) (A) (A) (A) (A) (A) (A) (A) (A) (A) (A) (A)
                 (A) (A) (A) (A) (A) (A) (A) (A) (A) (A) (A) (A)
                 (A) (A) (A) (A) (A) (A) (A) (A) (A) (A) (A) (A)
                 (A) (A) (A) (A) (A) (A) (A) (A) (A) (A) (A) (A)
                 (A) (A) (A) (A) (A) (A) (A) (A) (A) (A) (A) (A)
                 (A) (A) (A) (A) (A) (A) (A) (A) (A) (A) (A) (A)
                 (A) (A) (A) (A) (A) (A) (A) (A) (A) (A) (A) (A)
                 (A) (A) (A) (A) (A) (A) (A) (A) (A) (A) (A) (A)
                 (A) (A) (A) (A) (A) (A) (A) (A) (A) (A) (A) (A)
                 (A) (A) (A) (A) (A) (A) (A) (A) (A) (A) (A) (A)
                 (A) (A) (A) (A) (A) (A) (A) (A) (A) (A) (A) (A)
                 (A) (A) (A) (A) (A) (A) (A) (A) (A) (A) (A) (A)
                 (A) (A) (A) (A) (A) (A) (A) (A) (A) (A) (A) (A)
                 (A) (A) (A) (A) (A) (A) (A) (A) (A) (A) (A) (A)
                 (A) (A) (A) (A) (A) (A) (A) (A) (A) (A) (A) (A)
                 (A) (A) (A) (A) (A) (A) (A) (A) (A) (A) (A) (A)
                 (A) (A) (A) (A) (A) (A) (A) (A) (A) (A) (A) (A)
                 (A) (A) (A) (A) (A) (A) (A) (A) (A) (A) (A) (A)
                 (A) (A) (A) (A) (A) (A) (A) (A) (A) (A) (A) (A)
                 (A) (A) (A) (A) (A) (A) (A) (A) (A) (A) (A) (A)
                 (A) (A) (A) (A) (A) (A) (A) (A) (A) (A) (A) (A)
                 (A) (A) (A) (A) (A) (A) (A) (A) (A) (A) (A) (A)
                 (A) (A) (A) (A) (A) (A) (A) (A) (A) (A) (A) (A)
                 (A) (A) (A) (A) (A) (A) (A) (A) (A) (A) (A) (A)
                 (A) (A) (A) (A) (A) (A) (A) (A) (A) (A) (A) (A)
                 (A) (A) (A) (A) (A) (A) (A) (A) (A) (A) (A) (A)
                 (A) (A) (A) (A) (A) (A) (A) (A) (A) (A) (A) (A)
                 (A) (A) (A) (A) (A) (A) (A) (A) (A) (A) (A) (A)
                 (A) (A) (A) (A) (A) (A) (A) (A) (A) (A) (A) (A)
                 (A) (A) (A) (A) (A) (A) (A) (A) (A) (A) (A) (A)
                 (A) (A) (A) (A) (A) (A) (A) (A) (A) (A) (A) (A)
                 (A) (A) (A) (A) (A) (A) (A) (A) (A) (A) (A) (A)
                 (A) (A) (A) (A) (A) (A) (A) (A) (A) (A) (A) (A)
                 (A) (A) (A) (A) (A) (A) (A) (A) (A) (A) (A) (A)
                 (A) (A) (A) (A) (A) (A) (A) (A) (A) (A) (A) (A)
                 (A) (A) (A) (A) (A) (A) (A) (A) (A) (A) (A) (A)
                 (A) (A) (A) (A) (A) (A) (A) (A) (A) (A) (A) (A)
                 (A) (A) (A) (A) (A) (A) (A) (A) (A) (A) (A) (A)
                 (A) (A) (A) (A) (A) (A) (A) (A) (A) (A) (A) (A)
                 (A) (A) (A) (A) (A) (A) (A) (A) (A) (A) (A) (A)
                 (A) (A) (A) (A) (A) (A) (A) (A) (A) (A) (A) (A)
                 (A) (A) (A) (A) (A) (A) (A) (A) (A) (A) (A) (A)
                 (A) (A) (A) (A) (A) (A) (A) (A) (A) (A) (A) (A)
                 (A) (A) (A) (A) (A) (A) (A) (A) (A) (A) (A) (A)
                 (A) (A) (A) (A) (A) (A) (A) (A) (A) (A) (A) (A)
                 (A) (A) (A) (A) (A) (A) (A) (A) (A) (A) (A) (A)
                 (A) (A) (A) (A) (A) (A) (A) (A) (A) (A) (A) (A)
                 (A) (A) (A) (A) (A) (A) (A) (A) (A) (A) (A) (A)
                 (A) (A) (A) (A) (A) (A) (A) (A) (A) (A)
     8 initial guesses have been made.
 Convergence on wavefunction:    0.001000000000000
 Iteration     1 Dimension     8 NMult     0 NNew      8
 CISAX will form     8 AO SS matrices at one time.
 Iteration     2 Dimension    12 NMult     8 NNew      4
 Iteration     3 Dimension    16 NMult    12 NNew      4
 Iteration     4 Dimension    20 NMult    16 NNew      4
 Iteration     5 Dimension    24 NMult    20 NNew      4
 Iteration     6 Dimension    28 NMult    24 NNew      4
 ***********************************************************************
 Excited states from <AA,BB:AA,BB> singles matrix:
 ***********************************************************************
 
 Ground to excited state transition densities written to RWF  633
 Ground to excited state transition electric dipole moments (Au):
       state          X           Y           Z        Dip. S.      Osc.
         1         0.6331      1.5341      1.2077      4.2128      0.2043
 Ground to excited state transition velocity dipole moments (Au):
       state          X           Y           Z        Dip. S.      Osc.
         1        -0.0454     -0.1071     -0.0867      0.0211      0.1930
 Ground to excited state transition magnetic dipole moments (Au):
       state          X           Y           Z
         1        -0.9496     -1.1565      1.9359
 Ground to excited state transition velocity quadrupole moments (Au):
       state          XX          YY          ZZ          XY          XZ          YZ
         1         0.9901     -0.1606     -0.2029      1.0420      0.8317     -0.1768
 <0|del|b> * <b|rxdel|0> + <0|del|b> * <b|delr+rdel|0>
 Rotatory Strengths (R) in cgs (10**-40 erg-esu-cm/Gauss)
       state          XX          YY          ZZ    R(velocity)    E-M Angle
         1      -219.4227   -128.0082    339.7608     -2.5567       90.13
 1/2[<0|r|b>*<b|rxdel|0> + (<0|rxdel|b>*<b|r|0>)*]
 Rotatory Strengths (R) in cgs (10**-40 erg-esu-cm/Gauss)
       state          XX          YY          ZZ     R(length)
         1       425.1358   1254.6087  -1653.3538      8.7969
  1/2[<0|del|b>*<b|r|0> + (<0|r|b>*<b|del|0>)*] (Au)
       state          X           Y           Z        Dip. S.   Osc.(frdel)
         1        -0.0287     -0.1643     -0.1047      0.2978      0.1985

 Excitation energies and oscillator strengths:
 
 Excited State   1:      Singlet-A      1.9790 eV  626.49 nm  f=0.2043  <S**2>=0.000
     243 -> 246        0.26352
     244 -> 245        0.64410
 This state for optimization and/or second-order correction.
 Total Energy, E(TD-HF/TD-KS) =  -3043.25762032    
 Copying the excited state density for this state as the 1-particle RhoCI density.
 SavETr:  write IOETrn=   770 NScale= 10 NData=  16 NLR=1 NState=    1 LETran=      28.

 **********************************************************************

            Population analysis using the SCF density.

 **********************************************************************

 Orbital symmetries:
       Occupied  (A) (A) (A) (A) (A) (A) (A) (A) (A) (A) (A) (A)
                 (A) (A) (A) (A) (A) (A) (A) (A) (A) (A) (A) (A)
                 (A) (A) (A) (A) (A) (A) (A) (A) (A) (A) (A) (A)
                 (A) (A) (A) (A) (A) (A) (A) (A) (A) (A) (A) (A)
                 (A) (A) (A) (A) (A) (A) (A) (A) (A) (A) (A) (A)
                 (A) (A) (A) (A) (A) (A) (A) (A) (A) (A) (A) (A)
                 (A) (A) (A) (A) (A) (A) (A) (A) (A) (A) (A) (A)
                 (A) (A) (A) (A) (A) (A) (A) (A) (A) (A) (A) (A)
                 (A) (A) (A) (A) (A) (A) (A) (A) (A) (A) (A) (A)
                 (A) (A) (A) (A) (A) (A) (A) (A) (A) (A) (A) (A)
                 (A) (A) (A) (A) (A) (A) (A) (A) (A) (A) (A) (A)
                 (A) (A) (A) (A) (A) (A) (A) (A) (A) (A) (A) (A)
                 (A) (A) (A) (A) (A) (A) (A) (A) (A) (A) (A) (A)
                 (A) (A) (A) (A) (A) (A) (A) (A) (A) (A) (A) (A)
                 (A) (A) (A) (A) (A) (A) (A) (A) (A) (A) (A) (A)
                 (A) (A) (A) (A) (A) (A) (A) (A) (A) (A) (A) (A)
                 (A) (A) (A) (A) (A) (A) (A) (A) (A) (A) (A) (A)
                 (A) (A) (A) (A) (A) (A) (A) (A) (A) (A) (A) (A)
                 (A) (A) (A) (A) (A) (A) (A) (A) (A) (A) (A) (A)
                 (A) (A) (A) (A) (A) (A) (A) (A) (A) (A) (A) (A)
                 (A) (A) (A) (A)
       Virtual   (A) (A) (A) (A) (A) (A) (A) (A) (A) (A) (A) (A)
                 (A) (A) (A) (A) (A) (A) (A) (A) (A) (A) (A) (A)
                 (A) (A) (A) (A) (A) (A) (A) (A) (A) (A) (A) (A)
                 (A) (A) (A) (A) (A) (A) (A) (A) (A) (A) (A) (A)
                 (A) (A) (A) (A) (A) (A) (A) (A) (A) (A) (A) (A)
                 (A) (A) (A) (A) (A) (A) (A) (A) (A) (A) (A) (A)
                 (A) (A) (A) (A) (A) (A) (A) (A) (A) (A) (A) (A)
                 (A) (A) (A) (A) (A) (A) (A) (A) (A) (A) (A) (A)
                 (A) (A) (A) (A) (A) (A) (A) (A) (A) (A) (A) (A)
                 (A) (A) (A) (A) (A) (A) (A) (A) (A) (A) (A) (A)
                 (A) (A) (A) (A) (A) (A) (A) (A) (A) (A) (A) (A)
                 (A) (A) (A) (A) (A) (A) (A) (A) (A) (A) (A) (A)
                 (A) (A) (A) (A) (A) (A) (A) (A) (A) (A) (A) (A)
                 (A) (A) (A) (A) (A) (A) (A) (A) (A) (A) (A) (A)
                 (A) (A) (A) (A) (A) (A) (A) (A) (A) (A) (A) (A)
                 (A) (A) (A) (A) (A) (A) (A) (A) (A) (A) (A) (A)
                 (A) (A) (A) (A) (A) (A) (A) (A) (A) (A) (A) (A)
                 (A) (A) (A) (A) (A) (A) (A) (A) (A) (A) (A) (A)
                 (A) (A) (A) (A) (A) (A) (A) (A) (A) (A) (A) (A)
                 (A) (A) (A) (A) (A) (A) (A) (A) (A) (A) (A) (A)
                 (A) (A) (A) (A) (A) (A) (A) (A) (A) (A) (A) (A)
                 (A) (A) (A) (A) (A) (A) (A) (A) (A) (A) (A) (A)
                 (A) (A) (A) (A) (A) (A) (A) (A) (A) (A) (A) (A)
                 (A) (A) (A) (A) (A) (A) (A) (A) (A) (A) (A) (A)
                 (A) (A) (A) (A) (A) (A) (A) (A) (A) (A) (A) (A)
                 (A) (A) (A) (A) (A) (A) (A) (A) (A) (A) (A) (A)
                 (A) (A) (A) (A) (A) (A) (A) (A) (A) (A) (A) (A)
                 (A) (A) (A) (A) (A) (A) (A) (A) (A) (A) (A) (A)
                 (A) (A) (A) (A) (A) (A) (A) (A) (A) (A) (A) (A)
                 (A) (A) (A) (A) (A) (A) (A) (A) (A) (A) (A) (A)
                 (A) (A) (A) (A) (A) (A) (A) (A) (A) (A) (A) (A)
                 (A) (A) (A) (A) (A) (A) (A) (A) (A) (A) (A) (A)
                 (A) (A) (A) (A) (A) (A) (A) (A) (A) (A) (A) (A)
                 (A) (A) (A) (A) (A) (A) (A) (A) (A) (A) (A) (A)
                 (A) (A) (A) (A) (A) (A) (A) (A) (A) (A) (A) (A)
                 (A) (A) (A) (A) (A) (A) (A) (A) (A) (A) (A) (A)
                 (A) (A) (A) (A) (A) (A) (A) (A) (A) (A) (A) (A)
                 (A) (A) (A) (A) (A) (A) (A) (A) (A) (A) (A) (A)
                 (A) (A) (A) (A) (A) (A) (A) (A) (A) (A) (A) (A)
                 (A) (A) (A) (A) (A) (A) (A) (A) (A) (A) (A) (A)
                 (A) (A) (A) (A) (A) (A) (A) (A) (A) (A) (A) (A)
                 (A) (A) (A) (A) (A) (A) (A) (A) (A) (A) (A) (A)
                 (A) (A) (A) (A) (A) (A) (A) (A) (A) (A) (A) (A)
                 (A) (A) (A) (A) (A) (A) (A) (A) (A) (A) (A) (A)
                 (A) (A) (A) (A) (A) (A) (A) (A) (A) (A) (A) (A)
                 (A) (A) (A) (A) (A) (A) (A) (A) (A) (A) (A) (A)
                 (A) (A) (A) (A) (A) (A) (A) (A) (A) (A) (A) (A)
                 (A) (A) (A) (A) (A) (A) (A) (A) (A) (A) (A) (A)
                 (A) (A) (A) (A) (A) (A) (A) (A) (A) (A) (A) (A)
                 (A) (A) (A) (A) (A) (A) (A) (A) (A) (A) (A) (A)
                 (A) (A) (A) (A) (A) (A) (A) (A) (A) (A) (A) (A)
                 (A) (A) (A) (A) (A) (A) (A) (A) (A) (A) (A) (A)
                 (A) (A) (A) (A) (A) (A) (A) (A) (A) (A) (A) (A)
                 (A) (A) (A) (A) (A) (A) (A) (A) (A) (A) (A) (A)
                 (A) (A) (A) (A) (A) (A) (A) (A) (A) (A) (A) (A)
                 (A) (A) (A) (A) (A) (A) (A) (A) (A) (A) (A) (A)
                 (A) (A) (A) (A) (A) (A) (A) (A) (A) (A) (A) (A)
                 (A) (A) (A) (A) (A) (A) (A) (A) (A) (A) (A) (A)
                 (A) (A) (A) (A) (A) (A) (A) (A) (A) (A) (A) (A)
                 (A) (A) (A) (A) (A) (A) (A) (A) (A) (A) (A) (A)
                 (A) (A) (A) (A) (A) (A) (A) (A) (A) (A) (A) (A)
                 (A) (A) (A) (A) (A) (A) (A) (A) (A) (A) (A) (A)
                 (A) (A) (A) (A) (A) (A) (A) (A) (A) (A) (A) (A)
                 (A) (A) (A) (A) (A) (A) (A) (A) (A) (A) (A) (A)
                 (A) (A) (A) (A) (A) (A) (A) (A) (A) (A) (A) (A)
                 (A) (A) (A) (A) (A) (A) (A) (A) (A) (A) (A) (A)
                 (A) (A) (A) (A) (A) (A) (A) (A) (A) (A) (A) (A)
                 (A) (A) (A) (A) (A) (A) (A) (A) (A) (A) (A) (A)
                 (A) (A) (A) (A) (A) (A) (A) (A) (A) (A) (A) (A)
                 (A) (A) (A) (A) (A) (A) (A) (A) (A) (A) (A) (A)
                 (A) (A) (A) (A) (A) (A) (A) (A) (A) (A) (A) (A)
                 (A) (A) (A) (A) (A) (A) (A) (A) (A) (A) (A) (A)
                 (A) (A) (A) (A) (A) (A) (A) (A) (A) (A) (A) (A)
                 (A) (A) (A) (A) (A) (A) (A) (A) (A) (A) (A) (A)
                 (A) (A) (A) (A) (A) (A) (A) (A) (A) (A) (A) (A)
                 (A) (A) (A) (A) (A) (A) (A) (A) (A) (A) (A) (A)
                 (A) (A) (A) (A) (A) (A) (A) (A) (A) (A) (A) (A)
                 (A) (A) (A) (A) (A) (A) (A) (A) (A) (A) (A) (A)
                 (A) (A) (A) (A) (A) (A) (A) (A) (A) (A) (A) (A)
                 (A) (A) (A) (A) (A) (A) (A) (A) (A) (A) (A) (A)
                 (A) (A) (A) (A) (A) (A) (A) (A) (A) (A) (A) (A)
                 (A) (A) (A) (A) (A) (A) (A) (A) (A) (A) (A) (A)
                 (A) (A) (A) (A) (A) (A) (A) (A) (A) (A) (A) (A)
                 (A) (A) (A) (A) (A) (A) (A) (A) (A) (A) (A) (A)
                 (A) (A) (A) (A) (A) (A) (A) (A) (A) (A) (A) (A)
                 (A) (A) (A) (A) (A) (A) (A) (A) (A) (A) (A) (A)
                 (A) (A) (A) (A) (A) (A) (A) (A) (A) (A) (A) (A)
                 (A) (A) (A) (A) (A) (A) (A) (A) (A) (A) (A) (A)
                 (A) (A) (A) (A) (A) (A) (A) (A) (A) (A) (A) (A)
                 (A) (A) (A) (A) (A) (A) (A) (A) (A) (A) (A) (A)
                 (A) (A) (A) (A) (A) (A) (A) (A) (A) (A)
 The electronic state is 1-A.
 Alpha  occ. eigenvalues --  -46.81308 -19.24016 -19.22852 -19.17301 -19.17052
 Alpha  occ. eigenvalues --  -19.16872 -19.16709 -19.16298 -14.38007 -14.37283
 Alpha  occ. eigenvalues --  -14.37104 -14.36852 -10.35711 -10.35652 -10.32092
 Alpha  occ. eigenvalues --  -10.31739 -10.29418 -10.27940 -10.27859 -10.27137
 Alpha  occ. eigenvalues --  -10.27117 -10.26914 -10.26875 -10.26578 -10.26206
 Alpha  occ. eigenvalues --  -10.26058 -10.25923 -10.25858 -10.25825 -10.25309
 Alpha  occ. eigenvalues --  -10.24898 -10.24795 -10.24536 -10.24402 -10.24393
 Alpha  occ. eigenvalues --  -10.24285 -10.24113 -10.24113 -10.23939 -10.23706
 Alpha  occ. eigenvalues --  -10.23581 -10.23535 -10.23443 -10.23412 -10.23365
 Alpha  occ. eigenvalues --  -10.23295 -10.23090 -10.23060 -10.23059 -10.22943
 Alpha  occ. eigenvalues --  -10.22930 -10.22675 -10.22622 -10.22461 -10.21763
 Alpha  occ. eigenvalues --  -10.21743 -10.21600 -10.21578 -10.21556 -10.21401
 Alpha  occ. eigenvalues --  -10.21063 -10.20996 -10.19687 -10.19635 -10.19225
 Alpha  occ. eigenvalues --  -10.19215  -3.09934  -1.84865  -1.84454  -1.84302
 Alpha  occ. eigenvalues --   -1.19081  -1.12754  -1.08970  -1.06635  -1.03075
 Alpha  occ. eigenvalues --   -1.01686  -1.01040  -0.99964  -0.99468  -0.99296
 Alpha  occ. eigenvalues --   -0.98155  -0.90744  -0.87052  -0.86224  -0.85657
 Alpha  occ. eigenvalues --   -0.85318  -0.85073  -0.84590  -0.83734  -0.83320
 Alpha  occ. eigenvalues --   -0.83158  -0.82791  -0.82480  -0.82176  -0.81060
 Alpha  occ. eigenvalues --   -0.80302  -0.79586  -0.78326  -0.77698  -0.77380
 Alpha  occ. eigenvalues --   -0.76625  -0.75596  -0.74800  -0.73932  -0.71975
 Alpha  occ. eigenvalues --   -0.71864  -0.71714  -0.70380  -0.70115  -0.69575
 Alpha  occ. eigenvalues --   -0.69338  -0.69172  -0.67290  -0.66745  -0.66397
 Alpha  occ. eigenvalues --   -0.65650  -0.64922  -0.64846  -0.63278  -0.62774
 Alpha  occ. eigenvalues --   -0.62459  -0.61616  -0.60769  -0.60641  -0.59204
 Alpha  occ. eigenvalues --   -0.58627  -0.58220  -0.58020  -0.57284  -0.57118
 Alpha  occ. eigenvalues --   -0.56541  -0.56228  -0.55934  -0.55772  -0.55405
 Alpha  occ. eigenvalues --   -0.54821  -0.54443  -0.53533  -0.53389  -0.52517
 Alpha  occ. eigenvalues --   -0.52404  -0.52233  -0.51894  -0.51454  -0.51132
 Alpha  occ. eigenvalues --   -0.50719  -0.50374  -0.50012  -0.49894  -0.49648
 Alpha  occ. eigenvalues --   -0.49331  -0.48687  -0.48388  -0.48133  -0.47835
 Alpha  occ. eigenvalues --   -0.47698  -0.47538  -0.47391  -0.47093  -0.46937
 Alpha  occ. eigenvalues --   -0.46766  -0.46717  -0.46442  -0.46247  -0.46021
 Alpha  occ. eigenvalues --   -0.45836  -0.45713  -0.45367  -0.45214  -0.44890
 Alpha  occ. eigenvalues --   -0.44554  -0.44330  -0.44231  -0.43873  -0.43692
 Alpha  occ. eigenvalues --   -0.43519  -0.43289  -0.42741  -0.42656  -0.42443
 Alpha  occ. eigenvalues --   -0.42388  -0.42222  -0.42134  -0.41987  -0.41502
 Alpha  occ. eigenvalues --   -0.41387  -0.41336  -0.41163  -0.41146  -0.40745
 Alpha  occ. eigenvalues --   -0.40490  -0.40377  -0.40274  -0.40057  -0.39882
 Alpha  occ. eigenvalues --   -0.39820  -0.39204  -0.39179  -0.38901  -0.38675
 Alpha  occ. eigenvalues --   -0.38614  -0.38531  -0.38258  -0.38142  -0.37923
 Alpha  occ. eigenvalues --   -0.37737  -0.37625  -0.37292  -0.36942  -0.36800
 Alpha  occ. eigenvalues --   -0.36526  -0.36407  -0.36129  -0.35987  -0.35908
 Alpha  occ. eigenvalues --   -0.35231  -0.35150  -0.34922  -0.34818  -0.34615
 Alpha  occ. eigenvalues --   -0.34142  -0.33471  -0.33327  -0.33282  -0.32939
 Alpha  occ. eigenvalues --   -0.32469  -0.32165  -0.31934  -0.31744  -0.31581
 Alpha  occ. eigenvalues --   -0.30937  -0.30878  -0.30303  -0.29882  -0.29504
 Alpha  occ. eigenvalues --   -0.28709  -0.28260  -0.28157  -0.28037  -0.27889
 Alpha  occ. eigenvalues --   -0.27737  -0.27582  -0.23240  -0.21668
 Alpha virt. eigenvalues --   -0.08938  -0.07133  -0.02863  -0.01262   0.00323
 Alpha virt. eigenvalues --    0.00633   0.01770   0.03329   0.04183   0.04656
 Alpha virt. eigenvalues --    0.04828   0.04997   0.07372   0.07758   0.08481
 Alpha virt. eigenvalues --    0.09438   0.09485   0.09934   0.09985   0.10215
 Alpha virt. eigenvalues --    0.10634   0.11029   0.11203   0.11313   0.11482
 Alpha virt. eigenvalues --    0.11549   0.11938   0.12286   0.12506   0.12957
 Alpha virt. eigenvalues --    0.13204   0.13440   0.13467   0.13632   0.13642
 Alpha virt. eigenvalues --    0.13823   0.14197   0.14270   0.14551   0.14883
 Alpha virt. eigenvalues --    0.15178   0.15268   0.15304   0.15546   0.15602
 Alpha virt. eigenvalues --    0.15818   0.16111   0.16274   0.16316   0.16609
 Alpha virt. eigenvalues --    0.16683   0.16715   0.16752   0.16959   0.17271
 Alpha virt. eigenvalues --    0.17432   0.17768   0.17998   0.18171   0.18379
 Alpha virt. eigenvalues --    0.18754   0.18844   0.18962   0.19190   0.19483
 Alpha virt. eigenvalues --    0.19681   0.19702   0.19904   0.20013   0.20107
 Alpha virt. eigenvalues --    0.20145   0.20402   0.20508   0.20959   0.21152
 Alpha virt. eigenvalues --    0.21332   0.21449   0.21686   0.21970   0.22027
 Alpha virt. eigenvalues --    0.22269   0.22450   0.22619   0.23030   0.23183
 Alpha virt. eigenvalues --    0.23234   0.23504   0.23566   0.23593   0.23837
 Alpha virt. eigenvalues --    0.24033   0.24093   0.24403   0.24636   0.24966
 Alpha virt. eigenvalues --    0.24987   0.25178   0.25460   0.25540   0.25715
 Alpha virt. eigenvalues --    0.25791   0.26358   0.26442   0.26703   0.26868
 Alpha virt. eigenvalues --    0.27274   0.27538   0.27802   0.28076   0.28216
 Alpha virt. eigenvalues --    0.28328   0.28770   0.29124   0.29225   0.29338
 Alpha virt. eigenvalues --    0.29678   0.30038   0.30223   0.30331   0.30946
 Alpha virt. eigenvalues --    0.31475   0.32167   0.32228   0.32385   0.32408
 Alpha virt. eigenvalues --    0.32883   0.33217   0.33386   0.33549   0.33695
 Alpha virt. eigenvalues --    0.34527   0.35643   0.35859   0.36215   0.36838
 Alpha virt. eigenvalues --    0.36851   0.37129   0.37624   0.38052   0.38842
 Alpha virt. eigenvalues --    0.39016   0.39574   0.39938   0.40070   0.40942
 Alpha virt. eigenvalues --    0.41149   0.41961   0.42395   0.43377   0.43819
 Alpha virt. eigenvalues --    0.44402   0.44881   0.45361   0.46490   0.46968
 Alpha virt. eigenvalues --    0.47702   0.47906   0.48306   0.48988   0.49323
 Alpha virt. eigenvalues --    0.49686   0.49957   0.50494   0.50762   0.51026
 Alpha virt. eigenvalues --    0.51371   0.51523   0.52152   0.52182   0.52495
 Alpha virt. eigenvalues --    0.53133   0.53399   0.53544   0.53622   0.54011
 Alpha virt. eigenvalues --    0.54201   0.54604   0.54782   0.54887   0.55330
 Alpha virt. eigenvalues --    0.55450   0.55486   0.55725   0.56043   0.56177
 Alpha virt. eigenvalues --    0.56519   0.56741   0.56837   0.57084   0.57423
 Alpha virt. eigenvalues --    0.57667   0.57766   0.58022   0.58417   0.58645
 Alpha virt. eigenvalues --    0.58838   0.59234   0.59508   0.59748   0.59921
 Alpha virt. eigenvalues --    0.60164   0.60574   0.60673   0.60783   0.60891
 Alpha virt. eigenvalues --    0.61246   0.61566   0.61655   0.61789   0.62294
 Alpha virt. eigenvalues --    0.62397   0.62723   0.62963   0.63097   0.63394
 Alpha virt. eigenvalues --    0.63609   0.63724   0.63829   0.64043   0.64337
 Alpha virt. eigenvalues --    0.64649   0.64990   0.65166   0.65193   0.65370
 Alpha virt. eigenvalues --    0.65667   0.66039   0.66056   0.66391   0.66890
 Alpha virt. eigenvalues --    0.67255   0.67669   0.68039   0.68492   0.68727
 Alpha virt. eigenvalues --    0.68810   0.69274   0.69402   0.69505   0.69777
 Alpha virt. eigenvalues --    0.69868   0.70200   0.70536   0.70642   0.71028
 Alpha virt. eigenvalues --    0.71233   0.71350   0.72030   0.72250   0.72906
 Alpha virt. eigenvalues --    0.72963   0.73231   0.73655   0.73950   0.74189
 Alpha virt. eigenvalues --    0.74583   0.74920   0.74965   0.75206   0.75289
 Alpha virt. eigenvalues --    0.75617   0.75798   0.75954   0.76377   0.76537
 Alpha virt. eigenvalues --    0.76643   0.76945   0.76993   0.77327   0.77862
 Alpha virt. eigenvalues --    0.78041   0.78189   0.78311   0.78695   0.78954
 Alpha virt. eigenvalues --    0.79199   0.79345   0.79466   0.79715   0.79984
 Alpha virt. eigenvalues --    0.80750   0.80789   0.80945   0.81141   0.81191
 Alpha virt. eigenvalues --    0.81322   0.81420   0.81705   0.82091   0.82731
 Alpha virt. eigenvalues --    0.82891   0.83099   0.83197   0.83291   0.83627
 Alpha virt. eigenvalues --    0.83773   0.84074   0.84377   0.84536   0.84634
 Alpha virt. eigenvalues --    0.84689   0.84867   0.85209   0.85323   0.85463
 Alpha virt. eigenvalues --    0.85743   0.85795   0.85924   0.86205   0.86432
 Alpha virt. eigenvalues --    0.86477   0.86649   0.86810   0.87073   0.87296
 Alpha virt. eigenvalues --    0.87468   0.87819   0.88141   0.88267   0.88491
 Alpha virt. eigenvalues --    0.88588   0.88698   0.89107   0.89257   0.89417
 Alpha virt. eigenvalues --    0.89513   0.89897   0.90076   0.90267   0.90510
 Alpha virt. eigenvalues --    0.90552   0.90775   0.91092   0.91533   0.91811
 Alpha virt. eigenvalues --    0.91858   0.92079   0.92185   0.92562   0.92931
 Alpha virt. eigenvalues --    0.93049   0.93362   0.93540   0.93631   0.93908
 Alpha virt. eigenvalues --    0.94301   0.94485   0.94576   0.94917   0.95192
 Alpha virt. eigenvalues --    0.95423   0.95572   0.95685   0.95971   0.95990
 Alpha virt. eigenvalues --    0.96142   0.96252   0.96556   0.97134   0.97395
 Alpha virt. eigenvalues --    0.97467   0.97536   0.97833   0.98041   0.98313
 Alpha virt. eigenvalues --    0.98614   0.98812   0.99066   0.99084   0.99723
 Alpha virt. eigenvalues --    0.99980   1.00174   1.00515   1.00599   1.01124
 Alpha virt. eigenvalues --    1.01347   1.01649   1.02021   1.02248   1.02401
 Alpha virt. eigenvalues --    1.02628   1.02825   1.03456   1.03849   1.04101
 Alpha virt. eigenvalues --    1.04252   1.04565   1.04746   1.04965   1.05041
 Alpha virt. eigenvalues --    1.05224   1.05776   1.06052   1.06495   1.06843
 Alpha virt. eigenvalues --    1.06935   1.07554   1.07645   1.08469   1.09058
 Alpha virt. eigenvalues --    1.09370   1.09752   1.10331   1.10499   1.11043
 Alpha virt. eigenvalues --    1.11712   1.12354   1.12413   1.13346   1.13384
 Alpha virt. eigenvalues --    1.14690   1.14742   1.15374   1.15758   1.16494
 Alpha virt. eigenvalues --    1.16633   1.16988   1.17458   1.18038   1.18357
 Alpha virt. eigenvalues --    1.19046   1.19998   1.20475   1.20522   1.21103
 Alpha virt. eigenvalues --    1.21367   1.22473   1.22578   1.22876   1.23313
 Alpha virt. eigenvalues --    1.23891   1.24688   1.24835   1.25098   1.25558
 Alpha virt. eigenvalues --    1.26146   1.26359   1.27569   1.27774   1.28674
 Alpha virt. eigenvalues --    1.29625   1.29784   1.30087   1.30595   1.31259
 Alpha virt. eigenvalues --    1.32084   1.32666   1.33206   1.33670   1.34195
 Alpha virt. eigenvalues --    1.34269   1.34616   1.34996   1.35794   1.35882
 Alpha virt. eigenvalues --    1.36117   1.36176   1.36303   1.37568   1.37783
 Alpha virt. eigenvalues --    1.38261   1.38683   1.39056   1.39432   1.39474
 Alpha virt. eigenvalues --    1.40586   1.40881   1.41237   1.41388   1.41552
 Alpha virt. eigenvalues --    1.42145   1.42546   1.42803   1.44160   1.44553
 Alpha virt. eigenvalues --    1.45243   1.45320   1.45705   1.46187   1.46687
 Alpha virt. eigenvalues --    1.47136   1.47890   1.48263   1.48655   1.48776
 Alpha virt. eigenvalues --    1.49427   1.49619   1.50280   1.51028   1.51075
 Alpha virt. eigenvalues --    1.51570   1.52085   1.52394   1.52838   1.53059
 Alpha virt. eigenvalues --    1.53297   1.54379   1.54598   1.55162   1.55319
 Alpha virt. eigenvalues --    1.55607   1.56515   1.56704   1.57298   1.58239
 Alpha virt. eigenvalues --    1.58621   1.58730   1.59099   1.59716   1.60108
 Alpha virt. eigenvalues --    1.60281   1.60664   1.60967   1.61560   1.62476
 Alpha virt. eigenvalues --    1.63063   1.63364   1.63581   1.64002   1.64403
 Alpha virt. eigenvalues --    1.65078   1.65270   1.65472   1.65818   1.66206
 Alpha virt. eigenvalues --    1.66228   1.67070   1.67680   1.67913   1.67948
 Alpha virt. eigenvalues --    1.68200   1.69323   1.69458   1.69681   1.70026
 Alpha virt. eigenvalues --    1.70662   1.70990   1.71284   1.72387   1.72641
 Alpha virt. eigenvalues --    1.72977   1.73225   1.73314   1.74421   1.74877
 Alpha virt. eigenvalues --    1.75458   1.75697   1.75993   1.76154   1.76413
 Alpha virt. eigenvalues --    1.76702   1.77029   1.77403   1.77618   1.78113
 Alpha virt. eigenvalues --    1.78661   1.78905   1.79061   1.79430   1.79718
 Alpha virt. eigenvalues --    1.80192   1.80420   1.80592   1.80908   1.81305
 Alpha virt. eigenvalues --    1.81373   1.81700   1.82381   1.82703   1.82900
 Alpha virt. eigenvalues --    1.83214   1.83642   1.83826   1.83985   1.84063
 Alpha virt. eigenvalues --    1.84140   1.84855   1.84927   1.85458   1.85718
 Alpha virt. eigenvalues --    1.85930   1.86259   1.86540   1.86864   1.87167
 Alpha virt. eigenvalues --    1.87373   1.87528   1.87639   1.88214   1.88274
 Alpha virt. eigenvalues --    1.88467   1.88650   1.89007   1.89311   1.89398
 Alpha virt. eigenvalues --    1.89548   1.90317   1.90432   1.90557   1.90581
 Alpha virt. eigenvalues --    1.90673   1.91336   1.91568   1.91748   1.92053
 Alpha virt. eigenvalues --    1.92396   1.92437   1.92844   1.92934   1.93041
 Alpha virt. eigenvalues --    1.93550   1.93708   1.94160   1.94739   1.94767
 Alpha virt. eigenvalues --    1.95196   1.95270   1.95824   1.96221   1.96516
 Alpha virt. eigenvalues --    1.96723   1.96789   1.97044   1.97404   1.97571
 Alpha virt. eigenvalues --    1.97700   1.97815   1.98255   1.98560   1.99092
 Alpha virt. eigenvalues --    1.99569   1.99682   1.99948   2.00196   2.00476
 Alpha virt. eigenvalues --    2.00929   2.01527   2.01975   2.02150   2.02432
 Alpha virt. eigenvalues --    2.02865   2.03183   2.03261   2.03356   2.03595
 Alpha virt. eigenvalues --    2.03739   2.03896   2.04458   2.04600   2.04845
 Alpha virt. eigenvalues --    2.05010   2.05309   2.05828   2.06086   2.06287
 Alpha virt. eigenvalues --    2.06839   2.07076   2.07113   2.07261   2.07592
 Alpha virt. eigenvalues --    2.08221   2.08464   2.08792   2.09076   2.09216
 Alpha virt. eigenvalues --    2.09500   2.09607   2.09984   2.10149   2.10336
 Alpha virt. eigenvalues --    2.10865   2.11092   2.11215   2.11519   2.11694
 Alpha virt. eigenvalues --    2.12063   2.12444   2.12973   2.13212   2.13394
 Alpha virt. eigenvalues --    2.13527   2.13781   2.14092   2.14711   2.14951
 Alpha virt. eigenvalues --    2.15209   2.15757   2.16012   2.16489   2.16655
 Alpha virt. eigenvalues --    2.17121   2.17574   2.17690   2.18245   2.18477
 Alpha virt. eigenvalues --    2.18742   2.19306   2.19660   2.20047   2.20092
 Alpha virt. eigenvalues --    2.20661   2.20800   2.21431   2.21617   2.22583
 Alpha virt. eigenvalues --    2.22634   2.23000   2.23210   2.23518   2.23938
 Alpha virt. eigenvalues --    2.24316   2.24736   2.24913   2.25562   2.25688
 Alpha virt. eigenvalues --    2.26001   2.26341   2.26994   2.27069   2.27156
 Alpha virt. eigenvalues --    2.27369   2.27430   2.27617   2.28044   2.28337
 Alpha virt. eigenvalues --    2.28559   2.28647   2.29115   2.29597   2.29652
 Alpha virt. eigenvalues --    2.30180   2.30274   2.31471   2.31607   2.32434
 Alpha virt. eigenvalues --    2.32626   2.32815   2.33283   2.33424   2.34039
 Alpha virt. eigenvalues --    2.34286   2.34409   2.34829   2.35128   2.35646
 Alpha virt. eigenvalues --    2.35853   2.36047   2.36335   2.36766   2.37005
 Alpha virt. eigenvalues --    2.37484   2.37645   2.37999   2.38521   2.38698
 Alpha virt. eigenvalues --    2.39365   2.39413   2.39496   2.39591   2.40268
 Alpha virt. eigenvalues --    2.40521   2.40602   2.41027   2.41308   2.41785
 Alpha virt. eigenvalues --    2.41933   2.42169   2.42605   2.42619   2.42893
 Alpha virt. eigenvalues --    2.43064   2.43742   2.44678   2.44733   2.44793
 Alpha virt. eigenvalues --    2.45082   2.45234   2.45819   2.46004   2.46162
 Alpha virt. eigenvalues --    2.46729   2.46882   2.47134   2.47459   2.47765
 Alpha virt. eigenvalues --    2.47943   2.48080   2.48589   2.48837   2.48926
 Alpha virt. eigenvalues --    2.49935   2.50006   2.50732   2.50957   2.51321
 Alpha virt. eigenvalues --    2.51549   2.51657   2.52281   2.52622   2.52762
 Alpha virt. eigenvalues --    2.53391   2.54422   2.54576   2.54824   2.55095
 Alpha virt. eigenvalues --    2.55905   2.56075   2.57047   2.57310   2.57643
 Alpha virt. eigenvalues --    2.57837   2.58516   2.59037   2.59466   2.59682
 Alpha virt. eigenvalues --    2.60195   2.60445   2.60875   2.60914   2.61424
 Alpha virt. eigenvalues --    2.62532   2.62856   2.62974   2.63395   2.63556
 Alpha virt. eigenvalues --    2.63950   2.64522   2.64797   2.65393   2.65592
 Alpha virt. eigenvalues --    2.66197   2.66271   2.66484   2.66647   2.66772
 Alpha virt. eigenvalues --    2.67164   2.67373   2.67536   2.67764   2.68089
 Alpha virt. eigenvalues --    2.68149   2.68544   2.69493   2.69667   2.70101
 Alpha virt. eigenvalues --    2.70197   2.70624   2.70989   2.71292   2.71582
 Alpha virt. eigenvalues --    2.71995   2.72334   2.72457   2.72629   2.72664
 Alpha virt. eigenvalues --    2.72949   2.73121   2.73588   2.74098   2.74757
 Alpha virt. eigenvalues --    2.74868   2.75214   2.75786   2.75887   2.76254
 Alpha virt. eigenvalues --    2.76835   2.77511   2.77637   2.77958   2.78101
 Alpha virt. eigenvalues --    2.78283   2.78332   2.78881   2.79349   2.79579
 Alpha virt. eigenvalues --    2.79821   2.80082   2.80550   2.80910   2.80990
 Alpha virt. eigenvalues --    2.81261   2.81474   2.82423   2.82473   2.82697
 Alpha virt. eigenvalues --    2.82933   2.83316   2.83805   2.84213   2.84658
 Alpha virt. eigenvalues --    2.85109   2.85329   2.85695   2.86118   2.86342
 Alpha virt. eigenvalues --    2.86636   2.87037   2.87567   2.88030   2.88451
 Alpha virt. eigenvalues --    2.89116   2.89131   2.89395   2.90028   2.90925
 Alpha virt. eigenvalues --    2.91059   2.91576   2.91681   2.92130   2.92632
 Alpha virt. eigenvalues --    2.93157   2.93738   2.94062   2.94388   2.95005
 Alpha virt. eigenvalues --    2.96058   2.96159   2.96524   2.96784   2.97182
 Alpha virt. eigenvalues --    2.97534   2.97848   2.98503   2.98507   2.99483
 Alpha virt. eigenvalues --    2.99595   3.00545   3.01093   3.01522   3.01741
 Alpha virt. eigenvalues --    3.02605   3.02690   3.02752   3.03795   3.04432
 Alpha virt. eigenvalues --    3.05087   3.05307   3.06114   3.06625   3.07055
 Alpha virt. eigenvalues --    3.07685   3.07771   3.08977   3.09055   3.09388
 Alpha virt. eigenvalues --    3.11187   3.11492   3.11879   3.12896   3.14029
 Alpha virt. eigenvalues --    3.15271   3.15814   3.16078   3.16361   3.16494
 Alpha virt. eigenvalues --    3.16658   3.17579   3.17744   3.18855   3.18958
 Alpha virt. eigenvalues --    3.19940   3.20886   3.21734   3.22441   3.23392
 Alpha virt. eigenvalues --    3.24346   3.25753   3.26426   3.26679   3.27267
 Alpha virt. eigenvalues --    3.27506   3.27955   3.29337   3.31814   3.32888
 Alpha virt. eigenvalues --    3.33477   3.33615   3.33729   3.34519   3.35723
 Alpha virt. eigenvalues --    3.36141   3.37334   3.37911   3.38336   3.39192
 Alpha virt. eigenvalues --    3.40480   3.40906   3.41898   3.42017   3.42531
 Alpha virt. eigenvalues --    3.42711   3.43062   3.43258   3.44124   3.44674
 Alpha virt. eigenvalues --    3.45406   3.46071   3.46416   3.46924   3.47967
 Alpha virt. eigenvalues --    3.48268   3.48511   3.49115   3.49890   3.50920
 Alpha virt. eigenvalues --    3.51364   3.52424   3.52713   3.54536   3.55432
 Alpha virt. eigenvalues --    3.56438   3.57688   3.59496   3.60580   3.61101
 Alpha virt. eigenvalues --    3.64860   3.66324   3.67011   3.69399   3.71088
 Alpha virt. eigenvalues --    3.73410   3.73530   3.74893   3.89434   3.93727
 Alpha virt. eigenvalues --    4.00402   4.02731   4.06278   4.11619   4.14081
 Alpha virt. eigenvalues --    4.14628   4.14907   4.15079   4.16174   4.18411
 Alpha virt. eigenvalues --    4.20384   4.20492   4.21634   4.23963   4.24225
 Alpha virt. eigenvalues --    4.26226   4.26854   4.27869   4.30187   4.32156
 Alpha virt. eigenvalues --    4.33349   4.33644   4.34215   4.34873   4.35838
 Alpha virt. eigenvalues --    4.38280   4.39748   4.40502   4.41070   4.42739
 Alpha virt. eigenvalues --    4.45239   4.45654   4.47202   4.48548   4.49189
 Alpha virt. eigenvalues --    4.49886   4.51453   4.53753   4.53956   4.55277
 Alpha virt. eigenvalues --    4.55290   4.56124   4.56627   4.56735   4.59731
 Alpha virt. eigenvalues --    4.60830   4.63689   4.64304   4.64415   4.67189
 Alpha virt. eigenvalues --    4.67727   4.69117   4.70490   4.72394   4.73085
 Alpha virt. eigenvalues --    4.76111   4.76694   4.80242   4.81078   4.81232
 Alpha virt. eigenvalues --    4.82448   4.84612   4.86079   4.88517   4.96290
          Condensed to atoms (all electrons):
 Mulliken charges:
               1
     1  Mg   0.842524
     2  C    0.100410
     3  C   -0.175842
     4  C   -0.119721
     5  C   -0.108997
     6  N   -0.634516
     7  C    0.290226
     8  C   -0.177868
     9  C   -0.152720
    10  C    0.357782
    11  C   -0.285067
    12  C   -0.138293
    13  C   -0.282274
    14  C    0.612612
    15  O   -0.528142
    16  O   -0.459310
    17  N   -0.689127
    18  C    0.295861
    19  C    0.090047
    20  C   -0.068505
    21  C    0.280695
    22  C   -0.434863
    23  C    0.276378
    24  O   -0.391149
    25  N   -0.724178
    26  C    0.285148
    27  C    0.003921
    28  C    0.019156
    29  C    0.311336
    30  C    0.209190
    31  C   -0.289654
    32  C   -0.273278
    33  N   -0.727823
    34  C    0.283824
    35  C    0.022168
    36  C    0.071641
    37  C    0.268281
    38  C   -0.384698
    39  C    0.352005
    40  O   -0.515115
    41  C   -0.302800
    42  C    0.576228
    43  O   -0.469210
    44  O   -0.348667
    45  C   -0.107849
    46  C    0.029124
    47  C   -0.139100
    48  C    0.122140
    49  C   -0.377056
    50  C   -0.211541
    51  C   -0.181083
    52  C   -0.162248
    53  C   -0.072791
    54  C   -0.276125
    55  C   -0.145478
    56  C   -0.138129
    57  C   -0.170955
    58  C   -0.035591
    59  C   -0.310202
    60  C   -0.191182
    61  C   -0.149503
    62  C   -0.139659
    63  C   -0.062720
    64  C   -0.308440
    65  C   -0.281836
    66  H    0.065615
    67  H    0.122169
    68  H    0.072094
    69  H    0.120285
    70  H    0.093373
    71  H    0.079544
    72  H    0.112206
    73  H    0.134747
    74  H    0.118437
    75  H    0.121821
    76  H    0.127738
    77  H    0.138963
    78  H    0.125356
    79  H    0.151621
    80  H    0.117917
    81  H    0.083292
    82  H    0.091062
    83  H    0.101382
    84  H    0.127573
    85  H    0.117187
    86  H    0.102917
    87  H    0.128403
    88  H    0.160709
    89  H    0.095937
    90  H    0.170830
    91  H    0.120666
    92  H    0.133430
    93  H    0.068265
    94  H    0.151748
    95  H    0.110399
    96  H    0.117556
    97  H    0.109449
    98  H    0.108438
    99  H    0.095497
   100  H    0.054641
   101  H    0.107782
   102  H    0.081755
   103  H    0.066532
   104  H    0.108575
   105  H    0.082678
   106  H    0.095163
   107  H    0.036832
   108  H    0.067486
   109  H    0.110786
   110  H    0.100943
   111  H    0.100601
   112  H    0.037052
   113  H    0.046371
   114  H    0.069552
   115  H    0.121752
   116  H    0.101566
   117  H    0.094173
   118  H    0.092869
   119  H    0.093883
   120  H    0.079943
   121  H    0.058535
   122  H    0.087082
   123  H    0.078364
   124  H    0.090500
   125  H    0.074308
   126  H    0.113790
   127  H    0.062411
   128  H    0.115413
   129  H    0.105442
   130  H    0.137744
   131  H    0.127772
   132  H    0.109542
   133  O   -0.449250
   134  H    0.083393
 Sum of Mulliken charges =   0.00000
 Mulliken charges with hydrogens summed into heavy atoms:
               1
     1  Mg   0.842524
     2  C    0.100410
     3  C   -0.110227
     4  C    0.002447
     5  C   -0.036903
     6  N   -0.634516
     7  C    0.290226
     8  C   -0.057583
     9  C   -0.059347
    10  C    0.357782
    11  C    0.041430
    12  C    0.101966
    13  C   -0.015573
    14  C    0.612612
    15  O   -0.528142
    16  O   -0.459310
    17  N   -0.689127
    18  C    0.295861
    19  C    0.090047
    20  C   -0.068505
    21  C    0.280695
    22  C   -0.039969
    23  C    0.359670
    24  O   -0.391149
    25  N   -0.724178
    26  C    0.285148
    27  C    0.003921
    28  C    0.019156
    29  C    0.311336
    30  C    0.292584
    31  C   -0.097210
    32  C    0.074399
    33  N   -0.727823
    34  C    0.283824
    35  C    0.022168
    36  C    0.071641
    37  C    0.268281
    38  C    0.000352
    39  C    0.352005
    40  O   -0.515115
    41  C   -0.131970
    42  C    0.576228
    43  O   -0.469210
    44  O   -0.348667
    45  C    0.267209
    46  C    0.283220
    47  C   -0.070836
    48  C    0.122140
    49  C    0.002646
    50  C    0.006345
    51  C   -0.030945
    52  C    0.027289
    53  C   -0.006259
    54  C    0.010290
    55  C   -0.041160
    56  C    0.073600
    57  C   -0.033302
    58  C    0.010780
    59  C   -0.017332
    60  C   -0.004140
    61  C    0.024324
    62  C    0.005958
    63  C    0.015645
    64  C   -0.029841
    65  C    0.001430
   133  O   -0.449250
 Electronic spatial extent (au):  <R**2>=         146858.2924
 Charge=              0.0000 electrons
 Dipole moment (field-independent basis, Debye):
    X=              2.2768    Y=             -4.3943    Z=             -0.8430  Tot=              5.0204
 Quadrupole moment (field-independent basis, Debye-Ang):
   XX=           -371.4023   YY=           -428.7686   ZZ=           -398.4390
   XY=             -6.3278   XZ=             24.2937   YZ=            -33.3780
 Traceless Quadrupole moment (field-independent basis, Debye-Ang):
   XX=             28.1343   YY=            -29.2320   ZZ=              1.0976
   XY=             -6.3278   XZ=             24.2937   YZ=            -33.3780
 Octapole moment (field-independent basis, Debye-Ang**2):
  XXX=           -233.7910  YYY=           -576.4934  ZZZ=            -12.3398  XYY=            220.4885
  XXY=             62.3264  XXZ=           -231.7935  XZZ=            -85.7563  YZZ=             -5.6190
  YYZ=            -64.1973  XYZ=            160.0027
 Hexadecapole moment (field-independent basis, Debye-Ang**3):
 XXXX=        -158510.3943 YYYY=         -30794.8574 ZZZZ=          -9233.8504 XXXY=          -1761.3142
 XXXZ=           2660.9140 YYYX=           2225.7668 YYYZ=          -1281.0247 ZZZX=            387.1675
 ZZZY=           -267.2722 XXYY=         -32996.2263 XXZZ=         -28499.2727 YYZZ=          -7074.1369
 XXYZ=          -1410.8349 YYXZ=            296.9371 ZZXY=           -363.0526
 N-N= 9.129537213487D+03 E-N=-2.534246183818D+04  KE= 3.016024981533D+03

 Test job not archived.
 1\1\GINC-PEDRO-RYZENSSD\SP\RCAM-B3LYP TD-FC\6-31G(d,p)\C54H68Mg1N4O7\P
 ADAWAN\09-Oct-2019\0\\# td=(NStates=1) iop(3/107=0140000000,3/108=0140
 000000) iop(3/107=0140000000,3/108=0140000000) CAM-B3LYP/6-31G(d,p)\\T
 D\\0,1\Mg,0,-5.621607892,1.2874187696,0.0804007089\C,0,-5.0325933811,-
 2.0451184765,-0.4123643015\C,0,-3.4445259125,1.1096435059,2.7866501032
 \C,0,-6.2434007624,4.5229503181,0.7478971509\C,0,-7.9725481728,1.23773
 24556,-2.4972338173\N,0,-4.2694440289,-0.2670126244,0.9657567427\C,0,-
 4.2612413445,-1.6193731187,0.5594796665\C,0,-3.213242726,-2.2743786365
 ,1.387244313\C,0,-2.9560197574,-1.3557662463,2.5271895056\C,0,-3.47243
 40434,-0.0128504376,2.0650671653\C,0,-3.5610982178,-1.6644531379,3.909
 4188013\C,0,-1.9022950728,-2.6702310163,0.6141856047\C,0,-0.9690046634
 ,-3.5515002379,1.474911368\C,0,0.2758434517,-3.940008873,0.7760957707\
 O,0,0.5290567596,-3.621951884,-0.4943094463\O,0,1.0114828305,-4.819897
 1345,1.4383198205\N,0,-4.8265012011,2.5108313198,1.5362603126\C,0,-3.9
 261967069,2.3943974557,2.4798732131\C,0,-3.6806185991,3.6208421667,3.1
 800969541\C,0,-4.4884245982,4.5456230278,2.5611319974\C,0,-5.285537916
 2,3.8242170982,1.5838235343\C,0,-2.725891214,3.7440114848,4.306584529\
 C,0,-4.671359836,5.9894489791,2.969502387\O,0,-4.0300654938,6.52619744
 99,3.8042844009\N,0,-6.8558772373,2.6394318757,-0.8224649142\C,0,-6.90
 56127591,3.9353639419,-0.3604542485\C,0,-7.8585909993,4.6849295498,-1.
 258128622\C,0,-8.4099640292,3.6868278129,-2.0557001224\C,0,-7.76580039
 15,2.4518433584,-1.8089946693\C,0,-8.307773056,6.0515165214,-1.1262437
 59\C,0,-9.4273192103,3.861567095,-3.1806706157\C,0,-8.74069305,4.10413
 17763,-4.5791011568\N,0,-6.4794237097,-0.0880439846,-1.0100720276\C,0,
 -7.3662302297,0.0230113955,-2.0341493375\C,0,-7.5389570123,-1.32321747
 44,-2.7470477294\C,0,-6.6694124249,-2.1777815515,-2.0425934692\C,0,-6.
 0364715707,-1.4440884383,-1.0306309278\C,0,-8.4910544801,-1.6568354721
 ,-3.8070816276\C,0,-6.155319159,-3.5422533313,-1.9275981537\O,0,-6.651
 1383544,-4.5980547756,-2.5633765834\C,0,-5.048485102,-3.5043722039,-0.
 9161882396\C,0,-5.2850056282,-4.6593311347,0.0770148525\O,0,-5.7253767
 203,-4.5467906125,1.1791550358\O,0,-4.9953695002,-5.8036842525,-0.3774
 319146\C,0,-5.2589592451,-6.9814117323,0.2170892437\C,0,2.3547921608,-
 5.1068069409,0.885966578\C,0,3.3125345636,-4.0712786272,1.1454858344\C
 ,0,3.9945785616,-3.2482046414,0.274129788\C,0,3.718756773,-3.281681356
 5,-1.2127189407\C,0,5.1756717732,-2.3491291811,0.6264244933\C,0,6.4955
 451592,-2.6726622192,0.1581261385\C,0,7.637642891,-1.7325449003,0.7480
 786425\C,0,8.9569543039,-1.9626622482,-0.0218689001\C,0,9.515628643,-3
 .3029802005,0.2440875338\C,0,10.0728027159,-0.9300236233,0.3660045639\
 C,0,11.3059437517,-0.8980325984,-0.3302383344\C,0,12.1553331539,0.3048
 996805,0.1627870669\C,0,13.5532547196,0.4672464115,-0.685808338\C,0,14
 .4029584688,-0.792479978,-0.4721939046\C,0,14.2484347817,1.7846132335,
 -0.2423218746\C,0,15.4050697879,2.2028422195,-1.1235994676\C,0,15.9092
 205418,3.5154740574,-0.6980809011\C,0,17.2431087056,3.9882677423,-1.32
 47035182\C,0,17.0759465768,3.9989454572,-2.877580078\C,0,17.8004534645
 ,5.2979379198,-0.8747484318\H,0,-2.5460501109,1.2524921128,3.669394550
 7\H,0,-6.3761184947,5.519248127,0.8884286056\H,0,-8.6150867078,1.50190
 44519,-3.2509704779\H,0,-3.8176488301,-3.1715902757,1.6676825104\H,0,-
 1.8361146975,-1.3695145597,2.7059227583\H,0,-2.9360229275,-2.673213902
 3,4.1309330392\H,0,-3.2375703571,-0.8515872764,4.6913952754\H,0,-4.624
 4041162,-1.8569236104,3.8690001226\H,0,-2.1190790735,-3.3030933543,-0.
 1045781924\H,0,-1.3865693566,-1.6923978672,0.4177026116\H,0,-0.8093953
 296,-3.2255525276,2.5611106522\H,0,-1.7129607747,-4.3934961859,1.58407
 74444\H,0,-1.6334719993,3.4565103377,4.2372361047\H,0,-2.7512327773,4.
 8446741065,4.6796536283\H,0,-2.9892688594,3.2765908532,5.3348304598\H,
 0,-5.3257964389,6.5928172642,2.496951811\H,0,-10.1458985724,2.87988514
 04,-3.1076819228\H,0,-10.236521135,4.6484623807,-2.9927922718\H,0,-9.5
 931450754,4.1641843184,-5.2292692375\H,0,-8.1009840644,5.1332352641,-4
 .4851882006\H,0,-8.2418144563,3.0447587898,-4.588012916\H,0,-8.4262892
 105,-0.9768509428,-4.6908090499\H,0,-8.3681364415,-2.7095280131,-4.026
 8320271\H,0,-9.753278577,-1.5942660612,-3.5028045656\H,0,-4.0916609421
 ,-3.8062164446,-1.3050154316\H,0,2.4974376876,-5.8878660797,1.50484887
 28\H,0,2.0806913957,-5.4696654929,-0.137379173\H,0,3.702796262,-4.2189
 420165,2.2880971738\H,0,2.6150889608,-3.5497265276,-1.4952221723\H,0,3
 .8153188699,-2.2604707477,-1.663134531\H,0,4.5203245399,-3.9566275191,
 -1.6241738747\H,0,5.0986137304,-1.3064861932,0.4012105122\H,0,5.260068
 3652,-2.4097852957,1.6649703833\H,0,6.5275519752,-3.7851728168,0.07255
 65774\H,0,6.7773765772,-2.573499566,-1.0323629225\H,0,7.2941402156,-0.
 7411306674,0.485387292\H,0,7.6007889891,-1.8433125798,1.9279502674\H,0
 ,8.5462005197,-1.846222663,-1.151673386\H,0,8.8640685723,-3.8528541453
 ,-0.0453670069\H,0,10.42860589,-3.6789112458,-0.3875863405\H,0,9.76464
 32119,-3.5517008987,1.3262535884\H,0,9.5708581467,0.2230507155,0.37021
 6196\H,0,10.1981487735,-1.3062189412,1.5105519925\H,0,11.7803899701,-1
 .7639337151,-0.0129706049\H,0,11.2716631065,-0.6992915647,-1.373088152
 5\H,0,11.687878806,1.2111841902,0.3351563052\H,0,12.52021278,0.0830095
 843,1.3537945546\H,0,13.0732580681,0.470121755,-1.857621967\H,0,14.781
 878415,-0.7783808554,0.6904741449\H,0,14.0390042869,-1.7718003589,-0.5
 490811622\H,0,15.4308129378,-0.6672500527,-0.9271851215\H,0,13.5780070
 463,2.6474130405,-0.1054004173\H,0,14.6723448467,1.5784942639,0.768305
 6579\H,0,16.0948082079,1.3735728188,-0.8297707921\H,0,15.0532401195,2.
 0908773391,-2.2686503959\H,0,15.2673781999,4.4730405118,-1.1453958196\
 H,0,15.9599256265,3.498845844,0.400252484\H,0,18.021972014,3.199373445
 8,-1.1574801359\H,0,16.347291866,4.7793052094,-3.0879330722\H,0,18.171
 3395239,4.2270891021,-3.2970471383\H,0,16.6814828336,3.2982447357,-3.4
 77928346\H,0,18.0737452485,5.1419948525,0.3292720929\H,0,18.6081584266
 ,5.5731535419,-1.2839905402\H,0,17.2441969895,6.1513395441,-1.01083943
 6\H,0,-4.860713956,-7.9279038898,-0.1025045665\H,0,-6.3166621575,-7.24
 33337148,0.4354533886\H,0,-4.9571379312,-6.8589557718,1.2944423126\O,0
 ,-7.6239052858,6.8751875502,-0.3999234207\H,0,-9.3996833521,6.29641705
 74,-1.560994567\\Version=ES64L-G09RevD.01\State=1-A\HF=-3043.3303479\R
 MSD=4.901e-09\PG=C01 [X(C54H68Mg1N4O7)]\\@


 LIFE IS A CONTINUAL STRUGGLE AGAINST THE TENDENCY TO PRODUCE ENTROPY.
 Job cpu time:       0 days  5 hours 43 minutes 16.4 seconds.
 File lengths (MBytes):  RWF=   2102 Int=      0 D2E=      0 Chk=    163 Scr=      1
 Normal termination of Gaussian 09 at Wed Oct  9 11:04:24 2019.
