 Entering Gaussian System, Link 0=g16
 Input=Geometria-30-.com
 Output=Geometria-30-.log
 Initial command:
 /usr/local/g09/l1.exe "/home/padawan/israel-mol/chlorophyll-b/spectra/emi/Gau-78978.inp" -scrdir="/home/padawan/israel-mol/chlorophyll-b/spectra/emi/"
 Entering Link 1 = /usr/local/g09/l1.exe PID=     78980.
  
 Copyright (c) 1988,1990,1992,1993,1995,1998,2003,2009,2013,
            Gaussian, Inc.  All Rights Reserved.
  
 This is part of the Gaussian(R) 09 program.  It is based on
 the Gaussian(R) 03 system (copyright 2003, Gaussian, Inc.),
 the Gaussian(R) 98 system (copyright 1998, Gaussian, Inc.),
 the Gaussian(R) 94 system (copyright 1995, Gaussian, Inc.),
 the Gaussian 92(TM) system (copyright 1992, Gaussian, Inc.),
 the Gaussian 90(TM) system (copyright 1990, Gaussian, Inc.),
 the Gaussian 88(TM) system (copyright 1988, Gaussian, Inc.),
 the Gaussian 86(TM) system (copyright 1986, Carnegie Mellon
 University), and the Gaussian 82(TM) system (copyright 1983,
 Carnegie Mellon University). Gaussian is a federally registered
 trademark of Gaussian, Inc.
  
 This software contains proprietary and confidential information,
 including trade secrets, belonging to Gaussian, Inc.
  
 This software is provided under written license and may be
 used, copied, transmitted, or stored only in accord with that
 written license.
  
 The following legend is applicable only to US Government
 contracts under FAR:
  
                    RESTRICTED RIGHTS LEGEND
  
 Use, reproduction and disclosure by the US Government is
 subject to restrictions as set forth in subparagraphs (a)
 and (c) of the Commercial Computer Software - Restricted
 Rights clause in FAR 52.227-19.
  
 Gaussian, Inc.
 340 Quinnipiac St., Bldg. 40, Wallingford CT 06492
  
  
 ---------------------------------------------------------------
 Warning -- This program may not be used in any manner that
 competes with the business of Gaussian, Inc. or will provide
 assistance to any competitor of Gaussian, Inc.  The licensee
 of this program is prohibited from giving any competitor of
 Gaussian, Inc. access to this program.  By using this program,
 the user acknowledges that Gaussian, Inc. is engaged in the
 business of creating and licensing software in the field of
 computational chemistry and represents and warrants to the
 licensee that it is not a competitor of Gaussian, Inc. and that
 it will not use this program in any manner prohibited above.
 ---------------------------------------------------------------
  

 Cite this work as:
 Gaussian 09, Revision D.01,
 M. J. Frisch, G. W. Trucks, H. B. Schlegel, G. E. Scuseria, 
 M. A. Robb, J. R. Cheeseman, G. Scalmani, V. Barone, B. Mennucci, 
 G. A. Petersson, H. Nakatsuji, M. Caricato, X. Li, H. P. Hratchian, 
 A. F. Izmaylov, J. Bloino, G. Zheng, J. L. Sonnenberg, M. Hada, 
 M. Ehara, K. Toyota, R. Fukuda, J. Hasegawa, M. Ishida, T. Nakajima, 
 Y. Honda, O. Kitao, H. Nakai, T. Vreven, J. A. Montgomery, Jr., 
 J. E. Peralta, F. Ogliaro, M. Bearpark, J. J. Heyd, E. Brothers, 
 K. N. Kudin, V. N. Staroverov, T. Keith, R. Kobayashi, J. Normand, 
 K. Raghavachari, A. Rendell, J. C. Burant, S. S. Iyengar, J. Tomasi, 
 M. Cossi, N. Rega, J. M. Millam, M. Klene, J. E. Knox, J. B. Cross, 
 V. Bakken, C. Adamo, J. Jaramillo, R. Gomperts, R. E. Stratmann, 
 O. Yazyev, A. J. Austin, R. Cammi, C. Pomelli, J. W. Ochterski, 
 R. L. Martin, K. Morokuma, V. G. Zakrzewski, G. A. Voth, 
 P. Salvador, J. J. Dannenberg, S. Dapprich, A. D. Daniels, 
 O. Farkas, J. B. Foresman, J. V. Ortiz, J. Cioslowski, 
 and D. J. Fox, Gaussian, Inc., Wallingford CT, 2013.
 
 ******************************************
 Gaussian 09:  ES64L-G09RevD.01 24-Apr-2013
                 3-Oct-2019 
 ******************************************
 %nproc=3
 Will use up to    3 processors via shared memory.
 %Mem=2GB
 ----------------------------------------------------------------------
 # td=(NStates=1) iop(3/107=0140000000,3/108=0140000000) iop(3/107=0140
 000000,3/108=0140000000) CAM-B3LYP/6-31G(d,p)
 ----------------------------------------------------------------------
 1/38=1/1;
 2/12=2,17=6,18=5,40=1/2;
 3/5=1,6=6,7=101,11=9,16=1,25=1,30=1,74=-40,107=140000000,108=140000000/1,2,8,3;
 4//1;
 5/5=2,38=5/2;
 8/6=1,10=2,108=1/1;
 9/41=1,42=1,70=2/14;
 6/7=2,8=2,9=2,10=2/1;
 99/5=1,9=1/99;
 --
 TD
 --
 Symbolic Z-matrix:
 Charge =  0 Multiplicity = 1
 12                   -5.75603   1.14535   0.14643 
 6                    -4.928    -2.15293  -0.42078 
 6                    -3.52781   1.13221   2.76731 
 6                    -6.31557   4.60603   0.69438 
 6                    -7.98777   1.09287  -2.33201 
 7                    -4.51615  -0.27586   1.11244 
 6                    -4.24024  -1.53538   0.64718 
 6                    -3.28711  -2.31237   1.39964 
 6                    -2.87849  -1.3325    2.66955 
 6                    -3.59235  -0.00284   2.16221 
 6                    -3.57143  -1.93173   3.94233 
 6                    -1.99265  -2.60341   0.68836 
 6                    -1.0378   -3.47343   1.5191 
 6                     0.21317  -3.85451   0.75762 
 8                     0.4786   -3.39196  -0.29529 
 8                     1.10606  -4.54968   1.55568 
 7                    -4.99637   2.56992   1.48667 
 6                    -4.07393   2.37313   2.49094 
 6                    -3.77956   3.61017   3.2188 
 6                    -4.58741   4.56907   2.608 
 6                    -5.27702   3.92848   1.5576 
 6                    -2.88642   3.67978   4.37429 
 6                    -4.58576   5.99303   2.97026 
 8                    -3.98735   6.47361   3.84245 
 7                    -6.8657    2.65439  -0.75405 
 6                    -6.95392   3.88317  -0.28847 
 6                    -7.97548   4.48334  -1.1575 
 6                    -8.40984   3.67181  -2.13199 
 6                    -7.74069   2.37764  -1.71865 
 6                    -8.30867   5.92481  -1.1052 
 6                    -9.38222   3.9005   -3.18137 
 6                    -8.69488   4.02228  -4.612 
 7                    -6.39726  -0.14668  -1.05662 
 6                    -7.33485  -0.03507  -2.05641 
 6                    -7.55876  -1.36214  -2.80746 
 6                    -6.58102  -2.16297  -2.10165 
 6                    -5.96016  -1.42445  -1.13081 
 6                    -8.35223  -1.58795  -3.89472 
 6                    -6.17201  -3.51363  -2.07951 
 8                    -6.44454  -4.5312   -2.79144 
 6                    -4.98754  -3.51269  -1.01904 
 6                    -5.44462  -4.57411   0.08689 
 8                    -5.73537  -4.3668    1.14888 
 8                    -5.17018  -5.8118   -0.4332 
 6                    -5.52802  -6.9185    0.43237 
 6                     2.25943  -5.00132   0.72778 
 6                     3.41252  -4.09211   1.08899 
 6                     4.10483  -3.16902   0.29439 
 6                     3.69854  -3.14053  -1.17084 
 6                     5.26166  -2.34468   0.78715 
 6                     6.57803  -2.70371   0.13568 
 6                     7.77698  -1.70854   0.57428 
 6                     9.08896  -1.92315  -0.14116 
 6                     9.55667  -3.40346   0.17297 
 6                     10.05081  -0.94377   0.41643 
 6                     11.42166  -0.99846  -0.39345 
 6                     12.31595   0.29174   0.1402 
 6                     13.72664   0.39049  -0.59077 
 6                     14.5903  -0.73641  -0.33939 
 6                     14.16316   1.8455   -0.27072 
 6                     15.40115   2.21093  -1.12504 
 6                     16.00626   3.52717  -0.73569 
 6                     17.36387   3.91348  -1.42458 
 6                     17.24119   3.93356  -2.95524 
 6                     17.9263   5.15606  -0.87893 
 1                    -2.87263   1.34234   3.62479 
 1                    -6.60566   5.56837   0.96534 
 1                    -8.87827   1.07675  -2.93289 
 1                    -3.58725  -3.33963   1.71934 
 1                    -1.85175  -1.32234   2.85329 
 1                    -2.93144  -2.65341   4.1597 
 1                    -3.65632  -1.08113   4.53816 
 1                    -4.45801  -2.12055   3.59252 
 1                    -2.428    -3.08387  -0.16831 
 1                    -1.54127  -1.81562   0.23273 
 1                    -0.87886  -3.02345   2.59015 
 1                    -1.3761   -4.49588   1.89683 
 1                    -1.77285   3.68071   4.2299 
 1                    -2.88251   4.65432   4.66122 
 1                    -3.10778   2.88996   5.35509 
 1                    -5.17495   6.57312   2.17709 
 1                    -10.14826   3.1844   -3.37948 
 1                    -9.95456   4.89711  -3.14951 
 1                    -9.20508   4.21633  -5.39119 
 1                    -7.9293    4.72417  -4.45305 
 1                    -7.89573   3.28052  -4.71297 
 1                    -8.27276  -0.77841  -4.55244 
 1                    -8.24454  -2.56639  -4.37191 
 1                    -9.48166  -1.47572  -3.63244 
 1                    -4.31075  -3.96983  -1.58331 
 1                     2.31555  -5.9424    1.1886 
 1                     2.08359  -4.96202  -0.26973 
 1                     3.614    -4.21359   2.08843 
 1                     2.58271  -3.53056  -1.32089 
 1                     3.79463  -2.03299  -1.6146 
 1                     4.29981  -3.60099  -1.91274 
 1                     5.07854  -1.3748    0.44102 
 1                     5.32966  -2.40193   1.91769 
 1                     6.83314  -3.76784   0.28041 
 1                     6.57934  -2.6211   -1.10574 
 1                     7.5697   -0.62706   0.55092 
 1                     7.93936  -2.05825   1.71555 
 1                     8.962    -1.86447  -1.34711 
 1                     8.96739  -4.20539  -0.16918 
 1                     10.49747  -3.62655  -0.27785 
 1                     9.72622  -3.51752   1.19917 
 1                     9.82876   0.10465   0.28502 
 1                     10.20861  -0.98286   1.46669 
 1                     12.00891  -1.84156  -0.02602 
 1                     11.18415  -0.80136  -1.40498 
 1                     11.76189   1.21396   0.2152 
 1                     12.28571   0.12248   1.29268 
 1                     13.48038   0.23973  -1.68459 
 1                     15.04566  -0.73706   0.55773 
 1                     13.96091  -1.60632  -0.51835 
 1                     15.52327  -0.69613  -0.94649 
 1                     13.33392   2.5536   -0.25944 
 1                     14.52486   1.83522   0.83619 
 1                     16.23482   1.48312  -1.03741 
 1                     15.00201   2.1564   -2.13393 
 1                     15.29792   4.39118  -0.79154 
 1                     16.09363   3.59536   0.24246 
 1                     17.86599   3.16297  -1.21999 
 1                     16.31168   4.56602  -3.27766 
 1                     18.23172   4.20627  -3.41136 
 1                     16.79872   2.93944  -3.32732 
 1                     18.09868   5.11523   0.02347 
 1                     18.88052   5.12364  -1.39247 
 1                     17.33609   6.07349  -1.26824 
 1                    -5.35068  -7.92926  -0.13568 
 1                    -6.65338  -6.72765   0.78313 
 1                    -4.88214  -6.71288   1.42759 
 8                    -7.88742   6.82351  -0.41864 
 1                    -9.16475   6.26673  -1.84888 
 
 Stoichiometry    C54H68MgN4O7
 Framework group  C1[X(C54H68MgN4O7)]
 Deg. of freedom   396
 Full point group                 C1      NOp   1
 Largest Abelian subgroup         C1      NOp   1
 Largest concise Abelian subgroup C1      NOp   1
                         Standard orientation:                         
 ---------------------------------------------------------------------
 Center     Atomic      Atomic             Coordinates (Angstroms)
 Number     Number       Type             X           Y           Z
 ---------------------------------------------------------------------
      1         12           0       -5.756180    1.142233    0.140427
      2          6           0       -4.925550   -2.152285   -0.444579
      3          6           0       -3.534004    1.114253    2.766315
      4          6           0       -6.318338    4.599355    0.707775
      5          6           0       -7.982180    1.103725   -2.343419
      6          7           0       -4.517969   -0.284268    1.100782
      7          6           0       -4.240493   -1.540879    0.628633
      8          6           0       -3.288795   -2.321992    1.378626
      9          6           0       -2.883489   -1.349581    2.655321
     10          6           0       -3.596695   -0.017177    2.154290
     11          6           0       -3.579122   -1.956672    3.922891
     12          6           0       -1.992589   -2.608283    0.668614
     13          6           0       -1.039311   -3.482892    1.496329
     14          6           0        0.213559   -3.858934    0.735480
     15          8           0        0.481237   -3.389993   -0.314033
     16          8           0        1.104886   -4.558526    1.531424
     17          7           0       -5.000168    2.559042    1.490909
     18          6           0       -4.079971    2.356596    2.496119
     19          6           0       -3.787762    3.589378    3.232037
     20          6           0       -4.594585    4.551602    2.625117
     21          6           0       -5.281513    3.917047    1.569321
     22          6           0       -2.897313    3.652408    4.389981
     23          6           0       -4.594326    5.973374    2.995894
     24          8           0       -3.998117    6.448959    3.872317
     25          7           0       -6.864362    2.656210   -0.753565
     26          6           0       -6.954137    3.882145   -0.280849
     27          6           0       -7.973933    4.487115   -1.148630
     28          6           0       -8.405728    3.681260   -2.128954
     29          6           0       -7.737018    2.384895   -1.721817
     30          6           0       -8.307809    5.928124   -1.088482
     31          6           0       -9.375778    3.915859   -3.179191
     32          6           0       -8.685184    4.046457   -4.607481
     33          7           0       -6.394122   -0.142826   -1.071798
     34          6           0       -7.329451   -0.025598   -2.073068
     35          6           0       -7.551110   -1.348234   -2.832558
     36          6           0       -6.574689   -2.152899   -2.129292
     37          6           0       -5.956359   -1.419960   -1.152624
     38          6           0       -8.341985   -1.567835   -3.922973
     39          6           0       -6.165198   -3.503513   -2.114290
     40          8           0       -6.435683   -4.516907   -2.832916
     41          6           0       -4.983173   -3.508469   -1.051099
     42          6           0       -5.442386   -4.576658    0.047401
     43          8           0       -5.735660   -4.375814    1.109944
     44          8           0       -5.166257   -5.811103   -0.479441
     45          6           0       -5.525655   -6.923096    0.378666
     46          6           0        2.260338   -5.004765    0.703500
     47          6           0        3.412237   -4.097299    1.072799
     48          6           0        4.106009   -3.169206    0.285334
     49          6           0        3.703090   -3.132107   -1.180639
     50          6           0        5.261377   -2.347392    0.785681
     51          6           0        6.579389   -2.702016    0.135118
     52          6           0        7.776927   -1.709040    0.582423
     53          6           0        9.090637   -1.918865   -0.131261
     54          6           0        9.558209   -3.400852    0.175090
     55          6           0       10.050817   -0.942479    0.434394
     56          6           0       11.423546   -0.991802   -0.372639
     57          6           0       12.316101    0.295523    0.170789
     58          6           0       13.728436    0.399179   -0.556325
     59          6           0       14.591952   -0.728880   -0.309699
     60          6           0       14.163639    1.852415   -0.226579
     61          6           0       15.403454    2.223421   -1.075835
     62          6           0       16.007149    3.537531   -0.677231
     63          6           0       17.366191    3.928474   -1.360663
     64          6           0       17.247033    3.957661   -2.891449
     65          6           0       17.926869    5.167985   -0.806291
     66          1           0       -2.880883    1.319504    3.626548
     67          1           0       -6.609434    5.559951    0.983810
     68          1           0       -8.871290    1.090865   -2.946439
     69          1           0       -3.589263   -3.351254    1.691486
     70          1           0       -1.857174   -1.340127    2.841480
     71          1           0       -2.939355   -2.679399    4.137411
     72          1           0       -3.665723   -1.109684    4.523598
     73          1           0       -4.464818   -2.143733    3.569914
     74          1           0       -2.425770   -3.083773   -0.191924
     75          1           0       -1.540470   -1.817607    0.218747
     76          1           0       -0.883017   -3.039266    2.570423
     77          1           0       -1.378074   -4.507705    1.867160
     78          1           0       -1.783413    3.654632    4.248162
     79          1           0       -2.894446    4.625216    4.682742
     80          1           0       -3.120626    2.856659    5.365528
     81          1           0       -5.181915    6.557970    2.204848
     82          1           0      -10.141072    3.200661   -3.383345
     83          1           0       -9.948579    4.912039   -3.142689
     84          1           0       -9.193661    4.244966   -5.386663
     85          1           0       -7.920247    4.747675   -4.442572
     86          1           0       -7.885513    3.305616   -4.711033
     87          1           0       -8.261321   -0.754348   -4.575650
     88          1           0       -8.232815   -2.543367   -4.405752
     89          1           0       -9.472061   -1.457610   -3.662630
     90          1           0       -4.304909   -3.961969   -1.616535
     91          1           0        2.315763   -5.948568    1.158808
     92          1           0        2.086781   -4.959574   -0.294164
     93          1           0        3.611454   -4.224679    2.071954
     94          1           0        2.587753   -3.521663   -1.335593
     95          1           0        3.799759   -2.021897   -1.617540
     96          1           0        4.306247   -3.587898   -1.923888
     97          1           0        5.078675   -1.375532    0.444940
     98          1           0        5.326789   -2.411383    1.916008
     99          1           0        6.834582   -3.766901    0.274063
    100          1           0        6.583520   -2.611991   -1.105784
    101          1           0        7.569277   -0.627515    0.565056
    102          1           0        7.936820   -2.065509    1.721951
    103          1           0        8.966438   -1.853027   -1.337130
    104          1           0        8.970030   -4.200943   -0.173208
    105          1           0       10.500133   -3.620880   -0.274881
    106          1           0        9.725435   -3.520980    1.200978
    107          1           0        9.828662    0.106628    0.308742
    108          1           0       10.206211   -0.987782    1.484760
    109          1           0       12.010287   -1.836861   -0.008901
    110          1           0       11.188300   -0.788744   -1.383514
    111          1           0       11.761504    1.217074    0.250024
    112          1           0       12.283272    0.119367    1.322157
    113          1           0       13.484753    0.254871   -1.651598
    114          1           0       15.045251   -0.734715    0.588451
    115          1           0       13.963317   -1.597942   -0.495307
    116          1           0       15.526308   -0.684614   -0.914390
    117          1           0       13.334103    2.560124   -0.212969
    118          1           0       14.522795    1.835652    0.881088
    119          1           0       16.237209    1.495417   -0.990638
    120          1           0       15.006667    2.174776   -2.085949
    121          1           0       15.298601    4.401598   -0.729542
    122          1           0       16.092236    3.599902    0.301510
    123          1           0       17.868129    3.176944   -1.159400
    124          1           0       16.318016    4.591691   -3.212229
    125          1           0       18.238497    4.233468   -3.343645
    126          1           0       16.805814    2.965616   -3.270493
    127          1           0       18.097187    5.121822    0.096244
    128          1           0       18.882282    5.138994   -1.317816
    129          1           0       17.337197    6.087501   -1.191465
    130          1           0       -5.346616   -7.930382   -0.195007
    131          1           0       -6.651895   -6.734781    0.727961
    132          1           0       -4.882155   -6.723193    1.376580
    133          8           0       -7.888494    6.822860   -0.395583
    134          1           0       -9.162304    6.274162   -1.832078
 ---------------------------------------------------------------------
 Rotational constants (GHZ):      0.0349657      0.0080379      0.0071443
 Standard basis: 6-31G(d,p) (6D, 7F)
 There are  1334 symmetry adapted cartesian basis functions of A   symmetry.
 There are  1334 symmetry adapted basis functions of A   symmetry.
  1334 basis functions,  2348 primitive gaussians,  1334 cartesian basis functions
   244 alpha electrons      244 beta electrons
       nuclear repulsion energy      9146.6879112487 Hartrees.
 NAtoms=  134 NActive=  134 NUniq=  134 SFac= 1.00D+00 NAtFMM=   60 NAOKFM=T Big=T
 Integral buffers will be    131072 words long.
 Raffenetti 1 integral format.
 Two-electron integral symmetry is turned on.
 One-electron integrals computed using PRISM.
 NBasis=  1334 RedAO= T EigKep=  3.13D-04  NBF=  1334
 NBsUse=  1334 1.00D-06 EigRej= -1.00D+00 NBFU=  1334
 ExpMin= 4.21D-02 ExpMax= 1.17D+04 ExpMxC= 1.76D+03 IAcc=2 IRadAn=         4 AccDes= 0.00D+00
 Harris functional with IExCor=20419 and IRadAn=       4 diagonalized for initial guess.
 HarFok:  IExCor=20419 AccDes= 0.00D+00 IRadAn=         4 IDoV= 1 UseB2=F ITyADJ=14
 ICtDFT=  3500011 ScaDFX=  1.000000  1.000000  1.000000  1.000000
 FoFCou: FMM=F IPFlag=           0 FMFlag=      100000 FMFlg1=        2001
         NFxFlg=           0 DoJE=T BraDBF=F KetDBF=T FulRan=T
         wScrn=  0.000000 ICntrl=     500 IOpCl=  0 I1Cent=   200000004 NGrid=           0
         NMat0=    1 NMatS0=      1 NMatT0=    0 NMatD0=    1 NMtDS0=    0 NMtDT0=    0
 Petite list used in FoFCou.
 Requested convergence on RMS density matrix=1.00D-08 within 128 cycles.
 Requested convergence on MAX density matrix=1.00D-06.
 Requested convergence on             energy=1.00D-06.
 No special actions if energy rises.
 SCF Done:  E(RCAM-B3LYP) =  -3043.39183905     A.U. after   15 cycles
            NFock= 15  Conv=0.94D-08     -V/T= 2.0080
 DoSCS=F DFT=T ScalE2(SS,OS)=  1.000000  1.000000
 ExpMin= 4.21D-02 ExpMax= 1.17D+04 ExpMxC= 1.76D+03 IAcc=3 IRadAn=         5 AccDes= 0.00D+00
 HarFok:  IExCor=  205 AccDes= 0.00D+00 IRadAn=         5 IDoV=-2 UseB2=F ITyADJ=14
 ICtDFT= 12500011 ScaDFX=  1.000000  1.000000  1.000000  1.000000
 Range of M.O.s used for correlation:    71  1334
 NBasis=  1334 NAE=   244 NBE=   244 NFC=    70 NFV=     0
 NROrb=   1264 NOA=   174 NOB=   174 NVA=  1090 NVB=  1090
 Would need an additional       2379600800000 words for in-memory AO integral storage.
 Orbital symmetries:
       Occupied  (A) (A) (A) (A) (A) (A) (A) (A) (A) (A) (A) (A)
                 (A) (A) (A) (A) (A) (A) (A) (A) (A) (A) (A) (A)
                 (A) (A) (A) (A) (A) (A) (A) (A) (A) (A) (A) (A)
                 (A) (A) (A) (A) (A) (A) (A) (A) (A) (A) (A) (A)
                 (A) (A) (A) (A) (A) (A) (A) (A) (A) (A) (A) (A)
                 (A) (A) (A) (A) (A) (A) (A) (A) (A) (A) (A) (A)
                 (A) (A) (A) (A) (A) (A) (A) (A) (A) (A) (A) (A)
                 (A) (A) (A) (A) (A) (A) (A) (A) (A) (A) (A) (A)
                 (A) (A) (A) (A) (A) (A) (A) (A) (A) (A) (A) (A)
                 (A) (A) (A) (A) (A) (A) (A) (A) (A) (A) (A) (A)
                 (A) (A) (A) (A) (A) (A) (A) (A) (A) (A) (A) (A)
                 (A) (A) (A) (A) (A) (A) (A) (A) (A) (A) (A) (A)
                 (A) (A) (A) (A) (A) (A) (A) (A) (A) (A) (A) (A)
                 (A) (A) (A) (A) (A) (A) (A) (A) (A) (A) (A) (A)
                 (A) (A) (A) (A) (A) (A) (A) (A) (A) (A) (A) (A)
                 (A) (A) (A) (A) (A) (A) (A) (A) (A) (A) (A) (A)
                 (A) (A) (A) (A) (A) (A) (A) (A) (A) (A) (A) (A)
                 (A) (A) (A) (A) (A) (A) (A) (A) (A) (A) (A) (A)
                 (A) (A) (A) (A) (A) (A) (A) (A) (A) (A) (A) (A)
                 (A) (A) (A) (A) (A) (A) (A) (A) (A) (A) (A) (A)
                 (A) (A) (A) (A)
       Virtual   (A) (A) (A) (A) (A) (A) (A) (A) (A) (A) (A) (A)
                 (A) (A) (A) (A) (A) (A) (A) (A) (A) (A) (A) (A)
                 (A) (A) (A) (A) (A) (A) (A) (A) (A) (A) (A) (A)
                 (A) (A) (A) (A) (A) (A) (A) (A) (A) (A) (A) (A)
                 (A) (A) (A) (A) (A) (A) (A) (A) (A) (A) (A) (A)
                 (A) (A) (A) (A) (A) (A) (A) (A) (A) (A) (A) (A)
                 (A) (A) (A) (A) (A) (A) (A) (A) (A) (A) (A) (A)
                 (A) (A) (A) (A) (A) (A) (A) (A) (A) (A) (A) (A)
                 (A) (A) (A) (A) (A) (A) (A) (A) (A) (A) (A) (A)
                 (A) (A) (A) (A) (A) (A) (A) (A) (A) (A) (A) (A)
                 (A) (A) (A) (A) (A) (A) (A) (A) (A) (A) (A) (A)
                 (A) (A) (A) (A) (A) (A) (A) (A) (A) (A) (A) (A)
                 (A) (A) (A) (A) (A) (A) (A) (A) (A) (A) (A) (A)
                 (A) (A) (A) (A) (A) (A) (A) (A) (A) (A) (A) (A)
                 (A) (A) (A) (A) (A) (A) (A) (A) (A) (A) (A) (A)
                 (A) (A) (A) (A) (A) (A) (A) (A) (A) (A) (A) (A)
                 (A) (A) (A) (A) (A) (A) (A) (A) (A) (A) (A) (A)
                 (A) (A) (A) (A) (A) (A) (A) (A) (A) (A) (A) (A)
                 (A) (A) (A) (A) (A) (A) (A) (A) (A) (A) (A) (A)
                 (A) (A) (A) (A) (A) (A) (A) (A) (A) (A) (A) (A)
                 (A) (A) (A) (A) (A) (A) (A) (A) (A) (A) (A) (A)
                 (A) (A) (A) (A) (A) (A) (A) (A) (A) (A) (A) (A)
                 (A) (A) (A) (A) (A) (A) (A) (A) (A) (A) (A) (A)
                 (A) (A) (A) (A) (A) (A) (A) (A) (A) (A) (A) (A)
                 (A) (A) (A) (A) (A) (A) (A) (A) (A) (A) (A) (A)
                 (A) (A) (A) (A) (A) (A) (A) (A) (A) (A) (A) (A)
                 (A) (A) (A) (A) (A) (A) (A) (A) (A) (A) (A) (A)
                 (A) (A) (A) (A) (A) (A) (A) (A) (A) (A) (A) (A)
                 (A) (A) (A) (A) (A) (A) (A) (A) (A) (A) (A) (A)
                 (A) (A) (A) (A) (A) (A) (A) (A) (A) (A) (A) (A)
                 (A) (A) (A) (A) (A) (A) (A) (A) (A) (A) (A) (A)
                 (A) (A) (A) (A) (A) (A) (A) (A) (A) (A) (A) (A)
                 (A) (A) (A) (A) (A) (A) (A) (A) (A) (A) (A) (A)
                 (A) (A) (A) (A) (A) (A) (A) (A) (A) (A) (A) (A)
                 (A) (A) (A) (A) (A) (A) (A) (A) (A) (A) (A) (A)
                 (A) (A) (A) (A) (A) (A) (A) (A) (A) (A) (A) (A)
                 (A) (A) (A) (A) (A) (A) (A) (A) (A) (A) (A) (A)
                 (A) (A) (A) (A) (A) (A) (A) (A) (A) (A) (A) (A)
                 (A) (A) (A) (A) (A) (A) (A) (A) (A) (A) (A) (A)
                 (A) (A) (A) (A) (A) (A) (A) (A) (A) (A) (A) (A)
                 (A) (A) (A) (A) (A) (A) (A) (A) (A) (A) (A) (A)
                 (A) (A) (A) (A) (A) (A) (A) (A) (A) (A) (A) (A)
                 (A) (A) (A) (A) (A) (A) (A) (A) (A) (A) (A) (A)
                 (A) (A) (A) (A) (A) (A) (A) (A) (A) (A) (A) (A)
                 (A) (A) (A) (A) (A) (A) (A) (A) (A) (A) (A) (A)
                 (A) (A) (A) (A) (A) (A) (A) (A) (A) (A) (A) (A)
                 (A) (A) (A) (A) (A) (A) (A) (A) (A) (A) (A) (A)
                 (A) (A) (A) (A) (A) (A) (A) (A) (A) (A) (A) (A)
                 (A) (A) (A) (A) (A) (A) (A) (A) (A) (A) (A) (A)
                 (A) (A) (A) (A) (A) (A) (A) (A) (A) (A) (A) (A)
                 (A) (A) (A) (A) (A) (A) (A) (A) (A) (A) (A) (A)
                 (A) (A) (A) (A) (A) (A) (A) (A) (A) (A) (A) (A)
                 (A) (A) (A) (A) (A) (A) (A) (A) (A) (A) (A) (A)
                 (A) (A) (A) (A) (A) (A) (A) (A) (A) (A) (A) (A)
                 (A) (A) (A) (A) (A) (A) (A) (A) (A) (A) (A) (A)
                 (A) (A) (A) (A) (A) (A) (A) (A) (A) (A) (A) (A)
                 (A) (A) (A) (A) (A) (A) (A) (A) (A) (A) (A) (A)
                 (A) (A) (A) (A) (A) (A) (A) (A) (A) (A) (A) (A)
                 (A) (A) (A) (A) (A) (A) (A) (A) (A) (A) (A) (A)
                 (A) (A) (A) (A) (A) (A) (A) (A) (A) (A) (A) (A)
                 (A) (A) (A) (A) (A) (A) (A) (A) (A) (A) (A) (A)
                 (A) (A) (A) (A) (A) (A) (A) (A) (A) (A) (A) (A)
                 (A) (A) (A) (A) (A) (A) (A) (A) (A) (A) (A) (A)
                 (A) (A) (A) (A) (A) (A) (A) (A) (A) (A) (A) (A)
                 (A) (A) (A) (A) (A) (A) (A) (A) (A) (A) (A) (A)
                 (A) (A) (A) (A) (A) (A) (A) (A) (A) (A) (A) (A)
                 (A) (A) (A) (A) (A) (A) (A) (A) (A) (A) (A) (A)
                 (A) (A) (A) (A) (A) (A) (A) (A) (A) (A) (A) (A)
                 (A) (A) (A) (A) (A) (A) (A) (A) (A) (A) (A) (A)
                 (A) (A) (A) (A) (A) (A) (A) (A) (A) (A) (A) (A)
                 (A) (A) (A) (A) (A) (A) (A) (A) (A) (A) (A) (A)
                 (A) (A) (A) (A) (A) (A) (A) (A) (A) (A) (A) (A)
                 (A) (A) (A) (A) (A) (A) (A) (A) (A) (A) (A) (A)
                 (A) (A) (A) (A) (A) (A) (A) (A) (A) (A) (A) (A)
                 (A) (A) (A) (A) (A) (A) (A) (A) (A) (A) (A) (A)
                 (A) (A) (A) (A) (A) (A) (A) (A) (A) (A) (A) (A)
                 (A) (A) (A) (A) (A) (A) (A) (A) (A) (A) (A) (A)
                 (A) (A) (A) (A) (A) (A) (A) (A) (A) (A) (A) (A)
                 (A) (A) (A) (A) (A) (A) (A) (A) (A) (A) (A) (A)
                 (A) (A) (A) (A) (A) (A) (A) (A) (A) (A) (A) (A)
                 (A) (A) (A) (A) (A) (A) (A) (A) (A) (A) (A) (A)
                 (A) (A) (A) (A) (A) (A) (A) (A) (A) (A) (A) (A)
                 (A) (A) (A) (A) (A) (A) (A) (A) (A) (A) (A) (A)
                 (A) (A) (A) (A) (A) (A) (A) (A) (A) (A) (A) (A)
                 (A) (A) (A) (A) (A) (A) (A) (A) (A) (A) (A) (A)
                 (A) (A) (A) (A) (A) (A) (A) (A) (A) (A) (A) (A)
                 (A) (A) (A) (A) (A) (A) (A) (A) (A) (A) (A) (A)
                 (A) (A) (A) (A) (A) (A) (A) (A) (A) (A) (A) (A)
                 (A) (A) (A) (A) (A) (A) (A) (A) (A) (A) (A) (A)
                 (A) (A) (A) (A) (A) (A) (A) (A) (A) (A) (A) (A)
                 (A) (A) (A) (A) (A) (A) (A) (A) (A) (A)
     8 initial guesses have been made.
 Convergence on wavefunction:    0.001000000000000
 Iteration     1 Dimension     8 NMult     0 NNew      8
 CISAX will form     8 AO SS matrices at one time.
 Iteration     2 Dimension    12 NMult     8 NNew      4
 Iteration     3 Dimension    16 NMult    12 NNew      4
 Iteration     4 Dimension    20 NMult    16 NNew      4
 Iteration     5 Dimension    24 NMult    20 NNew      4
 Iteration     6 Dimension    28 NMult    24 NNew      4
 Iteration     7 Dimension    32 NMult    28 NNew      4
 ***********************************************************************
 Excited states from <AA,BB:AA,BB> singles matrix:
 ***********************************************************************
 
 Ground to excited state transition densities written to RWF  633
 Ground to excited state transition electric dipole moments (Au):
       state          X           Y           Z        Dip. S.      Osc.
         1        -1.0354     -1.2145     -1.6227      5.1801      0.2457
 Ground to excited state transition velocity dipole moments (Au):
       state          X           Y           Z        Dip. S.      Osc.
         1         0.0704      0.0841      0.1126      0.0247      0.2316
 Ground to excited state transition magnetic dipole moments (Au):
       state          X           Y           Z
         1         1.1431      1.5282     -1.8762
 Ground to excited state transition velocity quadrupole moments (Au):
       state          XX          YY          ZZ          XY          XZ          YZ
         1        -1.4973      0.1299      0.2233     -0.6631     -1.1247      0.3148
 <0|del|b> * <b|rxdel|0> + <0|del|b> * <b|delr+rdel|0>
 Rotatory Strengths (R) in cgs (10**-40 erg-esu-cm/Gauss)
       state          XX          YY          ZZ    R(velocity)    E-M Angle
         1      -312.7969   -168.9740    458.4298     -7.7803       90.32
 1/2[<0|r|b>*<b|rxdel|0> + (<0|rxdel|b>*<b|r|0>)*]
 Rotatory Strengths (R) in cgs (10**-40 erg-esu-cm/Gauss)
       state          XX          YY          ZZ     R(length)
         1       836.9964   1312.5374  -2152.9280     -1.1314
  1/2[<0|del|b>*<b|r|0> + (<0|r|b>*<b|del|0>)*] (Au)
       state          X           Y           Z        Dip. S.   Osc.(frdel)
         1        -0.0729     -0.1021     -0.1828      0.3578      0.2385

 Excitation energies and oscillator strengths:
 
 Excited State   1:      Singlet-A      1.9360 eV  640.40 nm  f=0.2457  <S**2>=0.000
     243 -> 246       -0.21060
     244 -> 245        0.66029
 This state for optimization and/or second-order correction.
 Total Energy, E(TD-HF/TD-KS) =  -3043.32069090    
 Copying the excited state density for this state as the 1-particle RhoCI density.
 SavETr:  write IOETrn=   770 NScale= 10 NData=  16 NLR=1 NState=    1 LETran=      28.

 **********************************************************************

            Population analysis using the SCF density.

 **********************************************************************

 Orbital symmetries:
       Occupied  (A) (A) (A) (A) (A) (A) (A) (A) (A) (A) (A) (A)
                 (A) (A) (A) (A) (A) (A) (A) (A) (A) (A) (A) (A)
                 (A) (A) (A) (A) (A) (A) (A) (A) (A) (A) (A) (A)
                 (A) (A) (A) (A) (A) (A) (A) (A) (A) (A) (A) (A)
                 (A) (A) (A) (A) (A) (A) (A) (A) (A) (A) (A) (A)
                 (A) (A) (A) (A) (A) (A) (A) (A) (A) (A) (A) (A)
                 (A) (A) (A) (A) (A) (A) (A) (A) (A) (A) (A) (A)
                 (A) (A) (A) (A) (A) (A) (A) (A) (A) (A) (A) (A)
                 (A) (A) (A) (A) (A) (A) (A) (A) (A) (A) (A) (A)
                 (A) (A) (A) (A) (A) (A) (A) (A) (A) (A) (A) (A)
                 (A) (A) (A) (A) (A) (A) (A) (A) (A) (A) (A) (A)
                 (A) (A) (A) (A) (A) (A) (A) (A) (A) (A) (A) (A)
                 (A) (A) (A) (A) (A) (A) (A) (A) (A) (A) (A) (A)
                 (A) (A) (A) (A) (A) (A) (A) (A) (A) (A) (A) (A)
                 (A) (A) (A) (A) (A) (A) (A) (A) (A) (A) (A) (A)
                 (A) (A) (A) (A) (A) (A) (A) (A) (A) (A) (A) (A)
                 (A) (A) (A) (A) (A) (A) (A) (A) (A) (A) (A) (A)
                 (A) (A) (A) (A) (A) (A) (A) (A) (A) (A) (A) (A)
                 (A) (A) (A) (A) (A) (A) (A) (A) (A) (A) (A) (A)
                 (A) (A) (A) (A) (A) (A) (A) (A) (A) (A) (A) (A)
                 (A) (A) (A) (A)
       Virtual   (A) (A) (A) (A) (A) (A) (A) (A) (A) (A) (A) (A)
                 (A) (A) (A) (A) (A) (A) (A) (A) (A) (A) (A) (A)
                 (A) (A) (A) (A) (A) (A) (A) (A) (A) (A) (A) (A)
                 (A) (A) (A) (A) (A) (A) (A) (A) (A) (A) (A) (A)
                 (A) (A) (A) (A) (A) (A) (A) (A) (A) (A) (A) (A)
                 (A) (A) (A) (A) (A) (A) (A) (A) (A) (A) (A) (A)
                 (A) (A) (A) (A) (A) (A) (A) (A) (A) (A) (A) (A)
                 (A) (A) (A) (A) (A) (A) (A) (A) (A) (A) (A) (A)
                 (A) (A) (A) (A) (A) (A) (A) (A) (A) (A) (A) (A)
                 (A) (A) (A) (A) (A) (A) (A) (A) (A) (A) (A) (A)
                 (A) (A) (A) (A) (A) (A) (A) (A) (A) (A) (A) (A)
                 (A) (A) (A) (A) (A) (A) (A) (A) (A) (A) (A) (A)
                 (A) (A) (A) (A) (A) (A) (A) (A) (A) (A) (A) (A)
                 (A) (A) (A) (A) (A) (A) (A) (A) (A) (A) (A) (A)
                 (A) (A) (A) (A) (A) (A) (A) (A) (A) (A) (A) (A)
                 (A) (A) (A) (A) (A) (A) (A) (A) (A) (A) (A) (A)
                 (A) (A) (A) (A) (A) (A) (A) (A) (A) (A) (A) (A)
                 (A) (A) (A) (A) (A) (A) (A) (A) (A) (A) (A) (A)
                 (A) (A) (A) (A) (A) (A) (A) (A) (A) (A) (A) (A)
                 (A) (A) (A) (A) (A) (A) (A) (A) (A) (A) (A) (A)
                 (A) (A) (A) (A) (A) (A) (A) (A) (A) (A) (A) (A)
                 (A) (A) (A) (A) (A) (A) (A) (A) (A) (A) (A) (A)
                 (A) (A) (A) (A) (A) (A) (A) (A) (A) (A) (A) (A)
                 (A) (A) (A) (A) (A) (A) (A) (A) (A) (A) (A) (A)
                 (A) (A) (A) (A) (A) (A) (A) (A) (A) (A) (A) (A)
                 (A) (A) (A) (A) (A) (A) (A) (A) (A) (A) (A) (A)
                 (A) (A) (A) (A) (A) (A) (A) (A) (A) (A) (A) (A)
                 (A) (A) (A) (A) (A) (A) (A) (A) (A) (A) (A) (A)
                 (A) (A) (A) (A) (A) (A) (A) (A) (A) (A) (A) (A)
                 (A) (A) (A) (A) (A) (A) (A) (A) (A) (A) (A) (A)
                 (A) (A) (A) (A) (A) (A) (A) (A) (A) (A) (A) (A)
                 (A) (A) (A) (A) (A) (A) (A) (A) (A) (A) (A) (A)
                 (A) (A) (A) (A) (A) (A) (A) (A) (A) (A) (A) (A)
                 (A) (A) (A) (A) (A) (A) (A) (A) (A) (A) (A) (A)
                 (A) (A) (A) (A) (A) (A) (A) (A) (A) (A) (A) (A)
                 (A) (A) (A) (A) (A) (A) (A) (A) (A) (A) (A) (A)
                 (A) (A) (A) (A) (A) (A) (A) (A) (A) (A) (A) (A)
                 (A) (A) (A) (A) (A) (A) (A) (A) (A) (A) (A) (A)
                 (A) (A) (A) (A) (A) (A) (A) (A) (A) (A) (A) (A)
                 (A) (A) (A) (A) (A) (A) (A) (A) (A) (A) (A) (A)
                 (A) (A) (A) (A) (A) (A) (A) (A) (A) (A) (A) (A)
                 (A) (A) (A) (A) (A) (A) (A) (A) (A) (A) (A) (A)
                 (A) (A) (A) (A) (A) (A) (A) (A) (A) (A) (A) (A)
                 (A) (A) (A) (A) (A) (A) (A) (A) (A) (A) (A) (A)
                 (A) (A) (A) (A) (A) (A) (A) (A) (A) (A) (A) (A)
                 (A) (A) (A) (A) (A) (A) (A) (A) (A) (A) (A) (A)
                 (A) (A) (A) (A) (A) (A) (A) (A) (A) (A) (A) (A)
                 (A) (A) (A) (A) (A) (A) (A) (A) (A) (A) (A) (A)
                 (A) (A) (A) (A) (A) (A) (A) (A) (A) (A) (A) (A)
                 (A) (A) (A) (A) (A) (A) (A) (A) (A) (A) (A) (A)
                 (A) (A) (A) (A) (A) (A) (A) (A) (A) (A) (A) (A)
                 (A) (A) (A) (A) (A) (A) (A) (A) (A) (A) (A) (A)
                 (A) (A) (A) (A) (A) (A) (A) (A) (A) (A) (A) (A)
                 (A) (A) (A) (A) (A) (A) (A) (A) (A) (A) (A) (A)
                 (A) (A) (A) (A) (A) (A) (A) (A) (A) (A) (A) (A)
                 (A) (A) (A) (A) (A) (A) (A) (A) (A) (A) (A) (A)
                 (A) (A) (A) (A) (A) (A) (A) (A) (A) (A) (A) (A)
                 (A) (A) (A) (A) (A) (A) (A) (A) (A) (A) (A) (A)
                 (A) (A) (A) (A) (A) (A) (A) (A) (A) (A) (A) (A)
                 (A) (A) (A) (A) (A) (A) (A) (A) (A) (A) (A) (A)
                 (A) (A) (A) (A) (A) (A) (A) (A) (A) (A) (A) (A)
                 (A) (A) (A) (A) (A) (A) (A) (A) (A) (A) (A) (A)
                 (A) (A) (A) (A) (A) (A) (A) (A) (A) (A) (A) (A)
                 (A) (A) (A) (A) (A) (A) (A) (A) (A) (A) (A) (A)
                 (A) (A) (A) (A) (A) (A) (A) (A) (A) (A) (A) (A)
                 (A) (A) (A) (A) (A) (A) (A) (A) (A) (A) (A) (A)
                 (A) (A) (A) (A) (A) (A) (A) (A) (A) (A) (A) (A)
                 (A) (A) (A) (A) (A) (A) (A) (A) (A) (A) (A) (A)
                 (A) (A) (A) (A) (A) (A) (A) (A) (A) (A) (A) (A)
                 (A) (A) (A) (A) (A) (A) (A) (A) (A) (A) (A) (A)
                 (A) (A) (A) (A) (A) (A) (A) (A) (A) (A) (A) (A)
                 (A) (A) (A) (A) (A) (A) (A) (A) (A) (A) (A) (A)
                 (A) (A) (A) (A) (A) (A) (A) (A) (A) (A) (A) (A)
                 (A) (A) (A) (A) (A) (A) (A) (A) (A) (A) (A) (A)
                 (A) (A) (A) (A) (A) (A) (A) (A) (A) (A) (A) (A)
                 (A) (A) (A) (A) (A) (A) (A) (A) (A) (A) (A) (A)
                 (A) (A) (A) (A) (A) (A) (A) (A) (A) (A) (A) (A)
                 (A) (A) (A) (A) (A) (A) (A) (A) (A) (A) (A) (A)
                 (A) (A) (A) (A) (A) (A) (A) (A) (A) (A) (A) (A)
                 (A) (A) (A) (A) (A) (A) (A) (A) (A) (A) (A) (A)
                 (A) (A) (A) (A) (A) (A) (A) (A) (A) (A) (A) (A)
                 (A) (A) (A) (A) (A) (A) (A) (A) (A) (A) (A) (A)
                 (A) (A) (A) (A) (A) (A) (A) (A) (A) (A) (A) (A)
                 (A) (A) (A) (A) (A) (A) (A) (A) (A) (A) (A) (A)
                 (A) (A) (A) (A) (A) (A) (A) (A) (A) (A) (A) (A)
                 (A) (A) (A) (A) (A) (A) (A) (A) (A) (A) (A) (A)
                 (A) (A) (A) (A) (A) (A) (A) (A) (A) (A) (A) (A)
                 (A) (A) (A) (A) (A) (A) (A) (A) (A) (A) (A) (A)
                 (A) (A) (A) (A) (A) (A) (A) (A) (A) (A) (A) (A)
                 (A) (A) (A) (A) (A) (A) (A) (A) (A) (A) (A) (A)
                 (A) (A) (A) (A) (A) (A) (A) (A) (A) (A)
 The electronic state is 1-A.
 Alpha  occ. eigenvalues --  -46.80790 -19.21343 -19.21339 -19.18635 -19.17598
 Alpha  occ. eigenvalues --  -19.17375 -19.17315 -19.16814 -14.38878 -14.37399
 Alpha  occ. eigenvalues --  -14.37031 -14.36664 -10.34623 -10.34589 -10.31020
 Alpha  occ. eigenvalues --  -10.30507 -10.29933 -10.29537 -10.27647 -10.27443
 Alpha  occ. eigenvalues --  -10.26988 -10.26868 -10.26387 -10.26359 -10.26302
 Alpha  occ. eigenvalues --  -10.26000 -10.25861 -10.25249 -10.24834 -10.24688
 Alpha  occ. eigenvalues --  -10.24377 -10.24129 -10.24114 -10.23966 -10.23792
 Alpha  occ. eigenvalues --  -10.23687 -10.23607 -10.23468 -10.23425 -10.23028
 Alpha  occ. eigenvalues --  -10.22874 -10.22763 -10.22647 -10.22641 -10.22117
 Alpha  occ. eigenvalues --  -10.22073 -10.21909 -10.21708 -10.21659 -10.21545
 Alpha  occ. eigenvalues --  -10.21466 -10.21080 -10.21074 -10.21015 -10.20948
 Alpha  occ. eigenvalues --  -10.20821 -10.20794 -10.20289 -10.20189 -10.20020
 Alpha  occ. eigenvalues --  -10.18904 -10.18894 -10.18786 -10.18785 -10.18494
 Alpha  occ. eigenvalues --  -10.18165  -3.09656  -1.84571  -1.84132  -1.84095
 Alpha  occ. eigenvalues --   -1.16468  -1.13141  -1.10056  -1.07432  -1.06972
 Alpha  occ. eigenvalues --   -1.05083  -1.03877  -1.02061  -1.00790  -0.98916
 Alpha  occ. eigenvalues --   -0.97840  -0.89385  -0.86329  -0.86137  -0.85846
 Alpha  occ. eigenvalues --   -0.85584  -0.85274  -0.84582  -0.84335  -0.84070
 Alpha  occ. eigenvalues --   -0.83565  -0.83000  -0.81412  -0.80445  -0.79821
 Alpha  occ. eigenvalues --   -0.79184  -0.78713  -0.78374  -0.77113  -0.76554
 Alpha  occ. eigenvalues --   -0.75859  -0.75372  -0.73887  -0.72500  -0.71824
 Alpha  occ. eigenvalues --   -0.71795  -0.71271  -0.70744  -0.69690  -0.69630
 Alpha  occ. eigenvalues --   -0.69354  -0.68328  -0.67767  -0.66919  -0.66426
 Alpha  occ. eigenvalues --   -0.65599  -0.64710  -0.64350  -0.62738  -0.62005
 Alpha  occ. eigenvalues --   -0.61840  -0.61216  -0.60550  -0.60148  -0.59162
 Alpha  occ. eigenvalues --   -0.58995  -0.58496  -0.58091  -0.58002  -0.57859
 Alpha  occ. eigenvalues --   -0.56785  -0.56392  -0.55897  -0.55694  -0.55076
 Alpha  occ. eigenvalues --   -0.54431  -0.54031  -0.53560  -0.53048  -0.52234
 Alpha  occ. eigenvalues --   -0.51741  -0.51283  -0.51081  -0.51008  -0.50842
 Alpha  occ. eigenvalues --   -0.50282  -0.50103  -0.49889  -0.49763  -0.49407
 Alpha  occ. eigenvalues --   -0.49167  -0.48984  -0.48896  -0.48672  -0.48499
 Alpha  occ. eigenvalues --   -0.48196  -0.47896  -0.47496  -0.47423  -0.47242
 Alpha  occ. eigenvalues --   -0.47149  -0.47061  -0.46722  -0.46602  -0.46281
 Alpha  occ. eigenvalues --   -0.45983  -0.45804  -0.45546  -0.45290  -0.44987
 Alpha  occ. eigenvalues --   -0.44903  -0.44628  -0.44502  -0.44366  -0.44021
 Alpha  occ. eigenvalues --   -0.43836  -0.43739  -0.43534  -0.43503  -0.43079
 Alpha  occ. eigenvalues --   -0.42916  -0.42795  -0.42637  -0.42518  -0.42381
 Alpha  occ. eigenvalues --   -0.41892  -0.41812  -0.41799  -0.41277  -0.40918
 Alpha  occ. eigenvalues --   -0.40587  -0.40489  -0.40371  -0.40245  -0.40172
 Alpha  occ. eigenvalues --   -0.40124  -0.39861  -0.39816  -0.39730  -0.39411
 Alpha  occ. eigenvalues --   -0.39227  -0.38703  -0.38686  -0.38464  -0.38342
 Alpha  occ. eigenvalues --   -0.38111  -0.38022  -0.37732  -0.37559  -0.37373
 Alpha  occ. eigenvalues --   -0.36665  -0.36485  -0.36404  -0.35815  -0.35573
 Alpha  occ. eigenvalues --   -0.35392  -0.35375  -0.35254  -0.35098  -0.34375
 Alpha  occ. eigenvalues --   -0.34165  -0.33790  -0.33314  -0.33125  -0.32934
 Alpha  occ. eigenvalues --   -0.32704  -0.32387  -0.32285  -0.31888  -0.31836
 Alpha  occ. eigenvalues --   -0.31714  -0.31386  -0.30831  -0.29801  -0.29280
 Alpha  occ. eigenvalues --   -0.28940  -0.28385  -0.27830  -0.27472  -0.27331
 Alpha  occ. eigenvalues --   -0.27123  -0.26028  -0.23159  -0.21383
 Alpha virt. eigenvalues --   -0.09144  -0.06244  -0.01779   0.00240   0.00700
 Alpha virt. eigenvalues --    0.02833   0.03520   0.03654   0.04095   0.04392
 Alpha virt. eigenvalues --    0.05211   0.06159   0.07546   0.08636   0.09461
 Alpha virt. eigenvalues --    0.10422   0.10630   0.10824   0.11029   0.11456
 Alpha virt. eigenvalues --    0.11474   0.11860   0.11885   0.12214   0.12339
 Alpha virt. eigenvalues --    0.12420   0.13005   0.13664   0.13727   0.13912
 Alpha virt. eigenvalues --    0.14030   0.14299   0.14413   0.14742   0.14773
 Alpha virt. eigenvalues --    0.14917   0.15192   0.15221   0.15509   0.15636
 Alpha virt. eigenvalues --    0.15765   0.16130   0.16197   0.16331   0.16446
 Alpha virt. eigenvalues --    0.16559   0.16852   0.16993   0.17062   0.17213
 Alpha virt. eigenvalues --    0.17336   0.17652   0.17689   0.17754   0.17784
 Alpha virt. eigenvalues --    0.18059   0.18419   0.18868   0.19096   0.19228
 Alpha virt. eigenvalues --    0.19344   0.19657   0.19838   0.20140   0.20208
 Alpha virt. eigenvalues --    0.20417   0.20454   0.20592   0.20865   0.20952
 Alpha virt. eigenvalues --    0.21081   0.21160   0.21459   0.21581   0.21677
 Alpha virt. eigenvalues --    0.21693   0.21822   0.22086   0.22316   0.22518
 Alpha virt. eigenvalues --    0.22697   0.22997   0.23103   0.23204   0.23593
 Alpha virt. eigenvalues --    0.23915   0.23985   0.24216   0.24534   0.24584
 Alpha virt. eigenvalues --    0.24659   0.24990   0.25139   0.25239   0.25337
 Alpha virt. eigenvalues --    0.25538   0.25855   0.26057   0.26177   0.26473
 Alpha virt. eigenvalues --    0.26727   0.26830   0.26865   0.27085   0.27301
 Alpha virt. eigenvalues --    0.27749   0.27896   0.27925   0.28038   0.28175
 Alpha virt. eigenvalues --    0.28601   0.28753   0.28847   0.29425   0.29448
 Alpha virt. eigenvalues --    0.29868   0.30376   0.30515   0.30635   0.30944
 Alpha virt. eigenvalues --    0.31287   0.31433   0.31996   0.32607   0.32830
 Alpha virt. eigenvalues --    0.33220   0.33617   0.33989   0.34091   0.34236
 Alpha virt. eigenvalues --    0.34656   0.34854   0.35271   0.35516   0.36080
 Alpha virt. eigenvalues --    0.36254   0.36831   0.37303   0.37631   0.38474
 Alpha virt. eigenvalues --    0.38683   0.39186   0.39501   0.40023   0.40291
 Alpha virt. eigenvalues --    0.40458   0.42025   0.42241   0.42506   0.42937
 Alpha virt. eigenvalues --    0.44185   0.44945   0.45814   0.46681   0.47381
 Alpha virt. eigenvalues --    0.48043   0.48295   0.48758   0.49764   0.49883
 Alpha virt. eigenvalues --    0.50650   0.50938   0.51184   0.51391   0.51729
 Alpha virt. eigenvalues --    0.52030   0.52259   0.52454   0.52582   0.53022
 Alpha virt. eigenvalues --    0.53225   0.53536   0.53606   0.53679   0.53786
 Alpha virt. eigenvalues --    0.54025   0.54195   0.54633   0.54901   0.55082
 Alpha virt. eigenvalues --    0.55273   0.55341   0.55785   0.55963   0.56129
 Alpha virt. eigenvalues --    0.56461   0.56875   0.56910   0.57049   0.57433
 Alpha virt. eigenvalues --    0.57691   0.57822   0.57870   0.58703   0.58748
 Alpha virt. eigenvalues --    0.59004   0.59124   0.59370   0.59496   0.59566
 Alpha virt. eigenvalues --    0.59962   0.60134   0.60782   0.60901   0.61127
 Alpha virt. eigenvalues --    0.61627   0.61664   0.61985   0.62595   0.62672
 Alpha virt. eigenvalues --    0.63147   0.63270   0.63377   0.63582   0.63653
 Alpha virt. eigenvalues --    0.63913   0.64276   0.64457   0.64767   0.65035
 Alpha virt. eigenvalues --    0.65521   0.65571   0.66088   0.66335   0.66476
 Alpha virt. eigenvalues --    0.67197   0.67236   0.67319   0.67641   0.67749
 Alpha virt. eigenvalues --    0.68088   0.68280   0.68407   0.68699   0.69063
 Alpha virt. eigenvalues --    0.69309   0.69416   0.69664   0.69927   0.70277
 Alpha virt. eigenvalues --    0.70490   0.70811   0.71028   0.71297   0.71796
 Alpha virt. eigenvalues --    0.71912   0.72240   0.72495   0.72725   0.73239
 Alpha virt. eigenvalues --    0.73632   0.74020   0.74230   0.74432   0.74706
 Alpha virt. eigenvalues --    0.75037   0.75419   0.75651   0.76096   0.76189
 Alpha virt. eigenvalues --    0.76354   0.76587   0.76987   0.77105   0.77553
 Alpha virt. eigenvalues --    0.77839   0.78031   0.78183   0.78353   0.78631
 Alpha virt. eigenvalues --    0.78633   0.78987   0.79276   0.79440   0.79860
 Alpha virt. eigenvalues --    0.80000   0.80306   0.80389   0.80574   0.80692
 Alpha virt. eigenvalues --    0.80839   0.81202   0.81785   0.82019   0.82244
 Alpha virt. eigenvalues --    0.82438   0.82607   0.82820   0.83181   0.83433
 Alpha virt. eigenvalues --    0.83521   0.83626   0.83821   0.84083   0.84372
 Alpha virt. eigenvalues --    0.84695   0.84872   0.85089   0.85264   0.85307
 Alpha virt. eigenvalues --    0.85776   0.85942   0.86823   0.86929   0.87095
 Alpha virt. eigenvalues --    0.87116   0.87403   0.87556   0.88147   0.88236
 Alpha virt. eigenvalues --    0.88335   0.88494   0.88558   0.88658   0.88993
 Alpha virt. eigenvalues --    0.89126   0.89332   0.89416   0.89566   0.89773
 Alpha virt. eigenvalues --    0.90251   0.90348   0.90442   0.90667   0.90738
 Alpha virt. eigenvalues --    0.90890   0.91298   0.91415   0.91447   0.91645
 Alpha virt. eigenvalues --    0.92041   0.92674   0.92750   0.93390   0.93407
 Alpha virt. eigenvalues --    0.93629   0.93891   0.94159   0.94313   0.94611
 Alpha virt. eigenvalues --    0.94735   0.94844   0.95281   0.95384   0.95654
 Alpha virt. eigenvalues --    0.95695   0.96067   0.96185   0.96362   0.96576
 Alpha virt. eigenvalues --    0.97047   0.97155   0.97229   0.97451   0.97564
 Alpha virt. eigenvalues --    0.97962   0.98037   0.98164   0.98435   0.98572
 Alpha virt. eigenvalues --    0.98979   0.99442   0.99706   0.99806   0.99910
 Alpha virt. eigenvalues --    1.00018   1.00089   1.00384   1.00658   1.00948
 Alpha virt. eigenvalues --    1.01350   1.01669   1.01844   1.02116   1.02424
 Alpha virt. eigenvalues --    1.02523   1.02580   1.03316   1.03616   1.03818
 Alpha virt. eigenvalues --    1.04033   1.04094   1.04346   1.04691   1.04864
 Alpha virt. eigenvalues --    1.04996   1.05427   1.05781   1.05986   1.06540
 Alpha virt. eigenvalues --    1.06613   1.06986   1.07265   1.07653   1.08086
 Alpha virt. eigenvalues --    1.08392   1.08597   1.09164   1.09737   1.09751
 Alpha virt. eigenvalues --    1.10696   1.10835   1.11005   1.11211   1.11645
 Alpha virt. eigenvalues --    1.12425   1.12586   1.12992   1.14101   1.14327
 Alpha virt. eigenvalues --    1.15305   1.15734   1.16766   1.17036   1.17169
 Alpha virt. eigenvalues --    1.17629   1.18376   1.18745   1.19291   1.19602
 Alpha virt. eigenvalues --    1.19886   1.20383   1.20502   1.22196   1.22381
 Alpha virt. eigenvalues --    1.22685   1.23190   1.23291   1.23814   1.24211
 Alpha virt. eigenvalues --    1.24441   1.25345   1.25738   1.26681   1.26887
 Alpha virt. eigenvalues --    1.27701   1.27985   1.29041   1.29089   1.29627
 Alpha virt. eigenvalues --    1.30394   1.30801   1.31152   1.31198   1.31397
 Alpha virt. eigenvalues --    1.31833   1.32429   1.32763   1.33315   1.33553
 Alpha virt. eigenvalues --    1.33639   1.34090   1.34686   1.34853   1.35353
 Alpha virt. eigenvalues --    1.36530   1.36879   1.37026   1.37548   1.37827
 Alpha virt. eigenvalues --    1.38413   1.38702   1.39013   1.39842   1.40200
 Alpha virt. eigenvalues --    1.40776   1.41524   1.42225   1.43149   1.43634
 Alpha virt. eigenvalues --    1.43779   1.44466   1.45497   1.45750   1.46139
 Alpha virt. eigenvalues --    1.46294   1.46609   1.46807   1.47754   1.47796
 Alpha virt. eigenvalues --    1.48436   1.48620   1.49231   1.49761   1.50622
 Alpha virt. eigenvalues --    1.50821   1.51354   1.51666   1.51712   1.52291
 Alpha virt. eigenvalues --    1.52373   1.52459   1.53260   1.53550   1.54420
 Alpha virt. eigenvalues --    1.54490   1.54797   1.55135   1.56053   1.56699
 Alpha virt. eigenvalues --    1.57186   1.57289   1.57536   1.57967   1.58326
 Alpha virt. eigenvalues --    1.58762   1.59017   1.59571   1.59920   1.60065
 Alpha virt. eigenvalues --    1.60355   1.60549   1.60672   1.61395   1.62049
 Alpha virt. eigenvalues --    1.62871   1.63519   1.63692   1.64148   1.64275
 Alpha virt. eigenvalues --    1.65266   1.65321   1.65990   1.66404   1.67107
 Alpha virt. eigenvalues --    1.67295   1.67787   1.68181   1.68340   1.68628
 Alpha virt. eigenvalues --    1.69285   1.69522   1.70283   1.70581   1.71019
 Alpha virt. eigenvalues --    1.71104   1.71416   1.71562   1.71818   1.72091
 Alpha virt. eigenvalues --    1.72289   1.73416   1.73844   1.74245   1.74473
 Alpha virt. eigenvalues --    1.75172   1.75313   1.76067   1.76128   1.76698
 Alpha virt. eigenvalues --    1.76826   1.77404   1.77514   1.77752   1.78118
 Alpha virt. eigenvalues --    1.78594   1.78956   1.79808   1.80144   1.80388
 Alpha virt. eigenvalues --    1.80619   1.80812   1.81274   1.81696   1.82606
 Alpha virt. eigenvalues --    1.82938   1.82996   1.83205   1.83505   1.83707
 Alpha virt. eigenvalues --    1.83801   1.84372   1.84466   1.84725   1.84852
 Alpha virt. eigenvalues --    1.85077   1.85270   1.85465   1.86022   1.86244
 Alpha virt. eigenvalues --    1.86441   1.86716   1.86793   1.87125   1.87516
 Alpha virt. eigenvalues --    1.87581   1.87812   1.88030   1.88140   1.88458
 Alpha virt. eigenvalues --    1.88504   1.88574   1.88698   1.89091   1.89332
 Alpha virt. eigenvalues --    1.89590   1.89853   1.90063   1.90298   1.90711
 Alpha virt. eigenvalues --    1.91012   1.91228   1.91529   1.91987   1.92360
 Alpha virt. eigenvalues --    1.92676   1.92829   1.92897   1.93074   1.94352
 Alpha virt. eigenvalues --    1.94558   1.94786   1.95045   1.95291   1.95568
 Alpha virt. eigenvalues --    1.95870   1.96076   1.96657   1.96714   1.96880
 Alpha virt. eigenvalues --    1.97060   1.97097   1.98070   1.98381   1.98894
 Alpha virt. eigenvalues --    1.99035   1.99240   1.99382   1.99573   1.99773
 Alpha virt. eigenvalues --    2.00366   2.00479   2.01117   2.01373   2.01447
 Alpha virt. eigenvalues --    2.01573   2.01746   2.02090   2.02202   2.02497
 Alpha virt. eigenvalues --    2.02548   2.02983   2.03632   2.03659   2.03818
 Alpha virt. eigenvalues --    2.04018   2.04299   2.04659   2.05369   2.05492
 Alpha virt. eigenvalues --    2.05714   2.05991   2.06228   2.06483   2.06908
 Alpha virt. eigenvalues --    2.07451   2.07789   2.08087   2.08280   2.08719
 Alpha virt. eigenvalues --    2.09111   2.09255   2.09399   2.09804   2.10339
 Alpha virt. eigenvalues --    2.10592   2.10944   2.11050   2.11112   2.12076
 Alpha virt. eigenvalues --    2.12212   2.12487   2.12748   2.13286   2.14040
 Alpha virt. eigenvalues --    2.14278   2.14640   2.15223   2.15554   2.16292
 Alpha virt. eigenvalues --    2.16539   2.17030   2.17048   2.17530   2.18568
 Alpha virt. eigenvalues --    2.19059   2.19264   2.19634   2.20087   2.20606
 Alpha virt. eigenvalues --    2.20769   2.20957   2.21240   2.21401   2.21799
 Alpha virt. eigenvalues --    2.21968   2.22193   2.22866   2.23031   2.23237
 Alpha virt. eigenvalues --    2.23874   2.23929   2.24406   2.24768   2.25048
 Alpha virt. eigenvalues --    2.25291   2.25626   2.25838   2.26127   2.26322
 Alpha virt. eigenvalues --    2.26665   2.26884   2.27086   2.27166   2.27360
 Alpha virt. eigenvalues --    2.27462   2.27688   2.28196   2.28557   2.28990
 Alpha virt. eigenvalues --    2.29207   2.30104   2.30148   2.30423   2.30745
 Alpha virt. eigenvalues --    2.30817   2.31202   2.31562   2.32312   2.32672
 Alpha virt. eigenvalues --    2.32861   2.33092   2.33423   2.33995   2.34511
 Alpha virt. eigenvalues --    2.34826   2.34971   2.35502   2.36273   2.36356
 Alpha virt. eigenvalues --    2.36731   2.37327   2.37538   2.37900   2.37998
 Alpha virt. eigenvalues --    2.38260   2.38526   2.38822   2.38949   2.39665
 Alpha virt. eigenvalues --    2.39735   2.39827   2.40387   2.40404   2.41023
 Alpha virt. eigenvalues --    2.41555   2.41598   2.41881   2.42230   2.42329
 Alpha virt. eigenvalues --    2.42689   2.42990   2.43351   2.43506   2.43907
 Alpha virt. eigenvalues --    2.44057   2.44202   2.44294   2.45319   2.45394
 Alpha virt. eigenvalues --    2.45744   2.45905   2.46219   2.47095   2.47197
 Alpha virt. eigenvalues --    2.47273   2.47922   2.48013   2.48100   2.48583
 Alpha virt. eigenvalues --    2.49091   2.49349   2.49853   2.50034   2.50132
 Alpha virt. eigenvalues --    2.50435   2.50953   2.50980   2.51759   2.52133
 Alpha virt. eigenvalues --    2.52562   2.52901   2.53308   2.53855   2.54288
 Alpha virt. eigenvalues --    2.54435   2.54847   2.56947   2.57131   2.57248
 Alpha virt. eigenvalues --    2.57629   2.58038   2.58480   2.59223   2.59365
 Alpha virt. eigenvalues --    2.59862   2.60073   2.60649   2.60783   2.61316
 Alpha virt. eigenvalues --    2.61682   2.61853   2.62374   2.62501   2.62721
 Alpha virt. eigenvalues --    2.63019   2.63674   2.63948   2.64166   2.64784
 Alpha virt. eigenvalues --    2.64858   2.65136   2.65389   2.65746   2.65899
 Alpha virt. eigenvalues --    2.66252   2.66294   2.66910   2.67158   2.67933
 Alpha virt. eigenvalues --    2.68151   2.68305   2.68566   2.68942   2.69273
 Alpha virt. eigenvalues --    2.69589   2.70139   2.70287   2.70744   2.70826
 Alpha virt. eigenvalues --    2.71882   2.72058   2.72132   2.72329   2.73083
 Alpha virt. eigenvalues --    2.73190   2.73350   2.73651   2.74054   2.74391
 Alpha virt. eigenvalues --    2.74571   2.74785   2.75094   2.75359   2.75901
 Alpha virt. eigenvalues --    2.76224   2.76348   2.76785   2.77461   2.78162
 Alpha virt. eigenvalues --    2.78220   2.78468   2.79068   2.79162   2.79291
 Alpha virt. eigenvalues --    2.79558   2.80112   2.80202   2.80467   2.80833
 Alpha virt. eigenvalues --    2.81602   2.81763   2.81883   2.82833   2.82999
 Alpha virt. eigenvalues --    2.83454   2.84098   2.84491   2.84577   2.84724
 Alpha virt. eigenvalues --    2.85250   2.85689   2.86082   2.86306   2.86735
 Alpha virt. eigenvalues --    2.87247   2.88010   2.88633   2.88825   2.89229
 Alpha virt. eigenvalues --    2.89353   2.89939   2.90130   2.90687   2.91021
 Alpha virt. eigenvalues --    2.92096   2.92252   2.92505   2.92946   2.92983
 Alpha virt. eigenvalues --    2.93588   2.94203   2.94365   2.94566   2.95610
 Alpha virt. eigenvalues --    2.95815   2.96147   2.96421   2.97288   2.97489
 Alpha virt. eigenvalues --    2.97541   2.98008   2.98459   2.98524   2.99123
 Alpha virt. eigenvalues --    2.99245   2.99909   3.00134   3.00764   3.01275
 Alpha virt. eigenvalues --    3.01343   3.01584   3.02047   3.02107   3.03158
 Alpha virt. eigenvalues --    3.03374   3.03811   3.03988   3.04674   3.05023
 Alpha virt. eigenvalues --    3.05447   3.06136   3.06421   3.06880   3.07560
 Alpha virt. eigenvalues --    3.08299   3.08326   3.08834   3.10547   3.11797
 Alpha virt. eigenvalues --    3.12040   3.12165   3.12861   3.13497   3.13535
 Alpha virt. eigenvalues --    3.13713   3.14534   3.15623   3.17195   3.19106
 Alpha virt. eigenvalues --    3.20289   3.20483   3.20749   3.21212   3.22151
 Alpha virt. eigenvalues --    3.23001   3.23043   3.23965   3.25669   3.26826
 Alpha virt. eigenvalues --    3.27485   3.27530   3.28901   3.29601   3.29968
 Alpha virt. eigenvalues --    3.30046   3.31030   3.31358   3.32902   3.33644
 Alpha virt. eigenvalues --    3.35113   3.35504   3.36186   3.36386   3.37895
 Alpha virt. eigenvalues --    3.38567   3.38977   3.40049   3.40219   3.40331
 Alpha virt. eigenvalues --    3.40722   3.41909   3.42894   3.43108   3.43366
 Alpha virt. eigenvalues --    3.43853   3.44550   3.45096   3.46001   3.47180
 Alpha virt. eigenvalues --    3.47813   3.48564   3.48728   3.48942   3.48987
 Alpha virt. eigenvalues --    3.50804   3.51934   3.52131   3.53470   3.53631
 Alpha virt. eigenvalues --    3.53742   3.54241   3.54967   3.56236   3.58159
 Alpha virt. eigenvalues --    3.59552   3.59979   3.60023   3.62088   3.62096
 Alpha virt. eigenvalues --    3.64182   3.65018   3.65881   3.67886   3.69132
 Alpha virt. eigenvalues --    3.69857   3.70125   3.71273   3.72142   3.73009
 Alpha virt. eigenvalues --    3.78494   3.82295   3.83743   3.99727   4.02342
 Alpha virt. eigenvalues --    4.02705   4.04549   4.05634   4.07286   4.12180
 Alpha virt. eigenvalues --    4.16779   4.17826   4.18073   4.18364   4.19953
 Alpha virt. eigenvalues --    4.20123   4.22306   4.22801   4.26439   4.28173
 Alpha virt. eigenvalues --    4.28780   4.29256   4.32394   4.33316   4.34111
 Alpha virt. eigenvalues --    4.35512   4.36240   4.36587   4.38590   4.39274
 Alpha virt. eigenvalues --    4.41341   4.41922   4.42406   4.44299   4.44878
 Alpha virt. eigenvalues --    4.46228   4.47242   4.47834   4.49486   4.51567
 Alpha virt. eigenvalues --    4.51639   4.53909   4.54382   4.54428   4.54924
 Alpha virt. eigenvalues --    4.55943   4.56852   4.57526   4.57869   4.60322
 Alpha virt. eigenvalues --    4.61014   4.64549   4.65296   4.66355   4.67011
 Alpha virt. eigenvalues --    4.67925   4.69337   4.71263   4.73556   4.74911
 Alpha virt. eigenvalues --    4.75998   4.79215   4.80419   4.81863   4.82429
 Alpha virt. eigenvalues --    4.83723   4.85292   4.86925   4.89580   4.98027
          Condensed to atoms (all electrons):
 Mulliken charges:
               1
     1  Mg   0.839533
     2  C    0.073855
     3  C   -0.184732
     4  C   -0.128109
     5  C   -0.181624
     6  N   -0.649040
     7  C    0.372127
     8  C   -0.191093
     9  C   -0.167257
    10  C    0.326317
    11  C   -0.271397
    12  C   -0.157182
    13  C   -0.282194
    14  C    0.610144
    15  O   -0.433219
    16  O   -0.492056
    17  N   -0.679268
    18  C    0.277871
    19  C    0.074078
    20  C   -0.042032
    21  C    0.253707
    22  C   -0.399102
    23  C    0.262469
    24  O   -0.384135
    25  N   -0.712109
    26  C    0.367048
    27  C   -0.078317
    28  C    0.075566
    29  C    0.266746
    30  C    0.245073
    31  C   -0.273627
    32  C   -0.329523
    33  N   -0.785863
    34  C    0.295807
    35  C    0.138846
    36  C    0.023846
    37  C    0.327515
    38  C   -0.440037
    39  C    0.310726
    40  O   -0.491786
    41  C   -0.330584
    42  C    0.594909
    43  O   -0.391964
    44  O   -0.453043
    45  C   -0.081771
    46  C    0.003107
    47  C   -0.123323
    48  C    0.142949
    49  C   -0.386971
    50  C   -0.213368
    51  C   -0.176921
    52  C   -0.151807
    53  C   -0.044232
    54  C   -0.326088
    55  C   -0.182788
    56  C   -0.193091
    57  C   -0.209458
    58  C   -0.036483
    59  C   -0.302127
    60  C   -0.185154
    61  C   -0.173972
    62  C   -0.175643
    63  C   -0.041835
    64  C   -0.310878
    65  C   -0.280536
    66  H    0.078608
    67  H    0.138641
    68  H    0.092264
    69  H    0.119465
    70  H    0.105050
    71  H    0.109201
    72  H    0.107901
    73  H    0.134581
    74  H    0.107907
    75  H    0.129750
    76  H    0.129024
    77  H    0.123710
    78  H    0.122433
    79  H    0.154620
    80  H    0.095189
    81  H    0.051883
    82  H    0.122027
    83  H    0.116790
    84  H    0.118624
    85  H    0.119706
    86  H    0.105578
    87  H    0.150139
    88  H    0.164516
    89  H    0.130408
    90  H    0.161668
    91  H    0.118673
    92  H    0.124254
    93  H    0.075189
    94  H    0.134929
    95  H    0.080160
    96  H    0.126627
    97  H    0.115665
    98  H    0.099156
    99  H    0.105531
   100  H    0.059913
   101  H    0.089760
   102  H    0.067462
   103  H    0.062670
   104  H    0.107049
   105  H    0.099557
   106  H    0.105313
   107  H    0.093287
   108  H    0.097120
   109  H    0.112156
   110  H    0.105488
   111  H    0.087084
   112  H    0.066165
   113  H    0.076320
   114  H    0.108631
   115  H    0.103742
   116  H    0.091173
   117  H    0.099788
   118  H    0.072942
   119  H    0.086247
   120  H    0.095580
   121  H    0.065280
   122  H    0.090263
   123  H    0.092084
   124  H    0.087893
   125  H    0.095262
   126  H    0.091771
   127  H    0.103284
   128  H    0.089993
   129  H    0.091529
   130  H    0.132528
   131  H    0.118210
   132  H    0.107267
   133  O   -0.414850
   134  H    0.035675
 Sum of Mulliken charges =   0.00000
 Mulliken charges with hydrogens summed into heavy atoms:
               1
     1  Mg   0.839533
     2  C    0.073855
     3  C   -0.106124
     4  C    0.010532
     5  C   -0.089359
     6  N   -0.649040
     7  C    0.372127
     8  C   -0.071628
     9  C   -0.062207
    10  C    0.326317
    11  C    0.080287
    12  C    0.080475
    13  C   -0.029459
    14  C    0.610144
    15  O   -0.433219
    16  O   -0.492056
    17  N   -0.679268
    18  C    0.277871
    19  C    0.074078
    20  C   -0.042032
    21  C    0.253707
    22  C   -0.026860
    23  C    0.314352
    24  O   -0.384135
    25  N   -0.712109
    26  C    0.367048
    27  C   -0.078317
    28  C    0.075566
    29  C    0.266746
    30  C    0.280748
    31  C   -0.034811
    32  C    0.014385
    33  N   -0.785863
    34  C    0.295807
    35  C    0.138846
    36  C    0.023846
    37  C    0.327515
    38  C    0.005026
    39  C    0.310726
    40  O   -0.491786
    41  C   -0.168915
    42  C    0.594909
    43  O   -0.391964
    44  O   -0.453043
    45  C    0.276234
    46  C    0.246033
    47  C   -0.048134
    48  C    0.142949
    49  C   -0.045256
    50  C    0.001454
    51  C   -0.011477
    52  C    0.005414
    53  C    0.018437
    54  C   -0.014169
    55  C    0.007619
    56  C    0.024552
    57  C   -0.056209
    58  C    0.039837
    59  C    0.001419
    60  C   -0.012424
    61  C    0.007855
    62  C   -0.020101
    63  C    0.050249
    64  C   -0.035953
    65  C    0.004270
   133  O   -0.414850
 Electronic spatial extent (au):  <R**2>=         147797.5322
 Charge=              0.0000 electrons
 Dipole moment (field-independent basis, Debye):
    X=              0.8191    Y=             -4.7320    Z=             -1.4700  Tot=              5.0223
 Quadrupole moment (field-independent basis, Debye-Ang):
   XX=           -355.0191   YY=           -439.8498   ZZ=           -394.1923
   XY=              7.9039   XZ=             34.2482   YZ=            -31.1770
 Traceless Quadrupole moment (field-independent basis, Debye-Ang):
   XX=             41.3346   YY=            -43.4961   ZZ=              2.1615
   XY=              7.9039   XZ=             34.2482   YZ=            -31.1770
 Octapole moment (field-independent basis, Debye-Ang**2):
  XXX=           -221.3709  YYY=           -555.1184  ZZZ=            -48.2575  XYY=            215.9354
  XXY=           -123.3251  XXZ=           -181.0797  XZZ=           -112.0251  YZZ=            -20.9958
  YYZ=            -44.7644  XYZ=            204.4205
 Hexadecapole moment (field-independent basis, Debye-Ang**3):
 XXXX=        -155566.3660 YYYY=         -30886.2604 ZZZZ=          -9314.2501 XXXY=          -1110.9602
 XXXZ=           4457.8145 YYYX=           2074.9892 YYYZ=          -1193.2801 ZZZX=            763.1255
 ZZZY=           -372.9548 XXYY=         -34735.6856 XXZZ=         -28505.1051 YYZZ=          -7014.5963
 XXYZ=           -672.9614 YYXZ=            422.7472 ZZXY=           -332.4538
 N-N= 9.146687911249D+03 E-N=-2.538017140709D+04  KE= 3.019254313186D+03

 Test job not archived.
 1\1\GINC-PEDRO-RYZENSSD\SP\RCAM-B3LYP TD-FC\6-31G(d,p)\C54H68Mg1N4O7\P
 ADAWAN\03-Oct-2019\0\\# td=(NStates=1) iop(3/107=0140000000,3/108=0140
 000000) iop(3/107=0140000000,3/108=0140000000) CAM-B3LYP/6-31G(d,p)\\T
 D\\0,1\Mg,0,-5.7560313343,1.1453545632,0.1464273115\C,0,-4.9280029221,
 -2.1529292576,-0.4207751426\C,0,-3.5278142413,1.1322057621,2.767308169
 \C,0,-6.3155679791,4.606028626,0.6943817994\C,0,-7.987769695,1.0928679
 692,-2.3320072946\N,0,-4.5161486994,-0.2758635095,1.1124414111\C,0,-4.
 2402392443,-1.5353847199,0.6471784363\C,0,-3.2871101127,-2.3123724358,
 1.3996355522\C,0,-2.8784920046,-1.3325039201,2.669553742\C,0,-3.592346
 0346,-0.0028394365,2.1622068793\C,0,-3.5714292509,-1.9317298656,3.9423
 320926\C,0,-1.9926541087,-2.6034143346,0.6883630224\C,0,-1.0378015431,
 -3.4734324311,1.5190957865\C,0,0.2131671841,-3.8545103231,0.7576239235
 \O,0,0.4786017141,-3.3919588847,-0.2952895444\O,0,1.1060622884,-4.5496
 801128,1.5556815567\N,0,-4.9963681878,2.5699172284,1.4866653531\C,0,-4
 .0739314803,2.3731253285,2.4909443202\C,0,-3.779558493,3.6101710996,3.
 2188008245\C,0,-4.5874144971,4.569065372,2.6079966839\C,0,-5.277017064
 1,3.9284775243,1.557600912\C,0,-2.8864172666,3.6797750612,4.3742912996
 \C,0,-4.5857612761,5.9930293371,2.970262463\O,0,-3.9873512224,6.473612
 1914,3.8424482173\N,0,-6.8656982194,2.6543933718,-0.7540480725\C,0,-6.
 9539175896,3.8831687224,-0.2884670498\C,0,-7.9754826885,4.4833393907,-
 1.157498559\C,0,-8.4098440172,3.6718063107,-2.1319877512\C,0,-7.740687
 8803,2.3776359377,-1.7186456344\C,0,-8.308673146,5.9248138511,-1.10520
 16548\C,0,-9.3822247009,3.9005009884,-3.1813706857\C,0,-8.6948784685,4
 .0222835915,-4.6120044471\N,0,-6.3972554928,-0.1466798482,-1.056616682
 1\C,0,-7.3348470914,-0.035074413,-2.0564115638\C,0,-7.5587589925,-1.36
 21413668,-2.807463771\C,0,-6.5810235861,-2.1629700703,-2.1016493748\C,
 0,-5.9601639399,-1.4244464741,-1.1308109458\C,0,-8.3522305978,-1.58794
 85835,-3.8947203914\C,0,-6.1720108282,-3.513630469,-2.0795133452\O,0,-
 6.4445376944,-4.5311980899,-2.7914393896\C,0,-4.9875390074,-3.51269303
 6,-1.0190385247\C,0,-5.4446215898,-4.5741126129,0.0868858396\O,0,-5.73
 53677194,-4.3668026137,1.1488820085\O,0,-5.1701769809,-5.8117950636,-0
 .4331974911\C,0,-5.5280161508,-6.9184954406,0.4323707719\C,0,2.2594326
 249,-5.0013163918,0.7277807594\C,0,3.4125245626,-4.0921107104,1.088990
 1848\C,0,4.1048295867,-3.1690167226,0.2943918142\C,0,3.6985447518,-3.1
 405272411,-1.1708447533\C,0,5.261660372,-2.3446787361,0.787150566\C,0,
 6.578033408,-2.7037053235,0.1356838943\C,0,7.7769768244,-1.7085425001,
 0.5742812627\C,0,9.0889575043,-1.9231482968,-0.1411608293\C,0,9.556672
 7474,-3.4034602485,0.172970422\C,0,10.0508105167,-0.9437749984,0.41642
 96064\C,0,11.4216553228,-0.9984626414,-0.3934546561\C,0,12.3159492155,
 0.2917383643,0.1402048087\C,0,13.7266420583,0.3904887358,-0.5907688341
 \C,0,14.5902972027,-0.7364143714,-0.3393906243\C,0,14.1631562538,1.845
 4993221,-0.2707247149\C,0,15.4011493958,2.2109330286,-1.1250396117\C,0
 ,16.0062602457,3.5271652265,-0.7356946625\C,0,17.3638707818,3.91348026
 35,-1.4245835062\C,0,17.2411931014,3.9335589186,-2.9552378438\C,0,17.9
 262960488,5.1560637324,-0.8789288499\H,0,-2.8726327692,1.3423410977,3.
 6247900902\H,0,-6.605661449,5.5683730395,0.9653362963\H,0,-8.878273026
 4,1.0767519367,-2.9328886698\H,0,-3.5872457898,-3.3396270794,1.7193376
 759\H,0,-1.8517462606,-1.3223398422,2.8532874947\H,0,-2.9314424694,-2.
 6534119221,4.1596959155\H,0,-3.6563222323,-1.0811302307,4.5381599519\H
 ,0,-4.4580074765,-2.120549973,3.5925224748\H,0,-2.4279999656,-3.083871
 4321,-0.1683145661\H,0,-1.5412748272,-1.8156201894,0.2327341147\H,0,-0
 .8788622763,-3.0234523175,2.5901535565\H,0,-1.3760970883,-4.4958764239
 ,1.8968287196\H,0,-1.7728459367,3.680712758,4.2298953706\H,0,-2.882505
 9046,4.6543150706,4.6612217851\H,0,-3.1077807106,2.8899621903,5.355092
 486\H,0,-5.1749513544,6.573115294,2.1770898248\H,0,-10.1482588084,3.18
 43955915,-3.3794791025\H,0,-9.9545629392,4.8971072452,-3.1495079434\H,
 0,-9.2050762685,4.216329533,-5.3911854291\H,0,-7.9292968957,4.72417435
 8,-4.4530549873\H,0,-7.8957298479,3.2805223661,-4.7129654112\H,0,-8.27
 2763858,-0.7784110988,-4.5524352125\H,0,-8.2445440823,-2.5663936997,-4
 .3719065346\H,0,-9.4816614152,-1.475724207,-3.6324375289\H,0,-4.310752
 8513,-3.9698328063,-1.5833132614\H,0,2.3155494987,-5.9424015333,1.1885
 972476\H,0,2.0835916858,-4.9620247289,-0.2697324083\H,0,3.6139973821,-
 4.2135914814,2.0884272068\H,0,2.5827057225,-3.5305646114,-1.3208947396
 \H,0,3.7946268007,-2.0329879994,-1.6145996775\H,0,4.2998124886,-3.6009
 919555,-1.9127427316\H,0,5.0785417232,-1.3748030249,0.4410244935\H,0,5
 .3296553239,-2.4019345107,1.9176856549\H,0,6.8331425343,-3.7678410836,
 0.2804073624\H,0,6.5793367732,-2.6211043264,-1.1057402602\H,0,7.569697
 7714,-0.6270592602,0.5509238457\H,0,7.9393628465,-2.0582540739,1.71554
 90273\H,0,8.9620020998,-1.8644744881,-1.34711293\H,0,8.9673889043,-4.2
 053893988,-0.1691793881\H,0,10.4974727767,-3.6265460093,-0.2778453664\
 H,0,9.7262193695,-3.5175174803,1.1991708801\H,0,9.8287639373,0.1046488
 753,0.2850176762\H,0,10.2086098196,-0.982856605,1.4666876061\H,0,12.00
 89128224,-1.8415614778,-0.02602191\H,0,11.1841543556,-0.8013617717,-1.
 4049813418\H,0,11.7618862067,1.2139644682,0.21520431\H,0,12.2857093296
 ,0.1224835317,1.2926784429\H,0,13.4803787802,0.2397287157,-1.684594664
 3\H,0,15.0456647937,-0.737056723,0.5577308706\H,0,13.9609064771,-1.606
 3238113,-0.5183480889\H,0,15.5232721837,-0.696132941,-0.9464870517\H,0
 ,13.3339226379,2.5536036596,-0.2594358209\H,0,14.5248600982,1.83521993
 65,0.8361924465\H,0,16.2348222093,1.4831237739,-1.0374115562\H,0,15.00
 2014997,2.1564038918,-2.1339269236\H,0,15.2979212542,4.3911823259,-0.7
 91540434\H,0,16.0936289968,3.5953554949,0.2424567045\H,0,17.8659864154
 ,3.1629698055,-1.2199863865\H,0,16.3116783046,4.5660238813,-3.27766204
 51\H,0,18.2317155615,4.2062670199,-3.4113585695\H,0,16.7987245578,2.93
 94388551,-3.3273232855\H,0,18.0986777418,5.1152321762,0.0234715129\H,0
 ,18.8805156624,5.1236385904,-1.3924713882\H,0,17.3360861784,6.07349175
 93,-1.2682351756\H,0,-5.3506829529,-7.9292640258,-0.1356778838\H,0,-6.
 6533758289,-6.7276521466,0.7831281561\H,0,-4.8821404314,-6.7128811643,
 1.427585627\O,0,-7.8874216375,6.8235123826,-0.4186352919\H,0,-9.164749
 8588,6.2667340891,-1.8488833558\\Version=ES64L-G09RevD.01\State=1-A\HF
 =-3043.3918391\RMSD=9.369e-09\PG=C01 [X(C54H68Mg1N4O7)]\\@


 Where a calculator on the ENIAC is equipped with 18,000
 vacuum tubes and weighs 30 tons, computers inthe future
 may  have only 1,000 vacuum tubes and weigh only 1 1/2 tons.
              ---Popular Mechanics, March 1949
 Job cpu time:       0 days  6 hours 30 minutes  7.3 seconds.
 File lengths (MBytes):  RWF=   2102 Int=      0 D2E=      0 Chk=    163 Scr=      1
 Normal termination of Gaussian 09 at Thu Oct  3 16:18:16 2019.
