 Entering Gaussian System, Link 0=g16
 Input=Geometria-361-.com
 Output=Geometria-361-.log
 Initial command:
 /usr/local/g09/l1.exe "/home/padawan/israel-mol/chlorophyll-b/spectra/emi/Gau-10432.inp" -scrdir="/home/padawan/israel-mol/chlorophyll-b/spectra/emi/"
 Entering Link 1 = /usr/local/g09/l1.exe PID=     10434.
  
 Copyright (c) 1988,1990,1992,1993,1995,1998,2003,2009,2013,
            Gaussian, Inc.  All Rights Reserved.
  
 This is part of the Gaussian(R) 09 program.  It is based on
 the Gaussian(R) 03 system (copyright 2003, Gaussian, Inc.),
 the Gaussian(R) 98 system (copyright 1998, Gaussian, Inc.),
 the Gaussian(R) 94 system (copyright 1995, Gaussian, Inc.),
 the Gaussian 92(TM) system (copyright 1992, Gaussian, Inc.),
 the Gaussian 90(TM) system (copyright 1990, Gaussian, Inc.),
 the Gaussian 88(TM) system (copyright 1988, Gaussian, Inc.),
 the Gaussian 86(TM) system (copyright 1986, Carnegie Mellon
 University), and the Gaussian 82(TM) system (copyright 1983,
 Carnegie Mellon University). Gaussian is a federally registered
 trademark of Gaussian, Inc.
  
 This software contains proprietary and confidential information,
 including trade secrets, belonging to Gaussian, Inc.
  
 This software is provided under written license and may be
 used, copied, transmitted, or stored only in accord with that
 written license.
  
 The following legend is applicable only to US Government
 contracts under FAR:
  
                    RESTRICTED RIGHTS LEGEND
  
 Use, reproduction and disclosure by the US Government is
 subject to restrictions as set forth in subparagraphs (a)
 and (c) of the Commercial Computer Software - Restricted
 Rights clause in FAR 52.227-19.
  
 Gaussian, Inc.
 340 Quinnipiac St., Bldg. 40, Wallingford CT 06492
  
  
 ---------------------------------------------------------------
 Warning -- This program may not be used in any manner that
 competes with the business of Gaussian, Inc. or will provide
 assistance to any competitor of Gaussian, Inc.  The licensee
 of this program is prohibited from giving any competitor of
 Gaussian, Inc. access to this program.  By using this program,
 the user acknowledges that Gaussian, Inc. is engaged in the
 business of creating and licensing software in the field of
 computational chemistry and represents and warrants to the
 licensee that it is not a competitor of Gaussian, Inc. and that
 it will not use this program in any manner prohibited above.
 ---------------------------------------------------------------
  

 Cite this work as:
 Gaussian 09, Revision D.01,
 M. J. Frisch, G. W. Trucks, H. B. Schlegel, G. E. Scuseria, 
 M. A. Robb, J. R. Cheeseman, G. Scalmani, V. Barone, B. Mennucci, 
 G. A. Petersson, H. Nakatsuji, M. Caricato, X. Li, H. P. Hratchian, 
 A. F. Izmaylov, J. Bloino, G. Zheng, J. L. Sonnenberg, M. Hada, 
 M. Ehara, K. Toyota, R. Fukuda, J. Hasegawa, M. Ishida, T. Nakajima, 
 Y. Honda, O. Kitao, H. Nakai, T. Vreven, J. A. Montgomery, Jr., 
 J. E. Peralta, F. Ogliaro, M. Bearpark, J. J. Heyd, E. Brothers, 
 K. N. Kudin, V. N. Staroverov, T. Keith, R. Kobayashi, J. Normand, 
 K. Raghavachari, A. Rendell, J. C. Burant, S. S. Iyengar, J. Tomasi, 
 M. Cossi, N. Rega, J. M. Millam, M. Klene, J. E. Knox, J. B. Cross, 
 V. Bakken, C. Adamo, J. Jaramillo, R. Gomperts, R. E. Stratmann, 
 O. Yazyev, A. J. Austin, R. Cammi, C. Pomelli, J. W. Ochterski, 
 R. L. Martin, K. Morokuma, V. G. Zakrzewski, G. A. Voth, 
 P. Salvador, J. J. Dannenberg, S. Dapprich, A. D. Daniels, 
 O. Farkas, J. B. Foresman, J. V. Ortiz, J. Cioslowski, 
 and D. J. Fox, Gaussian, Inc., Wallingford CT, 2013.
 
 ******************************************
 Gaussian 09:  ES64L-G09RevD.01 24-Apr-2013
                 8-Oct-2019 
 ******************************************
 %nproc=3
 Will use up to    3 processors via shared memory.
 %Mem=2GB
 ----------------------------------------------------------------------
 # td=(NStates=1) iop(3/107=0140000000,3/108=0140000000) iop(3/107=0140
 000000,3/108=0140000000) CAM-B3LYP/6-31G(d,p)
 ----------------------------------------------------------------------
 1/38=1/1;
 2/12=2,17=6,18=5,40=1/2;
 3/5=1,6=6,7=101,11=9,16=1,25=1,30=1,74=-40,107=140000000,108=140000000/1,2,8,3;
 4//1;
 5/5=2,38=5/2;
 8/6=1,10=2,108=1/1;
 9/41=1,42=1,70=2/14;
 6/7=2,8=2,9=2,10=2/1;
 99/5=1,9=1/99;
 --
 TD
 --
 Symbolic Z-matrix:
 Charge =  0 Multiplicity = 1
 12                   -5.58428   1.26596   0.13936 
 6                    -5.04371  -2.25542  -0.42672 
 6                    -3.36105   1.09318   2.67713 
 6                    -6.1498    4.53027   0.67116 
 6                    -7.95198   1.27435  -2.43761 
 7                    -4.3901   -0.28941   0.98109 
 6                    -4.24964  -1.66022   0.57352 
 6                    -3.20461  -2.44222   1.33465 
 6                    -2.94588  -1.49156   2.57267 
 6                    -3.55709  -0.10851   2.0654 
 6                    -3.4602   -1.77582   3.96166 
 6                    -1.97582  -2.72168   0.62216 
 6                    -0.97874  -3.54182   1.3715 
 6                     0.27435  -3.88545   0.61664 
 8                     0.49276  -3.34341  -0.43279 
 8                     1.07341  -4.84421   1.30719 
 7                    -4.85671   2.5526    1.43773 
 6                    -3.92245   2.32685   2.46313 
 6                    -3.63887   3.50217   3.12121 
 6                    -4.46463   4.57744   2.52399 
 6                    -5.16937   3.90501   1.45309 
 6                    -2.60351   3.75471   4.25589 
 6                    -4.53887   5.99321   2.80876 
 8                    -3.89452   6.54669   3.8034 
 7                    -6.87044   2.71137  -0.64726 
 6                    -6.90548   4.01527  -0.38106 
 6                    -7.85217   4.65878  -1.27707 
 6                    -8.45391   3.69893  -2.03155 
 6                    -7.7747    2.44228  -1.74093 
 6                    -8.30444   6.10816  -1.19224 
 6                    -9.39422   3.85074  -3.14746 
 6                    -8.69545   3.99083  -4.51567 
 7                    -6.3459   -0.04583  -1.12434 
 6                    -7.36142   0.0457   -2.08849 
 6                    -7.59625  -1.23951  -2.71416 
 6                    -6.68221  -2.16391  -2.1138 
 6                    -6.03015  -1.43393  -1.02755 
 6                    -8.69984  -1.51516  -3.66819 
 6                    -6.24836  -3.536    -2.00951 
 8                    -6.66444  -4.44433  -2.63046 
 6                    -5.11104  -3.59496  -0.8911 
 6                    -5.30226  -4.63602   0.19458 
 8                    -5.78414  -4.47689   1.25578 
 8                    -5.07111  -5.95452  -0.21916 
 6                    -5.25726  -6.91994   0.63524 
 6                     2.39269  -5.15457   0.56617 
 6                     3.41575  -4.16174   0.9924 
 6                     3.91723  -3.302     0.24429 
 6                     3.63121  -3.08516  -1.2902 
 6                     4.99367  -2.36059   0.75384 
 6                     6.52226  -2.77977   0.17326 
 6                     7.66438  -1.83059   0.65254 
 6                     8.97134  -2.11272   0.03989 
 6                     9.63727  -3.38368   0.27481 
 6                     10.01322  -0.9429    0.51071 
 6                     11.28382  -0.867    -0.22681 
 6                     12.18297   0.32972   0.24021 
 6                     13.44855   0.48652  -0.57804 
 6                     14.53285  -0.7007   -0.36632 
 6                     14.18591   1.83251  -0.231 
 6                     15.3813   2.26757  -1.04597 
 6                     15.98773   3.67036  -0.7124 
 6                     17.27656   4.0217   -1.34189 
 6                     17.18212   4.00271  -2.8608 
 6                     17.85527   5.31534  -0.86268 
 1                    -2.76101   1.14007   3.62109 
 1                    -6.37642   5.63165   0.91385 
 1                    -8.78121   1.27034  -3.13047 
 1                    -3.75514  -3.37246   1.58151 
 1                    -1.80715  -1.27655   2.60567 
 1                    -3.13441  -2.65533   4.39238 
 1                    -3.40712  -0.89241   4.60903 
 1                    -4.40307  -1.85766   3.82379 
 1                    -2.34865  -3.43975  -0.15733 
 1                    -1.58156  -1.84516   0.12756 
 1                    -0.73074  -3.19061   2.31189 
 1                    -1.28171  -4.60456   1.6073 
 1                    -1.77444   3.51028   3.7294 
 1                    -2.60517   4.84205   4.59279 
 1                    -2.82301   3.3561    5.21755 
 1                    -5.57077   6.39438   2.34624 
 1                    -10.09768   3.10298  -3.48306 
 1                    -10.03507   4.66279  -2.92793 
 1                    -9.59962   4.10216  -5.1331 
 1                    -8.32487   5.03698  -4.59289 
 1                    -8.05681   3.24003  -4.88921 
 1                    -8.40694  -0.99185  -4.71137 
 1                    -8.69414  -2.6532   -3.77294 
 1                    -9.71458  -1.55607  -3.28862 
 1                    -4.22246  -3.96091  -1.49844 
 1                     2.56128  -6.06666   1.00588 
 1                     2.14902  -5.35117  -0.55853 
 1                     3.68654  -4.32551   2.19902 
 1                     2.63641  -3.29545  -1.35346 
 1                     4.04331  -2.01348  -1.56519 
 1                     4.47581  -3.69318  -1.78322 
 1                     4.89586  -1.31496   0.23255 
 1                     5.16239  -2.30559   1.80685 
 1                     6.51902  -4.036     0.50135 
 1                     6.54494  -2.83979  -0.85412 
 1                     7.37982  -0.85176   0.57868 
 1                     7.66555  -2.04333   1.79257 
 1                     8.64174  -2.01979  -0.99816 
 1                     8.89383  -4.30757   0.12992 
 1                     10.54924  -3.56057  -0.35547 
 1                     10.03643  -3.50778   1.38247 
 1                     9.3263    0.03732   0.55336 
 1                     10.20415  -1.2521    1.50586 
 1                     11.70345  -1.9291   -0.11305 
 1                     11.10827  -0.66392  -1.22993 
 1                     11.71204   1.30856   0.00413 
 1                     12.25697   0.17757   1.24673 
 1                     13.30001   0.61439  -1.73632 
 1                     14.84602  -0.80785   0.70246 
 1                     14.1523  -1.59617  -0.88649 
 1                     15.30883  -0.19438  -1.22033 
 1                     13.30785   2.47438  -0.45239 
 1                     14.28776   1.75081   0.89278 
 1                     16.17703   1.53009  -1.14204 
 1                     15.1168   2.23826  -1.96664 
 1                     15.13024   4.3383   -0.88205 
 1                     15.83971   3.77458   0.36455 
 1                     17.98902   3.1562   -1.19102 
 1                     16.20695   4.44981  -3.29707 
 1                     18.10687   4.32032  -3.04293 
 1                     17.15413   2.97018  -3.26431 
 1                     17.90303   5.37011   0.40425 
 1                     18.62408   5.61984  -1.31863 
 1                     17.03524   6.23521  -1.11962 
 1                    -4.86382  -7.86888   0.03808 
 1                    -6.23743  -7.0355    0.91071 
 1                    -4.52427  -7.00711   1.55118 
 8                    -7.85226   6.87079  -0.37179 
 1                    -8.93693   6.49752  -1.99347 
 
 Stoichiometry    C54H68MgN4O7
 Framework group  C1[X(C54H68MgN4O7)]
 Deg. of freedom   396
 Full point group                 C1      NOp   1
 Largest Abelian subgroup         C1      NOp   1
 Largest concise Abelian subgroup C1      NOp   1
                         Standard orientation:                         
 ---------------------------------------------------------------------
 Center     Atomic      Atomic             Coordinates (Angstroms)
 Number     Number       Type             X           Y           Z
 ---------------------------------------------------------------------
      1         12           0       -5.579773    1.274170    0.168125
      2          6           0       -5.046924   -2.238014   -0.459075
      3          6           0       -3.353366    1.053528    2.699400
      4          6           0       -6.138123    4.529967    0.756683
      5          6           0       -7.951013    1.331404   -2.404953
      6          7           0       -4.387485   -0.297743    0.981339
      7          6           0       -4.250294   -1.661617    0.550103
      8          6           0       -3.205754   -2.458598    1.296212
      9          6           0       -2.943433   -1.529842    2.550004
     10          6           0       -3.552625   -0.137101    2.067410
     11          6           0       -3.456386   -1.836909    3.934638
     12          6           0       -1.978506   -2.728176    0.577284
     13          6           0       -0.981998   -3.563001    1.311024
     14          6           0        0.269364   -3.896062    0.548598
     15          8           0        0.487386   -3.336512   -0.491686
     16          8           0        1.067486   -4.868085    1.221451
     17          7           0       -4.847872    2.536911    1.487358
     18          6           0       -3.912630    2.291779    2.507406
     19          6           0       -3.625832    3.455074    3.185160
     20          6           0       -4.450298    4.542038    2.607655
     21          6           0       -5.157838    3.889463    1.526374
     22          6           0       -2.588400    3.686084    4.322535
     23          6           0       -4.521349    5.952856    2.916788
     24          8           0       -3.874538    6.487924    3.919874
     25          7           0       -6.864167    2.735373   -0.591736
     26          6           0       -6.896274    4.034579   -0.303144
     27          6           0       -7.842934    4.695212   -1.186635
     28          6           0       -8.447606    3.749631   -1.956622
     29          6           0       -7.770473    2.486861   -1.688580
     30          6           0       -8.292233    6.143804   -1.076297
     31          6           0       -9.389158    3.922402   -3.068426
     32          6           0       -8.692013    4.084605   -4.435028
     33          7           0       -6.345721   -0.014244   -1.116823
     34          6           0       -7.362394    0.095803   -2.077819
     35          6           0       -7.600624   -1.178020   -2.725123
     36          6           0       -6.687576   -2.114368   -2.142013
     37          6           0       -6.032573   -1.404411   -1.044320
     38          6           0       -8.706069   -1.435106   -3.682170
     39          6           0       -6.256280   -3.488890   -2.061902
     40          8           0       -6.675009   -4.385611   -2.697768
     41          6           0       -5.117532   -3.569253   -0.946284
     42          6           0       -5.309294   -4.628421    0.121629
     43          8           0       -5.789393   -4.486601    1.186093
     44          8           0       -5.081314   -5.940072   -0.315002
     45          6           0       -5.268183   -6.919650    0.522961
     46          6           0        2.385121   -5.168245    0.473349
     47          6           0        3.410733   -4.184867    0.915101
     48          6           0        3.912864   -3.313390    0.181144
     49          6           0        3.625143   -3.069684   -1.348984
     50          6           0        4.991864   -2.382962    0.705250
     51          6           0        6.518813   -2.795089    0.115392
     52          6           0        7.663461   -1.856502    0.609274
     53          6           0        8.969013   -2.130607   -0.009985
     54          6           0        9.632769   -3.406707    0.202142
     55          6           0       10.013847   -0.971079    0.479368
     56          6           0       11.283576   -0.884995   -0.258541
     57          6           0       12.185722    0.301781    0.227678
     58          6           0       13.450481    0.470139   -0.589558
     59          6           0       14.532731   -0.722647   -0.399792
     60          6           0       14.190965    1.808536   -0.220515
     61          6           0       15.386078    2.255197   -1.029594
     62          6           0       15.995732    3.650873   -0.672856
     63          6           0       17.284381    4.010461   -1.298044
     64          6           0       17.187795    4.017729   -2.816924
     65          6           0       17.866298    5.294554   -0.797524
     66          1           0       -2.751931    1.083037    3.643173
     67          1           0       -6.362234    5.627455    1.018566
     68          1           0       -8.781215    1.340908   -3.096602
     69          1           0       -3.757773   -3.391872    1.527854
     70          1           0       -1.804241   -1.317641    2.585072
     71          1           0       -3.131737   -2.724314    4.349730
     72          1           0       -3.400669   -0.964845    4.596994
     73          1           0       -4.399610   -1.914535    3.796714
     74          1           0       -2.353829   -3.432032   -0.213887
     75          1           0       -1.583202   -1.844070    0.097250
     76          1           0       -0.732006   -3.228470    2.256946
     77          1           0       -1.286736   -4.629039    1.528976
     78          1           0       -1.760541    3.449110    3.790747
     79          1           0       -2.587451    4.767483    4.678058
     80          1           0       -2.807355    3.271448    5.277521
     81          1           0       -5.553101    6.363912    2.462688
     82          1           0      -10.094562    3.181885   -3.415815
     83          1           0      -10.028108    4.731816   -2.834078
     84          1           0       -9.596814    4.208275   -5.049167
     85          1           0       -8.319479    5.131199   -4.494799
     86          1           0       -8.055368    3.339086   -4.822304
     87          1           0       -8.413586   -0.894536   -4.716632
     88          1           0       -8.702759   -2.571190   -3.806446
     89          1           0       -9.720370   -1.480553   -3.301924
     90          1           0       -4.230520   -3.926450   -1.561085
     91          1           0        2.552532   -6.088078    0.897093
     92          1           0        2.139508   -5.345035   -0.654219
     93          1           0        3.682872   -4.369859    2.118344
     94          1           0        2.629847   -3.276921   -1.414433
     95          1           0        4.038974   -1.994239   -1.606131
     96          1           0        4.467862   -3.670791   -1.853569
     97          1           0        4.895391   -1.328346    0.202131
     98          1           0        5.162146   -2.346381    1.758816
     99          1           0        6.513557   -4.056752    0.421877
    100          1           0        6.539957   -2.837500   -0.912891
    101          1           0        7.380731   -0.875994    0.552628
    102          1           0        7.665792   -2.088782    1.745479
    103          1           0        8.638163   -2.019232   -1.045813
    104          1           0        8.887311   -4.326527    0.042470
    105          1           0       10.543512   -3.574525   -0.432379
    106          1           0       10.033218   -3.550579    1.306940
    107          1           0        9.328926    0.009606    0.539817
    108          1           0       10.205550   -1.297687    1.468794
    109          1           0       11.701271   -1.949707   -0.163627
    110          1           0       11.107031   -0.664381   -1.257782
    111          1           0       11.716399    1.285446    0.009102
    112          1           0       12.260817    0.132227    1.231331
    113          1           0       13.300585    0.618162   -1.745262
    114          1           0       14.847173   -0.848741    0.666544
    115          1           0       14.149691   -1.608314   -0.934717
    116          1           0       15.308521   -0.203252   -1.246087
    117          1           0       13.313866    2.455816   -0.429603
    118          1           0       14.294209    1.707361    0.901550
    119          1           0       16.180219    1.517929   -1.139438
    120          1           0       15.120244    2.242215   -1.950254
    121          1           0       15.139331    4.323291   -0.829796
    122          1           0       15.849415    3.736880    0.405934
    123          1           0       17.995341    3.141113   -1.163072
    124          1           0       16.212904    4.474155   -3.244076
    125          1           0       18.112921    4.336622   -2.994891
    126          1           0       17.157215    2.992341   -3.238056
    127          1           0       17.915921    5.327471    0.470088
    128          1           0       18.635075    5.605339   -1.249277
    129          1           0       17.047723    6.220291   -1.037475
    130          1           0       -4.877445   -7.858964   -0.090959
    131          1           0       -6.248201   -7.038022    0.797798
    132          1           0       -4.534103   -7.023962    1.436225
    133          8           0       -7.837411    6.891351   -0.243521
    134          1           0       -8.925059    6.548087   -1.869825
 ---------------------------------------------------------------------
 Rotational constants (GHZ):      0.0345640      0.0081341      0.0071699
 Standard basis: 6-31G(d,p) (6D, 7F)
 There are  1334 symmetry adapted cartesian basis functions of A   symmetry.
 There are  1334 symmetry adapted basis functions of A   symmetry.
  1334 basis functions,  2348 primitive gaussians,  1334 cartesian basis functions
   244 alpha electrons      244 beta electrons
       nuclear repulsion energy      9123.7701707523 Hartrees.
 NAtoms=  134 NActive=  134 NUniq=  134 SFac= 1.00D+00 NAtFMM=   60 NAOKFM=T Big=T
 Integral buffers will be    131072 words long.
 Raffenetti 1 integral format.
 Two-electron integral symmetry is turned on.
 One-electron integrals computed using PRISM.
 NBasis=  1334 RedAO= T EigKep=  3.49D-04  NBF=  1334
 NBsUse=  1334 1.00D-06 EigRej= -1.00D+00 NBFU=  1334
 ExpMin= 4.21D-02 ExpMax= 1.17D+04 ExpMxC= 1.76D+03 IAcc=2 IRadAn=         4 AccDes= 0.00D+00
 Harris functional with IExCor=20419 and IRadAn=       4 diagonalized for initial guess.
 HarFok:  IExCor=20419 AccDes= 0.00D+00 IRadAn=         4 IDoV= 1 UseB2=F ITyADJ=14
 ICtDFT=  3500011 ScaDFX=  1.000000  1.000000  1.000000  1.000000
 FoFCou: FMM=F IPFlag=           0 FMFlag=      100000 FMFlg1=        2001
         NFxFlg=           0 DoJE=T BraDBF=F KetDBF=T FulRan=T
         wScrn=  0.000000 ICntrl=     500 IOpCl=  0 I1Cent=   200000004 NGrid=           0
         NMat0=    1 NMatS0=      1 NMatT0=    0 NMatD0=    1 NMtDS0=    0 NMtDT0=    0
 Petite list used in FoFCou.
 Requested convergence on RMS density matrix=1.00D-08 within 128 cycles.
 Requested convergence on MAX density matrix=1.00D-06.
 Requested convergence on             energy=1.00D-06.
 No special actions if energy rises.
 SCF Done:  E(RCAM-B3LYP) =  -3043.40258642     A.U. after   16 cycles
            NFock= 16  Conv=0.64D-08     -V/T= 2.0087
 DoSCS=F DFT=T ScalE2(SS,OS)=  1.000000  1.000000
 ExpMin= 4.21D-02 ExpMax= 1.17D+04 ExpMxC= 1.76D+03 IAcc=3 IRadAn=         5 AccDes= 0.00D+00
 HarFok:  IExCor=  205 AccDes= 0.00D+00 IRadAn=         5 IDoV=-2 UseB2=F ITyADJ=14
 ICtDFT= 12500011 ScaDFX=  1.000000  1.000000  1.000000  1.000000
 Range of M.O.s used for correlation:    71  1334
 NBasis=  1334 NAE=   244 NBE=   244 NFC=    70 NFV=     0
 NROrb=   1264 NOA=   174 NOB=   174 NVA=  1090 NVB=  1090
 Would need an additional       2379600800000 words for in-memory AO integral storage.
 Orbital symmetries:
       Occupied  (A) (A) (A) (A) (A) (A) (A) (A) (A) (A) (A) (A)
                 (A) (A) (A) (A) (A) (A) (A) (A) (A) (A) (A) (A)
                 (A) (A) (A) (A) (A) (A) (A) (A) (A) (A) (A) (A)
                 (A) (A) (A) (A) (A) (A) (A) (A) (A) (A) (A) (A)
                 (A) (A) (A) (A) (A) (A) (A) (A) (A) (A) (A) (A)
                 (A) (A) (A) (A) (A) (A) (A) (A) (A) (A) (A) (A)
                 (A) (A) (A) (A) (A) (A) (A) (A) (A) (A) (A) (A)
                 (A) (A) (A) (A) (A) (A) (A) (A) (A) (A) (A) (A)
                 (A) (A) (A) (A) (A) (A) (A) (A) (A) (A) (A) (A)
                 (A) (A) (A) (A) (A) (A) (A) (A) (A) (A) (A) (A)
                 (A) (A) (A) (A) (A) (A) (A) (A) (A) (A) (A) (A)
                 (A) (A) (A) (A) (A) (A) (A) (A) (A) (A) (A) (A)
                 (A) (A) (A) (A) (A) (A) (A) (A) (A) (A) (A) (A)
                 (A) (A) (A) (A) (A) (A) (A) (A) (A) (A) (A) (A)
                 (A) (A) (A) (A) (A) (A) (A) (A) (A) (A) (A) (A)
                 (A) (A) (A) (A) (A) (A) (A) (A) (A) (A) (A) (A)
                 (A) (A) (A) (A) (A) (A) (A) (A) (A) (A) (A) (A)
                 (A) (A) (A) (A) (A) (A) (A) (A) (A) (A) (A) (A)
                 (A) (A) (A) (A) (A) (A) (A) (A) (A) (A) (A) (A)
                 (A) (A) (A) (A) (A) (A) (A) (A) (A) (A) (A) (A)
                 (A) (A) (A) (A)
       Virtual   (A) (A) (A) (A) (A) (A) (A) (A) (A) (A) (A) (A)
                 (A) (A) (A) (A) (A) (A) (A) (A) (A) (A) (A) (A)
                 (A) (A) (A) (A) (A) (A) (A) (A) (A) (A) (A) (A)
                 (A) (A) (A) (A) (A) (A) (A) (A) (A) (A) (A) (A)
                 (A) (A) (A) (A) (A) (A) (A) (A) (A) (A) (A) (A)
                 (A) (A) (A) (A) (A) (A) (A) (A) (A) (A) (A) (A)
                 (A) (A) (A) (A) (A) (A) (A) (A) (A) (A) (A) (A)
                 (A) (A) (A) (A) (A) (A) (A) (A) (A) (A) (A) (A)
                 (A) (A) (A) (A) (A) (A) (A) (A) (A) (A) (A) (A)
                 (A) (A) (A) (A) (A) (A) (A) (A) (A) (A) (A) (A)
                 (A) (A) (A) (A) (A) (A) (A) (A) (A) (A) (A) (A)
                 (A) (A) (A) (A) (A) (A) (A) (A) (A) (A) (A) (A)
                 (A) (A) (A) (A) (A) (A) (A) (A) (A) (A) (A) (A)
                 (A) (A) (A) (A) (A) (A) (A) (A) (A) (A) (A) (A)
                 (A) (A) (A) (A) (A) (A) (A) (A) (A) (A) (A) (A)
                 (A) (A) (A) (A) (A) (A) (A) (A) (A) (A) (A) (A)
                 (A) (A) (A) (A) (A) (A) (A) (A) (A) (A) (A) (A)
                 (A) (A) (A) (A) (A) (A) (A) (A) (A) (A) (A) (A)
                 (A) (A) (A) (A) (A) (A) (A) (A) (A) (A) (A) (A)
                 (A) (A) (A) (A) (A) (A) (A) (A) (A) (A) (A) (A)
                 (A) (A) (A) (A) (A) (A) (A) (A) (A) (A) (A) (A)
                 (A) (A) (A) (A) (A) (A) (A) (A) (A) (A) (A) (A)
                 (A) (A) (A) (A) (A) (A) (A) (A) (A) (A) (A) (A)
                 (A) (A) (A) (A) (A) (A) (A) (A) (A) (A) (A) (A)
                 (A) (A) (A) (A) (A) (A) (A) (A) (A) (A) (A) (A)
                 (A) (A) (A) (A) (A) (A) (A) (A) (A) (A) (A) (A)
                 (A) (A) (A) (A) (A) (A) (A) (A) (A) (A) (A) (A)
                 (A) (A) (A) (A) (A) (A) (A) (A) (A) (A) (A) (A)
                 (A) (A) (A) (A) (A) (A) (A) (A) (A) (A) (A) (A)
                 (A) (A) (A) (A) (A) (A) (A) (A) (A) (A) (A) (A)
                 (A) (A) (A) (A) (A) (A) (A) (A) (A) (A) (A) (A)
                 (A) (A) (A) (A) (A) (A) (A) (A) (A) (A) (A) (A)
                 (A) (A) (A) (A) (A) (A) (A) (A) (A) (A) (A) (A)
                 (A) (A) (A) (A) (A) (A) (A) (A) (A) (A) (A) (A)
                 (A) (A) (A) (A) (A) (A) (A) (A) (A) (A) (A) (A)
                 (A) (A) (A) (A) (A) (A) (A) (A) (A) (A) (A) (A)
                 (A) (A) (A) (A) (A) (A) (A) (A) (A) (A) (A) (A)
                 (A) (A) (A) (A) (A) (A) (A) (A) (A) (A) (A) (A)
                 (A) (A) (A) (A) (A) (A) (A) (A) (A) (A) (A) (A)
                 (A) (A) (A) (A) (A) (A) (A) (A) (A) (A) (A) (A)
                 (A) (A) (A) (A) (A) (A) (A) (A) (A) (A) (A) (A)
                 (A) (A) (A) (A) (A) (A) (A) (A) (A) (A) (A) (A)
                 (A) (A) (A) (A) (A) (A) (A) (A) (A) (A) (A) (A)
                 (A) (A) (A) (A) (A) (A) (A) (A) (A) (A) (A) (A)
                 (A) (A) (A) (A) (A) (A) (A) (A) (A) (A) (A) (A)
                 (A) (A) (A) (A) (A) (A) (A) (A) (A) (A) (A) (A)
                 (A) (A) (A) (A) (A) (A) (A) (A) (A) (A) (A) (A)
                 (A) (A) (A) (A) (A) (A) (A) (A) (A) (A) (A) (A)
                 (A) (A) (A) (A) (A) (A) (A) (A) (A) (A) (A) (A)
                 (A) (A) (A) (A) (A) (A) (A) (A) (A) (A) (A) (A)
                 (A) (A) (A) (A) (A) (A) (A) (A) (A) (A) (A) (A)
                 (A) (A) (A) (A) (A) (A) (A) (A) (A) (A) (A) (A)
                 (A) (A) (A) (A) (A) (A) (A) (A) (A) (A) (A) (A)
                 (A) (A) (A) (A) (A) (A) (A) (A) (A) (A) (A) (A)
                 (A) (A) (A) (A) (A) (A) (A) (A) (A) (A) (A) (A)
                 (A) (A) (A) (A) (A) (A) (A) (A) (A) (A) (A) (A)
                 (A) (A) (A) (A) (A) (A) (A) (A) (A) (A) (A) (A)
                 (A) (A) (A) (A) (A) (A) (A) (A) (A) (A) (A) (A)
                 (A) (A) (A) (A) (A) (A) (A) (A) (A) (A) (A) (A)
                 (A) (A) (A) (A) (A) (A) (A) (A) (A) (A) (A) (A)
                 (A) (A) (A) (A) (A) (A) (A) (A) (A) (A) (A) (A)
                 (A) (A) (A) (A) (A) (A) (A) (A) (A) (A) (A) (A)
                 (A) (A) (A) (A) (A) (A) (A) (A) (A) (A) (A) (A)
                 (A) (A) (A) (A) (A) (A) (A) (A) (A) (A) (A) (A)
                 (A) (A) (A) (A) (A) (A) (A) (A) (A) (A) (A) (A)
                 (A) (A) (A) (A) (A) (A) (A) (A) (A) (A) (A) (A)
                 (A) (A) (A) (A) (A) (A) (A) (A) (A) (A) (A) (A)
                 (A) (A) (A) (A) (A) (A) (A) (A) (A) (A) (A) (A)
                 (A) (A) (A) (A) (A) (A) (A) (A) (A) (A) (A) (A)
                 (A) (A) (A) (A) (A) (A) (A) (A) (A) (A) (A) (A)
                 (A) (A) (A) (A) (A) (A) (A) (A) (A) (A) (A) (A)
                 (A) (A) (A) (A) (A) (A) (A) (A) (A) (A) (A) (A)
                 (A) (A) (A) (A) (A) (A) (A) (A) (A) (A) (A) (A)
                 (A) (A) (A) (A) (A) (A) (A) (A) (A) (A) (A) (A)
                 (A) (A) (A) (A) (A) (A) (A) (A) (A) (A) (A) (A)
                 (A) (A) (A) (A) (A) (A) (A) (A) (A) (A) (A) (A)
                 (A) (A) (A) (A) (A) (A) (A) (A) (A) (A) (A) (A)
                 (A) (A) (A) (A) (A) (A) (A) (A) (A) (A) (A) (A)
                 (A) (A) (A) (A) (A) (A) (A) (A) (A) (A) (A) (A)
                 (A) (A) (A) (A) (A) (A) (A) (A) (A) (A) (A) (A)
                 (A) (A) (A) (A) (A) (A) (A) (A) (A) (A) (A) (A)
                 (A) (A) (A) (A) (A) (A) (A) (A) (A) (A) (A) (A)
                 (A) (A) (A) (A) (A) (A) (A) (A) (A) (A) (A) (A)
                 (A) (A) (A) (A) (A) (A) (A) (A) (A) (A) (A) (A)
                 (A) (A) (A) (A) (A) (A) (A) (A) (A) (A) (A) (A)
                 (A) (A) (A) (A) (A) (A) (A) (A) (A) (A) (A) (A)
                 (A) (A) (A) (A) (A) (A) (A) (A) (A) (A) (A) (A)
                 (A) (A) (A) (A) (A) (A) (A) (A) (A) (A) (A) (A)
                 (A) (A) (A) (A) (A) (A) (A) (A) (A) (A) (A) (A)
                 (A) (A) (A) (A) (A) (A) (A) (A) (A) (A) (A) (A)
                 (A) (A) (A) (A) (A) (A) (A) (A) (A) (A)
     8 initial guesses have been made.
 Convergence on wavefunction:    0.001000000000000
 Iteration     1 Dimension     8 NMult     0 NNew      8
 CISAX will form     8 AO SS matrices at one time.
 Iteration     2 Dimension    12 NMult     8 NNew      4
 Iteration     3 Dimension    16 NMult    12 NNew      4
 Iteration     4 Dimension    20 NMult    16 NNew      4
 Iteration     5 Dimension    24 NMult    20 NNew      4
 Iteration     6 Dimension    28 NMult    24 NNew      4
 Iteration     7 Dimension    32 NMult    28 NNew      4
 ***********************************************************************
 Excited states from <AA,BB:AA,BB> singles matrix:
 ***********************************************************************
 
 Ground to excited state transition densities written to RWF  633
 Ground to excited state transition electric dipole moments (Au):
       state          X           Y           Z        Dip. S.      Osc.
         1        -0.7692     -1.3976     -1.3195      4.2859      0.2040
 Ground to excited state transition velocity dipole moments (Au):
       state          X           Y           Z        Dip. S.      Osc.
         1         0.0532      0.0957      0.0919      0.0204      0.1907
 Ground to excited state transition magnetic dipole moments (Au):
       state          X           Y           Z
         1         0.8422      1.1940     -1.7435
 Ground to excited state transition velocity quadrupole moments (Au):
       state          XX          YY          ZZ          XY          XZ          YZ
         1        -1.1375      0.1931      0.2197     -0.8328     -0.8802      0.2728
 <0|del|b> * <b|rxdel|0> + <0|del|b> * <b|delr+rdel|0>
 Rotatory Strengths (R) in cgs (10**-40 erg-esu-cm/Gauss)
       state          XX          YY          ZZ    R(velocity)    E-M Angle
         1      -189.3065   -120.5490    298.7179     -3.7125       90.20
 1/2[<0|r|b>*<b|rxdel|0> + (<0|rxdel|b>*<b|r|0>)*]
 Rotatory Strengths (R) in cgs (10**-40 erg-esu-cm/Gauss)
       state          XX          YY          ZZ     R(length)
         1       458.0871   1180.0704  -1626.8809      3.7589
  1/2[<0|del|b>*<b|r|0> + (<0|r|b>*<b|del|0>)*] (Au)
       state          X           Y           Z        Dip. S.   Osc.(frdel)
         1        -0.0409     -0.1337     -0.1212      0.2958      0.1972

 Excitation energies and oscillator strengths:
 
 Excited State   1:      Singlet-A      1.9423 eV  638.32 nm  f=0.2040  <S**2>=0.000
     243 -> 246        0.25213
     244 -> 245        0.65156
 This state for optimization and/or second-order correction.
 Total Energy, E(TD-HF/TD-KS) =  -3043.33120638    
 Copying the excited state density for this state as the 1-particle RhoCI density.
 SavETr:  write IOETrn=   770 NScale= 10 NData=  16 NLR=1 NState=    1 LETran=      28.

 **********************************************************************

            Population analysis using the SCF density.

 **********************************************************************

 Orbital symmetries:
       Occupied  (A) (A) (A) (A) (A) (A) (A) (A) (A) (A) (A) (A)
                 (A) (A) (A) (A) (A) (A) (A) (A) (A) (A) (A) (A)
                 (A) (A) (A) (A) (A) (A) (A) (A) (A) (A) (A) (A)
                 (A) (A) (A) (A) (A) (A) (A) (A) (A) (A) (A) (A)
                 (A) (A) (A) (A) (A) (A) (A) (A) (A) (A) (A) (A)
                 (A) (A) (A) (A) (A) (A) (A) (A) (A) (A) (A) (A)
                 (A) (A) (A) (A) (A) (A) (A) (A) (A) (A) (A) (A)
                 (A) (A) (A) (A) (A) (A) (A) (A) (A) (A) (A) (A)
                 (A) (A) (A) (A) (A) (A) (A) (A) (A) (A) (A) (A)
                 (A) (A) (A) (A) (A) (A) (A) (A) (A) (A) (A) (A)
                 (A) (A) (A) (A) (A) (A) (A) (A) (A) (A) (A) (A)
                 (A) (A) (A) (A) (A) (A) (A) (A) (A) (A) (A) (A)
                 (A) (A) (A) (A) (A) (A) (A) (A) (A) (A) (A) (A)
                 (A) (A) (A) (A) (A) (A) (A) (A) (A) (A) (A) (A)
                 (A) (A) (A) (A) (A) (A) (A) (A) (A) (A) (A) (A)
                 (A) (A) (A) (A) (A) (A) (A) (A) (A) (A) (A) (A)
                 (A) (A) (A) (A) (A) (A) (A) (A) (A) (A) (A) (A)
                 (A) (A) (A) (A) (A) (A) (A) (A) (A) (A) (A) (A)
                 (A) (A) (A) (A) (A) (A) (A) (A) (A) (A) (A) (A)
                 (A) (A) (A) (A) (A) (A) (A) (A) (A) (A) (A) (A)
                 (A) (A) (A) (A)
       Virtual   (A) (A) (A) (A) (A) (A) (A) (A) (A) (A) (A) (A)
                 (A) (A) (A) (A) (A) (A) (A) (A) (A) (A) (A) (A)
                 (A) (A) (A) (A) (A) (A) (A) (A) (A) (A) (A) (A)
                 (A) (A) (A) (A) (A) (A) (A) (A) (A) (A) (A) (A)
                 (A) (A) (A) (A) (A) (A) (A) (A) (A) (A) (A) (A)
                 (A) (A) (A) (A) (A) (A) (A) (A) (A) (A) (A) (A)
                 (A) (A) (A) (A) (A) (A) (A) (A) (A) (A) (A) (A)
                 (A) (A) (A) (A) (A) (A) (A) (A) (A) (A) (A) (A)
                 (A) (A) (A) (A) (A) (A) (A) (A) (A) (A) (A) (A)
                 (A) (A) (A) (A) (A) (A) (A) (A) (A) (A) (A) (A)
                 (A) (A) (A) (A) (A) (A) (A) (A) (A) (A) (A) (A)
                 (A) (A) (A) (A) (A) (A) (A) (A) (A) (A) (A) (A)
                 (A) (A) (A) (A) (A) (A) (A) (A) (A) (A) (A) (A)
                 (A) (A) (A) (A) (A) (A) (A) (A) (A) (A) (A) (A)
                 (A) (A) (A) (A) (A) (A) (A) (A) (A) (A) (A) (A)
                 (A) (A) (A) (A) (A) (A) (A) (A) (A) (A) (A) (A)
                 (A) (A) (A) (A) (A) (A) (A) (A) (A) (A) (A) (A)
                 (A) (A) (A) (A) (A) (A) (A) (A) (A) (A) (A) (A)
                 (A) (A) (A) (A) (A) (A) (A) (A) (A) (A) (A) (A)
                 (A) (A) (A) (A) (A) (A) (A) (A) (A) (A) (A) (A)
                 (A) (A) (A) (A) (A) (A) (A) (A) (A) (A) (A) (A)
                 (A) (A) (A) (A) (A) (A) (A) (A) (A) (A) (A) (A)
                 (A) (A) (A) (A) (A) (A) (A) (A) (A) (A) (A) (A)
                 (A) (A) (A) (A) (A) (A) (A) (A) (A) (A) (A) (A)
                 (A) (A) (A) (A) (A) (A) (A) (A) (A) (A) (A) (A)
                 (A) (A) (A) (A) (A) (A) (A) (A) (A) (A) (A) (A)
                 (A) (A) (A) (A) (A) (A) (A) (A) (A) (A) (A) (A)
                 (A) (A) (A) (A) (A) (A) (A) (A) (A) (A) (A) (A)
                 (A) (A) (A) (A) (A) (A) (A) (A) (A) (A) (A) (A)
                 (A) (A) (A) (A) (A) (A) (A) (A) (A) (A) (A) (A)
                 (A) (A) (A) (A) (A) (A) (A) (A) (A) (A) (A) (A)
                 (A) (A) (A) (A) (A) (A) (A) (A) (A) (A) (A) (A)
                 (A) (A) (A) (A) (A) (A) (A) (A) (A) (A) (A) (A)
                 (A) (A) (A) (A) (A) (A) (A) (A) (A) (A) (A) (A)
                 (A) (A) (A) (A) (A) (A) (A) (A) (A) (A) (A) (A)
                 (A) (A) (A) (A) (A) (A) (A) (A) (A) (A) (A) (A)
                 (A) (A) (A) (A) (A) (A) (A) (A) (A) (A) (A) (A)
                 (A) (A) (A) (A) (A) (A) (A) (A) (A) (A) (A) (A)
                 (A) (A) (A) (A) (A) (A) (A) (A) (A) (A) (A) (A)
                 (A) (A) (A) (A) (A) (A) (A) (A) (A) (A) (A) (A)
                 (A) (A) (A) (A) (A) (A) (A) (A) (A) (A) (A) (A)
                 (A) (A) (A) (A) (A) (A) (A) (A) (A) (A) (A) (A)
                 (A) (A) (A) (A) (A) (A) (A) (A) (A) (A) (A) (A)
                 (A) (A) (A) (A) (A) (A) (A) (A) (A) (A) (A) (A)
                 (A) (A) (A) (A) (A) (A) (A) (A) (A) (A) (A) (A)
                 (A) (A) (A) (A) (A) (A) (A) (A) (A) (A) (A) (A)
                 (A) (A) (A) (A) (A) (A) (A) (A) (A) (A) (A) (A)
                 (A) (A) (A) (A) (A) (A) (A) (A) (A) (A) (A) (A)
                 (A) (A) (A) (A) (A) (A) (A) (A) (A) (A) (A) (A)
                 (A) (A) (A) (A) (A) (A) (A) (A) (A) (A) (A) (A)
                 (A) (A) (A) (A) (A) (A) (A) (A) (A) (A) (A) (A)
                 (A) (A) (A) (A) (A) (A) (A) (A) (A) (A) (A) (A)
                 (A) (A) (A) (A) (A) (A) (A) (A) (A) (A) (A) (A)
                 (A) (A) (A) (A) (A) (A) (A) (A) (A) (A) (A) (A)
                 (A) (A) (A) (A) (A) (A) (A) (A) (A) (A) (A) (A)
                 (A) (A) (A) (A) (A) (A) (A) (A) (A) (A) (A) (A)
                 (A) (A) (A) (A) (A) (A) (A) (A) (A) (A) (A) (A)
                 (A) (A) (A) (A) (A) (A) (A) (A) (A) (A) (A) (A)
                 (A) (A) (A) (A) (A) (A) (A) (A) (A) (A) (A) (A)
                 (A) (A) (A) (A) (A) (A) (A) (A) (A) (A) (A) (A)
                 (A) (A) (A) (A) (A) (A) (A) (A) (A) (A) (A) (A)
                 (A) (A) (A) (A) (A) (A) (A) (A) (A) (A) (A) (A)
                 (A) (A) (A) (A) (A) (A) (A) (A) (A) (A) (A) (A)
                 (A) (A) (A) (A) (A) (A) (A) (A) (A) (A) (A) (A)
                 (A) (A) (A) (A) (A) (A) (A) (A) (A) (A) (A) (A)
                 (A) (A) (A) (A) (A) (A) (A) (A) (A) (A) (A) (A)
                 (A) (A) (A) (A) (A) (A) (A) (A) (A) (A) (A) (A)
                 (A) (A) (A) (A) (A) (A) (A) (A) (A) (A) (A) (A)
                 (A) (A) (A) (A) (A) (A) (A) (A) (A) (A) (A) (A)
                 (A) (A) (A) (A) (A) (A) (A) (A) (A) (A) (A) (A)
                 (A) (A) (A) (A) (A) (A) (A) (A) (A) (A) (A) (A)
                 (A) (A) (A) (A) (A) (A) (A) (A) (A) (A) (A) (A)
                 (A) (A) (A) (A) (A) (A) (A) (A) (A) (A) (A) (A)
                 (A) (A) (A) (A) (A) (A) (A) (A) (A) (A) (A) (A)
                 (A) (A) (A) (A) (A) (A) (A) (A) (A) (A) (A) (A)
                 (A) (A) (A) (A) (A) (A) (A) (A) (A) (A) (A) (A)
                 (A) (A) (A) (A) (A) (A) (A) (A) (A) (A) (A) (A)
                 (A) (A) (A) (A) (A) (A) (A) (A) (A) (A) (A) (A)
                 (A) (A) (A) (A) (A) (A) (A) (A) (A) (A) (A) (A)
                 (A) (A) (A) (A) (A) (A) (A) (A) (A) (A) (A) (A)
                 (A) (A) (A) (A) (A) (A) (A) (A) (A) (A) (A) (A)
                 (A) (A) (A) (A) (A) (A) (A) (A) (A) (A) (A) (A)
                 (A) (A) (A) (A) (A) (A) (A) (A) (A) (A) (A) (A)
                 (A) (A) (A) (A) (A) (A) (A) (A) (A) (A) (A) (A)
                 (A) (A) (A) (A) (A) (A) (A) (A) (A) (A) (A) (A)
                 (A) (A) (A) (A) (A) (A) (A) (A) (A) (A) (A) (A)
                 (A) (A) (A) (A) (A) (A) (A) (A) (A) (A) (A) (A)
                 (A) (A) (A) (A) (A) (A) (A) (A) (A) (A) (A) (A)
                 (A) (A) (A) (A) (A) (A) (A) (A) (A) (A) (A) (A)
                 (A) (A) (A) (A) (A) (A) (A) (A) (A) (A) (A) (A)
                 (A) (A) (A) (A) (A) (A) (A) (A) (A) (A)
 The electronic state is 1-A.
 Alpha  occ. eigenvalues --  -46.80158 -19.21940 -19.21673 -19.18703 -19.17989
 Alpha  occ. eigenvalues --  -19.17972 -19.17614 -19.16684 -14.39549 -14.37216
 Alpha  occ. eigenvalues --  -14.37003 -14.36405 -10.36049 -10.35013 -10.31846
 Alpha  occ. eigenvalues --  -10.31209 -10.30848 -10.28040 -10.27754 -10.27693
 Alpha  occ. eigenvalues --  -10.26899 -10.26682 -10.26641 -10.26554 -10.26505
 Alpha  occ. eigenvalues --  -10.26373 -10.26118 -10.26019 -10.25629 -10.24985
 Alpha  occ. eigenvalues --  -10.24853 -10.24710 -10.24651 -10.24430 -10.24088
 Alpha  occ. eigenvalues --  -10.23888 -10.23836 -10.23459 -10.23457 -10.23423
 Alpha  occ. eigenvalues --  -10.23164 -10.23072 -10.22826 -10.22789 -10.22746
 Alpha  occ. eigenvalues --  -10.22663 -10.22446 -10.22396 -10.22337 -10.21954
 Alpha  occ. eigenvalues --  -10.21953 -10.21915 -10.21728 -10.21640 -10.21634
 Alpha  occ. eigenvalues --  -10.21417 -10.21193 -10.21016 -10.20807 -10.20788
 Alpha  occ. eigenvalues --  -10.20441 -10.20326 -10.19983 -10.19935 -10.19814
 Alpha  occ. eigenvalues --  -10.19125  -3.08978  -1.83900  -1.83453  -1.83407
 Alpha  occ. eigenvalues --   -1.16155  -1.11108  -1.09919  -1.08139  -1.08041
 Alpha  occ. eigenvalues --   -1.03816  -1.01378  -0.99684  -0.98735  -0.98199
 Alpha  occ. eigenvalues --   -0.97129  -0.90227  -0.87283  -0.86762  -0.86364
 Alpha  occ. eigenvalues --   -0.85784  -0.85426  -0.84690  -0.83680  -0.83496
 Alpha  occ. eigenvalues --   -0.82964  -0.82071  -0.81801  -0.80532  -0.80297
 Alpha  occ. eigenvalues --   -0.79496  -0.79013  -0.78061  -0.77635  -0.76673
 Alpha  occ. eigenvalues --   -0.75633  -0.75050  -0.74355  -0.73279  -0.72369
 Alpha  occ. eigenvalues --   -0.71406  -0.71264  -0.70160  -0.69993  -0.69781
 Alpha  occ. eigenvalues --   -0.69502  -0.69326  -0.68054  -0.67327  -0.66574
 Alpha  occ. eigenvalues --   -0.66234  -0.65327  -0.64298  -0.63369  -0.62787
 Alpha  occ. eigenvalues --   -0.61269  -0.60863  -0.60440  -0.59403  -0.59261
 Alpha  occ. eigenvalues --   -0.59145  -0.58886  -0.57854  -0.57131  -0.56987
 Alpha  occ. eigenvalues --   -0.56077  -0.55613  -0.55358  -0.55054  -0.54615
 Alpha  occ. eigenvalues --   -0.54424  -0.53677  -0.53548  -0.52817  -0.52499
 Alpha  occ. eigenvalues --   -0.51955  -0.51755  -0.51363  -0.50738  -0.50597
 Alpha  occ. eigenvalues --   -0.50403  -0.50299  -0.49938  -0.49609  -0.49295
 Alpha  occ. eigenvalues --   -0.49120  -0.48970  -0.48783  -0.48630  -0.48243
 Alpha  occ. eigenvalues --   -0.48089  -0.47933  -0.47702  -0.47610  -0.47383
 Alpha  occ. eigenvalues --   -0.46868  -0.46770  -0.46709  -0.46505  -0.46242
 Alpha  occ. eigenvalues --   -0.45819  -0.45703  -0.45661  -0.45312  -0.45160
 Alpha  occ. eigenvalues --   -0.44968  -0.44702  -0.44483  -0.44470  -0.44356
 Alpha  occ. eigenvalues --   -0.44089  -0.43847  -0.43578  -0.43499  -0.43223
 Alpha  occ. eigenvalues --   -0.43080  -0.42971  -0.42835  -0.42684  -0.42548
 Alpha  occ. eigenvalues --   -0.42030  -0.41582  -0.41527  -0.41384  -0.40915
 Alpha  occ. eigenvalues --   -0.40667  -0.40505  -0.40199  -0.40143  -0.39899
 Alpha  occ. eigenvalues --   -0.39788  -0.39509  -0.39382  -0.39251  -0.38717
 Alpha  occ. eigenvalues --   -0.38693  -0.38632  -0.38420  -0.38234  -0.37989
 Alpha  occ. eigenvalues --   -0.37804  -0.37499  -0.37428  -0.36962  -0.36784
 Alpha  occ. eigenvalues --   -0.36748  -0.36641  -0.36341  -0.35643  -0.35370
 Alpha  occ. eigenvalues --   -0.35291  -0.35218  -0.35113  -0.34756  -0.34514
 Alpha  occ. eigenvalues --   -0.34360  -0.34231  -0.33720  -0.32964  -0.32897
 Alpha  occ. eigenvalues --   -0.32851  -0.32452  -0.32154  -0.32005  -0.31922
 Alpha  occ. eigenvalues --   -0.31538  -0.30756  -0.30631  -0.30320  -0.30204
 Alpha  occ. eigenvalues --   -0.28788  -0.28617  -0.28549  -0.28343  -0.27645
 Alpha  occ. eigenvalues --   -0.27268  -0.26713  -0.23138  -0.22116
 Alpha virt. eigenvalues --   -0.09545  -0.06677  -0.02179  -0.01416   0.00220
 Alpha virt. eigenvalues --    0.01675   0.03562   0.03952   0.04149   0.04584
 Alpha virt. eigenvalues --    0.04635   0.05521   0.07337   0.08513   0.09300
 Alpha virt. eigenvalues --    0.09609   0.09990   0.10154   0.10621   0.10849
 Alpha virt. eigenvalues --    0.10982   0.11385   0.11617   0.11769   0.11946
 Alpha virt. eigenvalues --    0.12271   0.12391   0.12752   0.13120   0.13231
 Alpha virt. eigenvalues --    0.13440   0.13748   0.13782   0.13863   0.14073
 Alpha virt. eigenvalues --    0.14176   0.14398   0.14541   0.14613   0.14689
 Alpha virt. eigenvalues --    0.14940   0.15338   0.15432   0.15477   0.15506
 Alpha virt. eigenvalues --    0.15612   0.15849   0.16162   0.16388   0.16506
 Alpha virt. eigenvalues --    0.16934   0.16999   0.17100   0.17214   0.17539
 Alpha virt. eigenvalues --    0.17768   0.17854   0.18039   0.18293   0.18423
 Alpha virt. eigenvalues --    0.18523   0.18735   0.18955   0.19106   0.19197
 Alpha virt. eigenvalues --    0.19300   0.19650   0.20168   0.20305   0.20471
 Alpha virt. eigenvalues --    0.20785   0.20918   0.21052   0.21263   0.21280
 Alpha virt. eigenvalues --    0.21489   0.21749   0.21815   0.21948   0.21970
 Alpha virt. eigenvalues --    0.22190   0.22370   0.22532   0.22950   0.23037
 Alpha virt. eigenvalues --    0.23479   0.23574   0.23735   0.24087   0.24217
 Alpha virt. eigenvalues --    0.24306   0.24510   0.24545   0.24872   0.25236
 Alpha virt. eigenvalues --    0.25481   0.25531   0.25696   0.25764   0.25809
 Alpha virt. eigenvalues --    0.26095   0.26196   0.26428   0.26621   0.26831
 Alpha virt. eigenvalues --    0.27045   0.27341   0.27445   0.27776   0.27813
 Alpha virt. eigenvalues --    0.28151   0.28364   0.28672   0.28793   0.29128
 Alpha virt. eigenvalues --    0.29364   0.29477   0.29712   0.30186   0.30830
 Alpha virt. eigenvalues --    0.31160   0.31325   0.31392   0.31962   0.32216
 Alpha virt. eigenvalues --    0.32705   0.32996   0.33514   0.34237   0.34389
 Alpha virt. eigenvalues --    0.34662   0.34810   0.35002   0.35277   0.35656
 Alpha virt. eigenvalues --    0.36481   0.36722   0.37600   0.38013   0.38334
 Alpha virt. eigenvalues --    0.39100   0.39788   0.40020   0.40106   0.40371
 Alpha virt. eigenvalues --    0.41163   0.42077   0.42321   0.43664   0.43678
 Alpha virt. eigenvalues --    0.44425   0.45259   0.45373   0.45833   0.46342
 Alpha virt. eigenvalues --    0.46761   0.47736   0.48034   0.48892   0.49168
 Alpha virt. eigenvalues --    0.49468   0.49864   0.50421   0.50961   0.51285
 Alpha virt. eigenvalues --    0.51370   0.51872   0.52283   0.52538   0.52775
 Alpha virt. eigenvalues --    0.52809   0.53068   0.53182   0.53271   0.53845
 Alpha virt. eigenvalues --    0.54207   0.54322   0.54542   0.54908   0.55043
 Alpha virt. eigenvalues --    0.55526   0.55617   0.55743   0.55909   0.56016
 Alpha virt. eigenvalues --    0.56183   0.56582   0.56703   0.56789   0.56950
 Alpha virt. eigenvalues --    0.57066   0.57477   0.57564   0.58128   0.58191
 Alpha virt. eigenvalues --    0.58570   0.58829   0.59060   0.59316   0.59661
 Alpha virt. eigenvalues --    0.59777   0.60047   0.60345   0.60967   0.61189
 Alpha virt. eigenvalues --    0.61547   0.61728   0.61957   0.62098   0.62251
 Alpha virt. eigenvalues --    0.62638   0.62892   0.63234   0.63499   0.63636
 Alpha virt. eigenvalues --    0.63708   0.63974   0.64023   0.64091   0.64483
 Alpha virt. eigenvalues --    0.64781   0.65401   0.65486   0.65607   0.65952
 Alpha virt. eigenvalues --    0.66412   0.66549   0.66715   0.67144   0.67224
 Alpha virt. eigenvalues --    0.67449   0.67669   0.67848   0.68251   0.68498
 Alpha virt. eigenvalues --    0.68634   0.68924   0.69614   0.69741   0.69965
 Alpha virt. eigenvalues --    0.70359   0.70714   0.70862   0.71134   0.71420
 Alpha virt. eigenvalues --    0.71518   0.71751   0.72104   0.72622   0.72797
 Alpha virt. eigenvalues --    0.73154   0.73448   0.73562   0.73667   0.73913
 Alpha virt. eigenvalues --    0.74008   0.74407   0.74776   0.75214   0.75664
 Alpha virt. eigenvalues --    0.76050   0.76183   0.76399   0.76589   0.76714
 Alpha virt. eigenvalues --    0.76902   0.77192   0.77323   0.77668   0.77841
 Alpha virt. eigenvalues --    0.78222   0.78340   0.78582   0.78948   0.79266
 Alpha virt. eigenvalues --    0.79606   0.79866   0.80031   0.80076   0.80322
 Alpha virt. eigenvalues --    0.80551   0.81042   0.81257   0.81348   0.81521
 Alpha virt. eigenvalues --    0.81926   0.81980   0.82168   0.82356   0.82710
 Alpha virt. eigenvalues --    0.82799   0.83175   0.83244   0.83376   0.83715
 Alpha virt. eigenvalues --    0.83810   0.84103   0.84484   0.84594   0.84785
 Alpha virt. eigenvalues --    0.84946   0.85188   0.85422   0.85707   0.85971
 Alpha virt. eigenvalues --    0.86050   0.86255   0.86324   0.86614   0.86801
 Alpha virt. eigenvalues --    0.86939   0.87182   0.87262   0.87586   0.87732
 Alpha virt. eigenvalues --    0.87990   0.88088   0.88579   0.88777   0.89079
 Alpha virt. eigenvalues --    0.89390   0.89519   0.89701   0.89928   0.90070
 Alpha virt. eigenvalues --    0.90127   0.90454   0.90514   0.90859   0.91027
 Alpha virt. eigenvalues --    0.91390   0.91467   0.91748   0.91816   0.91982
 Alpha virt. eigenvalues --    0.92381   0.92908   0.93078   0.93361   0.93640
 Alpha virt. eigenvalues --    0.93856   0.94028   0.94110   0.94379   0.94792
 Alpha virt. eigenvalues --    0.94894   0.95135   0.95351   0.95734   0.95789
 Alpha virt. eigenvalues --    0.95903   0.96128   0.96194   0.96385   0.96906
 Alpha virt. eigenvalues --    0.96970   0.97136   0.97261   0.97656   0.97769
 Alpha virt. eigenvalues --    0.98005   0.98161   0.98403   0.98812   0.98948
 Alpha virt. eigenvalues --    0.99083   0.99207   0.99458   0.99721   1.00292
 Alpha virt. eigenvalues --    1.00427   1.00557   1.00960   1.01243   1.01456
 Alpha virt. eigenvalues --    1.01543   1.01637   1.01794   1.01929   1.02310
 Alpha virt. eigenvalues --    1.02770   1.02963   1.03172   1.03430   1.03817
 Alpha virt. eigenvalues --    1.03967   1.04406   1.04877   1.05339   1.05573
 Alpha virt. eigenvalues --    1.05936   1.06098   1.06963   1.07067   1.07437
 Alpha virt. eigenvalues --    1.07699   1.08211   1.08620   1.08647   1.08834
 Alpha virt. eigenvalues --    1.09424   1.09551   1.10090   1.10398   1.11304
 Alpha virt. eigenvalues --    1.11373   1.12077   1.12582   1.12832   1.13211
 Alpha virt. eigenvalues --    1.13438   1.14557   1.14586   1.14915   1.15378
 Alpha virt. eigenvalues --    1.16192   1.17145   1.17984   1.18475   1.19016
 Alpha virt. eigenvalues --    1.19556   1.19965   1.20677   1.21175   1.21477
 Alpha virt. eigenvalues --    1.21652   1.22153   1.22621   1.23005   1.23767
 Alpha virt. eigenvalues --    1.24321   1.24580   1.24967   1.25499   1.25675
 Alpha virt. eigenvalues --    1.26407   1.26805   1.27516   1.27656   1.27973
 Alpha virt. eigenvalues --    1.28255   1.28731   1.30033   1.30377   1.31111
 Alpha virt. eigenvalues --    1.31255   1.31784   1.32452   1.32785   1.33429
 Alpha virt. eigenvalues --    1.33524   1.34223   1.34511   1.34947   1.35374
 Alpha virt. eigenvalues --    1.35798   1.36495   1.36646   1.37300   1.37559
 Alpha virt. eigenvalues --    1.38057   1.38258   1.39020   1.39705   1.40145
 Alpha virt. eigenvalues --    1.40791   1.41055   1.42002   1.42184   1.42733
 Alpha virt. eigenvalues --    1.42805   1.43114   1.43661   1.44277   1.44690
 Alpha virt. eigenvalues --    1.45222   1.46312   1.46538   1.46890   1.47227
 Alpha virt. eigenvalues --    1.47495   1.47650   1.48143   1.48973   1.49633
 Alpha virt. eigenvalues --    1.49922   1.50326   1.50808   1.51463   1.51635
 Alpha virt. eigenvalues --    1.51824   1.52161   1.52684   1.52818   1.53260
 Alpha virt. eigenvalues --    1.53820   1.54528   1.55020   1.55238   1.55746
 Alpha virt. eigenvalues --    1.56474   1.56956   1.57423   1.57700   1.58066
 Alpha virt. eigenvalues --    1.58554   1.58839   1.59546   1.60234   1.60441
 Alpha virt. eigenvalues --    1.60953   1.61285   1.61563   1.61811   1.61904
 Alpha virt. eigenvalues --    1.62074   1.63026   1.63517   1.63750   1.64484
 Alpha virt. eigenvalues --    1.65842   1.66079   1.66457   1.66763   1.67065
 Alpha virt. eigenvalues --    1.67525   1.67909   1.68269   1.69009   1.69377
 Alpha virt. eigenvalues --    1.69921   1.70191   1.70527   1.70643   1.70919
 Alpha virt. eigenvalues --    1.71302   1.71496   1.71877   1.72453   1.72653
 Alpha virt. eigenvalues --    1.72976   1.73125   1.73926   1.74217   1.74328
 Alpha virt. eigenvalues --    1.74355   1.74783   1.75225   1.75616   1.75731
 Alpha virt. eigenvalues --    1.75915   1.76256   1.77080   1.77190   1.78104
 Alpha virt. eigenvalues --    1.78284   1.78443   1.79146   1.79190   1.79317
 Alpha virt. eigenvalues --    1.79924   1.80411   1.80610   1.80668   1.80860
 Alpha virt. eigenvalues --    1.81023   1.81386   1.82267   1.82588   1.82721
 Alpha virt. eigenvalues --    1.82881   1.83184   1.83448   1.83902   1.84108
 Alpha virt. eigenvalues --    1.84253   1.84436   1.85021   1.85160   1.85351
 Alpha virt. eigenvalues --    1.85740   1.85880   1.86113   1.86517   1.86738
 Alpha virt. eigenvalues --    1.87367   1.87739   1.87874   1.88194   1.88322
 Alpha virt. eigenvalues --    1.88467   1.88885   1.89419   1.89538   1.89795
 Alpha virt. eigenvalues --    1.89879   1.90291   1.90549   1.90713   1.90881
 Alpha virt. eigenvalues --    1.91156   1.91381   1.91787   1.91877   1.92038
 Alpha virt. eigenvalues --    1.92257   1.92348   1.92493   1.93357   1.93450
 Alpha virt. eigenvalues --    1.93493   1.93818   1.93945   1.94071   1.94555
 Alpha virt. eigenvalues --    1.94740   1.94914   1.95185   1.95330   1.95552
 Alpha virt. eigenvalues --    1.95853   1.96408   1.96702   1.97166   1.97284
 Alpha virt. eigenvalues --    1.97622   1.97829   1.98412   1.98871   1.98938
 Alpha virt. eigenvalues --    1.98947   1.99411   1.99706   1.99801   2.00094
 Alpha virt. eigenvalues --    2.00388   2.00731   2.00936   2.01079   2.01678
 Alpha virt. eigenvalues --    2.02099   2.02389   2.02927   2.03104   2.03436
 Alpha virt. eigenvalues --    2.03799   2.04061   2.04396   2.04817   2.05065
 Alpha virt. eigenvalues --    2.05353   2.05727   2.05960   2.06135   2.06487
 Alpha virt. eigenvalues --    2.06571   2.07127   2.07633   2.07790   2.08018
 Alpha virt. eigenvalues --    2.08371   2.08732   2.09099   2.09359   2.09391
 Alpha virt. eigenvalues --    2.09847   2.10230   2.10315   2.10890   2.11791
 Alpha virt. eigenvalues --    2.12103   2.12342   2.12633   2.13077   2.13521
 Alpha virt. eigenvalues --    2.13642   2.13991   2.14391   2.14468   2.15204
 Alpha virt. eigenvalues --    2.15301   2.15780   2.15815   2.16290   2.16537
 Alpha virt. eigenvalues --    2.16695   2.16872   2.17215   2.17649   2.18094
 Alpha virt. eigenvalues --    2.18162   2.18744   2.18910   2.19194   2.19418
 Alpha virt. eigenvalues --    2.19493   2.20169   2.20479   2.20673   2.21132
 Alpha virt. eigenvalues --    2.21349   2.21587   2.22209   2.22269   2.22445
 Alpha virt. eigenvalues --    2.22748   2.23660   2.24271   2.24571   2.24722
 Alpha virt. eigenvalues --    2.25192   2.25525   2.25860   2.26586   2.26781
 Alpha virt. eigenvalues --    2.26956   2.27009   2.27641   2.27818   2.28141
 Alpha virt. eigenvalues --    2.28341   2.28833   2.29020   2.29376   2.29746
 Alpha virt. eigenvalues --    2.29849   2.29936   2.30125   2.30916   2.31355
 Alpha virt. eigenvalues --    2.31463   2.31633   2.31833   2.32185   2.32515
 Alpha virt. eigenvalues --    2.32904   2.33133   2.33285   2.33512   2.33900
 Alpha virt. eigenvalues --    2.33953   2.34350   2.34459   2.34567   2.34924
 Alpha virt. eigenvalues --    2.35756   2.36083   2.36246   2.36533   2.36728
 Alpha virt. eigenvalues --    2.36853   2.37563   2.37987   2.38139   2.38541
 Alpha virt. eigenvalues --    2.38714   2.38837   2.39025   2.39502   2.40068
 Alpha virt. eigenvalues --    2.40390   2.40772   2.40889   2.41439   2.41839
 Alpha virt. eigenvalues --    2.42717   2.43117   2.43312   2.44204   2.44312
 Alpha virt. eigenvalues --    2.44805   2.45171   2.45321   2.45506   2.45625
 Alpha virt. eigenvalues --    2.45827   2.46302   2.46517   2.47104   2.47718
 Alpha virt. eigenvalues --    2.48228   2.48409   2.49352   2.49743   2.49792
 Alpha virt. eigenvalues --    2.50230   2.50615   2.50867   2.50984   2.51407
 Alpha virt. eigenvalues --    2.51787   2.52290   2.52563   2.52772   2.53323
 Alpha virt. eigenvalues --    2.53489   2.53774   2.54114   2.54245   2.54501
 Alpha virt. eigenvalues --    2.55015   2.55372   2.56088   2.56617   2.56955
 Alpha virt. eigenvalues --    2.57262   2.57489   2.57786   2.58175   2.58687
 Alpha virt. eigenvalues --    2.59195   2.59452   2.59724   2.60275   2.60559
 Alpha virt. eigenvalues --    2.61203   2.61323   2.61531   2.62396   2.62820
 Alpha virt. eigenvalues --    2.63136   2.63318   2.63874   2.64133   2.64406
 Alpha virt. eigenvalues --    2.65009   2.65296   2.65675   2.65751   2.66133
 Alpha virt. eigenvalues --    2.66221   2.67093   2.67293   2.67653   2.67728
 Alpha virt. eigenvalues --    2.68036   2.68326   2.68385   2.68928   2.69193
 Alpha virt. eigenvalues --    2.69511   2.69670   2.70033   2.70333   2.71072
 Alpha virt. eigenvalues --    2.71307   2.71433   2.72094   2.72178   2.72459
 Alpha virt. eigenvalues --    2.72728   2.73010   2.73025   2.73453   2.73657
 Alpha virt. eigenvalues --    2.73909   2.73919   2.74303   2.74512   2.74714
 Alpha virt. eigenvalues --    2.75360   2.75526   2.76437   2.76526   2.77100
 Alpha virt. eigenvalues --    2.77394   2.77827   2.78942   2.79045   2.79664
 Alpha virt. eigenvalues --    2.80224   2.80261   2.80519   2.80566   2.81074
 Alpha virt. eigenvalues --    2.81442   2.82317   2.82931   2.83097   2.83538
 Alpha virt. eigenvalues --    2.83752   2.84078   2.84392   2.84545   2.85248
 Alpha virt. eigenvalues --    2.85562   2.85807   2.85986   2.86065   2.86171
 Alpha virt. eigenvalues --    2.86693   2.86850   2.87074   2.87217   2.88481
 Alpha virt. eigenvalues --    2.88652   2.89032   2.89373   2.89547   2.89819
 Alpha virt. eigenvalues --    2.90148   2.90547   2.90749   2.91554   2.91754
 Alpha virt. eigenvalues --    2.91979   2.92548   2.92726   2.93228   2.93366
 Alpha virt. eigenvalues --    2.93599   2.94992   2.95114   2.95233   2.95781
 Alpha virt. eigenvalues --    2.96898   2.96999   2.97252   2.97320   2.98511
 Alpha virt. eigenvalues --    2.99059   2.99976   3.00109   3.00278   3.00522
 Alpha virt. eigenvalues --    3.00776   3.01398   3.01930   3.02416   3.02772
 Alpha virt. eigenvalues --    3.03745   3.04578   3.04767   3.05267   3.05372
 Alpha virt. eigenvalues --    3.05524   3.07228   3.07622   3.07845   3.08913
 Alpha virt. eigenvalues --    3.09150   3.09532   3.09677   3.11177   3.11303
 Alpha virt. eigenvalues --    3.11870   3.13416   3.13478   3.14122   3.14715
 Alpha virt. eigenvalues --    3.15283   3.15852   3.17346   3.17908   3.18388
 Alpha virt. eigenvalues --    3.20195   3.20853   3.21750   3.22642   3.23767
 Alpha virt. eigenvalues --    3.24720   3.24771   3.26570   3.26606   3.26856
 Alpha virt. eigenvalues --    3.27066   3.27560   3.27834   3.29726   3.30177
 Alpha virt. eigenvalues --    3.31877   3.33421   3.34067   3.34439   3.34485
 Alpha virt. eigenvalues --    3.34779   3.35869   3.37586   3.37858   3.39315
 Alpha virt. eigenvalues --    3.39520   3.39731   3.39869   3.39904   3.40047
 Alpha virt. eigenvalues --    3.41276   3.41632   3.41690   3.42206   3.42659
 Alpha virt. eigenvalues --    3.44101   3.45156   3.45658   3.46626   3.47332
 Alpha virt. eigenvalues --    3.48076   3.48686   3.49744   3.50178   3.50644
 Alpha virt. eigenvalues --    3.51150   3.51483   3.53399   3.54354   3.54569
 Alpha virt. eigenvalues --    3.55371   3.56116   3.56592   3.58386   3.58693
 Alpha virt. eigenvalues --    3.59027   3.59509   3.61865   3.62478   3.63185
 Alpha virt. eigenvalues --    3.63639   3.64155   3.64396   3.65307   3.69012
 Alpha virt. eigenvalues --    3.70361   3.71581   3.83376   3.87339   3.88940
 Alpha virt. eigenvalues --    3.94343   3.98576   4.03139   4.04605   4.11911
 Alpha virt. eigenvalues --    4.13348   4.15557   4.16159   4.19657   4.20264
 Alpha virt. eigenvalues --    4.21230   4.23139   4.23724   4.25112   4.26105
 Alpha virt. eigenvalues --    4.27807   4.28730   4.30201   4.31620   4.31946
 Alpha virt. eigenvalues --    4.32839   4.34621   4.34914   4.36244   4.36842
 Alpha virt. eigenvalues --    4.38466   4.39703   4.39827   4.42869   4.43486
 Alpha virt. eigenvalues --    4.45337   4.46449   4.46622   4.47824   4.48613
 Alpha virt. eigenvalues --    4.49558   4.51430   4.52658   4.52854   4.53452
 Alpha virt. eigenvalues --    4.55685   4.57078   4.58121   4.58330   4.58506
 Alpha virt. eigenvalues --    4.58708   4.63169   4.64305   4.64494   4.65714
 Alpha virt. eigenvalues --    4.66144   4.70124   4.70191   4.71165   4.72790
 Alpha virt. eigenvalues --    4.76471   4.76834   4.80371   4.81150   4.81504
 Alpha virt. eigenvalues --    4.82838   4.83686   4.84595   4.87718   5.01410
          Condensed to atoms (all electrons):
 Mulliken charges:
               1
     1  Mg   0.815009
     2  C    0.085660
     3  C   -0.209866
     4  C   -0.192544
     5  C   -0.160671
     6  N   -0.621012
     7  C    0.287483
     8  C   -0.163396
     9  C   -0.143725
    10  C    0.330919
    11  C   -0.303413
    12  C   -0.148653
    13  C   -0.270687
    14  C    0.610391
    15  O   -0.444813
    16  O   -0.517311
    17  N   -0.742650
    18  C    0.354548
    19  C   -0.009073
    20  C    0.004257
    21  C    0.338686
    22  C   -0.381760
    23  C    0.205056
    24  O   -0.447653
    25  N   -0.693028
    26  C    0.335453
    27  C   -0.057269
    28  C    0.057556
    29  C    0.276890
    30  C    0.256594
    31  C   -0.274771
    32  C   -0.313394
    33  N   -0.711050
    34  C    0.309239
    35  C    0.002103
    36  C    0.017972
    37  C    0.265617
    38  C   -0.397037
    39  C    0.356747
    40  O   -0.419659
    41  C   -0.333288
    42  C    0.598212
    43  O   -0.428244
    44  O   -0.415577
    45  C   -0.076556
    46  C   -0.009639
    47  C   -0.125894
    48  C    0.158760
    49  C   -0.355503
    50  C   -0.232185
    51  C   -0.188944
    52  C   -0.160233
    53  C   -0.038116
    54  C   -0.306247
    55  C   -0.177387
    56  C   -0.171761
    57  C   -0.156786
    58  C   -0.089159
    59  C   -0.290753
    60  C   -0.171419
    61  C   -0.182454
    62  C   -0.165954
    63  C   -0.054023
    64  C   -0.298942
    65  C   -0.268724
    66  H    0.087913
    67  H    0.131700
    68  H    0.100962
    69  H    0.119600
    70  H    0.094873
    71  H    0.118400
    72  H    0.111483
    73  H    0.138672
    74  H    0.098112
    75  H    0.132465
    76  H    0.144925
    77  H    0.129565
    78  H    0.135466
    79  H    0.160467
    80  H    0.127983
    81  H    0.085497
    82  H    0.123570
    83  H    0.112834
    84  H    0.106491
    85  H    0.112601
    86  H    0.131320
    87  H    0.118425
    88  H    0.138151
    89  H    0.143700
    90  H    0.165369
    91  H    0.122513
    92  H    0.124429
    93  H    0.076081
    94  H    0.154753
    95  H    0.098198
    96  H    0.117934
    97  H    0.084851
    98  H    0.103824
    99  H    0.051362
   100  H    0.100133
   101  H    0.106413
   102  H    0.073994
   103  H    0.081513
   104  H    0.085002
   105  H    0.109888
   106  H    0.084350
   107  H    0.060390
   108  H    0.097817
   109  H    0.085688
   110  H    0.099558
   111  H    0.085927
   112  H    0.098470
   113  H    0.065354
   114  H    0.104933
   115  H    0.103625
   116  H    0.069486
   117  H    0.080935
   118  H    0.081181
   119  H    0.089172
   120  H    0.103165
   121  H    0.082880
   122  H    0.086424
   123  H    0.086534
   124  H    0.097786
   125  H    0.107171
   126  H    0.095651
   127  H    0.075296
   128  H    0.110975
   129  H    0.062150
   130  H    0.096143
   131  H    0.124793
   132  H    0.084198
   133  O   -0.401708
   134  H    0.074294
 Sum of Mulliken charges =   0.00000
 Mulliken charges with hydrogens summed into heavy atoms:
               1
     1  Mg   0.815009
     2  C    0.085660
     3  C   -0.121954
     4  C   -0.060844
     5  C   -0.059709
     6  N   -0.621012
     7  C    0.287483
     8  C   -0.043797
     9  C   -0.048852
    10  C    0.330919
    11  C    0.065143
    12  C    0.081925
    13  C    0.003804
    14  C    0.610391
    15  O   -0.444813
    16  O   -0.517311
    17  N   -0.742650
    18  C    0.354548
    19  C   -0.009073
    20  C    0.004257
    21  C    0.338686
    22  C    0.042156
    23  C    0.290553
    24  O   -0.447653
    25  N   -0.693028
    26  C    0.335453
    27  C   -0.057269
    28  C    0.057556
    29  C    0.276890
    30  C    0.330888
    31  C   -0.038367
    32  C    0.037017
    33  N   -0.711050
    34  C    0.309239
    35  C    0.002103
    36  C    0.017972
    37  C    0.265617
    38  C    0.003239
    39  C    0.356747
    40  O   -0.419659
    41  C   -0.167919
    42  C    0.598212
    43  O   -0.428244
    44  O   -0.415577
    45  C    0.228578
    46  C    0.237303
    47  C   -0.049813
    48  C    0.158760
    49  C    0.015382
    50  C   -0.043510
    51  C   -0.037449
    52  C    0.020174
    53  C    0.043397
    54  C   -0.027007
    55  C   -0.019180
    56  C    0.013485
    57  C    0.027611
    58  C   -0.023806
    59  C   -0.012710
    60  C   -0.009303
    61  C    0.009883
    62  C    0.003351
    63  C    0.032511
    64  C    0.001666
    65  C   -0.020303
   133  O   -0.401708
 Electronic spatial extent (au):  <R**2>=         146980.4265
 Charge=              0.0000 electrons
 Dipole moment (field-independent basis, Debye):
    X=              0.8475    Y=             -4.0814    Z=             -2.9217  Tot=              5.0905
 Quadrupole moment (field-independent basis, Debye-Ang):
   XX=           -360.7696   YY=           -444.1453   ZZ=           -395.1936
   XY=             -2.3989   XZ=             24.6702   YZ=            -40.7014
 Traceless Quadrupole moment (field-independent basis, Debye-Ang):
   XX=             39.2666   YY=            -44.1091   ZZ=              4.8426
   XY=             -2.3989   XZ=             24.6702   YZ=            -40.7014
 Octapole moment (field-independent basis, Debye-Ang**2):
  XXX=           -381.5303  YYY=           -500.2428  ZZZ=            -20.0077  XYY=            193.0895
  XXY=            140.0336  XXZ=           -394.1837  XZZ=            -73.2586  YZZ=            -33.9560
  YYZ=           -144.5312  XYZ=            204.2828
 Hexadecapole moment (field-independent basis, Debye-Ang**3):
 XXXX=        -155978.2491 YYYY=         -32390.9167 ZZZZ=          -8878.8326 XXXY=           -645.5679
 XXXZ=           1091.8986 YYYX=           1421.1458 YYYZ=          -1663.0733 ZZZX=            435.7065
 ZZZY=           -435.4596 XXYY=         -33755.7329 XXZZ=         -27922.1073 YYZZ=          -7187.2180
 XXYZ=          -1923.8424 YYXZ=            673.4725 ZZXY=           -241.2411
 N-N= 9.123770170752D+03 E-N=-2.533209494552D+04  KE= 3.017013903228D+03

 Test job not archived.
 1\1\GINC-PEDRO-RYZENSSD\SP\RCAM-B3LYP TD-FC\6-31G(d,p)\C54H68Mg1N4O7\P
 ADAWAN\08-Oct-2019\0\\# td=(NStates=1) iop(3/107=0140000000,3/108=0140
 000000) iop(3/107=0140000000,3/108=0140000000) CAM-B3LYP/6-31G(d,p)\\T
 D\\0,1\Mg,0,-5.5842841596,1.2659566234,0.1393566045\C,0,-5.0437144932,
 -2.2554195067,-0.4267157367\C,0,-3.3610475647,1.0931818597,2.677129151
 1\C,0,-6.1498014024,4.5302710502,0.6711594771\C,0,-7.9519761156,1.2743
 46117,-2.4376078547\N,0,-4.3900960941,-0.2894148646,0.9810882758\C,0,-
 4.2496401844,-1.6602172031,0.5735210706\C,0,-3.2046118629,-2.442215420
 1,1.3346490535\C,0,-2.9458787433,-1.4915598257,2.572674054\C,0,-3.5570
 925093,-0.1085100036,2.0653971983\C,0,-3.4601981278,-1.775824275,3.961
 6640258\C,0,-1.9758224255,-2.7216761608,0.6221564017\C,0,-0.9787356365
 ,-3.5418192698,1.371501027\C,0,0.2743533027,-3.8854534174,0.6166398251
 \O,0,0.4927631302,-3.3434140302,-0.4327932947\O,0,1.0734090231,-4.8442
 095658,1.3071867072\N,0,-4.8567142224,2.5525954962,1.4377304596\C,0,-3
 .9224463318,2.3268507011,2.463131539\C,0,-3.6388744246,3.5021702995,3.
 1212110655\C,0,-4.4646322189,4.5774362091,2.523988283\C,0,-5.169366299
 ,3.905005177,1.4530904609\C,0,-2.6035089758,3.754712555,4.2558894594\C
 ,0,-4.5388665867,5.9932093551,2.8087563124\O,0,-3.8945219395,6.5466894
 991,3.8034043129\N,0,-6.8704386935,2.7113690694,-0.6472573934\C,0,-6.9
 054827461,4.0152719327,-0.3810563087\C,0,-7.8521703572,4.6587769345,-1
 .2770705162\C,0,-8.4539084236,3.698929023,-2.0315477072\C,0,-7.7747012
 816,2.4422824023,-1.7409278626\C,0,-8.304442723,6.1081621859,-1.192240
 3586\C,0,-9.3942159,3.8507360119,-3.1474572943\C,0,-8.6954485256,3.990
 8304461,-4.5156748142\N,0,-6.3459003573,-0.0458297632,-1.1243434547\C,
 0,-7.3614197487,0.0457036648,-2.0884947721\C,0,-7.5962527419,-1.239509
 1036,-2.714164441\C,0,-6.6822137051,-2.1639101643,-2.11380059\C,0,-6.0
 301509386,-1.4339274222,-1.0275506198\C,0,-8.6998353582,-1.5151613047,
 -3.6681877382\C,0,-6.2483584629,-3.5360027063,-2.0095063445\O,0,-6.664
 4396846,-4.444329403,-2.630463292\C,0,-5.1110413576,-3.5949612628,-0.8
 910957304\C,0,-5.3022573533,-4.6360188035,0.1945766087\O,0,-5.78414259
 69,-4.4768936228,1.2557826986\O,0,-5.0711070739,-5.954519336,-0.219156
 087\C,0,-5.2572590751,-6.9199355847,0.6352410589\C,0,2.3926859502,-5.1
 545717174,0.5661745988\C,0,3.4157548856,-4.1617376731,0.9924005259\C,0
 ,3.9172308268,-3.3020000209,0.2442868037\C,0,3.6312080181,-3.085161704
 6,-1.2901966885\C,0,4.9936735734,-2.3605903272,0.7538372346\C,0,6.5222
 578305,-2.7797729303,0.1732576517\C,0,7.6643755643,-1.8305947053,0.652
 5390885\C,0,8.9713357421,-2.1127172537,0.0398872755\C,0,9.6372708072,-
 3.3836782703,0.2748106061\C,0,10.0132167573,-0.9429049114,0.5107090343
 \C,0,11.2838215395,-0.866999495,-0.2268079914\C,0,12.1829659172,0.3297
 221627,0.2402148097\C,0,13.4485542495,0.4865183387,-0.578037561\C,0,14
 .5328514581,-0.7007008001,-0.3663233175\C,0,14.1859085291,1.832508023,
 -0.2310007425\C,0,15.3812974106,2.2675686922,-1.0459717049\C,0,15.9877
 283925,3.670359546,-0.7124023332\C,0,17.2765620509,4.0217010856,-1.341
 8852363\C,0,17.1821171938,4.0027058333,-2.8607983998\C,0,17.8552689461
 ,5.31533966,-0.8626772247\H,0,-2.7610116071,1.1400708707,3.6210897202\
 H,0,-6.3764185248,5.6316493671,0.9138511478\H,0,-8.7812133204,1.270341
 2956,-3.1304684277\H,0,-3.7551425795,-3.3724603627,1.5815138935\H,0,-1
 .8071518012,-1.2765452627,2.6056727333\H,0,-3.1344127665,-2.6553321141
 ,4.3923791838\H,0,-3.4071173118,-0.8924113588,4.6090270386\H,0,-4.4030
 71983,-1.8576636844,3.8237856012\H,0,-2.3486520308,-3.4397470197,-0.15
 73334679\H,0,-1.5815588556,-1.8451631437,0.1275635977\H,0,-0.730737463
 8,-3.1906090332,2.3118857297\H,0,-1.2817076494,-4.604557292,1.60729976
 67\H,0,-1.7744360957,3.5102757143,3.7293953206\H,0,-2.6051681708,4.842
 0538445,4.5927949424\H,0,-2.8230122337,3.356098804,5.2175487317\H,0,-5
 .5707709364,6.3943774202,2.3462367395\H,0,-10.0976837509,3.1029774496,
 -3.4830594605\H,0,-10.03507099,4.6627938139,-2.9279257852\H,0,-9.59961
 57225,4.1021581158,-5.1330996206\H,0,-8.3248664526,5.0369756382,-4.592
 8889707\H,0,-8.0568059555,3.2400283167,-4.889213036\H,0,-8.4069372753,
 -0.9918524429,-4.7113711061\H,0,-8.6941390418,-2.6532023805,-3.7729366
 376\H,0,-9.7145847076,-1.5560722418,-3.2886231474\H,0,-4.2224640224,-3
 .9609119142,-1.4984447746\H,0,2.5612840722,-6.0666639595,1.0058789758\
 H,0,2.1490182284,-5.3511736438,-0.5585312882\H,0,3.6865446369,-4.32551
 26736,2.1990182659\H,0,2.636411093,-3.2954511,-1.3534579959\H,0,4.0433
 116692,-2.0134760482,-1.565194737\H,0,4.4758100884,-3.6931811744,-1.78
 32197793\H,0,4.8958634553,-1.3149570403,0.2325536465\H,0,5.1623885973,
 -2.3055948767,1.8068545718\H,0,6.5190211221,-4.0359978993,0.5013494566
 \H,0,6.5449433338,-2.8397861946,-0.8541150977\H,0,7.3798187835,-0.8517
 617305,0.578676621\H,0,7.6655454647,-2.0433325818,1.7925667291\H,0,8.6
 417400736,-2.0197900197,-0.9981580345\H,0,8.8938315486,-4.3075696169,0
 .1299205219\H,0,10.5492379532,-3.5605694116,-0.3554731292\H,0,10.03643
 03906,-3.5077765063,1.3824692099\H,0,9.3263036913,0.0373221426,0.55336
 45109\H,0,10.2041493735,-1.2521035297,1.5058615235\H,0,11.7034522763,-
 1.9291002317,-0.1130506129\H,0,11.1082667669,-0.6639180273,-1.22993383
 71\H,0,11.7120412222,1.3085639282,0.0041332029\H,0,12.2569664553,0.177
 5690402,1.2467338485\H,0,13.3000107434,0.6143861814,-1.7363198368\H,0,
 14.8460248297,-0.8078538027,0.702455343\H,0,14.1522956161,-1.596172796
 2,-0.8864949036\H,0,15.3088307396,-0.194382766,-1.2203344364\H,0,13.30
 78500306,2.4743757368,-0.4523851158\H,0,14.2877563878,1.7508114956,0.8
 927781051\H,0,16.1770264297,1.5300884703,-1.1420420192\H,0,15.11679647
 51,2.2382620776,-1.9666401949\H,0,15.1302444865,4.3382970374,-0.882049
 4849\H,0,15.8397136053,3.7745834177,0.3645489137\H,0,17.9890187187,3.1
 561991284,-1.1910234902\H,0,16.2069478316,4.4498122601,-3.2970739863\H
 ,0,18.1068730772,4.320318425,-3.0429317268\H,0,17.1541300983,2.9701819
 294,-3.2643069839\H,0,17.9030281768,5.3701076638,0.4042495907\H,0,18.6
 240800188,5.6198382103,-1.3186340045\H,0,17.0352360934,6.2352079309,-1
 .1196203141\H,0,-4.863824267,-7.8688779872,0.0380794919\H,0,-6.2374342
 347,-7.0355029317,0.9107109144\H,0,-4.5242746449,-7.0071105873,1.55117
 79862\O,0,-7.8522581211,6.8707871101,-0.3717906075\H,0,-8.9369270765,6
 .4975171674,-1.9934678143\\Version=ES64L-G09RevD.01\State=1-A\HF=-3043
 .4025864\RMSD=6.437e-09\PG=C01 [X(C54H68Mg1N4O7)]\\@


 AND ALL THIS SCIENCE I DON'T UNDERSTAND
 IT'S JUST MY JOB FIVE DAYS A WEEK

                           -- ELTON JOHN, "ROCKET MAN"
 Job cpu time:       0 days  6 hours 27 minutes 14.2 seconds.
 File lengths (MBytes):  RWF=   2102 Int=      0 D2E=      0 Chk=    163 Scr=      1
 Normal termination of Gaussian 09 at Tue Oct  8 07:57:15 2019.
