 Entering Gaussian System, Link 0=g16
 Input=Geometria-305-.com
 Output=Geometria-305-.log
 Initial command:
 /usr/local/g09/l1.exe "/home/padawan/israel-mol/chlorophyll-b/spectra/emi/Gau-6583.inp" -scrdir="/home/padawan/israel-mol/chlorophyll-b/spectra/emi/"
 Entering Link 1 = /usr/local/g09/l1.exe PID=      6585.
  
 Copyright (c) 1988,1990,1992,1993,1995,1998,2003,2009,2013,
            Gaussian, Inc.  All Rights Reserved.
  
 This is part of the Gaussian(R) 09 program.  It is based on
 the Gaussian(R) 03 system (copyright 2003, Gaussian, Inc.),
 the Gaussian(R) 98 system (copyright 1998, Gaussian, Inc.),
 the Gaussian(R) 94 system (copyright 1995, Gaussian, Inc.),
 the Gaussian 92(TM) system (copyright 1992, Gaussian, Inc.),
 the Gaussian 90(TM) system (copyright 1990, Gaussian, Inc.),
 the Gaussian 88(TM) system (copyright 1988, Gaussian, Inc.),
 the Gaussian 86(TM) system (copyright 1986, Carnegie Mellon
 University), and the Gaussian 82(TM) system (copyright 1983,
 Carnegie Mellon University). Gaussian is a federally registered
 trademark of Gaussian, Inc.
  
 This software contains proprietary and confidential information,
 including trade secrets, belonging to Gaussian, Inc.
  
 This software is provided under written license and may be
 used, copied, transmitted, or stored only in accord with that
 written license.
  
 The following legend is applicable only to US Government
 contracts under FAR:
  
                    RESTRICTED RIGHTS LEGEND
  
 Use, reproduction and disclosure by the US Government is
 subject to restrictions as set forth in subparagraphs (a)
 and (c) of the Commercial Computer Software - Restricted
 Rights clause in FAR 52.227-19.
  
 Gaussian, Inc.
 340 Quinnipiac St., Bldg. 40, Wallingford CT 06492
  
  
 ---------------------------------------------------------------
 Warning -- This program may not be used in any manner that
 competes with the business of Gaussian, Inc. or will provide
 assistance to any competitor of Gaussian, Inc.  The licensee
 of this program is prohibited from giving any competitor of
 Gaussian, Inc. access to this program.  By using this program,
 the user acknowledges that Gaussian, Inc. is engaged in the
 business of creating and licensing software in the field of
 computational chemistry and represents and warrants to the
 licensee that it is not a competitor of Gaussian, Inc. and that
 it will not use this program in any manner prohibited above.
 ---------------------------------------------------------------
  

 Cite this work as:
 Gaussian 09, Revision D.01,
 M. J. Frisch, G. W. Trucks, H. B. Schlegel, G. E. Scuseria, 
 M. A. Robb, J. R. Cheeseman, G. Scalmani, V. Barone, B. Mennucci, 
 G. A. Petersson, H. Nakatsuji, M. Caricato, X. Li, H. P. Hratchian, 
 A. F. Izmaylov, J. Bloino, G. Zheng, J. L. Sonnenberg, M. Hada, 
 M. Ehara, K. Toyota, R. Fukuda, J. Hasegawa, M. Ishida, T. Nakajima, 
 Y. Honda, O. Kitao, H. Nakai, T. Vreven, J. A. Montgomery, Jr., 
 J. E. Peralta, F. Ogliaro, M. Bearpark, J. J. Heyd, E. Brothers, 
 K. N. Kudin, V. N. Staroverov, T. Keith, R. Kobayashi, J. Normand, 
 K. Raghavachari, A. Rendell, J. C. Burant, S. S. Iyengar, J. Tomasi, 
 M. Cossi, N. Rega, J. M. Millam, M. Klene, J. E. Knox, J. B. Cross, 
 V. Bakken, C. Adamo, J. Jaramillo, R. Gomperts, R. E. Stratmann, 
 O. Yazyev, A. J. Austin, R. Cammi, C. Pomelli, J. W. Ochterski, 
 R. L. Martin, K. Morokuma, V. G. Zakrzewski, G. A. Voth, 
 P. Salvador, J. J. Dannenberg, S. Dapprich, A. D. Daniels, 
 O. Farkas, J. B. Foresman, J. V. Ortiz, J. Cioslowski, 
 and D. J. Fox, Gaussian, Inc., Wallingford CT, 2013.
 
 ******************************************
 Gaussian 09:  ES64L-G09RevD.01 24-Apr-2013
                 7-Oct-2019 
 ******************************************
 %nproc=3
 Will use up to    3 processors via shared memory.
 %Mem=2GB
 ----------------------------------------------------------------------
 # td=(NStates=1) iop(3/107=0140000000,3/108=0140000000) iop(3/107=0140
 000000,3/108=0140000000) CAM-B3LYP/6-31G(d,p)
 ----------------------------------------------------------------------
 1/38=1/1;
 2/12=2,17=6,18=5,40=1/2;
 3/5=1,6=6,7=101,11=9,16=1,25=1,30=1,74=-40,107=140000000,108=140000000/1,2,8,3;
 4//1;
 5/5=2,38=5/2;
 8/6=1,10=2,108=1/1;
 9/41=1,42=1,70=2/14;
 6/7=2,8=2,9=2,10=2/1;
 99/5=1,9=1/99;
 --
 TD
 --
 Symbolic Z-matrix:
 Charge =  0 Multiplicity = 1
 12                   -5.42471   1.25343   0.15848 
 6                    -4.93647  -2.12699  -0.27225 
 6                    -3.40753   1.22496   2.7292 
 6                    -6.09745   4.58348   0.47468 
 6                    -7.92607   1.24942  -2.42328 
 7                    -4.24159  -0.29354   1.04887 
 6                    -4.24142  -1.54213   0.71474 
 6                    -3.27171  -2.31852   1.53186 
 6                    -2.92426  -1.32301   2.67152 
 6                    -3.55763  -0.05688   2.19234 
 6                    -3.37716  -1.82616   4.01441 
 6                    -1.93023  -2.78297   0.67806 
 6                    -0.96301  -3.65264   1.38821 
 6                     0.27731  -3.92288   0.56867 
 8                     0.58185  -3.46142  -0.52251 
 8                     1.05437  -4.93851   1.1555 
 7                    -4.87964   2.69646   1.39119 
 6                    -3.98935   2.50134   2.45362 
 6                    -3.69848   3.7245    3.19958 
 6                    -4.54178   4.70725   2.5083 
 6                    -5.22966   4.00479   1.37378 
 6                    -2.85257   3.86383   4.36569 
 6                    -4.78085   6.16018   2.96926 
 8                    -4.09538   6.70412   3.84527 
 7                    -6.68203   2.72507  -0.77714 
 6                    -6.88759   3.96392  -0.44476 
 6                    -7.97246   4.58195  -1.21387 
 6                    -8.33371   3.72902  -2.14914 
 6                    -7.53713   2.46749  -1.84159 
 6                    -8.32881   5.99882  -1.02563 
 6                    -9.39303   3.80637  -3.1896 
 6                    -8.7247    4.01149  -4.51943 
 7                    -6.40085  -0.1201   -1.12757 
 6                    -7.25955   0.00646  -2.09437 
 6                    -7.47484  -1.30162  -2.67843 
 6                    -6.58382  -2.10307  -2.01349 
 6                    -5.86854  -1.37567  -1.12067 
 6                    -8.43033  -1.67053  -3.74886 
 6                    -6.04988  -3.5922   -1.9407 
 8                    -6.42373  -4.54708  -2.50701 
 6                    -4.94045  -3.60266  -0.84539 
 6                    -5.38389  -4.65267   0.18544 
 8                    -5.84803  -4.42339   1.30584 
 8                    -4.97124  -5.86253  -0.28347 
 6                    -5.3809   -6.95875   0.53939 
 6                     2.33043  -5.26164   0.61988 
 6                     3.38467  -4.22928   1.01872 
 6                     4.05355  -3.35469   0.15521 
 6                     3.70061  -3.22996  -1.25412 
 6                     5.11276  -2.48758   0.63871 
 6                     6.44856  -2.74358  -0.02459 
 6                     7.63619  -1.95814   0.47544 
 6                     8.97616  -2.06123  -0.13651 
 6                     9.57535  -3.36004   0.14781 
 6                     9.91437  -0.82285   0.33132 
 6                     11.23082  -0.93254  -0.3103 
 6                     12.14322   0.18549   0.19419 
 6                     13.50899   0.39724  -0.55101 
 6                     14.34307  -0.82468  -0.36981 
 6                     14.06492   1.74005  -0.10959 
 6                     15.29788   2.20881  -0.97279 
 6                     15.81098   3.57993  -0.54301 
 6                     17.05758   4.0176   -1.33057 
 6                     16.92804   4.14124  -2.91843 
 6                     17.58363   5.36205  -0.78623 
 1                    -2.70405   1.10703   3.41345 
 1                    -6.36676   5.64849   0.67985 
 1                    -8.71185   1.27925  -3.20192 
 1                    -3.71073  -3.33517   1.82456 
 1                    -1.94255  -1.18836   2.71743 
 1                    -2.66641  -2.69855   4.36433 
 1                    -3.35369  -0.89119   4.81986 
 1                    -4.34176  -2.1128    3.94473 
 1                    -2.28575  -3.3259   -0.19407 
 1                    -1.52852  -1.71099   0.10383 
 1                    -0.62664  -3.24225   2.3344 
 1                    -1.41411  -4.65661   1.61114 
 1                    -1.7535    3.50297   4.277 
 1                    -2.91904   4.98031   4.58427 
 1                    -3.3462    3.35966   5.25161 
 1                    -5.63385   6.64428   2.48693 
 1                    -9.98654   2.74925  -3.37048 
 1                    -9.94045   4.58675  -3.0143 
 1                    -9.42101   3.94327  -5.21123 
 1                    -8.28184   4.92589  -4.32764 
 1                    -8.07791   3.35821  -5.00371 
 1                    -8.32963  -0.9029   -4.71721 
 1                    -8.42809  -2.74647  -3.98173 
 1                    -9.50001  -1.38613  -3.31488 
 1                    -4.09155  -3.88297  -1.20813 
 1                     2.65892  -6.31077   1.06032 
 1                     2.38285  -5.27311  -0.52416 
 1                     3.57199  -4.09299   2.09851 
 1                     2.58868  -3.78848  -1.45444 
 1                     3.71545  -2.20961  -1.69055 
 1                     4.49234  -3.94531  -1.8021 
 1                     4.93583  -1.40228   0.42243 
 1                     5.18144  -2.38001   1.6185 
 1                     6.62643  -3.73869   0.12381 
 1                     6.27967  -2.54765  -0.98516 
 1                     7.30136  -0.90114   0.40438 
 1                     7.85744  -2.15417   1.70094 
 1                     8.88112  -2.02752  -1.28395 
 1                     8.9671   -4.20953  -0.42282 
 1                     10.62152  -3.5078   -0.31913 
 1                     9.55728  -3.59664   1.24701 
 1                     9.23987   0.23853   0.29647 
 1                     10.03908  -1.05817   1.50713 
 1                     11.72467  -1.89814  -0.20469 
 1                     11.19986  -0.83022  -1.29222 
 1                     11.57777   1.2229    0.04601 
 1                     12.48131   0.14191   1.18055 
 1                     13.3564   0.43048  -1.66351 
 1                     14.73961  -0.84026   0.6438 
 1                     13.89995  -1.64467  -0.69626 
 1                     15.31415  -0.66335  -0.82595 
 1                     13.26374   2.37515  -0.06951 
 1                     14.32455   1.5783    0.98638 
 1                     16.18332   1.55215  -0.83833 
 1                     15.03312   2.23291  -2.13276 
 1                     14.9624   4.29545  -0.69609 
 1                     16.20474   3.38434   0.59346 
 1                     17.83956   3.16229  -1.11055 
 1                     16.04722   4.62846  -3.33039 
 1                     17.88066   4.64824  -3.33275 
 1                     16.74366   3.07392  -3.30795 
 1                     17.91651   5.09734   0.35908 
 1                     18.59037   5.70132  -1.16468 
 1                     16.72185   6.14143  -0.53286 
 1                    -4.95035  -7.92468   0.13583 
 1                    -6.47259  -6.91433   0.68321 
 1                    -4.99009  -6.85624   1.58077 
 8                    -7.86254   6.81986  -0.303 
 1                    -9.14651   6.26868  -1.78471 
 
 Stoichiometry    C54H68MgN4O7
 Framework group  C1[X(C54H68MgN4O7)]
 Deg. of freedom   396
 Full point group                 C1      NOp   1
 Largest Abelian subgroup         C1      NOp   1
 Largest concise Abelian subgroup C1      NOp   1
                         Standard orientation:                         
 ---------------------------------------------------------------------
 Center     Atomic      Atomic             Coordinates (Angstroms)
 Number     Number       Type             X           Y           Z
 ---------------------------------------------------------------------
      1         12           0       -5.424336    1.236298    0.152845
      2          6           0       -4.923553   -2.142067   -0.279532
      3          6           0       -3.408989    1.213587    2.725063
      4          6           0       -6.109354    4.563704    0.470526
      5          6           0       -7.923743    1.224792   -2.430783
      6          7           0       -4.236295   -0.306905    1.043195
      7          6           0       -4.231356   -1.555286    0.708322
      8          6           0       -3.259453   -2.328660    1.525708
      9          6           0       -2.916456   -1.332581    2.666226
     10          6           0       -3.554050   -0.068466    2.187322
     11          6           0       -3.368537   -1.838166    4.008472
     12          6           0       -1.915664   -2.787742    0.672639
     13          6           0       -0.945840   -3.654330    1.382995
     14          6           0        0.296068   -3.919588    0.564215
     15          8           0        0.599750   -3.456375   -0.526458
     16          8           0        1.076353   -4.932753    1.151028
     17          7           0       -4.885409    2.680557    1.386819
     18          6           0       -3.995218    2.488021    2.449804
     19          6           0       -3.709330    3.711783    3.196708
     20          6           0       -4.555663    4.691886    2.505381
     21          6           0       -5.240153    3.987618    1.369934
     22          6           0       -2.864804    3.853476    4.363535
     23          6           0       -4.800333    6.143663    2.967033
     24          8           0       -4.117491    6.689554    3.843875
     25          7           0       -6.686275    2.703945   -0.782838
     26          6           0       -6.896565    3.941840   -0.449876
     27          6           0       -7.983091    4.556404   -1.219431
     28          6           0       -8.340549    3.702736   -2.155474
     29          6           0       -7.539641    2.443915   -1.848078
     30          6           0       -8.344698    5.971865   -1.030613
     31          6           0       -9.399365    3.776875   -3.196683
     32          6           0       -8.730794    3.985208   -4.525883
     33          7           0       -6.394538   -0.139977   -1.134755
     34          6           0       -7.252972   -0.015949   -2.102114
     35          6           0       -7.463093   -1.324444   -2.687119
     36          6           0       -6.569679   -2.123072   -2.021990
     37          6           0       -5.857703   -1.393621   -1.128201
     38          6           0       -8.416441   -1.696169   -3.758479
     39          6           0       -6.030404   -3.610299   -1.949686
     40          8           0       -6.400371   -4.566187   -2.516846
     41          6           0       -4.921767   -3.617404   -0.853555
     42          6           0       -5.362166   -4.669627    0.176314
     43          8           0       -5.827972   -4.442695    1.296505
     44          8           0       -4.944793   -5.877705   -0.293005
     45          6           0       -5.351102   -6.975891    0.528899
     46          6           0        2.353976   -5.250948    0.616170
     47          6           0        3.404178   -4.215021    1.016417
     48          6           0        4.070536   -3.337492    0.153923
     49          6           0        3.718200   -3.213197   -1.255597
     50          6           0        5.126232   -2.466853    0.638730
     51          6           0        6.463449   -2.717618   -0.023720
     52          6           0        7.647859   -1.928185    0.477670
     53          6           0        8.988643   -2.026065   -0.133340
     54          6           0        9.592324   -3.322863    0.150653
     55          6           0        9.922017   -0.784580    0.335931
     56          6           0       11.239333   -0.889116   -0.304766
     57          6           0       12.147311    0.231899    0.201069
     58          6           0       13.512860    0.449036   -0.542987
     59          6           0       14.351222   -0.769970   -0.361890
     60          6           0       14.063595    1.793583   -0.100345
     61          6           0       15.295497    2.267321   -0.962348
     62          6           0       15.803314    3.640028   -0.531359
     63          6           0       17.048909    4.082676   -1.317733
     64          6           0       16.920110    4.206796   -2.905616
     65          6           0       17.569687    5.428698   -0.772195
     66          1           0       -2.705592    1.097795    3.409763
     67          1           0       -6.382669    5.627614    0.676127
     68          1           0       -8.709038    1.252244   -3.209992
     69          1           0       -3.695010   -3.347060    1.817473
     70          1           0       -1.935272   -1.194402    2.712951
     71          1           0       -2.654893   -2.708186    4.358401
     72          1           0       -3.349054   -0.903602    4.814495
     73          1           0       -4.332038   -2.128252    3.937898
     74          1           0       -2.268564   -3.331426   -0.200079
     75          1           0       -1.517412   -1.713970    0.099348
     76          1           0       -0.611656   -3.243296    2.329677
     77          1           0       -1.393468   -4.660061    1.604987
     78          1           0       -1.764369    3.496649    4.275453
     79          1           0       -2.935471    4.969571    4.582734
     80          1           0       -3.357268    3.346989    5.248787
     81          1           0       -5.654715    6.624969    2.484351
     82          1           0       -9.988918    2.717724   -3.378633
     83          1           0       -9.949741    4.555159   -3.021330
     84          1           0       -9.426333    3.914883   -5.218247
     85          1           0       -8.291390    4.901091   -4.333225
     86          1           0       -8.081280    3.334560   -5.010077
     87          1           0       -8.317797   -0.927607   -4.726302
     88          1           0       -8.410139   -2.771959   -3.991990
     89          1           0       -9.487471   -1.415899   -3.325130
     90          1           0       -4.071585   -3.894426   -1.215821
     91          1           0        2.685935   -6.299142    1.056235
     92          1           0        2.407293   -5.261537   -0.527835
     93          1           0        3.590199   -4.078696    2.096423
     94          1           0        2.608439   -3.775620   -1.457077
     95          1           0        3.729668   -2.192538   -1.691402
     96          1           0        4.512918   -3.925350   -1.803409
     97          1           0        4.945540   -1.382064    0.422971
     98          1           0        5.193796   -2.359621    1.618635
     99          1           0        6.644809   -3.712166    0.124224
    100          1           0        6.294565   -2.521723   -0.984295
    101          1           0        7.309258   -0.872360    0.406987
    102          1           0        7.868904   -2.124153    1.703214
    103          1           0        8.894345   -1.992011   -1.280827
    104          1           0        8.987571   -4.174210   -0.420941
    105          1           0       10.639360   -3.466566   -0.315589
    106          1           0        9.574287   -3.560184    1.249696
    107          1           0        9.243706    0.274379    0.301206
    108          1           0       10.046706   -1.020152    1.511694
    109          1           0       11.736603   -1.852987   -0.199365
    110          1           0       11.208736   -0.786330   -1.286651
    111          1           0       11.578218    1.267343    0.053081
    112          1           0       12.484817    0.188950    1.187653
    113          1           0       13.360977    0.482388   -1.655579
    114          1           0       14.747061   -0.784716    0.652011
    115          1           0       13.911314   -1.591356   -0.689152
    116          1           0       15.322051   -0.604851   -0.817208
    117          1           0       13.260092    2.425753   -0.060485
    118          1           0       14.322994    1.632123    0.995718
    119          1           0       16.183205    1.613786   -0.827614
    120          1           0       15.031517    2.291156   -2.122494
    121          1           0       14.952262    4.352567   -0.684653
    122          1           0       16.196930    3.445188    0.605286
    123          1           0       17.833818    3.230068   -1.097629
    124          1           0       16.037840    4.691073   -3.317938
    125          1           0       17.871197    4.717488   -3.318917
    126          1           0       16.739880    3.139052   -3.295907
    127          1           0       17.902665    5.164505    0.373201
    128          1           0       18.575470    5.771826   -1.149688
    129          1           0       16.704907    6.204798   -0.519007
    130          1           0       -4.916761   -7.940020    0.125083
    131          1           0       -6.443049   -6.935508    0.671925
    132          1           0       -4.961443   -6.872587    1.570631
    133          8           0       -7.881945    6.794154   -0.307146
    134          1           0       -9.162806    6.239222   -1.790137
 ---------------------------------------------------------------------
 Rotational constants (GHZ):      0.0340632      0.0082426      0.0072413
 Standard basis: 6-31G(d,p) (6D, 7F)
 There are  1334 symmetry adapted cartesian basis functions of A   symmetry.
 There are  1334 symmetry adapted basis functions of A   symmetry.
  1334 basis functions,  2348 primitive gaussians,  1334 cartesian basis functions
   244 alpha electrons      244 beta electrons
       nuclear repulsion energy      9129.2521423261 Hartrees.
 NAtoms=  134 NActive=  134 NUniq=  134 SFac= 1.00D+00 NAtFMM=   60 NAOKFM=T Big=T
 Integral buffers will be    131072 words long.
 Raffenetti 1 integral format.
 Two-electron integral symmetry is turned on.
 One-electron integrals computed using PRISM.
 NBasis=  1334 RedAO= T EigKep=  2.96D-04  NBF=  1334
 NBsUse=  1334 1.00D-06 EigRej= -1.00D+00 NBFU=  1334
 ExpMin= 4.21D-02 ExpMax= 1.17D+04 ExpMxC= 1.76D+03 IAcc=2 IRadAn=         4 AccDes= 0.00D+00
 Harris functional with IExCor=20419 and IRadAn=       4 diagonalized for initial guess.
 HarFok:  IExCor=20419 AccDes= 0.00D+00 IRadAn=         4 IDoV= 1 UseB2=F ITyADJ=14
 ICtDFT=  3500011 ScaDFX=  1.000000  1.000000  1.000000  1.000000
 FoFCou: FMM=F IPFlag=           0 FMFlag=      100000 FMFlg1=        2001
         NFxFlg=           0 DoJE=T BraDBF=F KetDBF=T FulRan=T
         wScrn=  0.000000 ICntrl=     500 IOpCl=  0 I1Cent=   200000004 NGrid=           0
         NMat0=    1 NMatS0=      1 NMatT0=    0 NMatD0=    1 NMtDS0=    0 NMtDT0=    0
 Petite list used in FoFCou.
 Requested convergence on RMS density matrix=1.00D-08 within 128 cycles.
 Requested convergence on MAX density matrix=1.00D-06.
 Requested convergence on             energy=1.00D-06.
 No special actions if energy rises.
 SCF Done:  E(RCAM-B3LYP) =  -3043.48041039     A.U. after   15 cycles
            NFock= 15  Conv=0.91D-08     -V/T= 2.0089
 DoSCS=F DFT=T ScalE2(SS,OS)=  1.000000  1.000000
 ExpMin= 4.21D-02 ExpMax= 1.17D+04 ExpMxC= 1.76D+03 IAcc=3 IRadAn=         5 AccDes= 0.00D+00
 HarFok:  IExCor=  205 AccDes= 0.00D+00 IRadAn=         5 IDoV=-2 UseB2=F ITyADJ=14
 ICtDFT= 12500011 ScaDFX=  1.000000  1.000000  1.000000  1.000000
 Range of M.O.s used for correlation:    71  1334
 NBasis=  1334 NAE=   244 NBE=   244 NFC=    70 NFV=     0
 NROrb=   1264 NOA=   174 NOB=   174 NVA=  1090 NVB=  1090
 Would need an additional       2379600800000 words for in-memory AO integral storage.
 Orbital symmetries:
       Occupied  (A) (A) (A) (A) (A) (A) (A) (A) (A) (A) (A) (A)
                 (A) (A) (A) (A) (A) (A) (A) (A) (A) (A) (A) (A)
                 (A) (A) (A) (A) (A) (A) (A) (A) (A) (A) (A) (A)
                 (A) (A) (A) (A) (A) (A) (A) (A) (A) (A) (A) (A)
                 (A) (A) (A) (A) (A) (A) (A) (A) (A) (A) (A) (A)
                 (A) (A) (A) (A) (A) (A) (A) (A) (A) (A) (A) (A)
                 (A) (A) (A) (A) (A) (A) (A) (A) (A) (A) (A) (A)
                 (A) (A) (A) (A) (A) (A) (A) (A) (A) (A) (A) (A)
                 (A) (A) (A) (A) (A) (A) (A) (A) (A) (A) (A) (A)
                 (A) (A) (A) (A) (A) (A) (A) (A) (A) (A) (A) (A)
                 (A) (A) (A) (A) (A) (A) (A) (A) (A) (A) (A) (A)
                 (A) (A) (A) (A) (A) (A) (A) (A) (A) (A) (A) (A)
                 (A) (A) (A) (A) (A) (A) (A) (A) (A) (A) (A) (A)
                 (A) (A) (A) (A) (A) (A) (A) (A) (A) (A) (A) (A)
                 (A) (A) (A) (A) (A) (A) (A) (A) (A) (A) (A) (A)
                 (A) (A) (A) (A) (A) (A) (A) (A) (A) (A) (A) (A)
                 (A) (A) (A) (A) (A) (A) (A) (A) (A) (A) (A) (A)
                 (A) (A) (A) (A) (A) (A) (A) (A) (A) (A) (A) (A)
                 (A) (A) (A) (A) (A) (A) (A) (A) (A) (A) (A) (A)
                 (A) (A) (A) (A) (A) (A) (A) (A) (A) (A) (A) (A)
                 (A) (A) (A) (A)
       Virtual   (A) (A) (A) (A) (A) (A) (A) (A) (A) (A) (A) (A)
                 (A) (A) (A) (A) (A) (A) (A) (A) (A) (A) (A) (A)
                 (A) (A) (A) (A) (A) (A) (A) (A) (A) (A) (A) (A)
                 (A) (A) (A) (A) (A) (A) (A) (A) (A) (A) (A) (A)
                 (A) (A) (A) (A) (A) (A) (A) (A) (A) (A) (A) (A)
                 (A) (A) (A) (A) (A) (A) (A) (A) (A) (A) (A) (A)
                 (A) (A) (A) (A) (A) (A) (A) (A) (A) (A) (A) (A)
                 (A) (A) (A) (A) (A) (A) (A) (A) (A) (A) (A) (A)
                 (A) (A) (A) (A) (A) (A) (A) (A) (A) (A) (A) (A)
                 (A) (A) (A) (A) (A) (A) (A) (A) (A) (A) (A) (A)
                 (A) (A) (A) (A) (A) (A) (A) (A) (A) (A) (A) (A)
                 (A) (A) (A) (A) (A) (A) (A) (A) (A) (A) (A) (A)
                 (A) (A) (A) (A) (A) (A) (A) (A) (A) (A) (A) (A)
                 (A) (A) (A) (A) (A) (A) (A) (A) (A) (A) (A) (A)
                 (A) (A) (A) (A) (A) (A) (A) (A) (A) (A) (A) (A)
                 (A) (A) (A) (A) (A) (A) (A) (A) (A) (A) (A) (A)
                 (A) (A) (A) (A) (A) (A) (A) (A) (A) (A) (A) (A)
                 (A) (A) (A) (A) (A) (A) (A) (A) (A) (A) (A) (A)
                 (A) (A) (A) (A) (A) (A) (A) (A) (A) (A) (A) (A)
                 (A) (A) (A) (A) (A) (A) (A) (A) (A) (A) (A) (A)
                 (A) (A) (A) (A) (A) (A) (A) (A) (A) (A) (A) (A)
                 (A) (A) (A) (A) (A) (A) (A) (A) (A) (A) (A) (A)
                 (A) (A) (A) (A) (A) (A) (A) (A) (A) (A) (A) (A)
                 (A) (A) (A) (A) (A) (A) (A) (A) (A) (A) (A) (A)
                 (A) (A) (A) (A) (A) (A) (A) (A) (A) (A) (A) (A)
                 (A) (A) (A) (A) (A) (A) (A) (A) (A) (A) (A) (A)
                 (A) (A) (A) (A) (A) (A) (A) (A) (A) (A) (A) (A)
                 (A) (A) (A) (A) (A) (A) (A) (A) (A) (A) (A) (A)
                 (A) (A) (A) (A) (A) (A) (A) (A) (A) (A) (A) (A)
                 (A) (A) (A) (A) (A) (A) (A) (A) (A) (A) (A) (A)
                 (A) (A) (A) (A) (A) (A) (A) (A) (A) (A) (A) (A)
                 (A) (A) (A) (A) (A) (A) (A) (A) (A) (A) (A) (A)
                 (A) (A) (A) (A) (A) (A) (A) (A) (A) (A) (A) (A)
                 (A) (A) (A) (A) (A) (A) (A) (A) (A) (A) (A) (A)
                 (A) (A) (A) (A) (A) (A) (A) (A) (A) (A) (A) (A)
                 (A) (A) (A) (A) (A) (A) (A) (A) (A) (A) (A) (A)
                 (A) (A) (A) (A) (A) (A) (A) (A) (A) (A) (A) (A)
                 (A) (A) (A) (A) (A) (A) (A) (A) (A) (A) (A) (A)
                 (A) (A) (A) (A) (A) (A) (A) (A) (A) (A) (A) (A)
                 (A) (A) (A) (A) (A) (A) (A) (A) (A) (A) (A) (A)
                 (A) (A) (A) (A) (A) (A) (A) (A) (A) (A) (A) (A)
                 (A) (A) (A) (A) (A) (A) (A) (A) (A) (A) (A) (A)
                 (A) (A) (A) (A) (A) (A) (A) (A) (A) (A) (A) (A)
                 (A) (A) (A) (A) (A) (A) (A) (A) (A) (A) (A) (A)
                 (A) (A) (A) (A) (A) (A) (A) (A) (A) (A) (A) (A)
                 (A) (A) (A) (A) (A) (A) (A) (A) (A) (A) (A) (A)
                 (A) (A) (A) (A) (A) (A) (A) (A) (A) (A) (A) (A)
                 (A) (A) (A) (A) (A) (A) (A) (A) (A) (A) (A) (A)
                 (A) (A) (A) (A) (A) (A) (A) (A) (A) (A) (A) (A)
                 (A) (A) (A) (A) (A) (A) (A) (A) (A) (A) (A) (A)
                 (A) (A) (A) (A) (A) (A) (A) (A) (A) (A) (A) (A)
                 (A) (A) (A) (A) (A) (A) (A) (A) (A) (A) (A) (A)
                 (A) (A) (A) (A) (A) (A) (A) (A) (A) (A) (A) (A)
                 (A) (A) (A) (A) (A) (A) (A) (A) (A) (A) (A) (A)
                 (A) (A) (A) (A) (A) (A) (A) (A) (A) (A) (A) (A)
                 (A) (A) (A) (A) (A) (A) (A) (A) (A) (A) (A) (A)
                 (A) (A) (A) (A) (A) (A) (A) (A) (A) (A) (A) (A)
                 (A) (A) (A) (A) (A) (A) (A) (A) (A) (A) (A) (A)
                 (A) (A) (A) (A) (A) (A) (A) (A) (A) (A) (A) (A)
                 (A) (A) (A) (A) (A) (A) (A) (A) (A) (A) (A) (A)
                 (A) (A) (A) (A) (A) (A) (A) (A) (A) (A) (A) (A)
                 (A) (A) (A) (A) (A) (A) (A) (A) (A) (A) (A) (A)
                 (A) (A) (A) (A) (A) (A) (A) (A) (A) (A) (A) (A)
                 (A) (A) (A) (A) (A) (A) (A) (A) (A) (A) (A) (A)
                 (A) (A) (A) (A) (A) (A) (A) (A) (A) (A) (A) (A)
                 (A) (A) (A) (A) (A) (A) (A) (A) (A) (A) (A) (A)
                 (A) (A) (A) (A) (A) (A) (A) (A) (A) (A) (A) (A)
                 (A) (A) (A) (A) (A) (A) (A) (A) (A) (A) (A) (A)
                 (A) (A) (A) (A) (A) (A) (A) (A) (A) (A) (A) (A)
                 (A) (A) (A) (A) (A) (A) (A) (A) (A) (A) (A) (A)
                 (A) (A) (A) (A) (A) (A) (A) (A) (A) (A) (A) (A)
                 (A) (A) (A) (A) (A) (A) (A) (A) (A) (A) (A) (A)
                 (A) (A) (A) (A) (A) (A) (A) (A) (A) (A) (A) (A)
                 (A) (A) (A) (A) (A) (A) (A) (A) (A) (A) (A) (A)
                 (A) (A) (A) (A) (A) (A) (A) (A) (A) (A) (A) (A)
                 (A) (A) (A) (A) (A) (A) (A) (A) (A) (A) (A) (A)
                 (A) (A) (A) (A) (A) (A) (A) (A) (A) (A) (A) (A)
                 (A) (A) (A) (A) (A) (A) (A) (A) (A) (A) (A) (A)
                 (A) (A) (A) (A) (A) (A) (A) (A) (A) (A) (A) (A)
                 (A) (A) (A) (A) (A) (A) (A) (A) (A) (A) (A) (A)
                 (A) (A) (A) (A) (A) (A) (A) (A) (A) (A) (A) (A)
                 (A) (A) (A) (A) (A) (A) (A) (A) (A) (A) (A) (A)
                 (A) (A) (A) (A) (A) (A) (A) (A) (A) (A) (A) (A)
                 (A) (A) (A) (A) (A) (A) (A) (A) (A) (A) (A) (A)
                 (A) (A) (A) (A) (A) (A) (A) (A) (A) (A) (A) (A)
                 (A) (A) (A) (A) (A) (A) (A) (A) (A) (A) (A) (A)
                 (A) (A) (A) (A) (A) (A) (A) (A) (A) (A) (A) (A)
                 (A) (A) (A) (A) (A) (A) (A) (A) (A) (A) (A) (A)
                 (A) (A) (A) (A) (A) (A) (A) (A) (A) (A) (A) (A)
                 (A) (A) (A) (A) (A) (A) (A) (A) (A) (A) (A) (A)
                 (A) (A) (A) (A) (A) (A) (A) (A) (A) (A)
     8 initial guesses have been made.
 Convergence on wavefunction:    0.001000000000000
 Iteration     1 Dimension     8 NMult     0 NNew      8
 CISAX will form     8 AO SS matrices at one time.
 Iteration     2 Dimension    12 NMult     8 NNew      4
 Iteration     3 Dimension    16 NMult    12 NNew      4
 Iteration     4 Dimension    20 NMult    16 NNew      4
 Iteration     5 Dimension    24 NMult    20 NNew      4
 Iteration     6 Dimension    28 NMult    24 NNew      4
 Iteration     7 Dimension    32 NMult    28 NNew      4
 ***********************************************************************
 Excited states from <AA,BB:AA,BB> singles matrix:
 ***********************************************************************
 
 Ground to excited state transition densities written to RWF  633
 Ground to excited state transition electric dipole moments (Au):
       state          X           Y           Z        Dip. S.      Osc.
         1        -0.6676     -1.5620     -1.3668      4.7538      0.2339
 Ground to excited state transition velocity dipole moments (Au):
       state          X           Y           Z        Dip. S.      Osc.
         1         0.0489      0.1121      0.0993      0.0248      0.2241
 Ground to excited state transition magnetic dipole moments (Au):
       state          X           Y           Z
         1         0.6194      1.1490     -1.6872
 Ground to excited state transition velocity quadrupole moments (Au):
       state          XX          YY          ZZ          XY          XZ          YZ
         1        -1.0776      0.3329      0.2088     -1.0148     -0.9688      0.3106
 <0|del|b> * <b|rxdel|0> + <0|del|b> * <b|delr+rdel|0>
 Rotatory Strengths (R) in cgs (10**-40 erg-esu-cm/Gauss)
       state          XX          YY          ZZ    R(velocity)    E-M Angle
         1      -147.9425   -102.1091    169.0809    -26.9902       91.44
 1/2[<0|r|b>*<b|rxdel|0> + (<0|rxdel|b>*<b|r|0>)*]
 Rotatory Strengths (R) in cgs (10**-40 erg-esu-cm/Gauss)
       state          XX          YY          ZZ     R(length)
         1       292.4056   1269.2348  -1630.7764    -23.0453
  1/2[<0|del|b>*<b|r|0> + (<0|r|b>*<b|del|0>)*] (Au)
       state          X           Y           Z        Dip. S.   Osc.(frdel)
         1        -0.0326     -0.1751     -0.1357      0.3434      0.2289

 Excitation energies and oscillator strengths:
 
 Excited State   1:      Singlet-A      2.0080 eV  617.46 nm  f=0.2339  <S**2>=0.000
     243 -> 246        0.24342
     244 -> 245        0.65651
 This state for optimization and/or second-order correction.
 Total Energy, E(TD-HF/TD-KS) =  -3043.40661927    
 Copying the excited state density for this state as the 1-particle RhoCI density.
 SavETr:  write IOETrn=   770 NScale= 10 NData=  16 NLR=1 NState=    1 LETran=      28.

 **********************************************************************

            Population analysis using the SCF density.

 **********************************************************************

 Orbital symmetries:
       Occupied  (A) (A) (A) (A) (A) (A) (A) (A) (A) (A) (A) (A)
                 (A) (A) (A) (A) (A) (A) (A) (A) (A) (A) (A) (A)
                 (A) (A) (A) (A) (A) (A) (A) (A) (A) (A) (A) (A)
                 (A) (A) (A) (A) (A) (A) (A) (A) (A) (A) (A) (A)
                 (A) (A) (A) (A) (A) (A) (A) (A) (A) (A) (A) (A)
                 (A) (A) (A) (A) (A) (A) (A) (A) (A) (A) (A) (A)
                 (A) (A) (A) (A) (A) (A) (A) (A) (A) (A) (A) (A)
                 (A) (A) (A) (A) (A) (A) (A) (A) (A) (A) (A) (A)
                 (A) (A) (A) (A) (A) (A) (A) (A) (A) (A) (A) (A)
                 (A) (A) (A) (A) (A) (A) (A) (A) (A) (A) (A) (A)
                 (A) (A) (A) (A) (A) (A) (A) (A) (A) (A) (A) (A)
                 (A) (A) (A) (A) (A) (A) (A) (A) (A) (A) (A) (A)
                 (A) (A) (A) (A) (A) (A) (A) (A) (A) (A) (A) (A)
                 (A) (A) (A) (A) (A) (A) (A) (A) (A) (A) (A) (A)
                 (A) (A) (A) (A) (A) (A) (A) (A) (A) (A) (A) (A)
                 (A) (A) (A) (A) (A) (A) (A) (A) (A) (A) (A) (A)
                 (A) (A) (A) (A) (A) (A) (A) (A) (A) (A) (A) (A)
                 (A) (A) (A) (A) (A) (A) (A) (A) (A) (A) (A) (A)
                 (A) (A) (A) (A) (A) (A) (A) (A) (A) (A) (A) (A)
                 (A) (A) (A) (A) (A) (A) (A) (A) (A) (A) (A) (A)
                 (A) (A) (A) (A)
       Virtual   (A) (A) (A) (A) (A) (A) (A) (A) (A) (A) (A) (A)
                 (A) (A) (A) (A) (A) (A) (A) (A) (A) (A) (A) (A)
                 (A) (A) (A) (A) (A) (A) (A) (A) (A) (A) (A) (A)
                 (A) (A) (A) (A) (A) (A) (A) (A) (A) (A) (A) (A)
                 (A) (A) (A) (A) (A) (A) (A) (A) (A) (A) (A) (A)
                 (A) (A) (A) (A) (A) (A) (A) (A) (A) (A) (A) (A)
                 (A) (A) (A) (A) (A) (A) (A) (A) (A) (A) (A) (A)
                 (A) (A) (A) (A) (A) (A) (A) (A) (A) (A) (A) (A)
                 (A) (A) (A) (A) (A) (A) (A) (A) (A) (A) (A) (A)
                 (A) (A) (A) (A) (A) (A) (A) (A) (A) (A) (A) (A)
                 (A) (A) (A) (A) (A) (A) (A) (A) (A) (A) (A) (A)
                 (A) (A) (A) (A) (A) (A) (A) (A) (A) (A) (A) (A)
                 (A) (A) (A) (A) (A) (A) (A) (A) (A) (A) (A) (A)
                 (A) (A) (A) (A) (A) (A) (A) (A) (A) (A) (A) (A)
                 (A) (A) (A) (A) (A) (A) (A) (A) (A) (A) (A) (A)
                 (A) (A) (A) (A) (A) (A) (A) (A) (A) (A) (A) (A)
                 (A) (A) (A) (A) (A) (A) (A) (A) (A) (A) (A) (A)
                 (A) (A) (A) (A) (A) (A) (A) (A) (A) (A) (A) (A)
                 (A) (A) (A) (A) (A) (A) (A) (A) (A) (A) (A) (A)
                 (A) (A) (A) (A) (A) (A) (A) (A) (A) (A) (A) (A)
                 (A) (A) (A) (A) (A) (A) (A) (A) (A) (A) (A) (A)
                 (A) (A) (A) (A) (A) (A) (A) (A) (A) (A) (A) (A)
                 (A) (A) (A) (A) (A) (A) (A) (A) (A) (A) (A) (A)
                 (A) (A) (A) (A) (A) (A) (A) (A) (A) (A) (A) (A)
                 (A) (A) (A) (A) (A) (A) (A) (A) (A) (A) (A) (A)
                 (A) (A) (A) (A) (A) (A) (A) (A) (A) (A) (A) (A)
                 (A) (A) (A) (A) (A) (A) (A) (A) (A) (A) (A) (A)
                 (A) (A) (A) (A) (A) (A) (A) (A) (A) (A) (A) (A)
                 (A) (A) (A) (A) (A) (A) (A) (A) (A) (A) (A) (A)
                 (A) (A) (A) (A) (A) (A) (A) (A) (A) (A) (A) (A)
                 (A) (A) (A) (A) (A) (A) (A) (A) (A) (A) (A) (A)
                 (A) (A) (A) (A) (A) (A) (A) (A) (A) (A) (A) (A)
                 (A) (A) (A) (A) (A) (A) (A) (A) (A) (A) (A) (A)
                 (A) (A) (A) (A) (A) (A) (A) (A) (A) (A) (A) (A)
                 (A) (A) (A) (A) (A) (A) (A) (A) (A) (A) (A) (A)
                 (A) (A) (A) (A) (A) (A) (A) (A) (A) (A) (A) (A)
                 (A) (A) (A) (A) (A) (A) (A) (A) (A) (A) (A) (A)
                 (A) (A) (A) (A) (A) (A) (A) (A) (A) (A) (A) (A)
                 (A) (A) (A) (A) (A) (A) (A) (A) (A) (A) (A) (A)
                 (A) (A) (A) (A) (A) (A) (A) (A) (A) (A) (A) (A)
                 (A) (A) (A) (A) (A) (A) (A) (A) (A) (A) (A) (A)
                 (A) (A) (A) (A) (A) (A) (A) (A) (A) (A) (A) (A)
                 (A) (A) (A) (A) (A) (A) (A) (A) (A) (A) (A) (A)
                 (A) (A) (A) (A) (A) (A) (A) (A) (A) (A) (A) (A)
                 (A) (A) (A) (A) (A) (A) (A) (A) (A) (A) (A) (A)
                 (A) (A) (A) (A) (A) (A) (A) (A) (A) (A) (A) (A)
                 (A) (A) (A) (A) (A) (A) (A) (A) (A) (A) (A) (A)
                 (A) (A) (A) (A) (A) (A) (A) (A) (A) (A) (A) (A)
                 (A) (A) (A) (A) (A) (A) (A) (A) (A) (A) (A) (A)
                 (A) (A) (A) (A) (A) (A) (A) (A) (A) (A) (A) (A)
                 (A) (A) (A) (A) (A) (A) (A) (A) (A) (A) (A) (A)
                 (A) (A) (A) (A) (A) (A) (A) (A) (A) (A) (A) (A)
                 (A) (A) (A) (A) (A) (A) (A) (A) (A) (A) (A) (A)
                 (A) (A) (A) (A) (A) (A) (A) (A) (A) (A) (A) (A)
                 (A) (A) (A) (A) (A) (A) (A) (A) (A) (A) (A) (A)
                 (A) (A) (A) (A) (A) (A) (A) (A) (A) (A) (A) (A)
                 (A) (A) (A) (A) (A) (A) (A) (A) (A) (A) (A) (A)
                 (A) (A) (A) (A) (A) (A) (A) (A) (A) (A) (A) (A)
                 (A) (A) (A) (A) (A) (A) (A) (A) (A) (A) (A) (A)
                 (A) (A) (A) (A) (A) (A) (A) (A) (A) (A) (A) (A)
                 (A) (A) (A) (A) (A) (A) (A) (A) (A) (A) (A) (A)
                 (A) (A) (A) (A) (A) (A) (A) (A) (A) (A) (A) (A)
                 (A) (A) (A) (A) (A) (A) (A) (A) (A) (A) (A) (A)
                 (A) (A) (A) (A) (A) (A) (A) (A) (A) (A) (A) (A)
                 (A) (A) (A) (A) (A) (A) (A) (A) (A) (A) (A) (A)
                 (A) (A) (A) (A) (A) (A) (A) (A) (A) (A) (A) (A)
                 (A) (A) (A) (A) (A) (A) (A) (A) (A) (A) (A) (A)
                 (A) (A) (A) (A) (A) (A) (A) (A) (A) (A) (A) (A)
                 (A) (A) (A) (A) (A) (A) (A) (A) (A) (A) (A) (A)
                 (A) (A) (A) (A) (A) (A) (A) (A) (A) (A) (A) (A)
                 (A) (A) (A) (A) (A) (A) (A) (A) (A) (A) (A) (A)
                 (A) (A) (A) (A) (A) (A) (A) (A) (A) (A) (A) (A)
                 (A) (A) (A) (A) (A) (A) (A) (A) (A) (A) (A) (A)
                 (A) (A) (A) (A) (A) (A) (A) (A) (A) (A) (A) (A)
                 (A) (A) (A) (A) (A) (A) (A) (A) (A) (A) (A) (A)
                 (A) (A) (A) (A) (A) (A) (A) (A) (A) (A) (A) (A)
                 (A) (A) (A) (A) (A) (A) (A) (A) (A) (A) (A) (A)
                 (A) (A) (A) (A) (A) (A) (A) (A) (A) (A) (A) (A)
                 (A) (A) (A) (A) (A) (A) (A) (A) (A) (A) (A) (A)
                 (A) (A) (A) (A) (A) (A) (A) (A) (A) (A) (A) (A)
                 (A) (A) (A) (A) (A) (A) (A) (A) (A) (A) (A) (A)
                 (A) (A) (A) (A) (A) (A) (A) (A) (A) (A) (A) (A)
                 (A) (A) (A) (A) (A) (A) (A) (A) (A) (A) (A) (A)
                 (A) (A) (A) (A) (A) (A) (A) (A) (A) (A) (A) (A)
                 (A) (A) (A) (A) (A) (A) (A) (A) (A) (A) (A) (A)
                 (A) (A) (A) (A) (A) (A) (A) (A) (A) (A) (A) (A)
                 (A) (A) (A) (A) (A) (A) (A) (A) (A) (A) (A) (A)
                 (A) (A) (A) (A) (A) (A) (A) (A) (A) (A) (A) (A)
                 (A) (A) (A) (A) (A) (A) (A) (A) (A) (A) (A) (A)
                 (A) (A) (A) (A) (A) (A) (A) (A) (A) (A) (A) (A)
                 (A) (A) (A) (A) (A) (A) (A) (A) (A) (A)
 The electronic state is 1-A.
 Alpha  occ. eigenvalues --  -46.82193 -19.23905 -19.21829 -19.18557 -19.18467
 Alpha  occ. eigenvalues --  -19.18179 -19.18171 -19.17432 -14.38418 -14.36927
 Alpha  occ. eigenvalues --  -14.36686 -14.35676 -10.36307 -10.36038 -10.32136
 Alpha  occ. eigenvalues --  -10.31367 -10.30910 -10.28603 -10.28216 -10.27176
 Alpha  occ. eigenvalues --  -10.27054 -10.26508 -10.26369 -10.25765 -10.25298
 Alpha  occ. eigenvalues --  -10.25292 -10.25201 -10.25104 -10.25085 -10.24764
 Alpha  occ. eigenvalues --  -10.24737 -10.24671 -10.24618 -10.24301 -10.24183
 Alpha  occ. eigenvalues --  -10.24177 -10.24162 -10.23824 -10.23267 -10.23246
 Alpha  occ. eigenvalues --  -10.23190 -10.23020 -10.22932 -10.22799 -10.22654
 Alpha  occ. eigenvalues --  -10.22547 -10.22397 -10.22195 -10.22090 -10.22017
 Alpha  occ. eigenvalues --  -10.21980 -10.21918 -10.21754 -10.21724 -10.21442
 Alpha  occ. eigenvalues --  -10.21361 -10.21306 -10.20989 -10.20512 -10.20375
 Alpha  occ. eigenvalues --  -10.20335 -10.19783 -10.19654 -10.19553 -10.19040
 Alpha  occ. eigenvalues --  -10.18272  -3.10608  -1.85560  -1.85068  -1.85014
 Alpha  occ. eigenvalues --   -1.14041  -1.12144  -1.10330  -1.09571  -1.05620
 Alpha  occ. eigenvalues --   -1.05283  -1.04527  -1.02331  -1.01329  -1.00710
 Alpha  occ. eigenvalues --   -0.98352  -0.88160  -0.87375  -0.86945  -0.85979
 Alpha  occ. eigenvalues --   -0.85637  -0.84792  -0.84372  -0.83891  -0.82795
 Alpha  occ. eigenvalues --   -0.82677  -0.82298  -0.81865  -0.81091  -0.80609
 Alpha  occ. eigenvalues --   -0.80352  -0.78434  -0.77718  -0.77509  -0.76245
 Alpha  occ. eigenvalues --   -0.75456  -0.74318  -0.73518  -0.73301  -0.71777
 Alpha  occ. eigenvalues --   -0.71502  -0.70810  -0.70016  -0.69598  -0.69333
 Alpha  occ. eigenvalues --   -0.68817  -0.68534  -0.67856  -0.66847  -0.66144
 Alpha  occ. eigenvalues --   -0.65576  -0.64574  -0.64015  -0.62818  -0.62179
 Alpha  occ. eigenvalues --   -0.61826  -0.60971  -0.60546  -0.60131  -0.58696
 Alpha  occ. eigenvalues --   -0.58547  -0.58489  -0.57382  -0.57157  -0.56633
 Alpha  occ. eigenvalues --   -0.56035  -0.55678  -0.55548  -0.55204  -0.54973
 Alpha  occ. eigenvalues --   -0.54770  -0.53971  -0.52952  -0.52628  -0.52615
 Alpha  occ. eigenvalues --   -0.52340  -0.52030  -0.51455  -0.51389  -0.51273
 Alpha  occ. eigenvalues --   -0.50776  -0.50685  -0.50120  -0.49903  -0.49411
 Alpha  occ. eigenvalues --   -0.49279  -0.48762  -0.48615  -0.48245  -0.47792
 Alpha  occ. eigenvalues --   -0.47495  -0.47301  -0.47196  -0.47024  -0.46905
 Alpha  occ. eigenvalues --   -0.46695  -0.46490  -0.46257  -0.46168  -0.46102
 Alpha  occ. eigenvalues --   -0.45861  -0.45708  -0.45530  -0.45488  -0.45178
 Alpha  occ. eigenvalues --   -0.44703  -0.44431  -0.44309  -0.44139  -0.43886
 Alpha  occ. eigenvalues --   -0.43470  -0.43301  -0.43169  -0.42947  -0.42853
 Alpha  occ. eigenvalues --   -0.42580  -0.42472  -0.42300  -0.42122  -0.41954
 Alpha  occ. eigenvalues --   -0.41804  -0.41673  -0.41581  -0.41371  -0.41277
 Alpha  occ. eigenvalues --   -0.40924  -0.40657  -0.40644  -0.40485  -0.40380
 Alpha  occ. eigenvalues --   -0.40369  -0.39976  -0.39893  -0.39698  -0.39556
 Alpha  occ. eigenvalues --   -0.39218  -0.38924  -0.38644  -0.38398  -0.38341
 Alpha  occ. eigenvalues --   -0.38285  -0.38046  -0.37397  -0.37214  -0.36953
 Alpha  occ. eigenvalues --   -0.36796  -0.36138  -0.36106  -0.35987  -0.35638
 Alpha  occ. eigenvalues --   -0.35058  -0.35018  -0.34925  -0.34258  -0.34205
 Alpha  occ. eigenvalues --   -0.34044  -0.34033  -0.33714  -0.33609  -0.33483
 Alpha  occ. eigenvalues --   -0.33109  -0.32764  -0.32296  -0.32018  -0.31928
 Alpha  occ. eigenvalues --   -0.31593  -0.31284  -0.30825  -0.30157  -0.29827
 Alpha  occ. eigenvalues --   -0.29615  -0.28579  -0.28001  -0.27769  -0.27295
 Alpha  occ. eigenvalues --   -0.27064  -0.25576  -0.22532  -0.21185
 Alpha virt. eigenvalues --   -0.08485  -0.05668  -0.01068  -0.00297   0.00515
 Alpha virt. eigenvalues --    0.02386   0.02672   0.03030   0.03216   0.04518
 Alpha virt. eigenvalues --    0.05049   0.05902   0.07410   0.08479   0.09172
 Alpha virt. eigenvalues --    0.09336   0.09584   0.10086   0.10228   0.11176
 Alpha virt. eigenvalues --    0.11333   0.11511   0.11720   0.11729   0.12137
 Alpha virt. eigenvalues --    0.12176   0.12427   0.12648   0.13086   0.13212
 Alpha virt. eigenvalues --    0.13459   0.13532   0.13815   0.13831   0.14049
 Alpha virt. eigenvalues --    0.14304   0.14619   0.14827   0.14876   0.15054
 Alpha virt. eigenvalues --    0.15144   0.15619   0.15775   0.15925   0.16171
 Alpha virt. eigenvalues --    0.16544   0.16676   0.16809   0.16977   0.17142
 Alpha virt. eigenvalues --    0.17246   0.17300   0.17443   0.17594   0.17670
 Alpha virt. eigenvalues --    0.17912   0.18024   0.18236   0.18402   0.18526
 Alpha virt. eigenvalues --    0.18686   0.18976   0.19279   0.19291   0.19347
 Alpha virt. eigenvalues --    0.19470   0.19521   0.19543   0.19798   0.20238
 Alpha virt. eigenvalues --    0.20391   0.20416   0.20621   0.20827   0.20906
 Alpha virt. eigenvalues --    0.21049   0.21217   0.21563   0.21629   0.21735
 Alpha virt. eigenvalues --    0.21844   0.22373   0.22614   0.22979   0.23105
 Alpha virt. eigenvalues --    0.23398   0.23625   0.23714   0.24045   0.24300
 Alpha virt. eigenvalues --    0.24350   0.24728   0.24967   0.25088   0.25310
 Alpha virt. eigenvalues --    0.25378   0.25708   0.25941   0.26249   0.26397
 Alpha virt. eigenvalues --    0.26592   0.26795   0.26928   0.27286   0.27323
 Alpha virt. eigenvalues --    0.27398   0.27705   0.27893   0.28111   0.28273
 Alpha virt. eigenvalues --    0.28483   0.28664   0.29225   0.29355   0.29631
 Alpha virt. eigenvalues --    0.29783   0.30314   0.30446   0.30647   0.30727
 Alpha virt. eigenvalues --    0.31004   0.31343   0.31701   0.31896   0.32264
 Alpha virt. eigenvalues --    0.32591   0.32818   0.32931   0.33623   0.33869
 Alpha virt. eigenvalues --    0.34488   0.35075   0.35224   0.35306   0.35360
 Alpha virt. eigenvalues --    0.35755   0.36255   0.36479   0.37140   0.37814
 Alpha virt. eigenvalues --    0.38708   0.39033   0.39389   0.40122   0.40721
 Alpha virt. eigenvalues --    0.41251   0.41926   0.42222   0.43064   0.43714
 Alpha virt. eigenvalues --    0.44602   0.45077   0.45655   0.46292   0.46581
 Alpha virt. eigenvalues --    0.47143   0.48421   0.49071   0.50159   0.50401
 Alpha virt. eigenvalues --    0.50706   0.51143   0.51398   0.51662   0.52109
 Alpha virt. eigenvalues --    0.52265   0.52384   0.52571   0.52767   0.52814
 Alpha virt. eigenvalues --    0.53056   0.53440   0.53730   0.53948   0.54260
 Alpha virt. eigenvalues --    0.54407   0.54459   0.54759   0.54966   0.55398
 Alpha virt. eigenvalues --    0.55551   0.55731   0.56028   0.56081   0.56327
 Alpha virt. eigenvalues --    0.56418   0.56435   0.56951   0.57082   0.57455
 Alpha virt. eigenvalues --    0.57489   0.57636   0.57814   0.58024   0.58333
 Alpha virt. eigenvalues --    0.58463   0.58868   0.58891   0.59526   0.59704
 Alpha virt. eigenvalues --    0.59924   0.60248   0.61114   0.61301   0.61400
 Alpha virt. eigenvalues --    0.61816   0.61951   0.62080   0.62442   0.62555
 Alpha virt. eigenvalues --    0.62621   0.62884   0.63046   0.63073   0.63462
 Alpha virt. eigenvalues --    0.63639   0.63955   0.64320   0.64620   0.64721
 Alpha virt. eigenvalues --    0.64904   0.65179   0.65884   0.66069   0.66604
 Alpha virt. eigenvalues --    0.66608   0.66937   0.67353   0.67515   0.67865
 Alpha virt. eigenvalues --    0.67972   0.68100   0.68378   0.68524   0.68601
 Alpha virt. eigenvalues --    0.69039   0.69563   0.69669   0.69777   0.69863
 Alpha virt. eigenvalues --    0.70399   0.70849   0.71027   0.71522   0.71655
 Alpha virt. eigenvalues --    0.71937   0.72183   0.72512   0.72708   0.72951
 Alpha virt. eigenvalues --    0.73038   0.73374   0.73834   0.73899   0.74147
 Alpha virt. eigenvalues --    0.74278   0.75034   0.75124   0.75438   0.75694
 Alpha virt. eigenvalues --    0.75836   0.76044   0.76452   0.76638   0.76882
 Alpha virt. eigenvalues --    0.77011   0.77243   0.77397   0.77830   0.78016
 Alpha virt. eigenvalues --    0.78173   0.78249   0.78716   0.78851   0.78965
 Alpha virt. eigenvalues --    0.79023   0.79472   0.79577   0.79812   0.79952
 Alpha virt. eigenvalues --    0.80026   0.80231   0.81009   0.81061   0.81326
 Alpha virt. eigenvalues --    0.81526   0.81916   0.82287   0.82325   0.82597
 Alpha virt. eigenvalues --    0.82685   0.82834   0.82969   0.83292   0.83533
 Alpha virt. eigenvalues --    0.83884   0.83994   0.84242   0.84404   0.84664
 Alpha virt. eigenvalues --    0.84741   0.84873   0.85321   0.85729   0.85984
 Alpha virt. eigenvalues --    0.86044   0.86305   0.86530   0.86537   0.86651
 Alpha virt. eigenvalues --    0.86785   0.86904   0.87254   0.87534   0.87750
 Alpha virt. eigenvalues --    0.88032   0.88187   0.88352   0.88666   0.89101
 Alpha virt. eigenvalues --    0.89222   0.89579   0.89841   0.90021   0.90097
 Alpha virt. eigenvalues --    0.90193   0.90556   0.90729   0.90849   0.91002
 Alpha virt. eigenvalues --    0.91217   0.91459   0.91706   0.91879   0.92010
 Alpha virt. eigenvalues --    0.92135   0.92344   0.92594   0.92739   0.92859
 Alpha virt. eigenvalues --    0.93085   0.93304   0.93448   0.93926   0.94384
 Alpha virt. eigenvalues --    0.94400   0.94554   0.94834   0.94934   0.95299
 Alpha virt. eigenvalues --    0.95501   0.95667   0.95781   0.96076   0.96581
 Alpha virt. eigenvalues --    0.96885   0.97042   0.97410   0.97680   0.97996
 Alpha virt. eigenvalues --    0.98348   0.98617   0.98734   0.99008   0.99386
 Alpha virt. eigenvalues --    0.99429   0.99458   0.99696   1.00054   1.00157
 Alpha virt. eigenvalues --    1.00636   1.00780   1.00827   1.01341   1.01524
 Alpha virt. eigenvalues --    1.01700   1.01721   1.02057   1.02371   1.02770
 Alpha virt. eigenvalues --    1.02989   1.03068   1.03097   1.03474   1.03589
 Alpha virt. eigenvalues --    1.03970   1.04256   1.04579   1.04982   1.05118
 Alpha virt. eigenvalues --    1.05371   1.05459   1.05810   1.06150   1.06252
 Alpha virt. eigenvalues --    1.07018   1.07658   1.07988   1.08372   1.08927
 Alpha virt. eigenvalues --    1.09175   1.09908   1.10211   1.11180   1.11479
 Alpha virt. eigenvalues --    1.12031   1.12672   1.13147   1.13277   1.13688
 Alpha virt. eigenvalues --    1.14241   1.14736   1.15628   1.16036   1.16589
 Alpha virt. eigenvalues --    1.17126   1.18010   1.18728   1.19032   1.19328
 Alpha virt. eigenvalues --    1.19903   1.20022   1.20629   1.20948   1.21175
 Alpha virt. eigenvalues --    1.21486   1.22064   1.23094   1.23790   1.24050
 Alpha virt. eigenvalues --    1.24339   1.24708   1.25195   1.26041   1.26152
 Alpha virt. eigenvalues --    1.26437   1.27312   1.28493   1.28536   1.28799
 Alpha virt. eigenvalues --    1.29530   1.29818   1.30282   1.30503   1.30957
 Alpha virt. eigenvalues --    1.31364   1.31563   1.32188   1.32402   1.33215
 Alpha virt. eigenvalues --    1.33791   1.33981   1.34759   1.34935   1.35635
 Alpha virt. eigenvalues --    1.35981   1.36581   1.36686   1.37260   1.37779
 Alpha virt. eigenvalues --    1.38290   1.38703   1.39128   1.39509   1.40115
 Alpha virt. eigenvalues --    1.40219   1.40668   1.41571   1.41915   1.42998
 Alpha virt. eigenvalues --    1.43758   1.44007   1.44655   1.45433   1.45783
 Alpha virt. eigenvalues --    1.46299   1.46600   1.46996   1.47443   1.47709
 Alpha virt. eigenvalues --    1.47987   1.48260   1.48949   1.49214   1.49420
 Alpha virt. eigenvalues --    1.50022   1.50722   1.51469   1.51643   1.51799
 Alpha virt. eigenvalues --    1.51943   1.52719   1.53175   1.53726   1.54140
 Alpha virt. eigenvalues --    1.54549   1.55078   1.55220   1.55619   1.55766
 Alpha virt. eigenvalues --    1.56881   1.57142   1.57739   1.57975   1.58387
 Alpha virt. eigenvalues --    1.58697   1.59349   1.59501   1.60366   1.60607
 Alpha virt. eigenvalues --    1.61044   1.61195   1.61325   1.61456   1.62550
 Alpha virt. eigenvalues --    1.62904   1.63541   1.63787   1.64322   1.64334
 Alpha virt. eigenvalues --    1.64691   1.65278   1.65649   1.65890   1.66085
 Alpha virt. eigenvalues --    1.66949   1.67697   1.68052   1.68327   1.68970
 Alpha virt. eigenvalues --    1.69089   1.69606   1.69938   1.70407   1.70707
 Alpha virt. eigenvalues --    1.70746   1.71459   1.71595   1.72219   1.72483
 Alpha virt. eigenvalues --    1.72656   1.73016   1.73338   1.73845   1.74410
 Alpha virt. eigenvalues --    1.74645   1.75077   1.75118   1.75800   1.76135
 Alpha virt. eigenvalues --    1.76380   1.77631   1.77952   1.78288   1.78680
 Alpha virt. eigenvalues --    1.78842   1.79111   1.79273   1.79722   1.80197
 Alpha virt. eigenvalues --    1.80769   1.80922   1.81148   1.81956   1.82295
 Alpha virt. eigenvalues --    1.82852   1.82986   1.83162   1.83474   1.83726
 Alpha virt. eigenvalues --    1.83848   1.84024   1.84283   1.84363   1.84467
 Alpha virt. eigenvalues --    1.84861   1.85297   1.85541   1.85978   1.86324
 Alpha virt. eigenvalues --    1.86513   1.86719   1.86838   1.87012   1.87349
 Alpha virt. eigenvalues --    1.87576   1.87725   1.87982   1.88246   1.88528
 Alpha virt. eigenvalues --    1.89067   1.89315   1.89536   1.89639   1.89846
 Alpha virt. eigenvalues --    1.90077   1.90286   1.90713   1.90789   1.90930
 Alpha virt. eigenvalues --    1.91370   1.91850   1.91964   1.92161   1.92595
 Alpha virt. eigenvalues --    1.92835   1.93139   1.93271   1.93357   1.93381
 Alpha virt. eigenvalues --    1.93672   1.94059   1.94355   1.94793   1.94823
 Alpha virt. eigenvalues --    1.95294   1.95421   1.95654   1.96083   1.96177
 Alpha virt. eigenvalues --    1.96383   1.96515   1.96851   1.97236   1.97346
 Alpha virt. eigenvalues --    1.97387   1.98151   1.98173   1.98584   1.98732
 Alpha virt. eigenvalues --    1.99052   1.99303   1.99626   1.99838   2.00064
 Alpha virt. eigenvalues --    2.00606   2.01010   2.01207   2.01590   2.01842
 Alpha virt. eigenvalues --    2.01988   2.02151   2.02294   2.02677   2.02977
 Alpha virt. eigenvalues --    2.03194   2.03287   2.03441   2.03737   2.04033
 Alpha virt. eigenvalues --    2.04449   2.04585   2.04971   2.05126   2.05600
 Alpha virt. eigenvalues --    2.05727   2.05846   2.06254   2.06297   2.06635
 Alpha virt. eigenvalues --    2.06934   2.07796   2.07902   2.08181   2.08658
 Alpha virt. eigenvalues --    2.08854   2.09162   2.09483   2.09840   2.10064
 Alpha virt. eigenvalues --    2.10140   2.10484   2.10936   2.11602   2.11800
 Alpha virt. eigenvalues --    2.11835   2.11968   2.12193   2.13013   2.13310
 Alpha virt. eigenvalues --    2.13704   2.14009   2.14308   2.14999   2.15305
 Alpha virt. eigenvalues --    2.15424   2.16071   2.16398   2.16475   2.16723
 Alpha virt. eigenvalues --    2.17109   2.17652   2.17774   2.18172   2.18439
 Alpha virt. eigenvalues --    2.18919   2.19039   2.19269   2.20321   2.20578
 Alpha virt. eigenvalues --    2.20742   2.21215   2.21335   2.21817   2.21917
 Alpha virt. eigenvalues --    2.22469   2.22535   2.23194   2.23573   2.23876
 Alpha virt. eigenvalues --    2.23959   2.24461   2.24831   2.25614   2.25759
 Alpha virt. eigenvalues --    2.26109   2.26270   2.26608   2.26794   2.27495
 Alpha virt. eigenvalues --    2.27879   2.28117   2.28376   2.28968   2.29661
 Alpha virt. eigenvalues --    2.29778   2.30043   2.30490   2.30591   2.30861
 Alpha virt. eigenvalues --    2.31819   2.32547   2.33057   2.33132   2.33458
 Alpha virt. eigenvalues --    2.33826   2.34380   2.34386   2.34777   2.35009
 Alpha virt. eigenvalues --    2.35530   2.35772   2.36112   2.36193   2.36366
 Alpha virt. eigenvalues --    2.36901   2.37102   2.37561   2.37716   2.37816
 Alpha virt. eigenvalues --    2.37960   2.38247   2.38919   2.39166   2.39323
 Alpha virt. eigenvalues --    2.39722   2.39909   2.40209   2.40679   2.41154
 Alpha virt. eigenvalues --    2.41742   2.42040   2.42124   2.42500   2.42778
 Alpha virt. eigenvalues --    2.42984   2.43184   2.43436   2.44337   2.44807
 Alpha virt. eigenvalues --    2.44932   2.45080   2.45263   2.45627   2.45993
 Alpha virt. eigenvalues --    2.46209   2.46443   2.46968   2.47236   2.47658
 Alpha virt. eigenvalues --    2.47818   2.48024   2.48073   2.48748   2.49177
 Alpha virt. eigenvalues --    2.49241   2.49854   2.50038   2.50162   2.50609
 Alpha virt. eigenvalues --    2.50735   2.50957   2.51507   2.52168   2.52775
 Alpha virt. eigenvalues --    2.53635   2.54020   2.54590   2.54885   2.55256
 Alpha virt. eigenvalues --    2.55318   2.56196   2.56448   2.56774   2.56969
 Alpha virt. eigenvalues --    2.57713   2.57925   2.58559   2.58768   2.59071
 Alpha virt. eigenvalues --    2.59217   2.59344   2.59532   2.60048   2.60505
 Alpha virt. eigenvalues --    2.60826   2.61053   2.61328   2.61898   2.62595
 Alpha virt. eigenvalues --    2.62604   2.62980   2.63158   2.63393   2.64071
 Alpha virt. eigenvalues --    2.64623   2.64692   2.65408   2.65660   2.65828
 Alpha virt. eigenvalues --    2.66041   2.66167   2.66832   2.66975   2.67225
 Alpha virt. eigenvalues --    2.67547   2.68031   2.68332   2.68617   2.68987
 Alpha virt. eigenvalues --    2.69543   2.69765   2.70496   2.70504   2.70883
 Alpha virt. eigenvalues --    2.71148   2.71168   2.71249   2.71796   2.72323
 Alpha virt. eigenvalues --    2.72530   2.72680   2.72793   2.72881   2.72991
 Alpha virt. eigenvalues --    2.73823   2.73852   2.74576   2.74632   2.74987
 Alpha virt. eigenvalues --    2.76201   2.76279   2.76368   2.76588   2.76873
 Alpha virt. eigenvalues --    2.77300   2.77781   2.78051   2.78286   2.78707
 Alpha virt. eigenvalues --    2.78722   2.79840   2.80288   2.80406   2.80858
 Alpha virt. eigenvalues --    2.81181   2.81374   2.81425   2.82022   2.82459
 Alpha virt. eigenvalues --    2.82693   2.82943   2.83130   2.83307   2.83356
 Alpha virt. eigenvalues --    2.84048   2.84209   2.84467   2.85054   2.85628
 Alpha virt. eigenvalues --    2.86299   2.86823   2.86889   2.87167   2.87337
 Alpha virt. eigenvalues --    2.88244   2.88435   2.88780   2.88797   2.89699
 Alpha virt. eigenvalues --    2.90342   2.90958   2.91311   2.91862   2.92056
 Alpha virt. eigenvalues --    2.92352   2.92849   2.92968   2.93491   2.94000
 Alpha virt. eigenvalues --    2.94053   2.94566   2.94797   2.95577   2.95851
 Alpha virt. eigenvalues --    2.96333   2.96955   2.97377   2.98104   2.98198
 Alpha virt. eigenvalues --    2.98802   2.98931   2.99037   3.00158   3.00472
 Alpha virt. eigenvalues --    3.00667   3.01060   3.01527   3.02158   3.03045
 Alpha virt. eigenvalues --    3.03316   3.04181   3.04378   3.04998   3.05647
 Alpha virt. eigenvalues --    3.05951   3.06032   3.06938   3.07267   3.08252
 Alpha virt. eigenvalues --    3.08599   3.09574   3.10459   3.10973   3.11775
 Alpha virt. eigenvalues --    3.12066   3.12676   3.12926   3.14384   3.14820
 Alpha virt. eigenvalues --    3.15337   3.16291   3.16571   3.17411   3.17479
 Alpha virt. eigenvalues --    3.17910   3.18788   3.18864   3.19932   3.20688
 Alpha virt. eigenvalues --    3.21024   3.23465   3.24261   3.24412   3.25440
 Alpha virt. eigenvalues --    3.26515   3.27361   3.27769   3.28788   3.28888
 Alpha virt. eigenvalues --    3.29722   3.30663   3.30959   3.31534   3.31761
 Alpha virt. eigenvalues --    3.32745   3.34081   3.34227   3.35817   3.36051
 Alpha virt. eigenvalues --    3.36308   3.37337   3.37933   3.38525   3.38783
 Alpha virt. eigenvalues --    3.38876   3.39190   3.40764   3.40917   3.41237
 Alpha virt. eigenvalues --    3.41931   3.42320   3.42937   3.43043   3.43379
 Alpha virt. eigenvalues --    3.44375   3.44555   3.44708   3.47637   3.48602
 Alpha virt. eigenvalues --    3.48703   3.49182   3.50332   3.51101   3.51633
 Alpha virt. eigenvalues --    3.52929   3.53440   3.54458   3.55113   3.58511
 Alpha virt. eigenvalues --    3.59372   3.62133   3.62959   3.63728   3.64404
 Alpha virt. eigenvalues --    3.67209   3.68686   3.70766   3.72475   3.74178
 Alpha virt. eigenvalues --    3.76480   3.78323   3.78479   3.82023   3.83666
 Alpha virt. eigenvalues --    3.98045   4.00664   4.05476   4.06513   4.09534
 Alpha virt. eigenvalues --    4.12225   4.16877   4.17612   4.18357   4.19942
 Alpha virt. eigenvalues --    4.21717   4.22057   4.22990   4.23729   4.25497
 Alpha virt. eigenvalues --    4.27012   4.28508   4.29460   4.31343   4.32543
 Alpha virt. eigenvalues --    4.34929   4.35040   4.35976   4.37316   4.39092
 Alpha virt. eigenvalues --    4.39608   4.39638   4.42378   4.43342   4.44065
 Alpha virt. eigenvalues --    4.44321   4.46582   4.47101   4.47922   4.49230
 Alpha virt. eigenvalues --    4.50701   4.50958   4.52080   4.52313   4.53258
 Alpha virt. eigenvalues --    4.53748   4.55737   4.56583   4.57286   4.57776
 Alpha virt. eigenvalues --    4.58211   4.62041   4.64403   4.64948   4.66777
 Alpha virt. eigenvalues --    4.67232   4.69381   4.70792   4.71809   4.73262
 Alpha virt. eigenvalues --    4.76061   4.76744   4.77203   4.80454   4.81959
 Alpha virt. eigenvalues --    4.83447   4.85150   4.86402   4.89361   5.02611
          Condensed to atoms (all electrons):
 Mulliken charges:
               1
     1  Mg   0.835866
     2  C    0.054227
     3  C   -0.173789
     4  C   -0.203642
     5  C   -0.146835
     6  N   -0.654740
     7  C    0.361416
     8  C   -0.181083
     9  C   -0.130825
    10  C    0.304688
    11  C   -0.286537
    12  C   -0.177493
    13  C   -0.260734
    14  C    0.605902
    15  O   -0.449410
    16  O   -0.474770
    17  N   -0.737168
    18  C    0.304637
    19  C    0.098358
    20  C   -0.095722
    21  C    0.350313
    22  C   -0.415129
    23  C    0.259494
    24  O   -0.421757
    25  N   -0.656575
    26  C    0.327619
    27  C   -0.013991
    28  C    0.027692
    29  C    0.261903
    30  C    0.267593
    31  C   -0.235313
    32  C   -0.304829
    33  N   -0.709970
    34  C    0.294554
    35  C   -0.015875
    36  C    0.000421
    37  C    0.270788
    38  C   -0.379779
    39  C    0.382901
    40  O   -0.411106
    41  C   -0.279545
    42  C    0.616948
    43  O   -0.471988
    44  O   -0.432875
    45  C   -0.096269
    46  C    0.010003
    47  C   -0.156261
    48  C    0.172587
    49  C   -0.376308
    50  C   -0.228489
    51  C   -0.168825
    52  C   -0.150427
    53  C   -0.048894
    54  C   -0.293546
    55  C   -0.149828
    56  C   -0.167354
    57  C   -0.172332
    58  C   -0.074714
    59  C   -0.301402
    60  C   -0.160270
    61  C   -0.174794
    62  C   -0.154661
    63  C   -0.031119
    64  C   -0.313294
    65  C   -0.298542
    66  H    0.057431
    67  H    0.123164
    68  H    0.088356
    69  H    0.113319
    70  H    0.115897
    71  H    0.097218
    72  H    0.079114
    73  H    0.141316
    74  H    0.115966
    75  H    0.092198
    76  H    0.145135
    77  H    0.148155
    78  H    0.120130
    79  H    0.164271
    80  H    0.128097
    81  H    0.100416
    82  H    0.094096
    83  H    0.114230
    84  H    0.112987
    85  H    0.116003
    86  H    0.120392
    87  H    0.098300
    88  H    0.146380
    89  H    0.109090
    90  H    0.157057
    91  H    0.109237
    92  H    0.105355
    93  H    0.077090
    94  H    0.126465
    95  H    0.119555
    96  H    0.097819
    97  H    0.083520
    98  H    0.098346
    99  H    0.104125
   100  H    0.108011
   101  H    0.075975
   102  H    0.043802
   103  H    0.069809
   104  H    0.085168
   105  H    0.091069
   106  H    0.097919
   107  H    0.071608
   108  H    0.069705
   109  H    0.100776
   110  H    0.108746
   111  H    0.060675
   112  H    0.095526
   113  H    0.066265
   114  H    0.090070
   115  H    0.109747
   116  H    0.095630
   117  H    0.099777
   118  H    0.075059
   119  H    0.091929
   120  H    0.076449
   121  H    0.089418
   122  H    0.074511
   123  H    0.072544
   124  H    0.107572
   125  H    0.097107
   126  H    0.090218
   127  H    0.064486
   128  H    0.104445
   129  H    0.099184
   130  H    0.127596
   131  H    0.139067
   132  H    0.123779
   133  O   -0.399550
   134  H    0.036573
 Sum of Mulliken charges =   0.00000
 Mulliken charges with hydrogens summed into heavy atoms:
               1
     1  Mg   0.835866
     2  C    0.054227
     3  C   -0.116358
     4  C   -0.080478
     5  C   -0.058478
     6  N   -0.654740
     7  C    0.361416
     8  C   -0.067763
     9  C   -0.014928
    10  C    0.304688
    11  C    0.031110
    12  C    0.030671
    13  C    0.032555
    14  C    0.605902
    15  O   -0.449410
    16  O   -0.474770
    17  N   -0.737168
    18  C    0.304637
    19  C    0.098358
    20  C   -0.095722
    21  C    0.350313
    22  C   -0.002631
    23  C    0.359910
    24  O   -0.421757
    25  N   -0.656575
    26  C    0.327619
    27  C   -0.013991
    28  C    0.027692
    29  C    0.261903
    30  C    0.304166
    31  C   -0.026987
    32  C    0.044553
    33  N   -0.709970
    34  C    0.294554
    35  C   -0.015875
    36  C    0.000421
    37  C    0.270788
    38  C   -0.026010
    39  C    0.382901
    40  O   -0.411106
    41  C   -0.122488
    42  C    0.616948
    43  O   -0.471988
    44  O   -0.432875
    45  C    0.294173
    46  C    0.224595
    47  C   -0.079171
    48  C    0.172587
    49  C   -0.032469
    50  C   -0.046623
    51  C    0.043311
    52  C   -0.030650
    53  C    0.020915
    54  C   -0.019391
    55  C   -0.008515
    56  C    0.042168
    57  C   -0.016130
    58  C   -0.008449
    59  C   -0.005955
    60  C    0.014566
    61  C   -0.006416
    62  C    0.009268
    63  C    0.041426
    64  C   -0.018398
    65  C   -0.030427
   133  O   -0.399550
 Electronic spatial extent (au):  <R**2>=         145727.6953
 Charge=              0.0000 electrons
 Dipole moment (field-independent basis, Debye):
    X=              0.7770    Y=             -4.6051    Z=             -1.5736  Tot=              4.9282
 Quadrupole moment (field-independent basis, Debye-Ang):
   XX=           -378.0021   YY=           -432.9824   ZZ=           -395.7444
   XY=              2.6777   XZ=             21.9260   YZ=            -34.9702
 Traceless Quadrupole moment (field-independent basis, Debye-Ang):
   XX=             24.2409   YY=            -30.7394   ZZ=              6.4985
   XY=              2.6777   XZ=             21.9260   YZ=            -34.9702
 Octapole moment (field-independent basis, Debye-Ang**2):
  XXX=           -298.1072  YYY=           -573.4095  ZZZ=            -38.0023  XYY=            118.3473
  XXY=            -23.1876  XXZ=           -262.1533  XZZ=           -108.3577  YZZ=            -30.9034
  YYZ=            -93.9500  XYZ=            183.6439
 Hexadecapole moment (field-independent basis, Debye-Ang**3):
 XXXX=        -157996.5316 YYYY=         -31923.7014 ZZZZ=          -9081.2803 XXXY=          -1989.0338
 XXXZ=           2278.6293 YYYX=           2007.6401 YYYZ=          -1450.0436 ZZZX=            556.4972
 ZZZY=           -387.7054 XXYY=         -33577.6862 XXZZ=         -28088.4643 YYZZ=          -7229.5269
 XXYZ=          -1198.4234 YYXZ=            336.6001 ZZXY=           -276.5802
 N-N= 9.129252142326D+03 E-N=-2.534304894652D+04  KE= 3.016776739390D+03

 Test job not archived.
 1\1\GINC-PEDRO-RYZENSSD\SP\RCAM-B3LYP TD-FC\6-31G(d,p)\C54H68Mg1N4O7\P
 ADAWAN\07-Oct-2019\0\\# td=(NStates=1) iop(3/107=0140000000,3/108=0140
 000000) iop(3/107=0140000000,3/108=0140000000) CAM-B3LYP/6-31G(d,p)\\T
 D\\0,1\Mg,0,-5.424708202,1.2534253702,0.1584785167\C,0,-4.9364737692,-
 2.1269866634,-0.2722502901\C,0,-3.4075322131,1.224955037,2.7292043586\
 C,0,-6.0974461669,4.5834763707,0.4746798292\C,0,-7.9260735254,1.249423
 6248,-2.4232764215\N,0,-4.2415912436,-0.2935352766,1.0488650535\C,0,-4
 .2414193623,-1.5421253939,0.714735192\C,0,-3.2717085726,-2.3185230509,
 1.5318587745\C,0,-2.9242565811,-1.323012971,2.671523939\C,0,-3.5576325
 633,-0.0568848411,2.1923398926\C,0,-3.377159824,-1.8261593085,4.014409
 3003\C,0,-1.9302278661,-2.7829722904,0.6780619923\C,0,-0.9630140643,-3
 .6526403519,1.3882126982\C,0,0.2773135988,-3.9228771598,0.5686650276\O
 ,0,0.5818520391,-3.4614158304,-0.5225122666\O,0,1.0543671189,-4.938508
 9957,1.1555015387\N,0,-4.8796365147,2.6964598827,1.3911858052\C,0,-3.9
 893530225,2.5013381498,2.4536205879\C,0,-3.6984803852,3.7245025328,3.1
 995789023\C,0,-4.5417799337,4.7072491904,2.5082967139\C,0,-5.229662328
 6,4.004785155,1.3737825302\C,0,-2.8525738823,3.863833467,4.3656904395\
 C,0,-4.7808507851,6.1601760518,2.969262363\O,0,-4.0953820255,6.7041152
 417,3.8452684993\N,0,-6.6820298526,2.7250704395,-0.7771403817\C,0,-6.8
 875909569,3.9639167972,-0.4447626794\C,0,-7.9724623864,4.5819492517,-1
 .2138741965\C,0,-8.3337064034,3.7290220323,-2.1491394663\C,0,-7.537127
 5243,2.4674949236,-1.8415879286\C,0,-8.3288051592,5.9988212518,-1.0256
 33698\C,0,-9.393025781,3.8063715755,-3.1896015088\C,0,-8.7247014508,4.
 0114925124,-4.5194251892\N,0,-6.4008458519,-0.1200971899,-1.1275737778
 \C,0,-7.2595495617,0.0064597404,-2.0943653591\C,0,-7.4748406007,-1.301
 6153142,-2.6784308677\C,0,-6.5838238661,-2.1030740807,-2.013490559\C,0
 ,-5.868544778,-1.3756715967,-1.1206699317\C,0,-8.4303284075,-1.6705268
 413,-3.748855805\C,0,-6.049878615,-3.5921983258,-1.9406994638\O,0,-6.4
 237256132,-4.5470796781,-2.5070109468\C,0,-4.9404542989,-3.6026620329,
 -0.8453911599\C,0,-5.3838855162,-4.6526704686,0.1854356946\O,0,-5.8480
 289855,-4.4233882722,1.3058377041\O,0,-4.9712370869,-5.8625301371,-0.2
 834725187\C,0,-5.3809014393,-6.958749466,0.5393914739\C,0,2.3304297246
 ,-5.2616424244,0.6198799693\C,0,3.3846717773,-4.2292844277,1.018723158
 1\C,0,4.0535544591,-3.3546852894,0.1552078958\C,0,3.7006149588,-3.2299
 56184,-1.2541230811\C,0,5.1127554815,-2.4875830265,0.6387057215\C,0,6.
 4485604607,-2.7435793109,-0.0245921333\C,0,7.636192746,-1.9581374595,0
 .4754413787\C,0,8.9761562241,-2.0612321052,-0.1365103642\C,0,9.5753546
 156,-3.3600359061,0.1478079058\C,0,9.9143668723,-0.8228529062,0.331321
 0955\C,0,11.2308162389,-0.9325360487,-0.3102963402\C,0,12.1432219428,0
 .1854877393,0.1941902072\C,0,13.5089902931,0.3972394108,-0.5510148587\
 C,0,14.3430724802,-0.8246831983,-0.3698136666\C,0,14.0649164298,1.7400
 487771,-0.1095886013\C,0,15.2978790688,2.2088128166,-0.9727943871\C,0,
 15.8109807178,3.5799305031,-0.5430053935\C,0,17.0575801527,4.017600675
 6,-1.3305741052\C,0,16.9280417863,4.1412396867,-2.9184341634\C,0,17.58
 36317824,5.3620543314,-0.78622958\H,0,-2.7040459105,1.1070275664,3.413
 4489561\H,0,-6.3667575587,5.6484910513,0.6798477475\H,0,-8.7118463837,
 1.2792521867,-3.2019155725\H,0,-3.710728138,-3.3351666334,1.8245581979
 \H,0,-1.9425453405,-1.1883564438,2.7174339094\H,0,-2.6664059658,-2.698
 5464355,4.3643263785\H,0,-3.3536919693,-0.8911912368,4.8198581217\H,0,
 -4.3417558514,-2.1127991979,3.9447276954\H,0,-2.2857457402,-3.32589563
 46,-0.1940671413\H,0,-1.5285235521,-1.7109897264,0.1038312244\H,0,-0.6
 266370538,-3.2422541977,2.3343979809\H,0,-1.4141108897,-4.6566124975,1
 .6111401507\H,0,-1.7535040025,3.5029749842,4.2770000811\H,0,-2.9190395
 58,4.9803076699,4.5842740903\H,0,-3.346204553,3.35965916,5.251612138\H
 ,0,-5.633847244,6.6442824107,2.4869308089\H,0,-9.9865426368,2.74925207
 71,-3.3704782024\H,0,-9.9404515281,4.5867462091,-3.014304423\H,0,-9.42
 10078617,3.9432722272,-5.2112274333\H,0,-8.2818421502,4.9258945301,-4.
 327642446\H,0,-8.0779080657,3.3582101349,-5.0037144861\H,0,-8.32962954
 46,-0.9029035481,-4.7172116902\H,0,-8.4280924371,-2.7464717075,-3.9817
 275167\H,0,-9.5000132504,-1.3861252471,-3.3148757727\H,0,-4.0915509311
 ,-3.8829741204,-1.2081257427\H,0,2.6589238362,-6.3107683699,1.06032442
 03\H,0,2.3828516118,-5.273105837,-0.5241578509\H,0,3.5719931817,-4.092
 9894212,2.0985082149\H,0,2.5886763195,-3.7884804029,-1.4544380939\H,0,
 3.7154488829,-2.2096056612,-1.6905472722\H,0,4.4923417416,-3.945306386
 9,-1.8021016675\H,0,4.9358274517,-1.4022757722,0.4224326344\H,0,5.1814
 405025,-2.3800123184,1.6184957359\H,0,6.6264318632,-3.7386881683,0.123
 8117029\H,0,6.2796668062,-2.5476469807,-0.985158202\H,0,7.3013609377,-
 0.901136668,0.4043791912\H,0,7.8574446547,-2.1541736659,1.7009375662\H
 ,0,8.881124012,-2.0275207928,-1.2839466134\H,0,8.9670988753,-4.2095298
 129,-0.4228247527\H,0,10.6215151809,-3.5078041351,-0.3191294948\H,0,9.
 5572824758,-3.5966353921,1.2470056636\H,0,9.2398650474,0.2385322636,0.
 2964688213\H,0,10.0390828669,-1.0581741367,1.5071316505\H,0,11.7246743
 985,-1.8981371354,-0.2046897768\H,0,11.1998559258,-0.830224658,-1.2922
 200657\H,0,11.5777677949,1.2228953613,0.0460073903\H,0,12.4813088896,0
 .1419054738,1.1805472298\H,0,13.3563963819,0.4304777906,-1.6635125561\
 H,0,14.7396141886,-0.840257043,0.6437994774\H,0,13.8999503815,-1.64466
 76457,-0.6962558797\H,0,15.3141512716,-0.6633496627,-0.8259549985\H,0,
 13.2637356192,2.3751458138,-0.069506828\H,0,14.3245500672,1.5783042449
 ,0.986377465\H,0,16.1833170588,1.5521506766,-0.8383316482\H,0,15.03311
 81073,2.2329115426,-2.1327568066\H,0,14.9623977019,4.295452753,-0.6960
 908891\H,0,16.2047401079,3.3843443938,0.593461805\H,0,17.8395637732,3.
 1622897375,-1.1105454424\H,0,16.047221859,4.6284601249,-3.3303873176\H
 ,0,17.8806604559,4.6482412173,-3.3327507087\H,0,16.7436590512,3.073922
 3034,-3.3079513483\H,0,17.916509525,5.097340387,0.3590750732\H,0,18.59
 03666475,5.7013163581,-1.164678609\H,0,16.7218547553,6.141428553,-0.53
 28616383\H,0,-4.9503529199,-7.9246835678,0.1358292669\H,0,-6.472587750
 1,-6.9143308145,0.6832081641\H,0,-4.9900912265,-6.8562354997,1.5807709
 455\O,0,-7.8625391492,6.8198620176,-0.3030037288\H,0,-9.1465080346,6.2
 686842841,-1.7847069382\\Version=ES64L-G09RevD.01\State=1-A\HF=-3043.4
 804104\RMSD=9.095e-09\PG=C01 [X(C54H68Mg1N4O7)]\\@


 YOU ARE IN A MAZE OF TWISTY LITTLE PASSAGES.
 Job cpu time:       0 days  6 hours 28 minutes  6.5 seconds.
 File lengths (MBytes):  RWF=   2102 Int=      0 D2E=      0 Chk=    163 Scr=      1
 Normal termination of Gaussian 09 at Mon Oct  7 21:02:34 2019.
