 Entering Gaussian System, Link 0=g16
 Input=Geometria-91-.com
 Output=Geometria-91-.log
 Initial command:
 /usr/local/g09/l1.exe "/home/padawan/israel-mol/chlorophyll-b/spectra/emi/Gau-83344.inp" -scrdir="/home/padawan/israel-mol/chlorophyll-b/spectra/emi/"
 Entering Link 1 = /usr/local/g09/l1.exe PID=     83346.
  
 Copyright (c) 1988,1990,1992,1993,1995,1998,2003,2009,2013,
            Gaussian, Inc.  All Rights Reserved.
  
 This is part of the Gaussian(R) 09 program.  It is based on
 the Gaussian(R) 03 system (copyright 2003, Gaussian, Inc.),
 the Gaussian(R) 98 system (copyright 1998, Gaussian, Inc.),
 the Gaussian(R) 94 system (copyright 1995, Gaussian, Inc.),
 the Gaussian 92(TM) system (copyright 1992, Gaussian, Inc.),
 the Gaussian 90(TM) system (copyright 1990, Gaussian, Inc.),
 the Gaussian 88(TM) system (copyright 1988, Gaussian, Inc.),
 the Gaussian 86(TM) system (copyright 1986, Carnegie Mellon
 University), and the Gaussian 82(TM) system (copyright 1983,
 Carnegie Mellon University). Gaussian is a federally registered
 trademark of Gaussian, Inc.
  
 This software contains proprietary and confidential information,
 including trade secrets, belonging to Gaussian, Inc.
  
 This software is provided under written license and may be
 used, copied, transmitted, or stored only in accord with that
 written license.
  
 The following legend is applicable only to US Government
 contracts under FAR:
  
                    RESTRICTED RIGHTS LEGEND
  
 Use, reproduction and disclosure by the US Government is
 subject to restrictions as set forth in subparagraphs (a)
 and (c) of the Commercial Computer Software - Restricted
 Rights clause in FAR 52.227-19.
  
 Gaussian, Inc.
 340 Quinnipiac St., Bldg. 40, Wallingford CT 06492
  
  
 ---------------------------------------------------------------
 Warning -- This program may not be used in any manner that
 competes with the business of Gaussian, Inc. or will provide
 assistance to any competitor of Gaussian, Inc.  The licensee
 of this program is prohibited from giving any competitor of
 Gaussian, Inc. access to this program.  By using this program,
 the user acknowledges that Gaussian, Inc. is engaged in the
 business of creating and licensing software in the field of
 computational chemistry and represents and warrants to the
 licensee that it is not a competitor of Gaussian, Inc. and that
 it will not use this program in any manner prohibited above.
 ---------------------------------------------------------------
  

 Cite this work as:
 Gaussian 09, Revision D.01,
 M. J. Frisch, G. W. Trucks, H. B. Schlegel, G. E. Scuseria, 
 M. A. Robb, J. R. Cheeseman, G. Scalmani, V. Barone, B. Mennucci, 
 G. A. Petersson, H. Nakatsuji, M. Caricato, X. Li, H. P. Hratchian, 
 A. F. Izmaylov, J. Bloino, G. Zheng, J. L. Sonnenberg, M. Hada, 
 M. Ehara, K. Toyota, R. Fukuda, J. Hasegawa, M. Ishida, T. Nakajima, 
 Y. Honda, O. Kitao, H. Nakai, T. Vreven, J. A. Montgomery, Jr., 
 J. E. Peralta, F. Ogliaro, M. Bearpark, J. J. Heyd, E. Brothers, 
 K. N. Kudin, V. N. Staroverov, T. Keith, R. Kobayashi, J. Normand, 
 K. Raghavachari, A. Rendell, J. C. Burant, S. S. Iyengar, J. Tomasi, 
 M. Cossi, N. Rega, J. M. Millam, M. Klene, J. E. Knox, J. B. Cross, 
 V. Bakken, C. Adamo, J. Jaramillo, R. Gomperts, R. E. Stratmann, 
 O. Yazyev, A. J. Austin, R. Cammi, C. Pomelli, J. W. Ochterski, 
 R. L. Martin, K. Morokuma, V. G. Zakrzewski, G. A. Voth, 
 P. Salvador, J. J. Dannenberg, S. Dapprich, A. D. Daniels, 
 O. Farkas, J. B. Foresman, J. V. Ortiz, J. Cioslowski, 
 and D. J. Fox, Gaussian, Inc., Wallingford CT, 2013.
 
 ******************************************
 Gaussian 09:  ES64L-G09RevD.01 24-Apr-2013
                 4-Oct-2019 
 ******************************************
 %nproc=3
 Will use up to    3 processors via shared memory.
 %Mem=2GB
 ----------------------------------------------------------------------
 # td=(NStates=1) iop(3/107=0140000000,3/108=0140000000) iop(3/107=0140
 000000,3/108=0140000000) CAM-B3LYP/6-31G(d,p)
 ----------------------------------------------------------------------
 1/38=1/1;
 2/12=2,17=6,18=5,40=1/2;
 3/5=1,6=6,7=101,11=9,16=1,25=1,30=1,74=-40,107=140000000,108=140000000/1,2,8,3;
 4//1;
 5/5=2,38=5/2;
 8/6=1,10=2,108=1/1;
 9/41=1,42=1,70=2/14;
 6/7=2,8=2,9=2,10=2/1;
 99/5=1,9=1/99;
 --
 TD
 --
 Symbolic Z-matrix:
 Charge =  0 Multiplicity = 1
 12                   -5.77788   1.16261   0.28635 
 6                    -5.05815  -2.1879   -0.31338 
 6                    -3.59021   1.10948   2.72862 
 6                    -6.31144   4.47908   0.70597 
 6                    -8.16631   1.14965  -2.33581 
 7                    -4.50178  -0.19176   1.08719 
 6                    -4.33422  -1.57401   0.64644 
 6                    -3.14953  -2.21571   1.39652 
 6                    -2.86579  -1.25191   2.53169 
 6                    -3.62476  -0.05675   2.13757 
 6                    -3.4424   -1.74444   3.90335 
 6                    -2.06398  -2.73844   0.60804 
 6                    -1.03098  -3.50524   1.34875 
 6                     0.25699  -3.81982   0.56656 
 8                     0.43244  -3.39331  -0.5545 
 8                     1.22705  -4.54732   1.19652 
 7                    -5.01628   2.60692   1.5279 
 6                    -4.12013   2.39632   2.49685 
 6                    -3.79441   3.72896   3.21688 
 6                    -4.65778   4.55254   2.64137 
 6                    -5.36486   3.90716   1.56996 
 6                    -2.80602   3.80481   4.34604 
 6                    -4.57544   5.98639   2.86426 
 8                    -4.05463   6.49093   3.78977 
 7                    -6.96904   2.6519   -0.75285 
 6                    -7.014     3.95225  -0.39955 
 6                    -7.89544   4.64793  -1.22163 
 6                    -8.46703   3.65422  -2.02948 
 6                    -7.77852   2.43666  -1.72675 
 6                    -8.40551   6.04423  -1.12655 
 6                    -9.4647    3.76739  -3.11155 
 6                    -8.83059   3.94765  -4.49839 
 7                    -6.55416  -0.28349  -1.00863 
 6                    -7.44426  -0.15728  -2.11957 
 6                    -7.67304  -1.47187  -2.7797 
 6                    -6.77483  -2.26693  -1.99977 
 6                    -6.08738  -1.44081  -1.02168 
 6                    -8.48607  -1.71826  -3.87928 
 6                    -6.17134  -3.6247   -2.03882 
 8                    -6.54257  -4.62819  -2.53733 
 6                    -5.07854  -3.57837  -0.88054 
 6                    -5.35157  -4.68245   0.16637 
 8                    -5.76043  -4.4965    1.26822 
 8                    -5.16269  -5.8815   -0.31686 
 6                    -5.53106  -6.91811   0.55997 
 6                     2.36421  -4.82924   0.37555 
 6                     3.50515  -4.01646   0.77174 
 6                     4.14405  -3.04008   0.00084 
 6                     3.72739  -2.68414  -1.39565 
 6                     5.26648  -2.21536   0.71949 
 6                     6.59524  -2.56012   0.04635 
 6                     7.82248  -1.81347   0.61175 
 6                     9.13468  -1.94246   0.04342 
 6                     9.69688  -3.41129   0.39338 
 6                     10.12671  -0.96232   0.49312 
 6                     11.49428  -0.97044  -0.18466 
 6                     12.409    0.26805   0.18638 
 6                     13.71881   0.38075  -0.60811 
 6                     14.53943  -0.78326  -0.38589 
 6                     14.32727   1.77282  -0.31755 
 6                     15.55097   2.12757  -1.093 
 6                     16.10956   3.38341  -0.63588 
 6                     17.41563   3.80123  -1.2689 
 6                     17.39348   4.04522  -2.89942 
 6                     18.12796   5.01948  -0.68574 
 1                    -2.74501   1.20745   3.51815 
 1                    -6.43766   5.48756   1.04486 
 1                    -8.95789   1.00521  -3.01104 
 1                    -3.55028  -3.16078   1.88189 
 1                    -1.84463  -1.02127   2.60828 
 1                    -2.83854  -2.59005   4.23135 
 1                    -3.18849  -0.92343   4.55772 
 1                    -4.63913  -1.84009   3.8459 
 1                    -2.35001  -3.27779  -0.20823 
 1                    -1.62658  -1.83237   0.19767 
 1                    -0.74526  -2.96263   2.21002 
 1                    -1.34461  -4.40101   1.81004 
 1                    -1.81944   3.55298   4.16527 
 1                    -2.951     4.94111   4.53396 
 1                    -3.41959   3.10319   5.25825 
 1                    -5.03709   6.85669   2.19358 
 1                    -10.07445   3.00805  -3.07192 
 1                    -10.25781   4.53303  -2.78364 
 1                    -9.47155   3.88612  -5.36308 
 1                    -8.26751   4.79548  -4.70241 
 1                    -7.95685   3.13146  -4.73857 
 1                    -8.29072  -1.26631  -4.79177 
 1                    -8.41117  -2.94658  -3.95286 
 1                    -9.54591  -1.59255  -3.69183 
 1                    -4.23438  -3.95921  -1.40675 
 1                     2.63886  -5.87196   0.54315 
 1                     2.13619  -4.57474  -0.66036 
 1                     3.71263  -4.00569   1.77735 
 1                     2.65096  -3.13429  -1.60283 
 1                     3.88273  -1.60575  -1.38858 
 1                     4.30726  -3.29898  -2.06996 
 1                     4.89042  -1.16825   0.71865 
 1                     5.4075   -2.65152   1.68638 
 1                     6.84291  -3.52803   0.18095 
 1                     6.62827  -2.41184  -1.07925 
 1                     7.64461  -0.58153   0.65674 
 1                     7.80543  -1.92337   1.82656 
 1                     9.17914  -2.0406   -1.05002 
 1                     9.01429  -4.09784  -0.05137 
 1                     10.71423  -3.47591  -0.1061 
 1                     9.61551  -3.58548   1.48072 
 1                     9.64962   0.0585    0.56206 
 1                     10.4665  -1.04089   1.57926 
 1                     11.97677  -1.90423   0.2814 
 1                     11.43659  -0.89008  -1.34426 
 1                     11.95413   1.15208   0.09766 
 1                     12.78308   0.26924   1.21789 
 1                     13.4338   0.42009  -1.8876 
 1                     14.59669  -0.91305   0.57031 
 1                     14.05952  -1.65782  -0.63871 
 1                     15.47662  -0.94698  -0.87316 
 1                     13.62821   2.59664  -0.22599 
 1                     14.76421   1.77476   0.74045 
 1                     16.32324   1.25106  -0.80632 
 1                     15.41018   2.21323  -2.30711 
 1                     15.56267   4.21821  -0.69896 
 1                     16.2953   3.49228   0.51779 
 1                     18.23321   2.83031  -1.05348 
 1                     16.75555   4.88501  -3.18867 
 1                     18.38106   4.13589  -3.32068 
 1                     16.86737   3.08511  -3.22754 
 1                     18.32652   4.99754   0.38637 
 1                     19.03683   5.31009  -1.25963 
 1                     17.33593   5.77528  -0.86186 
 1                    -5.34284  -7.74206  -0.1648 
 1                    -6.52921  -6.82095   1.09897 
 1                    -4.71746  -6.91666   1.48212 
 8                    -7.77659   6.96753  -0.53218 
 1                    -9.4056    6.13372  -1.80305 
 
 Stoichiometry    C54H68MgN4O7
 Framework group  C1[X(C54H68MgN4O7)]
 Deg. of freedom   396
 Full point group                 C1      NOp   1
 Largest Abelian subgroup         C1      NOp   1
 Largest concise Abelian subgroup C1      NOp   1
                         Standard orientation:                         
 ---------------------------------------------------------------------
 Center     Atomic      Atomic             Coordinates (Angstroms)
 Number     Number       Type             X           Y           Z
 ---------------------------------------------------------------------
      1         12           0       -5.782427    1.163166    0.271888
      2          6           0       -5.061465   -2.192816   -0.294866
      3          6           0       -3.595435    1.134611    2.715182
      4          6           0       -6.317143    4.483410    0.658923
      5          6           0       -8.170097    1.123827   -2.350694
      6          7           0       -4.506124   -0.182898    1.086286
      7          6           0       -4.338005   -1.569340    0.659115
      8          6           0       -3.153325   -2.203307    1.415763
      9          6           0       -2.870217   -1.228360    2.541543
     10          6           0       -3.629448   -0.037359    2.135550
     11          6           0       -3.447059   -1.707648    3.917787
     12          6           0       -2.067391   -2.733369    0.632747
     13          6           0       -1.034361   -3.492563    1.381202
     14          6           0        0.253934   -3.814366    0.602494
     15          8           0        0.429565   -3.398781   -0.522632
     16          8           0        1.224045   -4.535370    1.239800
     17          7           0       -5.021632    2.619789    1.499475
     18          6           0       -4.125689    2.418951    2.470696
     19          6           0       -3.800597    3.758673    3.177753
     20          6           0       -4.664063    4.576316    2.593976
     21          6           0       -5.370628    3.920262    1.528728
     22          6           0       -2.812553    3.845864    4.306395
     23          6           0       -4.582236    6.012297    2.802866
     24          8           0       -4.061847    6.526029    3.723548
     25          7           0       -6.973753    2.641857   -0.782155
     26          6           0       -7.019228    3.945576   -0.441595
     27          6           0       -7.900652    4.632908   -1.270691
     28          6           0       -8.471694    3.631177   -2.068944
     29          6           0       -7.782890    2.416850   -1.754132
     30          6           0       -8.411186    6.029909   -1.189407
     31          6           0       -9.469094    3.733442   -3.152356
     32          6           0       -8.834643    3.900338   -4.540712
     33          7           0       -6.557880   -0.295768   -1.009118
     34          6           0       -7.447699   -0.180698   -2.121486
     35          6           0       -7.675880   -1.501756   -2.768802
     36          6           0       -6.777645   -2.288868   -1.980883
     37          6           0       -6.090728   -1.453007   -1.010721
     38          6           0       -8.488522   -1.759139   -3.866149
     39          6           0       -6.173715   -3.646764   -2.006489
     40          8           0       -6.544484   -4.655193   -2.495276
     41          6           0       -5.081258   -3.588767   -0.848414
     42          6           0       -5.354244   -4.682651    0.209169
     43          8           0       -5.763475   -4.486062    1.309033
     44          8           0       -5.164843   -5.886306   -0.262264
     45          6           0       -5.533138   -6.914406    0.624551
     46          6           0        2.361527   -4.824939    0.421946
     47          6           0        3.502099   -4.007968    0.810498
     48          6           0        4.140912   -3.038968    0.030276
     49          6           0        3.724533   -2.696824   -1.369744
     50          6           0        5.262874   -2.206899    0.741149
     51          6           0        6.591929   -2.557806    0.071787
     52          6           0        7.818779   -1.805278    0.630199
     53          6           0        9.131183   -1.939398    0.063531
     54          6           0        9.693739   -3.404560    0.427994
     55          6           0       10.122772   -0.954591    0.503909
     56          6           0       11.490543   -0.968905   -0.173374
     57          6           0       12.404763    0.273438    0.185804
     58          6           0       13.714767    0.378784   -0.609379
     59          6           0       14.535691   -0.782735   -0.375555
     60          6           0       14.322708    1.773825   -0.332267
     61          6           0       15.546520    2.121369   -1.110798
     62          6           0       16.104581    3.381790   -0.665826
     63          6           0       17.410696    3.793815   -1.302523
     64          6           0       17.388937    4.021850   -2.935361
     65          6           0       18.122476    5.017934   -0.731099
     66          1           0       -2.750491    1.240556    3.503951
     67          1           0       -6.443784    5.495123    0.987905
     68          1           0       -8.961443    0.972544   -3.024702
     69          1           0       -3.553923   -3.143711    1.910243
     70          1           0       -1.849146   -0.996663    2.616167
     71          1           0       -2.843034   -2.549814    4.254212
     72          1           0       -3.193594   -0.880204    4.564176
     73          1           0       -4.643742   -1.804235    3.860936
     74          1           0       -2.353019   -3.280766   -0.178297
     75          1           0       -1.630160   -1.831219    0.213659
     76          1           0       -0.749056   -2.941471    2.237204
     77          1           0       -1.347844   -4.383882    1.851138
     78          1           0       -1.825844    3.592595    4.128375
     79          1           0       -2.957947    4.983907    4.483159
     80          1           0       -3.426166    3.153005    5.225250
     81          1           0       -5.043965    6.875858    2.123580
     82          1           0      -10.078615    2.974333   -3.105473
     83          1           0      -10.262538    4.502002   -2.832167
     84          1           0       -9.475338    3.830156   -5.404940
     85          1           0       -8.271770    4.746317   -4.752847
     86          1           0       -7.960572    3.082117   -4.772651
     87          1           0       -8.293045   -1.316065   -4.782958
     88          1           0       -8.413211   -2.988095   -3.927704
     89          1           0       -9.548448   -1.631933   -3.680241
     90          1           0       -4.236825   -3.974466   -1.370629
     91          1           0        2.636455   -5.865889    0.599815
     92          1           0        2.133717   -4.580646   -0.616464
     93          1           0        3.709282   -3.987301    1.816011
     94          1           0        2.648309   -3.149322   -1.572824
     95          1           0        3.879530   -1.618361   -1.373171
     96          1           0        4.304794   -3.318042   -2.037849
     97          1           0        4.886488   -1.159973    0.729966
     98          1           0        5.403758   -2.633546    1.712294
     99          1           0        6.839873   -3.524271    0.215904
    100          1           0        6.625241   -2.420527   -1.055201
    101          1           0        7.640503   -0.573015    0.663105
    102          1           0        7.801415   -1.903302    1.846026
    103          1           0        9.175988   -2.048209   -1.028886
    104          1           0        9.011499   -4.095638   -0.010217
    105          1           0       10.711260   -3.473736   -0.070543
    106          1           0        9.612115   -3.568142    1.516959
    107          1           0        9.645340    0.066703    0.562731
    108          1           0       10.462274   -1.022439    1.590862
    109          1           0       11.973190   -1.897940    0.301930
    110          1           0       11.433156   -0.899902   -1.333712
    111          1           0       11.949638    1.156417    0.088322
    112          1           0       12.778549    0.284831    1.217361
    113          1           0       13.430114    0.405525   -1.889277
    114          1           0       14.592716   -0.903159    0.581881
    115          1           0       14.056122   -1.659876   -0.619955
    116          1           0       15.473067   -0.950911   -0.860941
    117          1           0       13.623363    2.598275   -0.248964
    118          1           0       14.759347    1.786246    0.725790
    119          1           0       16.318980    1.247944   -0.815348
    120          1           0       15.406041    2.195108   -2.325735
    121          1           0       15.557444    4.215755   -0.737213
    122          1           0       16.289956    3.501985    0.486787
    123          1           0       18.228526    2.825304   -1.077394
    124          1           0       16.750830    4.858566   -3.232987
    125          1           0       18.376611    4.108712   -3.357205
    126          1           0       16.863226    3.058416   -3.254230
    127          1           0       18.320741    5.006537    0.341227
    128          1           0       19.031424    5.303206   -1.307544
    129          1           0       17.330259    5.771727   -0.914827
    130          1           0       -5.344458   -7.745341   -0.092081
    131          1           0       -6.531480   -6.812305    1.162290
    132          1           0       -4.719810   -6.903691    1.546871
    133          8           0       -7.782724    6.959175   -0.603905
    134          1           0       -9.411112    6.112471   -1.867027
 ---------------------------------------------------------------------
 Rotational constants (GHZ):      0.0352414      0.0079404      0.0070522
 Standard basis: 6-31G(d,p) (6D, 7F)
 There are  1334 symmetry adapted cartesian basis functions of A   symmetry.
 There are  1334 symmetry adapted basis functions of A   symmetry.
  1334 basis functions,  2348 primitive gaussians,  1334 cartesian basis functions
   244 alpha electrons      244 beta electrons
       nuclear repulsion energy      9117.5605949973 Hartrees.
 NAtoms=  134 NActive=  134 NUniq=  134 SFac= 1.00D+00 NAtFMM=   60 NAOKFM=T Big=T
 Integral buffers will be    131072 words long.
 Raffenetti 1 integral format.
 Two-electron integral symmetry is turned on.
 One-electron integrals computed using PRISM.
 NBasis=  1334 RedAO= T EigKep=  3.23D-04  NBF=  1334
 NBsUse=  1334 1.00D-06 EigRej= -1.00D+00 NBFU=  1334
 ExpMin= 4.21D-02 ExpMax= 1.17D+04 ExpMxC= 1.76D+03 IAcc=2 IRadAn=         4 AccDes= 0.00D+00
 Harris functional with IExCor=20419 and IRadAn=       4 diagonalized for initial guess.
 HarFok:  IExCor=20419 AccDes= 0.00D+00 IRadAn=         4 IDoV= 1 UseB2=F ITyADJ=14
 ICtDFT=  3500011 ScaDFX=  1.000000  1.000000  1.000000  1.000000
 FoFCou: FMM=F IPFlag=           0 FMFlag=      100000 FMFlg1=        2001
         NFxFlg=           0 DoJE=T BraDBF=F KetDBF=T FulRan=T
         wScrn=  0.000000 ICntrl=     500 IOpCl=  0 I1Cent=   200000004 NGrid=           0
         NMat0=    1 NMatS0=      1 NMatT0=    0 NMatD0=    1 NMtDS0=    0 NMtDT0=    0
 Petite list used in FoFCou.
 Requested convergence on RMS density matrix=1.00D-08 within 128 cycles.
 Requested convergence on MAX density matrix=1.00D-06.
 Requested convergence on             energy=1.00D-06.
 No special actions if energy rises.
 SCF Done:  E(RCAM-B3LYP) =  -3043.45625089     A.U. after   15 cycles
            NFock= 15  Conv=0.89D-08     -V/T= 2.0084
 DoSCS=F DFT=T ScalE2(SS,OS)=  1.000000  1.000000
 ExpMin= 4.21D-02 ExpMax= 1.17D+04 ExpMxC= 1.76D+03 IAcc=3 IRadAn=         5 AccDes= 0.00D+00
 HarFok:  IExCor=  205 AccDes= 0.00D+00 IRadAn=         5 IDoV=-2 UseB2=F ITyADJ=14
 ICtDFT= 12500011 ScaDFX=  1.000000  1.000000  1.000000  1.000000
 Range of M.O.s used for correlation:    71  1334
 NBasis=  1334 NAE=   244 NBE=   244 NFC=    70 NFV=     0
 NROrb=   1264 NOA=   174 NOB=   174 NVA=  1090 NVB=  1090
 Would need an additional       2379600800000 words for in-memory AO integral storage.
 Orbital symmetries:
       Occupied  (A) (A) (A) (A) (A) (A) (A) (A) (A) (A) (A) (A)
                 (A) (A) (A) (A) (A) (A) (A) (A) (A) (A) (A) (A)
                 (A) (A) (A) (A) (A) (A) (A) (A) (A) (A) (A) (A)
                 (A) (A) (A) (A) (A) (A) (A) (A) (A) (A) (A) (A)
                 (A) (A) (A) (A) (A) (A) (A) (A) (A) (A) (A) (A)
                 (A) (A) (A) (A) (A) (A) (A) (A) (A) (A) (A) (A)
                 (A) (A) (A) (A) (A) (A) (A) (A) (A) (A) (A) (A)
                 (A) (A) (A) (A) (A) (A) (A) (A) (A) (A) (A) (A)
                 (A) (A) (A) (A) (A) (A) (A) (A) (A) (A) (A) (A)
                 (A) (A) (A) (A) (A) (A) (A) (A) (A) (A) (A) (A)
                 (A) (A) (A) (A) (A) (A) (A) (A) (A) (A) (A) (A)
                 (A) (A) (A) (A) (A) (A) (A) (A) (A) (A) (A) (A)
                 (A) (A) (A) (A) (A) (A) (A) (A) (A) (A) (A) (A)
                 (A) (A) (A) (A) (A) (A) (A) (A) (A) (A) (A) (A)
                 (A) (A) (A) (A) (A) (A) (A) (A) (A) (A) (A) (A)
                 (A) (A) (A) (A) (A) (A) (A) (A) (A) (A) (A) (A)
                 (A) (A) (A) (A) (A) (A) (A) (A) (A) (A) (A) (A)
                 (A) (A) (A) (A) (A) (A) (A) (A) (A) (A) (A) (A)
                 (A) (A) (A) (A) (A) (A) (A) (A) (A) (A) (A) (A)
                 (A) (A) (A) (A) (A) (A) (A) (A) (A) (A) (A) (A)
                 (A) (A) (A) (A)
       Virtual   (A) (A) (A) (A) (A) (A) (A) (A) (A) (A) (A) (A)
                 (A) (A) (A) (A) (A) (A) (A) (A) (A) (A) (A) (A)
                 (A) (A) (A) (A) (A) (A) (A) (A) (A) (A) (A) (A)
                 (A) (A) (A) (A) (A) (A) (A) (A) (A) (A) (A) (A)
                 (A) (A) (A) (A) (A) (A) (A) (A) (A) (A) (A) (A)
                 (A) (A) (A) (A) (A) (A) (A) (A) (A) (A) (A) (A)
                 (A) (A) (A) (A) (A) (A) (A) (A) (A) (A) (A) (A)
                 (A) (A) (A) (A) (A) (A) (A) (A) (A) (A) (A) (A)
                 (A) (A) (A) (A) (A) (A) (A) (A) (A) (A) (A) (A)
                 (A) (A) (A) (A) (A) (A) (A) (A) (A) (A) (A) (A)
                 (A) (A) (A) (A) (A) (A) (A) (A) (A) (A) (A) (A)
                 (A) (A) (A) (A) (A) (A) (A) (A) (A) (A) (A) (A)
                 (A) (A) (A) (A) (A) (A) (A) (A) (A) (A) (A) (A)
                 (A) (A) (A) (A) (A) (A) (A) (A) (A) (A) (A) (A)
                 (A) (A) (A) (A) (A) (A) (A) (A) (A) (A) (A) (A)
                 (A) (A) (A) (A) (A) (A) (A) (A) (A) (A) (A) (A)
                 (A) (A) (A) (A) (A) (A) (A) (A) (A) (A) (A) (A)
                 (A) (A) (A) (A) (A) (A) (A) (A) (A) (A) (A) (A)
                 (A) (A) (A) (A) (A) (A) (A) (A) (A) (A) (A) (A)
                 (A) (A) (A) (A) (A) (A) (A) (A) (A) (A) (A) (A)
                 (A) (A) (A) (A) (A) (A) (A) (A) (A) (A) (A) (A)
                 (A) (A) (A) (A) (A) (A) (A) (A) (A) (A) (A) (A)
                 (A) (A) (A) (A) (A) (A) (A) (A) (A) (A) (A) (A)
                 (A) (A) (A) (A) (A) (A) (A) (A) (A) (A) (A) (A)
                 (A) (A) (A) (A) (A) (A) (A) (A) (A) (A) (A) (A)
                 (A) (A) (A) (A) (A) (A) (A) (A) (A) (A) (A) (A)
                 (A) (A) (A) (A) (A) (A) (A) (A) (A) (A) (A) (A)
                 (A) (A) (A) (A) (A) (A) (A) (A) (A) (A) (A) (A)
                 (A) (A) (A) (A) (A) (A) (A) (A) (A) (A) (A) (A)
                 (A) (A) (A) (A) (A) (A) (A) (A) (A) (A) (A) (A)
                 (A) (A) (A) (A) (A) (A) (A) (A) (A) (A) (A) (A)
                 (A) (A) (A) (A) (A) (A) (A) (A) (A) (A) (A) (A)
                 (A) (A) (A) (A) (A) (A) (A) (A) (A) (A) (A) (A)
                 (A) (A) (A) (A) (A) (A) (A) (A) (A) (A) (A) (A)
                 (A) (A) (A) (A) (A) (A) (A) (A) (A) (A) (A) (A)
                 (A) (A) (A) (A) (A) (A) (A) (A) (A) (A) (A) (A)
                 (A) (A) (A) (A) (A) (A) (A) (A) (A) (A) (A) (A)
                 (A) (A) (A) (A) (A) (A) (A) (A) (A) (A) (A) (A)
                 (A) (A) (A) (A) (A) (A) (A) (A) (A) (A) (A) (A)
                 (A) (A) (A) (A) (A) (A) (A) (A) (A) (A) (A) (A)
                 (A) (A) (A) (A) (A) (A) (A) (A) (A) (A) (A) (A)
                 (A) (A) (A) (A) (A) (A) (A) (A) (A) (A) (A) (A)
                 (A) (A) (A) (A) (A) (A) (A) (A) (A) (A) (A) (A)
                 (A) (A) (A) (A) (A) (A) (A) (A) (A) (A) (A) (A)
                 (A) (A) (A) (A) (A) (A) (A) (A) (A) (A) (A) (A)
                 (A) (A) (A) (A) (A) (A) (A) (A) (A) (A) (A) (A)
                 (A) (A) (A) (A) (A) (A) (A) (A) (A) (A) (A) (A)
                 (A) (A) (A) (A) (A) (A) (A) (A) (A) (A) (A) (A)
                 (A) (A) (A) (A) (A) (A) (A) (A) (A) (A) (A) (A)
                 (A) (A) (A) (A) (A) (A) (A) (A) (A) (A) (A) (A)
                 (A) (A) (A) (A) (A) (A) (A) (A) (A) (A) (A) (A)
                 (A) (A) (A) (A) (A) (A) (A) (A) (A) (A) (A) (A)
                 (A) (A) (A) (A) (A) (A) (A) (A) (A) (A) (A) (A)
                 (A) (A) (A) (A) (A) (A) (A) (A) (A) (A) (A) (A)
                 (A) (A) (A) (A) (A) (A) (A) (A) (A) (A) (A) (A)
                 (A) (A) (A) (A) (A) (A) (A) (A) (A) (A) (A) (A)
                 (A) (A) (A) (A) (A) (A) (A) (A) (A) (A) (A) (A)
                 (A) (A) (A) (A) (A) (A) (A) (A) (A) (A) (A) (A)
                 (A) (A) (A) (A) (A) (A) (A) (A) (A) (A) (A) (A)
                 (A) (A) (A) (A) (A) (A) (A) (A) (A) (A) (A) (A)
                 (A) (A) (A) (A) (A) (A) (A) (A) (A) (A) (A) (A)
                 (A) (A) (A) (A) (A) (A) (A) (A) (A) (A) (A) (A)
                 (A) (A) (A) (A) (A) (A) (A) (A) (A) (A) (A) (A)
                 (A) (A) (A) (A) (A) (A) (A) (A) (A) (A) (A) (A)
                 (A) (A) (A) (A) (A) (A) (A) (A) (A) (A) (A) (A)
                 (A) (A) (A) (A) (A) (A) (A) (A) (A) (A) (A) (A)
                 (A) (A) (A) (A) (A) (A) (A) (A) (A) (A) (A) (A)
                 (A) (A) (A) (A) (A) (A) (A) (A) (A) (A) (A) (A)
                 (A) (A) (A) (A) (A) (A) (A) (A) (A) (A) (A) (A)
                 (A) (A) (A) (A) (A) (A) (A) (A) (A) (A) (A) (A)
                 (A) (A) (A) (A) (A) (A) (A) (A) (A) (A) (A) (A)
                 (A) (A) (A) (A) (A) (A) (A) (A) (A) (A) (A) (A)
                 (A) (A) (A) (A) (A) (A) (A) (A) (A) (A) (A) (A)
                 (A) (A) (A) (A) (A) (A) (A) (A) (A) (A) (A) (A)
                 (A) (A) (A) (A) (A) (A) (A) (A) (A) (A) (A) (A)
                 (A) (A) (A) (A) (A) (A) (A) (A) (A) (A) (A) (A)
                 (A) (A) (A) (A) (A) (A) (A) (A) (A) (A) (A) (A)
                 (A) (A) (A) (A) (A) (A) (A) (A) (A) (A) (A) (A)
                 (A) (A) (A) (A) (A) (A) (A) (A) (A) (A) (A) (A)
                 (A) (A) (A) (A) (A) (A) (A) (A) (A) (A) (A) (A)
                 (A) (A) (A) (A) (A) (A) (A) (A) (A) (A) (A) (A)
                 (A) (A) (A) (A) (A) (A) (A) (A) (A) (A) (A) (A)
                 (A) (A) (A) (A) (A) (A) (A) (A) (A) (A) (A) (A)
                 (A) (A) (A) (A) (A) (A) (A) (A) (A) (A) (A) (A)
                 (A) (A) (A) (A) (A) (A) (A) (A) (A) (A) (A) (A)
                 (A) (A) (A) (A) (A) (A) (A) (A) (A) (A) (A) (A)
                 (A) (A) (A) (A) (A) (A) (A) (A) (A) (A) (A) (A)
                 (A) (A) (A) (A) (A) (A) (A) (A) (A) (A) (A) (A)
                 (A) (A) (A) (A) (A) (A) (A) (A) (A) (A) (A) (A)
                 (A) (A) (A) (A) (A) (A) (A) (A) (A) (A) (A) (A)
                 (A) (A) (A) (A) (A) (A) (A) (A) (A) (A)
     8 initial guesses have been made.
 Convergence on wavefunction:    0.001000000000000
 Iteration     1 Dimension     8 NMult     0 NNew      8
 CISAX will form     8 AO SS matrices at one time.
 Iteration     2 Dimension    12 NMult     8 NNew      4
 Iteration     3 Dimension    16 NMult    12 NNew      4
 Iteration     4 Dimension    20 NMult    16 NNew      4
 Iteration     5 Dimension    24 NMult    20 NNew      4
 Iteration     6 Dimension    28 NMult    24 NNew      4
 Iteration     7 Dimension    32 NMult    28 NNew      4
 ***********************************************************************
 Excited states from <AA,BB:AA,BB> singles matrix:
 ***********************************************************************
 
 Ground to excited state transition densities written to RWF  633
 Ground to excited state transition electric dipole moments (Au):
       state          X           Y           Z        Dip. S.      Osc.
         1         0.7341      1.4012      1.2593      4.0883      0.2082
 Ground to excited state transition velocity dipole moments (Au):
       state          X           Y           Z        Dip. S.      Osc.
         1        -0.0537     -0.1034     -0.0936      0.0223      0.1949
 Ground to excited state transition magnetic dipole moments (Au):
       state          X           Y           Z
         1        -1.6702     -1.4693      2.5904
 Ground to excited state transition velocity quadrupole moments (Au):
       state          XX          YY          ZZ          XY          XZ          YZ
         1         1.0888     -0.1498     -0.1842      1.1044      0.9153     -0.0821
 <0|del|b> * <b|rxdel|0> + <0|del|b> * <b|delr+rdel|0>
 Rotatory Strengths (R) in cgs (10**-40 erg-esu-cm/Gauss)
       state          XX          YY          ZZ    R(velocity)    E-M Angle
         1      -459.4258   -208.2222    659.9422     -2.5686       90.09
 1/2[<0|r|b>*<b|rxdel|0> + (<0|rxdel|b>*<b|r|0>)*]
 Rotatory Strengths (R) in cgs (10**-40 erg-esu-cm/Gauss)
       state          XX          YY          ZZ     R(length)
         1       867.0895   1455.9216  -2306.8966      5.3715
  1/2[<0|del|b>*<b|r|0> + (<0|r|b>*<b|del|0>)*] (Au)
       state          X           Y           Z        Dip. S.   Osc.(frdel)
         1        -0.0394     -0.1449     -0.1179      0.3022      0.2014

 Excitation energies and oscillator strengths:
 
 Excited State   1:      Singlet-A      2.0785 eV  596.52 nm  f=0.2082  <S**2>=0.000
     243 -> 246       -0.23121
     244 -> 245        0.65683
 This state for optimization and/or second-order correction.
 Total Energy, E(TD-HF/TD-KS) =  -3043.37986916    
 Copying the excited state density for this state as the 1-particle RhoCI density.
 SavETr:  write IOETrn=   770 NScale= 10 NData=  16 NLR=1 NState=    1 LETran=      28.

 **********************************************************************

            Population analysis using the SCF density.

 **********************************************************************

 Orbital symmetries:
       Occupied  (A) (A) (A) (A) (A) (A) (A) (A) (A) (A) (A) (A)
                 (A) (A) (A) (A) (A) (A) (A) (A) (A) (A) (A) (A)
                 (A) (A) (A) (A) (A) (A) (A) (A) (A) (A) (A) (A)
                 (A) (A) (A) (A) (A) (A) (A) (A) (A) (A) (A) (A)
                 (A) (A) (A) (A) (A) (A) (A) (A) (A) (A) (A) (A)
                 (A) (A) (A) (A) (A) (A) (A) (A) (A) (A) (A) (A)
                 (A) (A) (A) (A) (A) (A) (A) (A) (A) (A) (A) (A)
                 (A) (A) (A) (A) (A) (A) (A) (A) (A) (A) (A) (A)
                 (A) (A) (A) (A) (A) (A) (A) (A) (A) (A) (A) (A)
                 (A) (A) (A) (A) (A) (A) (A) (A) (A) (A) (A) (A)
                 (A) (A) (A) (A) (A) (A) (A) (A) (A) (A) (A) (A)
                 (A) (A) (A) (A) (A) (A) (A) (A) (A) (A) (A) (A)
                 (A) (A) (A) (A) (A) (A) (A) (A) (A) (A) (A) (A)
                 (A) (A) (A) (A) (A) (A) (A) (A) (A) (A) (A) (A)
                 (A) (A) (A) (A) (A) (A) (A) (A) (A) (A) (A) (A)
                 (A) (A) (A) (A) (A) (A) (A) (A) (A) (A) (A) (A)
                 (A) (A) (A) (A) (A) (A) (A) (A) (A) (A) (A) (A)
                 (A) (A) (A) (A) (A) (A) (A) (A) (A) (A) (A) (A)
                 (A) (A) (A) (A) (A) (A) (A) (A) (A) (A) (A) (A)
                 (A) (A) (A) (A) (A) (A) (A) (A) (A) (A) (A) (A)
                 (A) (A) (A) (A)
       Virtual   (A) (A) (A) (A) (A) (A) (A) (A) (A) (A) (A) (A)
                 (A) (A) (A) (A) (A) (A) (A) (A) (A) (A) (A) (A)
                 (A) (A) (A) (A) (A) (A) (A) (A) (A) (A) (A) (A)
                 (A) (A) (A) (A) (A) (A) (A) (A) (A) (A) (A) (A)
                 (A) (A) (A) (A) (A) (A) (A) (A) (A) (A) (A) (A)
                 (A) (A) (A) (A) (A) (A) (A) (A) (A) (A) (A) (A)
                 (A) (A) (A) (A) (A) (A) (A) (A) (A) (A) (A) (A)
                 (A) (A) (A) (A) (A) (A) (A) (A) (A) (A) (A) (A)
                 (A) (A) (A) (A) (A) (A) (A) (A) (A) (A) (A) (A)
                 (A) (A) (A) (A) (A) (A) (A) (A) (A) (A) (A) (A)
                 (A) (A) (A) (A) (A) (A) (A) (A) (A) (A) (A) (A)
                 (A) (A) (A) (A) (A) (A) (A) (A) (A) (A) (A) (A)
                 (A) (A) (A) (A) (A) (A) (A) (A) (A) (A) (A) (A)
                 (A) (A) (A) (A) (A) (A) (A) (A) (A) (A) (A) (A)
                 (A) (A) (A) (A) (A) (A) (A) (A) (A) (A) (A) (A)
                 (A) (A) (A) (A) (A) (A) (A) (A) (A) (A) (A) (A)
                 (A) (A) (A) (A) (A) (A) (A) (A) (A) (A) (A) (A)
                 (A) (A) (A) (A) (A) (A) (A) (A) (A) (A) (A) (A)
                 (A) (A) (A) (A) (A) (A) (A) (A) (A) (A) (A) (A)
                 (A) (A) (A) (A) (A) (A) (A) (A) (A) (A) (A) (A)
                 (A) (A) (A) (A) (A) (A) (A) (A) (A) (A) (A) (A)
                 (A) (A) (A) (A) (A) (A) (A) (A) (A) (A) (A) (A)
                 (A) (A) (A) (A) (A) (A) (A) (A) (A) (A) (A) (A)
                 (A) (A) (A) (A) (A) (A) (A) (A) (A) (A) (A) (A)
                 (A) (A) (A) (A) (A) (A) (A) (A) (A) (A) (A) (A)
                 (A) (A) (A) (A) (A) (A) (A) (A) (A) (A) (A) (A)
                 (A) (A) (A) (A) (A) (A) (A) (A) (A) (A) (A) (A)
                 (A) (A) (A) (A) (A) (A) (A) (A) (A) (A) (A) (A)
                 (A) (A) (A) (A) (A) (A) (A) (A) (A) (A) (A) (A)
                 (A) (A) (A) (A) (A) (A) (A) (A) (A) (A) (A) (A)
                 (A) (A) (A) (A) (A) (A) (A) (A) (A) (A) (A) (A)
                 (A) (A) (A) (A) (A) (A) (A) (A) (A) (A) (A) (A)
                 (A) (A) (A) (A) (A) (A) (A) (A) (A) (A) (A) (A)
                 (A) (A) (A) (A) (A) (A) (A) (A) (A) (A) (A) (A)
                 (A) (A) (A) (A) (A) (A) (A) (A) (A) (A) (A) (A)
                 (A) (A) (A) (A) (A) (A) (A) (A) (A) (A) (A) (A)
                 (A) (A) (A) (A) (A) (A) (A) (A) (A) (A) (A) (A)
                 (A) (A) (A) (A) (A) (A) (A) (A) (A) (A) (A) (A)
                 (A) (A) (A) (A) (A) (A) (A) (A) (A) (A) (A) (A)
                 (A) (A) (A) (A) (A) (A) (A) (A) (A) (A) (A) (A)
                 (A) (A) (A) (A) (A) (A) (A) (A) (A) (A) (A) (A)
                 (A) (A) (A) (A) (A) (A) (A) (A) (A) (A) (A) (A)
                 (A) (A) (A) (A) (A) (A) (A) (A) (A) (A) (A) (A)
                 (A) (A) (A) (A) (A) (A) (A) (A) (A) (A) (A) (A)
                 (A) (A) (A) (A) (A) (A) (A) (A) (A) (A) (A) (A)
                 (A) (A) (A) (A) (A) (A) (A) (A) (A) (A) (A) (A)
                 (A) (A) (A) (A) (A) (A) (A) (A) (A) (A) (A) (A)
                 (A) (A) (A) (A) (A) (A) (A) (A) (A) (A) (A) (A)
                 (A) (A) (A) (A) (A) (A) (A) (A) (A) (A) (A) (A)
                 (A) (A) (A) (A) (A) (A) (A) (A) (A) (A) (A) (A)
                 (A) (A) (A) (A) (A) (A) (A) (A) (A) (A) (A) (A)
                 (A) (A) (A) (A) (A) (A) (A) (A) (A) (A) (A) (A)
                 (A) (A) (A) (A) (A) (A) (A) (A) (A) (A) (A) (A)
                 (A) (A) (A) (A) (A) (A) (A) (A) (A) (A) (A) (A)
                 (A) (A) (A) (A) (A) (A) (A) (A) (A) (A) (A) (A)
                 (A) (A) (A) (A) (A) (A) (A) (A) (A) (A) (A) (A)
                 (A) (A) (A) (A) (A) (A) (A) (A) (A) (A) (A) (A)
                 (A) (A) (A) (A) (A) (A) (A) (A) (A) (A) (A) (A)
                 (A) (A) (A) (A) (A) (A) (A) (A) (A) (A) (A) (A)
                 (A) (A) (A) (A) (A) (A) (A) (A) (A) (A) (A) (A)
                 (A) (A) (A) (A) (A) (A) (A) (A) (A) (A) (A) (A)
                 (A) (A) (A) (A) (A) (A) (A) (A) (A) (A) (A) (A)
                 (A) (A) (A) (A) (A) (A) (A) (A) (A) (A) (A) (A)
                 (A) (A) (A) (A) (A) (A) (A) (A) (A) (A) (A) (A)
                 (A) (A) (A) (A) (A) (A) (A) (A) (A) (A) (A) (A)
                 (A) (A) (A) (A) (A) (A) (A) (A) (A) (A) (A) (A)
                 (A) (A) (A) (A) (A) (A) (A) (A) (A) (A) (A) (A)
                 (A) (A) (A) (A) (A) (A) (A) (A) (A) (A) (A) (A)
                 (A) (A) (A) (A) (A) (A) (A) (A) (A) (A) (A) (A)
                 (A) (A) (A) (A) (A) (A) (A) (A) (A) (A) (A) (A)
                 (A) (A) (A) (A) (A) (A) (A) (A) (A) (A) (A) (A)
                 (A) (A) (A) (A) (A) (A) (A) (A) (A) (A) (A) (A)
                 (A) (A) (A) (A) (A) (A) (A) (A) (A) (A) (A) (A)
                 (A) (A) (A) (A) (A) (A) (A) (A) (A) (A) (A) (A)
                 (A) (A) (A) (A) (A) (A) (A) (A) (A) (A) (A) (A)
                 (A) (A) (A) (A) (A) (A) (A) (A) (A) (A) (A) (A)
                 (A) (A) (A) (A) (A) (A) (A) (A) (A) (A) (A) (A)
                 (A) (A) (A) (A) (A) (A) (A) (A) (A) (A) (A) (A)
                 (A) (A) (A) (A) (A) (A) (A) (A) (A) (A) (A) (A)
                 (A) (A) (A) (A) (A) (A) (A) (A) (A) (A) (A) (A)
                 (A) (A) (A) (A) (A) (A) (A) (A) (A) (A) (A) (A)
                 (A) (A) (A) (A) (A) (A) (A) (A) (A) (A) (A) (A)
                 (A) (A) (A) (A) (A) (A) (A) (A) (A) (A) (A) (A)
                 (A) (A) (A) (A) (A) (A) (A) (A) (A) (A) (A) (A)
                 (A) (A) (A) (A) (A) (A) (A) (A) (A) (A) (A) (A)
                 (A) (A) (A) (A) (A) (A) (A) (A) (A) (A) (A) (A)
                 (A) (A) (A) (A) (A) (A) (A) (A) (A) (A) (A) (A)
                 (A) (A) (A) (A) (A) (A) (A) (A) (A) (A) (A) (A)
                 (A) (A) (A) (A) (A) (A) (A) (A) (A) (A) (A) (A)
                 (A) (A) (A) (A) (A) (A) (A) (A) (A) (A) (A) (A)
                 (A) (A) (A) (A) (A) (A) (A) (A) (A) (A)
 The electronic state is 1-A.
 Alpha  occ. eigenvalues --  -46.82231 -19.22896 -19.22286 -19.17512 -19.17391
 Alpha  occ. eigenvalues --  -19.17353 -19.17081 -19.16579 -14.38235 -14.37007
 Alpha  occ. eigenvalues --  -14.36832 -14.36587 -10.35337 -10.34272 -10.31710
 Alpha  occ. eigenvalues --  -10.31220 -10.30700 -10.28695 -10.27307 -10.27287
 Alpha  occ. eigenvalues --  -10.27004 -10.26369 -10.26329 -10.26150 -10.25931
 Alpha  occ. eigenvalues --  -10.25865 -10.25777 -10.25719 -10.25642 -10.25288
 Alpha  occ. eigenvalues --  -10.24295 -10.23816 -10.23642 -10.23539 -10.23432
 Alpha  occ. eigenvalues --  -10.23388 -10.23356 -10.23286 -10.23264 -10.23210
 Alpha  occ. eigenvalues --  -10.23078 -10.23071 -10.23064 -10.22815 -10.22763
 Alpha  occ. eigenvalues --  -10.22621 -10.22435 -10.22409 -10.22309 -10.22279
 Alpha  occ. eigenvalues --  -10.22275 -10.22230 -10.21630 -10.21595 -10.21463
 Alpha  occ. eigenvalues --  -10.21308 -10.21267 -10.20860 -10.20852 -10.20607
 Alpha  occ. eigenvalues --  -10.20378 -10.20018 -10.19996 -10.19917 -10.19887
 Alpha  occ. eigenvalues --  -10.17374  -3.10680  -1.85632  -1.85142  -1.85087
 Alpha  occ. eigenvalues --   -1.16167  -1.13538  -1.09957  -1.09211  -1.05814
 Alpha  occ. eigenvalues --   -1.04734  -1.04174  -1.02302  -1.01303  -1.01038
 Alpha  occ. eigenvalues --   -0.98243  -0.88166  -0.87393  -0.86621  -0.85995
 Alpha  occ. eigenvalues --   -0.85476  -0.85100  -0.84809  -0.84739  -0.84143
 Alpha  occ. eigenvalues --   -0.83708  -0.83395  -0.82096  -0.80646  -0.79914
 Alpha  occ. eigenvalues --   -0.78829  -0.78638  -0.77655  -0.77363  -0.77082
 Alpha  occ. eigenvalues --   -0.75964  -0.75559  -0.74665  -0.72887  -0.72504
 Alpha  occ. eigenvalues --   -0.72396  -0.71080  -0.70451  -0.69990  -0.69742
 Alpha  occ. eigenvalues --   -0.69539  -0.69035  -0.68044  -0.67300  -0.66713
 Alpha  occ. eigenvalues --   -0.65935  -0.65309  -0.63406  -0.62493  -0.62154
 Alpha  occ. eigenvalues --   -0.61488  -0.60725  -0.59864  -0.59299  -0.59008
 Alpha  occ. eigenvalues --   -0.58769  -0.58630  -0.58155  -0.57955  -0.56579
 Alpha  occ. eigenvalues --   -0.56502  -0.56419  -0.55842  -0.55637  -0.55043
 Alpha  occ. eigenvalues --   -0.54441  -0.53832  -0.53401  -0.53067  -0.52787
 Alpha  occ. eigenvalues --   -0.51804  -0.51415  -0.51388  -0.51012  -0.50873
 Alpha  occ. eigenvalues --   -0.50333  -0.49747  -0.49585  -0.49402  -0.49307
 Alpha  occ. eigenvalues --   -0.48969  -0.48846  -0.48662  -0.48383  -0.48259
 Alpha  occ. eigenvalues --   -0.48130  -0.47882  -0.47479  -0.47316  -0.47018
 Alpha  occ. eigenvalues --   -0.46947  -0.46872  -0.46500  -0.46303  -0.46152
 Alpha  occ. eigenvalues --   -0.45794  -0.45607  -0.45535  -0.45171  -0.45049
 Alpha  occ. eigenvalues --   -0.44801  -0.44758  -0.44656  -0.44620  -0.44096
 Alpha  occ. eigenvalues --   -0.43906  -0.43772  -0.43560  -0.43485  -0.43357
 Alpha  occ. eigenvalues --   -0.43108  -0.42737  -0.42678  -0.42563  -0.42149
 Alpha  occ. eigenvalues --   -0.42064  -0.41814  -0.41629  -0.41502  -0.41136
 Alpha  occ. eigenvalues --   -0.41085  -0.40806  -0.40690  -0.40465  -0.40325
 Alpha  occ. eigenvalues --   -0.40197  -0.40096  -0.39794  -0.39615  -0.39353
 Alpha  occ. eigenvalues --   -0.39121  -0.38977  -0.38863  -0.38709  -0.38468
 Alpha  occ. eigenvalues --   -0.38167  -0.38076  -0.38056  -0.37485  -0.37257
 Alpha  occ. eigenvalues --   -0.37179  -0.36575  -0.36514  -0.36400  -0.36128
 Alpha  occ. eigenvalues --   -0.35842  -0.34927  -0.34653  -0.34477  -0.34382
 Alpha  occ. eigenvalues --   -0.34280  -0.33976  -0.33648  -0.33094  -0.32555
 Alpha  occ. eigenvalues --   -0.32113  -0.31835  -0.31725  -0.31423  -0.31256
 Alpha  occ. eigenvalues --   -0.30943  -0.30928  -0.30633  -0.30239  -0.29855
 Alpha  occ. eigenvalues --   -0.29421  -0.28336  -0.27907  -0.27836  -0.27440
 Alpha  occ. eigenvalues --   -0.27289  -0.26102  -0.22922  -0.21662
 Alpha virt. eigenvalues --   -0.08408  -0.06112  -0.00748  -0.00630   0.00660
 Alpha virt. eigenvalues --    0.03123   0.03283   0.03963   0.04325   0.04586
 Alpha virt. eigenvalues --    0.04879   0.05679   0.08163   0.08758   0.09227
 Alpha virt. eigenvalues --    0.10167   0.10293   0.10643   0.10675   0.10767
 Alpha virt. eigenvalues --    0.11013   0.11291   0.11350   0.11759   0.11989
 Alpha virt. eigenvalues --    0.12114   0.12155   0.12414   0.12805   0.13082
 Alpha virt. eigenvalues --    0.13421   0.13540   0.13693   0.13825   0.14030
 Alpha virt. eigenvalues --    0.14241   0.14421   0.14670   0.14871   0.15003
 Alpha virt. eigenvalues --    0.15696   0.15842   0.15903   0.16178   0.16406
 Alpha virt. eigenvalues --    0.16505   0.16751   0.16979   0.17074   0.17308
 Alpha virt. eigenvalues --    0.17353   0.17431   0.17726   0.17795   0.17957
 Alpha virt. eigenvalues --    0.18183   0.18324   0.18391   0.18529   0.18617
 Alpha virt. eigenvalues --    0.18817   0.18999   0.19075   0.19315   0.19434
 Alpha virt. eigenvalues --    0.19481   0.19638   0.19751   0.19916   0.19945
 Alpha virt. eigenvalues --    0.20243   0.20395   0.20990   0.21246   0.21309
 Alpha virt. eigenvalues --    0.21401   0.21596   0.21652   0.21902   0.22432
 Alpha virt. eigenvalues --    0.22470   0.22649   0.22812   0.22966   0.23202
 Alpha virt. eigenvalues --    0.23232   0.23663   0.23974   0.24059   0.24232
 Alpha virt. eigenvalues --    0.24307   0.24732   0.24835   0.25009   0.25106
 Alpha virt. eigenvalues --    0.25379   0.25597   0.25791   0.25978   0.26026
 Alpha virt. eigenvalues --    0.26511   0.26587   0.26868   0.27324   0.27646
 Alpha virt. eigenvalues --    0.27737   0.27891   0.28307   0.28447   0.28627
 Alpha virt. eigenvalues --    0.28694   0.29141   0.29225   0.29334   0.29435
 Alpha virt. eigenvalues --    0.29594   0.30341   0.30645   0.31105   0.31315
 Alpha virt. eigenvalues --    0.31846   0.32019   0.32109   0.32858   0.33246
 Alpha virt. eigenvalues --    0.33508   0.33542   0.33867   0.34168   0.34454
 Alpha virt. eigenvalues --    0.34603   0.35347   0.35475   0.36169   0.36438
 Alpha virt. eigenvalues --    0.36623   0.37168   0.37434   0.37772   0.38402
 Alpha virt. eigenvalues --    0.38981   0.39283   0.39601   0.40022   0.40911
 Alpha virt. eigenvalues --    0.41127   0.41319   0.42726   0.42927   0.43128
 Alpha virt. eigenvalues --    0.44152   0.45002   0.45384   0.46479   0.47084
 Alpha virt. eigenvalues --    0.47466   0.48281   0.48555   0.49426   0.49752
 Alpha virt. eigenvalues --    0.50294   0.50461   0.50775   0.51037   0.51377
 Alpha virt. eigenvalues --    0.51835   0.52056   0.52260   0.52682   0.52818
 Alpha virt. eigenvalues --    0.53027   0.53348   0.53697   0.53879   0.54537
 Alpha virt. eigenvalues --    0.54598   0.54901   0.55007   0.55351   0.55396
 Alpha virt. eigenvalues --    0.55566   0.55873   0.55928   0.56036   0.56377
 Alpha virt. eigenvalues --    0.56509   0.56841   0.57031   0.57149   0.57472
 Alpha virt. eigenvalues --    0.57663   0.57907   0.57974   0.58255   0.58351
 Alpha virt. eigenvalues --    0.58548   0.58992   0.59338   0.59783   0.60030
 Alpha virt. eigenvalues --    0.60254   0.60653   0.61015   0.61112   0.61149
 Alpha virt. eigenvalues --    0.61386   0.62016   0.62099   0.62210   0.62438
 Alpha virt. eigenvalues --    0.62679   0.63000   0.63262   0.63398   0.63556
 Alpha virt. eigenvalues --    0.63891   0.63947   0.64290   0.64505   0.64541
 Alpha virt. eigenvalues --    0.65047   0.65266   0.65714   0.66012   0.66221
 Alpha virt. eigenvalues --    0.66446   0.66727   0.66891   0.67205   0.67305
 Alpha virt. eigenvalues --    0.67726   0.67946   0.68238   0.68657   0.69107
 Alpha virt. eigenvalues --    0.69304   0.69448   0.69774   0.70089   0.70164
 Alpha virt. eigenvalues --    0.70433   0.70711   0.70949   0.71553   0.71903
 Alpha virt. eigenvalues --    0.71929   0.72144   0.72442   0.73012   0.73033
 Alpha virt. eigenvalues --    0.73294   0.73450   0.73671   0.73855   0.74538
 Alpha virt. eigenvalues --    0.74572   0.74905   0.74982   0.75344   0.75608
 Alpha virt. eigenvalues --    0.76059   0.76302   0.76467   0.76794   0.77054
 Alpha virt. eigenvalues --    0.77387   0.77505   0.77702   0.77970   0.78830
 Alpha virt. eigenvalues --    0.79018   0.79123   0.79453   0.79579   0.79616
 Alpha virt. eigenvalues --    0.79866   0.80104   0.80240   0.80426   0.80459
 Alpha virt. eigenvalues --    0.80782   0.80888   0.80970   0.81270   0.81392
 Alpha virt. eigenvalues --    0.81601   0.82066   0.82251   0.82368   0.82735
 Alpha virt. eigenvalues --    0.83177   0.83555   0.83779   0.83860   0.84052
 Alpha virt. eigenvalues --    0.84265   0.84382   0.84867   0.85031   0.85576
 Alpha virt. eigenvalues --    0.85696   0.85844   0.85921   0.86160   0.86428
 Alpha virt. eigenvalues --    0.86648   0.86832   0.86933   0.87100   0.87120
 Alpha virt. eigenvalues --    0.87242   0.87795   0.87952   0.88067   0.88398
 Alpha virt. eigenvalues --    0.88580   0.88764   0.88859   0.89067   0.89293
 Alpha virt. eigenvalues --    0.89411   0.89701   0.90163   0.90265   0.90313
 Alpha virt. eigenvalues --    0.90478   0.90786   0.90988   0.91004   0.91123
 Alpha virt. eigenvalues --    0.91236   0.91474   0.91813   0.92056   0.92262
 Alpha virt. eigenvalues --    0.92688   0.92868   0.92981   0.93125   0.93291
 Alpha virt. eigenvalues --    0.93499   0.93796   0.93951   0.94157   0.94616
 Alpha virt. eigenvalues --    0.94770   0.94872   0.95100   0.95409   0.95501
 Alpha virt. eigenvalues --    0.95705   0.96024   0.96116   0.96211   0.96447
 Alpha virt. eigenvalues --    0.96998   0.97138   0.97395   0.97700   0.97762
 Alpha virt. eigenvalues --    0.98002   0.98115   0.98264   0.98545   0.98644
 Alpha virt. eigenvalues --    0.98844   0.98938   0.99165   0.99513   0.99574
 Alpha virt. eigenvalues --    0.99756   0.99992   1.00110   1.00398   1.00448
 Alpha virt. eigenvalues --    1.00772   1.01336   1.01591   1.01829   1.02045
 Alpha virt. eigenvalues --    1.02315   1.02440   1.02638   1.03067   1.03327
 Alpha virt. eigenvalues --    1.03480   1.03802   1.04230   1.04394   1.05136
 Alpha virt. eigenvalues --    1.05686   1.05776   1.06310   1.06513   1.06776
 Alpha virt. eigenvalues --    1.07287   1.07561   1.07917   1.07963   1.08922
 Alpha virt. eigenvalues --    1.09075   1.09264   1.09647   1.10047   1.10613
 Alpha virt. eigenvalues --    1.11025   1.11257   1.11559   1.12247   1.13209
 Alpha virt. eigenvalues --    1.13654   1.14143   1.14823   1.15053   1.15331
 Alpha virt. eigenvalues --    1.15911   1.16537   1.17042   1.17386   1.18016
 Alpha virt. eigenvalues --    1.18495   1.18659   1.19542   1.20615   1.21197
 Alpha virt. eigenvalues --    1.21274   1.21848   1.22536   1.22726   1.22981
 Alpha virt. eigenvalues --    1.23462   1.24284   1.24779   1.25330   1.25626
 Alpha virt. eigenvalues --    1.26440   1.26852   1.26953   1.27367   1.28440
 Alpha virt. eigenvalues --    1.29035   1.29363   1.29925   1.30125   1.31105
 Alpha virt. eigenvalues --    1.31882   1.32080   1.32151   1.32525   1.32944
 Alpha virt. eigenvalues --    1.33161   1.34369   1.34682   1.35108   1.35370
 Alpha virt. eigenvalues --    1.35962   1.36429   1.36975   1.37589   1.38188
 Alpha virt. eigenvalues --    1.39213   1.39510   1.39967   1.40251   1.40580
 Alpha virt. eigenvalues --    1.41797   1.41886   1.42075   1.42554   1.42682
 Alpha virt. eigenvalues --    1.43511   1.44184   1.45506   1.45970   1.46220
 Alpha virt. eigenvalues --    1.46774   1.47127   1.47735   1.48444   1.48741
 Alpha virt. eigenvalues --    1.49175   1.49311   1.49472   1.50062   1.50428
 Alpha virt. eigenvalues --    1.50650   1.50784   1.51502   1.52158   1.52402
 Alpha virt. eigenvalues --    1.52691   1.52775   1.53210   1.53941   1.54229
 Alpha virt. eigenvalues --    1.54530   1.54646   1.55082   1.55540   1.55569
 Alpha virt. eigenvalues --    1.56292   1.57066   1.57316   1.57913   1.58240
 Alpha virt. eigenvalues --    1.58646   1.59002   1.59154   1.59565   1.59959
 Alpha virt. eigenvalues --    1.60354   1.60507   1.60825   1.61200   1.61492
 Alpha virt. eigenvalues --    1.61721   1.62258   1.62664   1.63398   1.63480
 Alpha virt. eigenvalues --    1.63580   1.64444   1.65765   1.66116   1.66533
 Alpha virt. eigenvalues --    1.66726   1.67158   1.67761   1.67960   1.68094
 Alpha virt. eigenvalues --    1.68844   1.69411   1.69712   1.70231   1.70693
 Alpha virt. eigenvalues --    1.70738   1.71558   1.71839   1.72332   1.72622
 Alpha virt. eigenvalues --    1.73077   1.73246   1.73670   1.73998   1.74594
 Alpha virt. eigenvalues --    1.74633   1.74912   1.75466   1.75851   1.76235
 Alpha virt. eigenvalues --    1.76410   1.76932   1.77023   1.77139   1.77975
 Alpha virt. eigenvalues --    1.78389   1.78551   1.78942   1.79471   1.79715
 Alpha virt. eigenvalues --    1.80080   1.80415   1.80961   1.81493   1.81838
 Alpha virt. eigenvalues --    1.82065   1.82161   1.82841   1.83040   1.83450
 Alpha virt. eigenvalues --    1.83677   1.83996   1.84262   1.84376   1.84499
 Alpha virt. eigenvalues --    1.85082   1.85190   1.85528   1.86054   1.86164
 Alpha virt. eigenvalues --    1.86506   1.86754   1.87253   1.87437   1.87752
 Alpha virt. eigenvalues --    1.87909   1.88547   1.88584   1.88886   1.89016
 Alpha virt. eigenvalues --    1.89068   1.89974   1.90085   1.90340   1.90395
 Alpha virt. eigenvalues --    1.90516   1.90642   1.90946   1.91484   1.91769
 Alpha virt. eigenvalues --    1.92004   1.92159   1.92398   1.92754   1.92957
 Alpha virt. eigenvalues --    1.93053   1.93449   1.93612   1.94161   1.94442
 Alpha virt. eigenvalues --    1.94983   1.95029   1.95090   1.95464   1.95692
 Alpha virt. eigenvalues --    1.95872   1.95996   1.96071   1.96178   1.96667
 Alpha virt. eigenvalues --    1.97213   1.97403   1.97874   1.98312   1.98552
 Alpha virt. eigenvalues --    1.98713   1.99148   1.99281   1.99773   2.00603
 Alpha virt. eigenvalues --    2.00783   2.00931   2.01185   2.01430   2.01958
 Alpha virt. eigenvalues --    2.02162   2.02319   2.02787   2.03325   2.03486
 Alpha virt. eigenvalues --    2.03904   2.03955   2.04165   2.04253   2.04892
 Alpha virt. eigenvalues --    2.05049   2.05092   2.05734   2.06101   2.06118
 Alpha virt. eigenvalues --    2.06417   2.06588   2.06868   2.07117   2.07227
 Alpha virt. eigenvalues --    2.07336   2.08190   2.08246   2.08294   2.08609
 Alpha virt. eigenvalues --    2.09079   2.09449   2.09772   2.09870   2.10476
 Alpha virt. eigenvalues --    2.10611   2.10948   2.11023   2.11049   2.11774
 Alpha virt. eigenvalues --    2.11950   2.12352   2.12510   2.12748   2.12921
 Alpha virt. eigenvalues --    2.13050   2.13298   2.13730   2.13848   2.14470
 Alpha virt. eigenvalues --    2.14621   2.14951   2.15195   2.15378   2.15821
 Alpha virt. eigenvalues --    2.15912   2.16582   2.17218   2.17330   2.17391
 Alpha virt. eigenvalues --    2.17984   2.18532   2.18648   2.19105   2.19245
 Alpha virt. eigenvalues --    2.19635   2.20222   2.20252   2.20549   2.21183
 Alpha virt. eigenvalues --    2.21400   2.21537   2.21767   2.22156   2.22306
 Alpha virt. eigenvalues --    2.22910   2.23364   2.23871   2.24222   2.24749
 Alpha virt. eigenvalues --    2.24899   2.24978   2.25581   2.25909   2.26264
 Alpha virt. eigenvalues --    2.26452   2.27122   2.27517   2.27771   2.28641
 Alpha virt. eigenvalues --    2.28698   2.29090   2.29331   2.29691   2.29845
 Alpha virt. eigenvalues --    2.30158   2.30409   2.30675   2.30772   2.31107
 Alpha virt. eigenvalues --    2.31258   2.31895   2.32063   2.32378   2.32869
 Alpha virt. eigenvalues --    2.33389   2.33546   2.33698   2.34524   2.34549
 Alpha virt. eigenvalues --    2.35225   2.35948   2.36240   2.36359   2.36914
 Alpha virt. eigenvalues --    2.37002   2.37139   2.37154   2.37933   2.38037
 Alpha virt. eigenvalues --    2.38299   2.38752   2.39038   2.39510   2.39718
 Alpha virt. eigenvalues --    2.39964   2.40259   2.40841   2.41184   2.41286
 Alpha virt. eigenvalues --    2.41503   2.41616   2.42231   2.42485   2.42975
 Alpha virt. eigenvalues --    2.43079   2.44069   2.44452   2.44768   2.44870
 Alpha virt. eigenvalues --    2.45417   2.45568   2.45876   2.46081   2.46226
 Alpha virt. eigenvalues --    2.46315   2.47015   2.47478   2.47662   2.48125
 Alpha virt. eigenvalues --    2.48498   2.48906   2.49341   2.49428   2.49637
 Alpha virt. eigenvalues --    2.49751   2.50080   2.50453   2.51169   2.51447
 Alpha virt. eigenvalues --    2.51466   2.51870   2.52384   2.52481   2.52771
 Alpha virt. eigenvalues --    2.53649   2.53981   2.54588   2.54683   2.55197
 Alpha virt. eigenvalues --    2.55497   2.55824   2.55955   2.56294   2.57141
 Alpha virt. eigenvalues --    2.57807   2.58110   2.58375   2.58785   2.59069
 Alpha virt. eigenvalues --    2.59399   2.59508   2.59778   2.60594   2.61058
 Alpha virt. eigenvalues --    2.61680   2.62110   2.62286   2.62572   2.62805
 Alpha virt. eigenvalues --    2.63163   2.63299   2.63398   2.63838   2.64102
 Alpha virt. eigenvalues --    2.64762   2.65229   2.65570   2.66019   2.66241
 Alpha virt. eigenvalues --    2.66666   2.66893   2.66950   2.67678   2.68127
 Alpha virt. eigenvalues --    2.68514   2.68803   2.69004   2.69398   2.69889
 Alpha virt. eigenvalues --    2.69966   2.70185   2.70277   2.70898   2.71603
 Alpha virt. eigenvalues --    2.71693   2.72205   2.72568   2.72862   2.73477
 Alpha virt. eigenvalues --    2.73632   2.74293   2.74358   2.74583   2.74905
 Alpha virt. eigenvalues --    2.75142   2.75251   2.75643   2.75778   2.76522
 Alpha virt. eigenvalues --    2.76809   2.77079   2.77153   2.77841   2.78735
 Alpha virt. eigenvalues --    2.78943   2.79145   2.79423   2.79691   2.80132
 Alpha virt. eigenvalues --    2.80662   2.80873   2.81053   2.81160   2.82442
 Alpha virt. eigenvalues --    2.82769   2.82898   2.83351   2.83535   2.84348
 Alpha virt. eigenvalues --    2.84632   2.84741   2.85026   2.85404   2.85626
 Alpha virt. eigenvalues --    2.86135   2.86588   2.86784   2.87120   2.87250
 Alpha virt. eigenvalues --    2.87667   2.88030   2.88670   2.88724   2.89513
 Alpha virt. eigenvalues --    2.89775   2.89947   2.90238   2.91253   2.91433
 Alpha virt. eigenvalues --    2.91510   2.91554   2.92247   2.92366   2.92647
 Alpha virt. eigenvalues --    2.93816   2.93962   2.94307   2.94589   2.95543
 Alpha virt. eigenvalues --    2.95673   2.96421   2.96754   2.97215   2.97625
 Alpha virt. eigenvalues --    2.97857   2.97982   2.98687   2.98966   2.99316
 Alpha virt. eigenvalues --    2.99579   2.99742   3.00109   3.00710   3.01074
 Alpha virt. eigenvalues --    3.01359   3.01904   3.03015   3.03279   3.03574
 Alpha virt. eigenvalues --    3.05241   3.05706   3.06099   3.06756   3.06952
 Alpha virt. eigenvalues --    3.07378   3.07997   3.08936   3.09090   3.09212
 Alpha virt. eigenvalues --    3.09961   3.10022   3.10850   3.11133   3.11909
 Alpha virt. eigenvalues --    3.12302   3.13008   3.13648   3.14430   3.14638
 Alpha virt. eigenvalues --    3.15757   3.17670   3.18369   3.19022   3.19806
 Alpha virt. eigenvalues --    3.20764   3.21338   3.21959   3.23132   3.23332
 Alpha virt. eigenvalues --    3.23624   3.23938   3.25884   3.26035   3.26911
 Alpha virt. eigenvalues --    3.28060   3.28618   3.29294   3.29447   3.30791
 Alpha virt. eigenvalues --    3.32675   3.33145   3.33942   3.33972   3.35771
 Alpha virt. eigenvalues --    3.35942   3.36725   3.36861   3.37359   3.38170
 Alpha virt. eigenvalues --    3.38541   3.38787   3.39581   3.40311   3.41757
 Alpha virt. eigenvalues --    3.42643   3.42986   3.43225   3.44073   3.44776
 Alpha virt. eigenvalues --    3.44948   3.45084   3.46126   3.46591   3.47145
 Alpha virt. eigenvalues --    3.47718   3.47985   3.48967   3.49188   3.49672
 Alpha virt. eigenvalues --    3.50046   3.50177   3.51380   3.51440   3.52260
 Alpha virt. eigenvalues --    3.52770   3.53657   3.54157   3.55128   3.56395
 Alpha virt. eigenvalues --    3.56572   3.57554   3.58744   3.58805   3.59637
 Alpha virt. eigenvalues --    3.62492   3.65764   3.66064   3.66396   3.70082
 Alpha virt. eigenvalues --    3.72815   3.73807   3.74403   3.77376   3.82383
 Alpha virt. eigenvalues --    3.94786   4.01424   4.03281   4.05112   4.13200
 Alpha virt. eigenvalues --    4.13646   4.15510   4.15792   4.18228   4.19846
 Alpha virt. eigenvalues --    4.20254   4.21663   4.23322   4.24295   4.27002
 Alpha virt. eigenvalues --    4.27986   4.29832   4.30562   4.31668   4.32765
 Alpha virt. eigenvalues --    4.34060   4.34489   4.35349   4.36328   4.36795
 Alpha virt. eigenvalues --    4.39587   4.39653   4.41638   4.42970   4.45280
 Alpha virt. eigenvalues --    4.45494   4.46657   4.47852   4.48158   4.50221
 Alpha virt. eigenvalues --    4.50662   4.51479   4.54069   4.54424   4.55742
 Alpha virt. eigenvalues --    4.56223   4.56653   4.57192   4.59061   4.59636
 Alpha virt. eigenvalues --    4.60451   4.64195   4.64583   4.65500   4.66794
 Alpha virt. eigenvalues --    4.67112   4.69055   4.70659   4.73326   4.75425
 Alpha virt. eigenvalues --    4.76712   4.78672   4.79256   4.81105   4.81590
 Alpha virt. eigenvalues --    4.84608   4.85834   4.86560   4.89951   4.94461
          Condensed to atoms (all electrons):
 Mulliken charges:
               1
     1  Mg   0.824134
     2  C    0.119632
     3  C   -0.255880
     4  C   -0.153254
     5  C   -0.148065
     6  N   -0.679062
     7  C    0.285030
     8  C   -0.155659
     9  C   -0.150413
    10  C    0.418109
    11  C   -0.300101
    12  C   -0.145658
    13  C   -0.280908
    14  C    0.602665
    15  O   -0.463072
    16  O   -0.468586
    17  N   -0.695476
    18  C    0.294943
    19  C    0.065548
    20  C   -0.045483
    21  C    0.324799
    22  C   -0.368487
    23  C    0.223497
    24  O   -0.385468
    25  N   -0.662824
    26  C    0.289342
    27  C    0.013531
    28  C   -0.026392
    29  C    0.319380
    30  C    0.238158
    31  C   -0.223661
    32  C   -0.316816
    33  N   -0.710358
    34  C    0.170314
    35  C    0.111693
    36  C   -0.063847
    37  C    0.373353
    38  C   -0.429443
    39  C    0.359852
    40  O   -0.421558
    41  C   -0.359437
    42  C    0.614905
    43  O   -0.471033
    44  O   -0.405264
    45  C   -0.085590
    46  C   -0.001754
    47  C   -0.124803
    48  C    0.090206
    49  C   -0.365805
    50  C   -0.218185
    51  C   -0.172977
    52  C   -0.156188
    53  C   -0.035956
    54  C   -0.325448
    55  C   -0.160064
    56  C   -0.182923
    57  C   -0.177897
    58  C   -0.032038
    59  C   -0.305067
    60  C   -0.176069
    61  C   -0.146761
    62  C   -0.149213
    63  C   -0.042887
    64  C   -0.323746
    65  C   -0.301168
    66  H    0.053970
    67  H    0.109710
    68  H    0.099040
    69  H    0.114113
    70  H    0.112207
    71  H    0.113264
    72  H    0.116838
    73  H    0.125728
    74  H    0.121194
    75  H    0.112848
    76  H    0.135367
    77  H    0.134969
    78  H    0.138595
    79  H    0.163010
    80  H    0.101133
    81  H    0.073588
    82  H    0.118814
    83  H    0.091891
    84  H    0.112152
    85  H    0.132454
    86  H    0.084584
    87  H    0.150012
    88  H    0.130430
    89  H    0.138493
    90  H    0.151646
    91  H    0.112365
    92  H    0.122856
    93  H    0.076317
    94  H    0.136307
    95  H    0.115272
    96  H    0.130136
    97  H    0.105828
    98  H    0.107958
    99  H    0.116919
   100  H    0.088865
   101  H    0.044272
   102  H    0.060663
   103  H    0.090655
   104  H    0.100425
   105  H    0.098833
   106  H    0.101037
   107  H    0.076358
   108  H    0.080584
   109  H    0.099261
   110  H    0.085601
   111  H    0.099921
   112  H    0.084668
   113  H    0.016073
   114  H    0.106011
   115  H    0.111725
   116  H    0.103740
   117  H    0.093321
   118  H    0.076932
   119  H    0.084471
   120  H    0.074019
   121  H    0.100936
   122  H    0.072403
   123  H    0.024453
   124  H    0.102566
   125  H    0.112959
   126  H    0.094182
   127  H    0.098316
   128  H    0.102781
   129  H    0.089969
   130  H    0.128897
   131  H    0.144047
   132  H    0.093189
   133  O   -0.437571
   134  H    0.067083
 Sum of Mulliken charges =   0.00000
 Mulliken charges with hydrogens summed into heavy atoms:
               1
     1  Mg   0.824134
     2  C    0.119632
     3  C   -0.201910
     4  C   -0.043545
     5  C   -0.049025
     6  N   -0.679062
     7  C    0.285030
     8  C   -0.041547
     9  C   -0.038206
    10  C    0.418109
    11  C    0.055729
    12  C    0.088384
    13  C   -0.010572
    14  C    0.602665
    15  O   -0.463072
    16  O   -0.468586
    17  N   -0.695476
    18  C    0.294943
    19  C    0.065548
    20  C   -0.045483
    21  C    0.324799
    22  C    0.034250
    23  C    0.297085
    24  O   -0.385468
    25  N   -0.662824
    26  C    0.289342
    27  C    0.013531
    28  C   -0.026392
    29  C    0.319380
    30  C    0.305242
    31  C   -0.012957
    32  C    0.012373
    33  N   -0.710358
    34  C    0.170314
    35  C    0.111693
    36  C   -0.063847
    37  C    0.373353
    38  C   -0.010508
    39  C    0.359852
    40  O   -0.421558
    41  C   -0.207790
    42  C    0.614905
    43  O   -0.471033
    44  O   -0.405264
    45  C    0.280543
    46  C    0.233467
    47  C   -0.048486
    48  C    0.090206
    49  C    0.015910
    50  C   -0.004399
    51  C    0.032808
    52  C   -0.051253
    53  C    0.054699
    54  C   -0.025153
    55  C   -0.003121
    56  C    0.001939
    57  C    0.006692
    58  C   -0.015965
    59  C    0.016409
    60  C   -0.005816
    61  C    0.011728
    62  C    0.024125
    63  C   -0.018434
    64  C   -0.014038
    65  C   -0.010100
   133  O   -0.437571
 Electronic spatial extent (au):  <R**2>=         149416.7976
 Charge=              0.0000 electrons
 Dipole moment (field-independent basis, Debye):
    X=              0.6583    Y=             -4.3967    Z=             -0.5791  Tot=              4.4832
 Quadrupole moment (field-independent basis, Debye-Ang):
   XX=           -385.9685   YY=           -443.7343   ZZ=           -392.8026
   XY=             11.4020   XZ=             27.3457   YZ=            -24.6513
 Traceless Quadrupole moment (field-independent basis, Debye-Ang):
   XX=             21.5333   YY=            -36.2325   ZZ=             14.6992
   XY=             11.4020   XZ=             27.3457   YZ=            -24.6513
 Octapole moment (field-independent basis, Debye-Ang**2):
  XXX=           -689.3522  YYY=           -536.8752  ZZZ=            -51.8472  XYY=            296.7627
  XXY=            -65.2144  XXZ=           -169.8637  XZZ=           -122.4183  YZZ=            -31.7998
  YYZ=            -52.1545  XYZ=            134.4092
 Hexadecapole moment (field-independent basis, Debye-Ang**3):
 XXXX=        -169597.8944 YYYY=         -31429.6703 ZZZZ=          -9011.1924 XXXY=           -811.3451
 XXXZ=           3502.1083 YYYX=           2628.7885 YYYZ=          -1031.1412 ZZZX=            659.2201
 ZZZY=           -380.0068 XXYY=         -34608.9457 XXZZ=         -28905.5764 YYZZ=          -6873.0042
 XXYZ=           -870.6618 YYXZ=             53.4610 ZZXY=           -152.6108
 N-N= 9.117560594997D+03 E-N=-2.532044060762D+04  KE= 3.018003532700D+03

 Test job not archived.
 1\1\GINC-PEDRO-RYZENSSD\SP\RCAM-B3LYP TD-FC\6-31G(d,p)\C54H68Mg1N4O7\P
 ADAWAN\04-Oct-2019\0\\# td=(NStates=1) iop(3/107=0140000000,3/108=0140
 000000) iop(3/107=0140000000,3/108=0140000000) CAM-B3LYP/6-31G(d,p)\\T
 D\\0,1\Mg,0,-5.7778835196,1.1626062883,0.2863513039\C,0,-5.0581459364,
 -2.187902755,-0.3133844035\C,0,-3.5902104809,1.1094834898,2.7286243006
 \C,0,-6.3114375661,4.4790759307,0.7059729585\C,0,-8.1663075488,1.14965
 36478,-2.3358076747\N,0,-4.5017772622,-0.1917550986,1.0871888859\C,0,-
 4.3342186423,-1.5740085823,0.6464383623\C,0,-3.1495263543,-2.215712769
 9,1.3965152401\C,0,-2.8657907345,-1.2519058603,2.5316899556\C,0,-3.624
 7592759,-0.0567548281,2.137574416\C,0,-3.4423963476,-1.7444411367,3.90
 33481942\C,0,-2.0639812414,-2.738437837,0.6080449906\C,0,-1.030980861,
 -3.5052356115,1.3487487518\C,0,0.2569915666,-3.8198168538,0.5665648176
 \O,0,0.4324370976,-3.3933090197,-0.5544954649\O,0,1.2270543876,-4.5473
 198768,1.1965156401\N,0,-5.016280179,2.6069209288,1.5278994765\C,0,-4.
 1201260998,2.3963176478,2.4968549113\C,0,-3.7944099782,3.7289629788,3.
 2168806325\C,0,-4.6577815339,4.5525437199,2.6413700212\C,0,-5.36485584
 8,3.907155392,1.5699621481\C,0,-2.8060192268,3.8048075645,4.3460384743
 \C,0,-4.575440244,5.9863886731,2.864261863\O,0,-4.0546279501,6.4909339
 236,3.7897729498\N,0,-6.9690385535,2.6519031228,-0.7528479525\C,0,-7.0
 140035982,3.9522456301,-0.3995481579\C,0,-7.8954446847,4.6479258494,-1
 .2216349726\C,0,-8.4670297358,3.6542245526,-2.0294775002\C,0,-7.778521
 6637,2.4366618403,-1.7267464444\C,0,-8.40551283,6.0442257923,-1.126553
 79\C,0,-9.4647029487,3.7673876771,-3.111553704\C,0,-8.8305920399,3.947
 6461277,-4.498393086\N,0,-6.5541611834,-0.2834935296,-1.0086318836\C,0
 ,-7.4442580325,-0.1572766333,-2.1195678794\C,0,-7.6730404206,-1.471872
 3399,-2.7797009947\C,0,-6.774832967,-2.2669304663,-1.9997691868\C,0,-6
 .0873766612,-1.4408081103,-1.0216800327\C,0,-8.4860739821,-1.718261614
 8,-3.8792788473\C,0,-6.1713407612,-3.6247015762,-2.0388192758\O,0,-6.5
 425674973,-4.6281877889,-2.5373339791\C,0,-5.0785381073,-3.5783696037,
 -0.8805446753\C,0,-5.3515722848,-4.6824534469,0.1663737884\O,0,-5.7604
 302256,-4.496495583,1.2682239427\O,0,-5.1626862318,-5.8815020343,-0.31
 6855857\C,0,-5.5310564548,-6.9181054016,0.5599735322\C,0,2.3642131029,
 -4.8292391841,0.3755455359\C,0,3.5051538255,-4.0164631456,0.7717384596
 \C,0,4.1440535091,-3.0400838293,0.0008424592\C,0,3.7273876361,-2.68414
 16026,-1.3956472335\C,0,5.2664808541,-2.2153558038,0.7194938003\C,0,6.
 5952351282,-2.5601209651,0.0463549614\C,0,7.8224813748,-1.8134729931,0
 .6117450091\C,0,9.1346820767,-1.942460228,0.0434176286\C,0,9.696876767
 8,-3.4112910316,0.3933824632\C,0,10.1267081064,-0.9623168526,0.4931172
 751\C,0,11.4942825856,-0.9704398391,-0.184663777\C,0,12.4089985205,0.2
 680459951,0.1863794261\C,0,13.7188112752,0.3807477617,-0.6081105683\C,
 0,14.5394321162,-0.7832590559,-0.3858852737\C,0,14.3272726655,1.772822
 0544,-0.3175493973\C,0,15.5509743783,2.1275746928,-1.0929964073\C,0,16
 .1095605758,3.3834108511,-0.6358846815\C,0,17.4156259573,3.8012290384,
 -1.2688979376\C,0,17.3934783299,4.0452200847,-2.8994222622\C,0,18.1279
 562148,5.019480074,-0.685739531\H,0,-2.7450100069,1.2074476084,3.51814
 94261\H,0,-6.4376646494,5.4875649587,1.0448642491\H,0,-8.9578909882,1.
 005214783,-3.0110364845\H,0,-3.5502820934,-3.1607791946,1.8818939315\H
 ,0,-1.8446255486,-1.0212697352,2.6082829943\H,0,-2.8385431795,-2.59004
 55855,4.2313530812\H,0,-3.1884854486,-0.9234344611,4.5577219081\H,0,-4
 .6391255884,-1.8400919272,3.8458978124\H,0,-2.3500121668,-3.2777908241
 ,-0.2082285575\H,0,-1.626583358,-1.8323718646,0.1976706084\H,0,-0.7452
 58916,-2.9626262349,2.2100155427\H,0,-1.34461394,-4.401006937,1.810040
 0407\H,0,-1.8194405962,3.5529799847,4.165268908\H,0,-2.9510027543,4.94
 11137505,4.5339590588\H,0,-3.4195918917,3.1031935135,5.2582528021\H,0,
 -5.0370875681,6.8566936519,2.1935814739\H,0,-10.0744514276,3.008047956
 7,-3.0719183464\H,0,-10.2578132642,4.5330308376,-2.7836413567\H,0,-9.4
 715529162,3.8861165117,-5.3630826189\H,0,-8.2675107171,4.7954814887,-4
 .7024099228\H,0,-7.9568459595,3.1314574596,-4.7385679715\H,0,-8.290715
 6532,-1.2663098887,-4.7917691459\H,0,-8.411170745,-2.9465817185,-3.952
 8646304\H,0,-9.5459078399,-1.5925458892,-3.6918334684\H,0,-4.234375213
 5,-3.9592117442,-1.4067456047\H,0,2.63886183,-5.8719644895,0.543152703
 2\H,0,2.1361869453,-4.574736,-0.6603614712\H,0,3.7126272451,-4.0056906
 914,1.7773460987\H,0,2.6509625482,-3.1342949844,-1.6028329334\H,0,3.88
 27256106,-1.6057452751,-1.3885770752\H,0,4.3072632337,-3.2989817545,-2
 .0699584531\H,0,4.8904229113,-1.1682523698,0.7186522563\H,0,5.40750310
 87,-2.6515194691,1.6863825246\H,0,6.8429135114,-3.5280271022,0.1809474
 164\H,0,6.6282716667,-2.4118434003,-1.079247611\H,0,7.6446052621,-0.58
 15347078,0.6567444277\H,0,7.8054294531,-1.9233705856,1.8265601284\H,0,
 9.179143814,-2.0406021009,-1.050023221\H,0,9.0142935948,-4.0978386438,
 -0.051367607\H,0,10.7142344528,-3.4759109458,-0.1060981917\H,0,9.61550
 82984,-3.585484277,1.4807190349\H,0,9.6496160225,0.0585042608,0.562055
 3799\H,0,10.4664956082,-1.0408924085,1.5792588632\H,0,11.9767696081,-1
 .9042277445,0.2813988321\H,0,11.4365895992,-0.8900806436,-1.3442552692
 \H,0,11.9541254306,1.1520782796,0.0976625559\H,0,12.7830790666,0.26923
 82071,1.2178909642\H,0,13.4338041227,0.4200867515,-1.8876049653\H,0,14
 .5966898962,-0.9130543227,0.5703121287\H,0,14.0595163381,-1.6578189608
 ,-0.6387101251\H,0,15.4766175183,-0.9469780255,-0.873159719\H,0,13.628
 2120668,2.596637963,-0.2259924765\H,0,14.7642140336,1.7747638909,0.740
 4528726\H,0,16.3232410512,1.2510605676,-0.8063184468\H,0,15.4101758131
 ,2.2132295744,-2.3071142423\H,0,15.5626677289,4.2182050282,-0.69896117
 61\H,0,16.2952991638,3.4922751869,0.5177942382\H,0,18.2332131381,2.830
 3065392,-1.0534797359\H,0,16.7555526921,4.8850057795,-3.1886731462\H,0
 ,18.3810604959,4.1358899822,-3.3206795016\H,0,16.8673714224,3.08511342
 25,-3.2275433075\H,0,18.3265205261,4.997540407,0.3863678025\H,0,19.036
 8312939,5.3100872352,-1.2596281039\H,0,17.3359261624,5.7752819383,-0.8
 618645386\H,0,-5.3428421688,-7.7420553049,-0.1648007961\H,0,-6.5292134
 126,-6.8209514765,1.0989697403\H,0,-4.7174639638,-6.9166615424,1.48212
 10805\O,0,-7.7765905544,6.9675267841,-0.5321766461\H,0,-9.4056039442,6
 .1337207878,-1.8030487724\\Version=ES64L-G09RevD.01\State=1-A\HF=-3043
 .4562509\RMSD=8.950e-09\PG=C01 [X(C54H68Mg1N4O7)]\\@


 NATURE WILL TELL YOU A DIRECT LIE IF SHE CAN.

                                -- CHARLES DARWIN
 Job cpu time:       0 days  6 hours 24 minutes  8.2 seconds.
 File lengths (MBytes):  RWF=   2102 Int=      0 D2E=      0 Chk=    163 Scr=      1
 Normal termination of Gaussian 09 at Fri Oct  4 06:31:42 2019.
