 Entering Gaussian System, Link 0=g16
 Input=Geometria-420-.com
 Output=Geometria-420-.log
 Initial command:
 /usr/local/g09/l1.exe "/home/padawan/israel-mol/chlorophyll-b/spectra/emi/Gau-16403.inp" -scrdir="/home/padawan/israel-mol/chlorophyll-b/spectra/emi/"
 Entering Link 1 = /usr/local/g09/l1.exe PID=     16405.
  
 Copyright (c) 1988,1990,1992,1993,1995,1998,2003,2009,2013,
            Gaussian, Inc.  All Rights Reserved.
  
 This is part of the Gaussian(R) 09 program.  It is based on
 the Gaussian(R) 03 system (copyright 2003, Gaussian, Inc.),
 the Gaussian(R) 98 system (copyright 1998, Gaussian, Inc.),
 the Gaussian(R) 94 system (copyright 1995, Gaussian, Inc.),
 the Gaussian 92(TM) system (copyright 1992, Gaussian, Inc.),
 the Gaussian 90(TM) system (copyright 1990, Gaussian, Inc.),
 the Gaussian 88(TM) system (copyright 1988, Gaussian, Inc.),
 the Gaussian 86(TM) system (copyright 1986, Carnegie Mellon
 University), and the Gaussian 82(TM) system (copyright 1983,
 Carnegie Mellon University). Gaussian is a federally registered
 trademark of Gaussian, Inc.
  
 This software contains proprietary and confidential information,
 including trade secrets, belonging to Gaussian, Inc.
  
 This software is provided under written license and may be
 used, copied, transmitted, or stored only in accord with that
 written license.
  
 The following legend is applicable only to US Government
 contracts under FAR:
  
                    RESTRICTED RIGHTS LEGEND
  
 Use, reproduction and disclosure by the US Government is
 subject to restrictions as set forth in subparagraphs (a)
 and (c) of the Commercial Computer Software - Restricted
 Rights clause in FAR 52.227-19.
  
 Gaussian, Inc.
 340 Quinnipiac St., Bldg. 40, Wallingford CT 06492
  
  
 ---------------------------------------------------------------
 Warning -- This program may not be used in any manner that
 competes with the business of Gaussian, Inc. or will provide
 assistance to any competitor of Gaussian, Inc.  The licensee
 of this program is prohibited from giving any competitor of
 Gaussian, Inc. access to this program.  By using this program,
 the user acknowledges that Gaussian, Inc. is engaged in the
 business of creating and licensing software in the field of
 computational chemistry and represents and warrants to the
 licensee that it is not a competitor of Gaussian, Inc. and that
 it will not use this program in any manner prohibited above.
 ---------------------------------------------------------------
  

 Cite this work as:
 Gaussian 09, Revision D.01,
 M. J. Frisch, G. W. Trucks, H. B. Schlegel, G. E. Scuseria, 
 M. A. Robb, J. R. Cheeseman, G. Scalmani, V. Barone, B. Mennucci, 
 G. A. Petersson, H. Nakatsuji, M. Caricato, X. Li, H. P. Hratchian, 
 A. F. Izmaylov, J. Bloino, G. Zheng, J. L. Sonnenberg, M. Hada, 
 M. Ehara, K. Toyota, R. Fukuda, J. Hasegawa, M. Ishida, T. Nakajima, 
 Y. Honda, O. Kitao, H. Nakai, T. Vreven, J. A. Montgomery, Jr., 
 J. E. Peralta, F. Ogliaro, M. Bearpark, J. J. Heyd, E. Brothers, 
 K. N. Kudin, V. N. Staroverov, T. Keith, R. Kobayashi, J. Normand, 
 K. Raghavachari, A. Rendell, J. C. Burant, S. S. Iyengar, J. Tomasi, 
 M. Cossi, N. Rega, J. M. Millam, M. Klene, J. E. Knox, J. B. Cross, 
 V. Bakken, C. Adamo, J. Jaramillo, R. Gomperts, R. E. Stratmann, 
 O. Yazyev, A. J. Austin, R. Cammi, C. Pomelli, J. W. Ochterski, 
 R. L. Martin, K. Morokuma, V. G. Zakrzewski, G. A. Voth, 
 P. Salvador, J. J. Dannenberg, S. Dapprich, A. D. Daniels, 
 O. Farkas, J. B. Foresman, J. V. Ortiz, J. Cioslowski, 
 and D. J. Fox, Gaussian, Inc., Wallingford CT, 2013.
 
 ******************************************
 Gaussian 09:  ES64L-G09RevD.01 24-Apr-2013
                 8-Oct-2019 
 ******************************************
 %nproc=3
 Will use up to    3 processors via shared memory.
 %Mem=2GB
 ----------------------------------------------------------------------
 # td=(NStates=1) iop(3/107=0140000000,3/108=0140000000) iop(3/107=0140
 000000,3/108=0140000000) CAM-B3LYP/6-31G(d,p)
 ----------------------------------------------------------------------
 1/38=1/1;
 2/12=2,17=6,18=5,40=1/2;
 3/5=1,6=6,7=101,11=9,16=1,25=1,30=1,74=-40,107=140000000,108=140000000/1,2,8,3;
 4//1;
 5/5=2,38=5/2;
 8/6=1,10=2,108=1/1;
 9/41=1,42=1,70=2/14;
 6/7=2,8=2,9=2,10=2/1;
 99/5=1,9=1/99;
 --
 TD
 --
 Symbolic Z-matrix:
 Charge =  0 Multiplicity = 1
 12                   -5.61985   1.24513   0.1707 
 6                    -4.97124  -2.06821  -0.38803 
 6                    -3.47031   1.1216    2.75891 
 6                    -6.22923   4.54458   0.76791 
 6                    -7.96647   1.21514  -2.36003 
 7                    -4.24819  -0.244     1.02798 
 6                    -4.19967  -1.57103   0.70632 
 6                    -3.26752  -2.36051   1.5006 
 6                    -2.8812   -1.40823   2.6068 
 6                    -3.50708  -0.04049   2.15044 
 6                    -3.41748  -1.79986   3.91084 
 6                    -2.06494  -2.75594   0.59234 
 6                    -0.98329  -3.6562    1.39039 
 6                     0.21383  -3.88676   0.6176 
 8                     0.50752  -3.46744  -0.46467 
 8                     1.0429   -4.69906   1.32721 
 7                    -4.8802    2.6422    1.52371 
 6                    -4.0181    2.48226   2.50956 
 6                    -3.62886   3.6056    3.17306 
 6                    -4.48793   4.59794   2.50337 
 6                    -5.25995   3.9302    1.48499 
 6                    -2.63399   3.80961   4.24194 
 6                    -4.58589   5.98979   2.88349 
 8                    -3.96844   6.55742   3.77098 
 7                    -6.88642   2.57732  -0.70346 
 6                    -6.98914   3.91282  -0.2341 
 6                    -7.95432   4.54991  -1.0326 
 6                    -8.47227   3.59547  -2.02099 
 6                    -7.78739   2.38853  -1.71406 
 6                    -8.39875   5.99271  -1.07071 
 6                    -9.32035   3.87893  -3.28328 
 6                    -8.58469   4.15656  -4.68831 
 7                    -6.39227  -0.08209  -1.0754 
 6                    -7.36081  -0.02099  -2.18058 
 6                    -7.50966  -1.28401  -2.7023 
 6                    -6.64763  -2.16394  -2.04684 
 6                    -5.93407  -1.36024  -1.1492 
 6                    -8.5488   -1.72448  -3.77347 
 6                    -6.23883  -3.58666  -1.96915 
 8                    -6.60593  -4.68372  -2.51103 
 6                    -5.04481  -3.54074  -0.95873 
 6                    -5.35339  -4.63538   0.14205 
 8                    -5.90856  -4.45883   1.19429 
 8                    -4.90332  -5.80042  -0.28625 
 6                    -5.26813  -7.09815   0.43931 
 6                     2.30695  -5.06512   0.67559 
 6                     3.40306  -4.05692   0.91733 
 6                     3.98883  -3.31422   0.08877 
 6                     3.59489  -3.16191  -1.31485 
 6                     5.08978  -2.32475   0.50965 
 6                     6.47592  -2.76433   0.02375 
 6                     7.60989  -1.76879   0.61149 
 6                     9.05036  -2.02098   0.00659 
 6                     9.60488  -3.36261   0.2787 
 6                     9.89326  -0.89323   0.49757 
 6                     11.14041  -0.76378  -0.27691 
 6                     12.21832   0.32497   0.2468 
 6                     13.54864   0.43157  -0.49681 
 6                     14.41498  -0.70231  -0.23153 
 6                     14.15002   1.88665  -0.25908 
 6                     15.53743   2.11779  -0.96336 
 6                     16.07701   3.58138  -0.66262 
 6                     17.23674   3.96828  -1.42679 
 6                     17.07525   3.94993  -2.90265 
 6                     17.919    5.2182   -0.87769 
 1                    -2.71433   1.18882   3.69239 
 1                    -6.44627   5.54524   0.86111 
 1                    -8.6544    1.18681  -3.22374 
 1                    -3.73915  -3.3121    2.13461 
 1                    -1.89581  -1.31763   2.6163 
 1                    -2.70814  -2.50736   4.3527 
 1                    -3.40783  -0.87487   4.44002 
 1                    -4.42118  -2.09354   3.76005 
 1                    -2.23229  -3.33956  -0.32047 
 1                    -1.57573  -1.92572   0.29444 
 1                    -0.65089  -3.21509   2.31599 
 1                    -1.39584  -4.60316   1.42531 
 1                    -1.61419   3.61288   3.85428 
 1                    -2.47114   4.8589    4.69148 
 1                    -2.82219   2.93474   4.98252 
 1                    -5.08675   6.68979   2.26345 
 1                    -10.02431   2.99923  -3.56464 
 1                    -10.05867   4.60542  -2.85398 
 1                    -9.34256   4.13594  -5.52265 
 1                    -8.20588   5.27651  -4.61133 
 1                    -7.74709   3.54031  -4.91014 
 1                    -8.27221  -1.17712  -4.84165 
 1                    -8.45113  -2.70345  -4.05277 
 1                    -9.62185  -1.65965  -3.58552 
 1                    -4.27401  -3.78697  -1.52233 
 1                     2.41439  -6.15758   1.08769 
 1                     1.86799  -5.12056  -0.32955 
 1                     3.64379  -4.0419    2.03107 
 1                     2.63465  -3.55828  -1.49094 
 1                     3.55542  -2.15539  -1.61609 
 1                     4.38255  -3.61608  -1.95767 
 1                     5.03594  -1.11504   0.0832 
 1                     5.0225   -2.29969   1.69508 
 1                     6.52493  -3.74752   0.41397 
 1                     6.75325  -2.69065  -1.04775 
 1                     7.31499  -0.74157   0.36813 
 1                     7.48833  -1.9772    1.76634 
 1                     9.04936  -1.82413  -1.04032 
 1                     9.02823  -4.21556  -0.20175 
 1                     10.53733  -3.56073  -0.22592 
 1                     9.90893  -3.46067   1.38936 
 1                     9.39824   0.05428   0.24723 
 1                     10.25965  -0.97433   1.60475 
 1                     11.68875  -1.61721  -0.15095 
 1                     11.12293  -0.67583  -1.39968 
 1                     11.75341   1.44228   0.21284 
 1                     12.48604   0.02616   1.20915 
 1                     13.27305   0.15385  -1.53141 
 1                     14.86698  -1.0644    0.85064 
 1                     13.9957  -1.67874  -0.55774 
 1                     15.44772  -0.391    -0.68011 
 1                     13.23829   2.63275  -0.59017 
 1                     14.21124   2.21488   0.8704 
 1                     16.18343   1.27561  -0.69293 
 1                     15.2795   2.06164  -2.20607 
 1                     15.27856   4.29196  -0.78235 
 1                     16.14755   3.56024   0.38974 
 1                     17.85891   3.07108  -1.16356 
 1                     16.31053   4.75504  -3.05051 
 1                     18.11734   4.30814  -3.40654 
 1                     16.70769   2.84122  -3.20089 
 1                     18.45169   4.93236   0.08404 
 1                     18.7749   5.55873  -1.54698 
 1                     17.22     6.29472  -1.0822 
 1                    -5.19107  -8.07662  -0.1069 
 1                    -6.34867  -6.93536   0.65873 
 1                    -4.63769  -6.9646    1.40021 
 8                    -7.84425   6.95876  -0.4528 
 1                    -9.29174   6.19855  -1.82952 
 
 Stoichiometry    C54H68MgN4O7
 Framework group  C1[X(C54H68MgN4O7)]
 Deg. of freedom   396
 Full point group                 C1      NOp   1
 Largest Abelian subgroup         C1      NOp   1
 Largest concise Abelian subgroup C1      NOp   1
                         Standard orientation:                         
 ---------------------------------------------------------------------
 Center     Atomic      Atomic             Coordinates (Angstroms)
 Number     Number       Type             X           Y           Z
 ---------------------------------------------------------------------
      1         12           0       -5.616942    1.253102    0.181294
      2          6           0       -4.973817   -2.058847   -0.391865
      3          6           0       -3.466372    1.115160    2.767917
      4          6           0       -6.220843    4.550929    0.792853
      5          6           0       -7.964807    1.237587   -2.348410
      6          7           0       -4.247227   -0.241829    1.031563
      7          6           0       -4.200943   -1.567549    0.704228
      8          6           0       -3.269664   -2.361871    1.494679
      9          6           0       -2.881323   -1.414928    2.604743
     10          6           0       -3.505260   -0.044274    2.154516
     11          6           0       -3.417602   -1.811264    3.907362
     12          6           0       -2.068142   -2.755320    0.584171
     13          6           0       -0.987528   -3.660675    1.377856
     14          6           0        0.208854   -3.889824    0.603511
     15          8           0        0.502698   -3.466350   -0.477100
     16          8           0        1.036979   -4.706436    1.309252
     17          7           0       -4.874449    2.643227    1.539889
     18          6           0       -4.012134    2.477722    2.524631
     19          6           0       -3.620818    3.597614    3.192725
     20          6           0       -4.478642    4.594148    2.527684
     21          6           0       -5.252187    3.931969    1.506846
     22          6           0       -2.625119    3.795499    4.261987
     23          6           0       -4.574226    5.984518    2.913787
     24          8           0       -3.955460    6.547389    3.803388
     25          7           0       -6.881830    2.590988   -0.686573
     26          6           0       -6.982224    3.924641   -0.211475
     27          6           0       -7.946778    4.566641   -1.006782
     28          6           0       -8.466699    3.617241   -1.998982
     29          6           0       -7.783578    2.407927   -1.697527
     30          6           0       -8.388954    6.010292   -1.038531
     31          6           0       -9.314929    3.907413   -3.259648
     32          6           0       -8.579499    4.189870   -4.663838
     33          7           0       -6.392050   -0.067585   -1.070077
     34          6           0       -7.361012   -0.000251   -2.174526
     35          6           0       -7.512103   -1.260801   -2.701551
     36          6           0       -6.651145   -2.144868   -2.050263
     37          6           0       -5.935896   -1.346125   -1.149548
     38          6           0       -8.552440   -1.695064   -3.774083
     39          6           0       -6.244547   -3.568545   -1.978832
     40          8           0       -6.613638   -4.662712   -2.525205
     41          6           0       -5.049984   -3.528809   -0.968801
     42          6           0       -5.359763   -4.627647    0.127456
     43          8           0       -5.914147   -4.454714    1.180701
     44          8           0       -4.911730   -5.791563   -0.306026
     45          6           0       -5.278239   -7.091798    0.414177
     46          6           0        2.300143   -5.071711    0.655467
     47          6           0        3.397960   -4.066271    0.900981
     48          6           0        3.984500   -3.320972    0.075310
     49          6           0        3.590141   -3.162059   -1.327459
     50          6           0        5.087212   -2.335034    0.499875
     51          6           0        6.472427   -2.774723    0.011439
     52          6           0        7.608240   -1.783479    0.602872
     53          6           0        9.048027   -2.035354   -0.003791
     54          6           0        9.600556   -3.379000    0.262329
     55          6           0        9.892936   -0.911036    0.491579
     56          6           0       11.139913   -0.780247   -0.282944
     57          6           0       12.219788    0.304565    0.244881
     58          6           0       13.549926    0.412242   -0.498903
     59          6           0       14.414600   -0.724124   -0.238875
     60          6           0       14.153710    1.865348   -0.255267
     61          6           0       15.541146    2.097305   -0.959224
     62          6           0       16.083168    3.558747   -0.652503
     63          6           0       17.243144    3.947071   -1.415581
     64          6           0       17.080923    3.935271   -2.891427
     65          6           0       17.927629    5.193568   -0.861483
     66          1           0       -2.709842    1.177202    3.701310
     67          1           0       -6.436258    5.551521    0.890418
     68          1           0       -8.653194    1.214024   -3.211900
     69          1           0       -3.742494   -3.315419    2.124858
     70          1           0       -1.895786   -1.325918    2.614161
     71          1           0       -2.709164   -2.521757    4.345857
     72          1           0       -3.406238   -0.888558    4.440476
     73          1           0       -4.421835   -2.102720    3.755805
     74          1           0       -2.236844   -3.334777   -0.331040
     75          1           0       -1.577764   -1.924610    0.289573
     76          1           0       -0.653998   -3.224038    2.305160
     77          1           0       -1.401555   -4.607121    1.408937
     78          1           0       -1.605812    3.598817    3.873001
     79          1           0       -2.460406    4.842603    4.715923
     80          1           0       -2.814345    2.917775    4.998920
     81          1           0       -5.074279    6.687939    2.296971
     82          1           0      -10.020405    3.030027   -3.544413
     83          1           0      -10.051905    4.633227   -2.826898
     84          1           0       -9.337799    4.174004   -5.497889
     85          1           0       -8.198896    5.308887   -4.582266
     86          1           0       -7.742983    3.573256   -4.888688
     87          1           0       -8.275499   -1.143590   -4.840060
     88          1           0       -8.456449   -2.672982   -4.057606
     89          1           0       -9.625293   -1.629348   -3.585347
     90          1           0       -4.279835   -3.773855   -1.533811
     91          1           0        2.406059   -6.166086    1.062857
     92          1           0        1.860622   -5.122173   -0.349683
     93          1           0        3.639239   -4.056384    2.014657
     94          1           0        2.629191   -3.556162   -1.504777
     95          1           0        3.552112   -2.154204   -1.624388
     96          1           0        4.376776   -3.614727   -1.972586
     97          1           0        5.035070   -1.123434    0.078606
     98          1           0        5.020536   -2.314928    1.685434
     99          1           0        6.520072   -3.759641    0.397439
    100          1           0        6.749365   -2.696912   -1.059878
    101          1           0        7.314845   -0.754771    0.364025
    102          1           0        7.486898   -1.996616    1.756881
    103          1           0        9.046837   -1.834044   -1.049858
    104          1           0        9.022343   -4.228991   -0.221478
    105          1           0       10.532453   -3.576437   -0.243581
    106          1           0        9.904979   -3.482277    1.372413
    107          1           0        9.399287    0.038314    0.245523
    108          1           0       10.259724   -0.997427    1.598230
    109          1           0       11.686972   -1.635068   -0.160887
    110          1           0       11.122040   -0.687485   -1.405318
    111          1           0       11.756618    1.422735    0.215916
    112          1           0       12.487493    0.001237    1.205825
    113          1           0       13.273401    0.139365   -1.534544
    114          1           0       14.866540   -1.091533    0.841524
    115          1           0       13.993628   -1.698494   -0.569044
    116          1           0       15.447621   -0.412531   -0.686622
    117          1           0       13.242998    2.614284   -0.582731
    118          1           0       14.215977    2.188658    0.875571
    119          1           0       16.185941    1.252965   -0.692690
    120          1           0       15.282538    2.046860   -2.202038
    121          1           0       15.285783    4.271087   -0.768821
    122          1           0       16.154181    3.533011    0.399723
    123          1           0       17.864022    3.047784   -1.156474
    124          1           0       16.317403    4.742208   -3.035483
    125          1           0       18.123344    4.293982   -3.394283
    126          1           0       16.711474    2.828420   -3.194211
    127          1           0       18.460333    4.902798    0.098760
    128          1           0       18.783747    5.535603   -1.529725
    129          1           0       17.230238    6.272052   -1.061064
    130          1           0       -5.202976   -8.068046   -0.136232
    131          1           0       -6.358412   -6.928244    0.634803
    132          1           0       -4.647129   -6.963330    1.375335
    133          8           0       -7.832635    6.972821   -0.416777
    134          1           0       -9.281980    6.220766   -1.796030
 ---------------------------------------------------------------------
 Rotational constants (GHZ):      0.0345548      0.0081300      0.0071753
 Standard basis: 6-31G(d,p) (6D, 7F)
 There are  1334 symmetry adapted cartesian basis functions of A   symmetry.
 There are  1334 symmetry adapted basis functions of A   symmetry.
  1334 basis functions,  2348 primitive gaussians,  1334 cartesian basis functions
   244 alpha electrons      244 beta electrons
       nuclear repulsion energy      9117.9936477019 Hartrees.
 NAtoms=  134 NActive=  134 NUniq=  134 SFac= 1.00D+00 NAtFMM=   60 NAOKFM=T Big=T
 Integral buffers will be    131072 words long.
 Raffenetti 1 integral format.
 Two-electron integral symmetry is turned on.
 One-electron integrals computed using PRISM.
 NBasis=  1334 RedAO= T EigKep=  2.49D-04  NBF=  1334
 NBsUse=  1334 1.00D-06 EigRej= -1.00D+00 NBFU=  1334
 ExpMin= 4.21D-02 ExpMax= 1.17D+04 ExpMxC= 1.76D+03 IAcc=2 IRadAn=         4 AccDes= 0.00D+00
 Harris functional with IExCor=20419 and IRadAn=       4 diagonalized for initial guess.
 HarFok:  IExCor=20419 AccDes= 0.00D+00 IRadAn=         4 IDoV= 1 UseB2=F ITyADJ=14
 ICtDFT=  3500011 ScaDFX=  1.000000  1.000000  1.000000  1.000000
 FoFCou: FMM=F IPFlag=           0 FMFlag=      100000 FMFlg1=        2001
         NFxFlg=           0 DoJE=T BraDBF=F KetDBF=T FulRan=T
         wScrn=  0.000000 ICntrl=     500 IOpCl=  0 I1Cent=   200000004 NGrid=           0
         NMat0=    1 NMatS0=      1 NMatT0=    0 NMatD0=    1 NMtDS0=    0 NMtDT0=    0
 Petite list used in FoFCou.
 Requested convergence on RMS density matrix=1.00D-08 within 128 cycles.
 Requested convergence on MAX density matrix=1.00D-06.
 Requested convergence on             energy=1.00D-06.
 No special actions if energy rises.
 SCF Done:  E(RCAM-B3LYP) =  -3043.46727698     A.U. after   16 cycles
            NFock= 16  Conv=0.42D-08     -V/T= 2.0091
 DoSCS=F DFT=T ScalE2(SS,OS)=  1.000000  1.000000
 ExpMin= 4.21D-02 ExpMax= 1.17D+04 ExpMxC= 1.76D+03 IAcc=3 IRadAn=         5 AccDes= 0.00D+00
 HarFok:  IExCor=  205 AccDes= 0.00D+00 IRadAn=         5 IDoV=-2 UseB2=F ITyADJ=14
 ICtDFT= 12500011 ScaDFX=  1.000000  1.000000  1.000000  1.000000
 Range of M.O.s used for correlation:    71  1334
 NBasis=  1334 NAE=   244 NBE=   244 NFC=    70 NFV=     0
 NROrb=   1264 NOA=   174 NOB=   174 NVA=  1090 NVB=  1090
 Would need an additional       2379600800000 words for in-memory AO integral storage.
 Orbital symmetries:
       Occupied  (A) (A) (A) (A) (A) (A) (A) (A) (A) (A) (A) (A)
                 (A) (A) (A) (A) (A) (A) (A) (A) (A) (A) (A) (A)
                 (A) (A) (A) (A) (A) (A) (A) (A) (A) (A) (A) (A)
                 (A) (A) (A) (A) (A) (A) (A) (A) (A) (A) (A) (A)
                 (A) (A) (A) (A) (A) (A) (A) (A) (A) (A) (A) (A)
                 (A) (A) (A) (A) (A) (A) (A) (A) (A) (A) (A) (A)
                 (A) (A) (A) (A) (A) (A) (A) (A) (A) (A) (A) (A)
                 (A) (A) (A) (A) (A) (A) (A) (A) (A) (A) (A) (A)
                 (A) (A) (A) (A) (A) (A) (A) (A) (A) (A) (A) (A)
                 (A) (A) (A) (A) (A) (A) (A) (A) (A) (A) (A) (A)
                 (A) (A) (A) (A) (A) (A) (A) (A) (A) (A) (A) (A)
                 (A) (A) (A) (A) (A) (A) (A) (A) (A) (A) (A) (A)
                 (A) (A) (A) (A) (A) (A) (A) (A) (A) (A) (A) (A)
                 (A) (A) (A) (A) (A) (A) (A) (A) (A) (A) (A) (A)
                 (A) (A) (A) (A) (A) (A) (A) (A) (A) (A) (A) (A)
                 (A) (A) (A) (A) (A) (A) (A) (A) (A) (A) (A) (A)
                 (A) (A) (A) (A) (A) (A) (A) (A) (A) (A) (A) (A)
                 (A) (A) (A) (A) (A) (A) (A) (A) (A) (A) (A) (A)
                 (A) (A) (A) (A) (A) (A) (A) (A) (A) (A) (A) (A)
                 (A) (A) (A) (A) (A) (A) (A) (A) (A) (A) (A) (A)
                 (A) (A) (A) (A)
       Virtual   (A) (A) (A) (A) (A) (A) (A) (A) (A) (A) (A) (A)
                 (A) (A) (A) (A) (A) (A) (A) (A) (A) (A) (A) (A)
                 (A) (A) (A) (A) (A) (A) (A) (A) (A) (A) (A) (A)
                 (A) (A) (A) (A) (A) (A) (A) (A) (A) (A) (A) (A)
                 (A) (A) (A) (A) (A) (A) (A) (A) (A) (A) (A) (A)
                 (A) (A) (A) (A) (A) (A) (A) (A) (A) (A) (A) (A)
                 (A) (A) (A) (A) (A) (A) (A) (A) (A) (A) (A) (A)
                 (A) (A) (A) (A) (A) (A) (A) (A) (A) (A) (A) (A)
                 (A) (A) (A) (A) (A) (A) (A) (A) (A) (A) (A) (A)
                 (A) (A) (A) (A) (A) (A) (A) (A) (A) (A) (A) (A)
                 (A) (A) (A) (A) (A) (A) (A) (A) (A) (A) (A) (A)
                 (A) (A) (A) (A) (A) (A) (A) (A) (A) (A) (A) (A)
                 (A) (A) (A) (A) (A) (A) (A) (A) (A) (A) (A) (A)
                 (A) (A) (A) (A) (A) (A) (A) (A) (A) (A) (A) (A)
                 (A) (A) (A) (A) (A) (A) (A) (A) (A) (A) (A) (A)
                 (A) (A) (A) (A) (A) (A) (A) (A) (A) (A) (A) (A)
                 (A) (A) (A) (A) (A) (A) (A) (A) (A) (A) (A) (A)
                 (A) (A) (A) (A) (A) (A) (A) (A) (A) (A) (A) (A)
                 (A) (A) (A) (A) (A) (A) (A) (A) (A) (A) (A) (A)
                 (A) (A) (A) (A) (A) (A) (A) (A) (A) (A) (A) (A)
                 (A) (A) (A) (A) (A) (A) (A) (A) (A) (A) (A) (A)
                 (A) (A) (A) (A) (A) (A) (A) (A) (A) (A) (A) (A)
                 (A) (A) (A) (A) (A) (A) (A) (A) (A) (A) (A) (A)
                 (A) (A) (A) (A) (A) (A) (A) (A) (A) (A) (A) (A)
                 (A) (A) (A) (A) (A) (A) (A) (A) (A) (A) (A) (A)
                 (A) (A) (A) (A) (A) (A) (A) (A) (A) (A) (A) (A)
                 (A) (A) (A) (A) (A) (A) (A) (A) (A) (A) (A) (A)
                 (A) (A) (A) (A) (A) (A) (A) (A) (A) (A) (A) (A)
                 (A) (A) (A) (A) (A) (A) (A) (A) (A) (A) (A) (A)
                 (A) (A) (A) (A) (A) (A) (A) (A) (A) (A) (A) (A)
                 (A) (A) (A) (A) (A) (A) (A) (A) (A) (A) (A) (A)
                 (A) (A) (A) (A) (A) (A) (A) (A) (A) (A) (A) (A)
                 (A) (A) (A) (A) (A) (A) (A) (A) (A) (A) (A) (A)
                 (A) (A) (A) (A) (A) (A) (A) (A) (A) (A) (A) (A)
                 (A) (A) (A) (A) (A) (A) (A) (A) (A) (A) (A) (A)
                 (A) (A) (A) (A) (A) (A) (A) (A) (A) (A) (A) (A)
                 (A) (A) (A) (A) (A) (A) (A) (A) (A) (A) (A) (A)
                 (A) (A) (A) (A) (A) (A) (A) (A) (A) (A) (A) (A)
                 (A) (A) (A) (A) (A) (A) (A) (A) (A) (A) (A) (A)
                 (A) (A) (A) (A) (A) (A) (A) (A) (A) (A) (A) (A)
                 (A) (A) (A) (A) (A) (A) (A) (A) (A) (A) (A) (A)
                 (A) (A) (A) (A) (A) (A) (A) (A) (A) (A) (A) (A)
                 (A) (A) (A) (A) (A) (A) (A) (A) (A) (A) (A) (A)
                 (A) (A) (A) (A) (A) (A) (A) (A) (A) (A) (A) (A)
                 (A) (A) (A) (A) (A) (A) (A) (A) (A) (A) (A) (A)
                 (A) (A) (A) (A) (A) (A) (A) (A) (A) (A) (A) (A)
                 (A) (A) (A) (A) (A) (A) (A) (A) (A) (A) (A) (A)
                 (A) (A) (A) (A) (A) (A) (A) (A) (A) (A) (A) (A)
                 (A) (A) (A) (A) (A) (A) (A) (A) (A) (A) (A) (A)
                 (A) (A) (A) (A) (A) (A) (A) (A) (A) (A) (A) (A)
                 (A) (A) (A) (A) (A) (A) (A) (A) (A) (A) (A) (A)
                 (A) (A) (A) (A) (A) (A) (A) (A) (A) (A) (A) (A)
                 (A) (A) (A) (A) (A) (A) (A) (A) (A) (A) (A) (A)
                 (A) (A) (A) (A) (A) (A) (A) (A) (A) (A) (A) (A)
                 (A) (A) (A) (A) (A) (A) (A) (A) (A) (A) (A) (A)
                 (A) (A) (A) (A) (A) (A) (A) (A) (A) (A) (A) (A)
                 (A) (A) (A) (A) (A) (A) (A) (A) (A) (A) (A) (A)
                 (A) (A) (A) (A) (A) (A) (A) (A) (A) (A) (A) (A)
                 (A) (A) (A) (A) (A) (A) (A) (A) (A) (A) (A) (A)
                 (A) (A) (A) (A) (A) (A) (A) (A) (A) (A) (A) (A)
                 (A) (A) (A) (A) (A) (A) (A) (A) (A) (A) (A) (A)
                 (A) (A) (A) (A) (A) (A) (A) (A) (A) (A) (A) (A)
                 (A) (A) (A) (A) (A) (A) (A) (A) (A) (A) (A) (A)
                 (A) (A) (A) (A) (A) (A) (A) (A) (A) (A) (A) (A)
                 (A) (A) (A) (A) (A) (A) (A) (A) (A) (A) (A) (A)
                 (A) (A) (A) (A) (A) (A) (A) (A) (A) (A) (A) (A)
                 (A) (A) (A) (A) (A) (A) (A) (A) (A) (A) (A) (A)
                 (A) (A) (A) (A) (A) (A) (A) (A) (A) (A) (A) (A)
                 (A) (A) (A) (A) (A) (A) (A) (A) (A) (A) (A) (A)
                 (A) (A) (A) (A) (A) (A) (A) (A) (A) (A) (A) (A)
                 (A) (A) (A) (A) (A) (A) (A) (A) (A) (A) (A) (A)
                 (A) (A) (A) (A) (A) (A) (A) (A) (A) (A) (A) (A)
                 (A) (A) (A) (A) (A) (A) (A) (A) (A) (A) (A) (A)
                 (A) (A) (A) (A) (A) (A) (A) (A) (A) (A) (A) (A)
                 (A) (A) (A) (A) (A) (A) (A) (A) (A) (A) (A) (A)
                 (A) (A) (A) (A) (A) (A) (A) (A) (A) (A) (A) (A)
                 (A) (A) (A) (A) (A) (A) (A) (A) (A) (A) (A) (A)
                 (A) (A) (A) (A) (A) (A) (A) (A) (A) (A) (A) (A)
                 (A) (A) (A) (A) (A) (A) (A) (A) (A) (A) (A) (A)
                 (A) (A) (A) (A) (A) (A) (A) (A) (A) (A) (A) (A)
                 (A) (A) (A) (A) (A) (A) (A) (A) (A) (A) (A) (A)
                 (A) (A) (A) (A) (A) (A) (A) (A) (A) (A) (A) (A)
                 (A) (A) (A) (A) (A) (A) (A) (A) (A) (A) (A) (A)
                 (A) (A) (A) (A) (A) (A) (A) (A) (A) (A) (A) (A)
                 (A) (A) (A) (A) (A) (A) (A) (A) (A) (A) (A) (A)
                 (A) (A) (A) (A) (A) (A) (A) (A) (A) (A) (A) (A)
                 (A) (A) (A) (A) (A) (A) (A) (A) (A) (A) (A) (A)
                 (A) (A) (A) (A) (A) (A) (A) (A) (A) (A) (A) (A)
                 (A) (A) (A) (A) (A) (A) (A) (A) (A) (A) (A) (A)
                 (A) (A) (A) (A) (A) (A) (A) (A) (A) (A) (A) (A)
                 (A) (A) (A) (A) (A) (A) (A) (A) (A) (A)
     8 initial guesses have been made.
 Convergence on wavefunction:    0.001000000000000
 Iteration     1 Dimension     8 NMult     0 NNew      8
 CISAX will form     8 AO SS matrices at one time.
 Iteration     2 Dimension    12 NMult     8 NNew      4
 Iteration     3 Dimension    16 NMult    12 NNew      4
 Iteration     4 Dimension    20 NMult    16 NNew      4
 Iteration     5 Dimension    24 NMult    20 NNew      4
 Iteration     6 Dimension    28 NMult    24 NNew      4
 Iteration     7 Dimension    32 NMult    28 NNew      4
 ***********************************************************************
 Excited states from <AA,BB:AA,BB> singles matrix:
 ***********************************************************************
 
 Ground to excited state transition densities written to RWF  633
 Ground to excited state transition electric dipole moments (Au):
       state          X           Y           Z        Dip. S.      Osc.
         1        -0.1293      1.8282      0.5306      3.6407      0.1808
 Ground to excited state transition velocity dipole moments (Au):
       state          X           Y           Z        Dip. S.      Osc.
         1         0.0068     -0.1299     -0.0409      0.0186      0.1663
 Ground to excited state transition magnetic dipole moments (Au):
       state          X           Y           Z
         1        -0.5928     -0.6384      1.9153
 Ground to excited state transition velocity quadrupole moments (Au):
       state          XX          YY          ZZ          XY          XZ          YZ
         1        -0.0272     -0.3318     -0.2051      1.2059      0.3180     -0.2935
 <0|del|b> * <b|rxdel|0> + <0|del|b> * <b|delr+rdel|0>
 Rotatory Strengths (R) in cgs (10**-40 erg-esu-cm/Gauss)
       state          XX          YY          ZZ    R(velocity)    E-M Angle
         1       -16.5583   -166.2853    187.8099      1.6554       89.90
 1/2[<0|r|b>*<b|rxdel|0> + (<0|rxdel|b>*<b|r|0>)*]
 Rotatory Strengths (R) in cgs (10**-40 erg-esu-cm/Gauss)
       state          XX          YY          ZZ     R(length)
         1       -54.1915    825.4097   -718.5900     17.5427
  1/2[<0|del|b>*<b|r|0> + (<0|r|b>*<b|del|0>)*] (Au)
       state          X           Y           Z        Dip. S.   Osc.(frdel)
         1        -0.0009     -0.2374     -0.0217      0.2600      0.1733

 Excitation energies and oscillator strengths:
 
 Excited State   1:      Singlet-A      2.0274 eV  611.55 nm  f=0.1808  <S**2>=0.000
     243 -> 246        0.23077
     244 -> 245        0.64707
 This state for optimization and/or second-order correction.
 Total Energy, E(TD-HF/TD-KS) =  -3043.39277184    
 Copying the excited state density for this state as the 1-particle RhoCI density.
 SavETr:  write IOETrn=   770 NScale= 10 NData=  16 NLR=1 NState=    1 LETran=      28.

 **********************************************************************

            Population analysis using the SCF density.

 **********************************************************************

 Orbital symmetries:
       Occupied  (A) (A) (A) (A) (A) (A) (A) (A) (A) (A) (A) (A)
                 (A) (A) (A) (A) (A) (A) (A) (A) (A) (A) (A) (A)
                 (A) (A) (A) (A) (A) (A) (A) (A) (A) (A) (A) (A)
                 (A) (A) (A) (A) (A) (A) (A) (A) (A) (A) (A) (A)
                 (A) (A) (A) (A) (A) (A) (A) (A) (A) (A) (A) (A)
                 (A) (A) (A) (A) (A) (A) (A) (A) (A) (A) (A) (A)
                 (A) (A) (A) (A) (A) (A) (A) (A) (A) (A) (A) (A)
                 (A) (A) (A) (A) (A) (A) (A) (A) (A) (A) (A) (A)
                 (A) (A) (A) (A) (A) (A) (A) (A) (A) (A) (A) (A)
                 (A) (A) (A) (A) (A) (A) (A) (A) (A) (A) (A) (A)
                 (A) (A) (A) (A) (A) (A) (A) (A) (A) (A) (A) (A)
                 (A) (A) (A) (A) (A) (A) (A) (A) (A) (A) (A) (A)
                 (A) (A) (A) (A) (A) (A) (A) (A) (A) (A) (A) (A)
                 (A) (A) (A) (A) (A) (A) (A) (A) (A) (A) (A) (A)
                 (A) (A) (A) (A) (A) (A) (A) (A) (A) (A) (A) (A)
                 (A) (A) (A) (A) (A) (A) (A) (A) (A) (A) (A) (A)
                 (A) (A) (A) (A) (A) (A) (A) (A) (A) (A) (A) (A)
                 (A) (A) (A) (A) (A) (A) (A) (A) (A) (A) (A) (A)
                 (A) (A) (A) (A) (A) (A) (A) (A) (A) (A) (A) (A)
                 (A) (A) (A) (A) (A) (A) (A) (A) (A) (A) (A) (A)
                 (A) (A) (A) (A)
       Virtual   (A) (A) (A) (A) (A) (A) (A) (A) (A) (A) (A) (A)
                 (A) (A) (A) (A) (A) (A) (A) (A) (A) (A) (A) (A)
                 (A) (A) (A) (A) (A) (A) (A) (A) (A) (A) (A) (A)
                 (A) (A) (A) (A) (A) (A) (A) (A) (A) (A) (A) (A)
                 (A) (A) (A) (A) (A) (A) (A) (A) (A) (A) (A) (A)
                 (A) (A) (A) (A) (A) (A) (A) (A) (A) (A) (A) (A)
                 (A) (A) (A) (A) (A) (A) (A) (A) (A) (A) (A) (A)
                 (A) (A) (A) (A) (A) (A) (A) (A) (A) (A) (A) (A)
                 (A) (A) (A) (A) (A) (A) (A) (A) (A) (A) (A) (A)
                 (A) (A) (A) (A) (A) (A) (A) (A) (A) (A) (A) (A)
                 (A) (A) (A) (A) (A) (A) (A) (A) (A) (A) (A) (A)
                 (A) (A) (A) (A) (A) (A) (A) (A) (A) (A) (A) (A)
                 (A) (A) (A) (A) (A) (A) (A) (A) (A) (A) (A) (A)
                 (A) (A) (A) (A) (A) (A) (A) (A) (A) (A) (A) (A)
                 (A) (A) (A) (A) (A) (A) (A) (A) (A) (A) (A) (A)
                 (A) (A) (A) (A) (A) (A) (A) (A) (A) (A) (A) (A)
                 (A) (A) (A) (A) (A) (A) (A) (A) (A) (A) (A) (A)
                 (A) (A) (A) (A) (A) (A) (A) (A) (A) (A) (A) (A)
                 (A) (A) (A) (A) (A) (A) (A) (A) (A) (A) (A) (A)
                 (A) (A) (A) (A) (A) (A) (A) (A) (A) (A) (A) (A)
                 (A) (A) (A) (A) (A) (A) (A) (A) (A) (A) (A) (A)
                 (A) (A) (A) (A) (A) (A) (A) (A) (A) (A) (A) (A)
                 (A) (A) (A) (A) (A) (A) (A) (A) (A) (A) (A) (A)
                 (A) (A) (A) (A) (A) (A) (A) (A) (A) (A) (A) (A)
                 (A) (A) (A) (A) (A) (A) (A) (A) (A) (A) (A) (A)
                 (A) (A) (A) (A) (A) (A) (A) (A) (A) (A) (A) (A)
                 (A) (A) (A) (A) (A) (A) (A) (A) (A) (A) (A) (A)
                 (A) (A) (A) (A) (A) (A) (A) (A) (A) (A) (A) (A)
                 (A) (A) (A) (A) (A) (A) (A) (A) (A) (A) (A) (A)
                 (A) (A) (A) (A) (A) (A) (A) (A) (A) (A) (A) (A)
                 (A) (A) (A) (A) (A) (A) (A) (A) (A) (A) (A) (A)
                 (A) (A) (A) (A) (A) (A) (A) (A) (A) (A) (A) (A)
                 (A) (A) (A) (A) (A) (A) (A) (A) (A) (A) (A) (A)
                 (A) (A) (A) (A) (A) (A) (A) (A) (A) (A) (A) (A)
                 (A) (A) (A) (A) (A) (A) (A) (A) (A) (A) (A) (A)
                 (A) (A) (A) (A) (A) (A) (A) (A) (A) (A) (A) (A)
                 (A) (A) (A) (A) (A) (A) (A) (A) (A) (A) (A) (A)
                 (A) (A) (A) (A) (A) (A) (A) (A) (A) (A) (A) (A)
                 (A) (A) (A) (A) (A) (A) (A) (A) (A) (A) (A) (A)
                 (A) (A) (A) (A) (A) (A) (A) (A) (A) (A) (A) (A)
                 (A) (A) (A) (A) (A) (A) (A) (A) (A) (A) (A) (A)
                 (A) (A) (A) (A) (A) (A) (A) (A) (A) (A) (A) (A)
                 (A) (A) (A) (A) (A) (A) (A) (A) (A) (A) (A) (A)
                 (A) (A) (A) (A) (A) (A) (A) (A) (A) (A) (A) (A)
                 (A) (A) (A) (A) (A) (A) (A) (A) (A) (A) (A) (A)
                 (A) (A) (A) (A) (A) (A) (A) (A) (A) (A) (A) (A)
                 (A) (A) (A) (A) (A) (A) (A) (A) (A) (A) (A) (A)
                 (A) (A) (A) (A) (A) (A) (A) (A) (A) (A) (A) (A)
                 (A) (A) (A) (A) (A) (A) (A) (A) (A) (A) (A) (A)
                 (A) (A) (A) (A) (A) (A) (A) (A) (A) (A) (A) (A)
                 (A) (A) (A) (A) (A) (A) (A) (A) (A) (A) (A) (A)
                 (A) (A) (A) (A) (A) (A) (A) (A) (A) (A) (A) (A)
                 (A) (A) (A) (A) (A) (A) (A) (A) (A) (A) (A) (A)
                 (A) (A) (A) (A) (A) (A) (A) (A) (A) (A) (A) (A)
                 (A) (A) (A) (A) (A) (A) (A) (A) (A) (A) (A) (A)
                 (A) (A) (A) (A) (A) (A) (A) (A) (A) (A) (A) (A)
                 (A) (A) (A) (A) (A) (A) (A) (A) (A) (A) (A) (A)
                 (A) (A) (A) (A) (A) (A) (A) (A) (A) (A) (A) (A)
                 (A) (A) (A) (A) (A) (A) (A) (A) (A) (A) (A) (A)
                 (A) (A) (A) (A) (A) (A) (A) (A) (A) (A) (A) (A)
                 (A) (A) (A) (A) (A) (A) (A) (A) (A) (A) (A) (A)
                 (A) (A) (A) (A) (A) (A) (A) (A) (A) (A) (A) (A)
                 (A) (A) (A) (A) (A) (A) (A) (A) (A) (A) (A) (A)
                 (A) (A) (A) (A) (A) (A) (A) (A) (A) (A) (A) (A)
                 (A) (A) (A) (A) (A) (A) (A) (A) (A) (A) (A) (A)
                 (A) (A) (A) (A) (A) (A) (A) (A) (A) (A) (A) (A)
                 (A) (A) (A) (A) (A) (A) (A) (A) (A) (A) (A) (A)
                 (A) (A) (A) (A) (A) (A) (A) (A) (A) (A) (A) (A)
                 (A) (A) (A) (A) (A) (A) (A) (A) (A) (A) (A) (A)
                 (A) (A) (A) (A) (A) (A) (A) (A) (A) (A) (A) (A)
                 (A) (A) (A) (A) (A) (A) (A) (A) (A) (A) (A) (A)
                 (A) (A) (A) (A) (A) (A) (A) (A) (A) (A) (A) (A)
                 (A) (A) (A) (A) (A) (A) (A) (A) (A) (A) (A) (A)
                 (A) (A) (A) (A) (A) (A) (A) (A) (A) (A) (A) (A)
                 (A) (A) (A) (A) (A) (A) (A) (A) (A) (A) (A) (A)
                 (A) (A) (A) (A) (A) (A) (A) (A) (A) (A) (A) (A)
                 (A) (A) (A) (A) (A) (A) (A) (A) (A) (A) (A) (A)
                 (A) (A) (A) (A) (A) (A) (A) (A) (A) (A) (A) (A)
                 (A) (A) (A) (A) (A) (A) (A) (A) (A) (A) (A) (A)
                 (A) (A) (A) (A) (A) (A) (A) (A) (A) (A) (A) (A)
                 (A) (A) (A) (A) (A) (A) (A) (A) (A) (A) (A) (A)
                 (A) (A) (A) (A) (A) (A) (A) (A) (A) (A) (A) (A)
                 (A) (A) (A) (A) (A) (A) (A) (A) (A) (A) (A) (A)
                 (A) (A) (A) (A) (A) (A) (A) (A) (A) (A) (A) (A)
                 (A) (A) (A) (A) (A) (A) (A) (A) (A) (A) (A) (A)
                 (A) (A) (A) (A) (A) (A) (A) (A) (A) (A) (A) (A)
                 (A) (A) (A) (A) (A) (A) (A) (A) (A) (A) (A) (A)
                 (A) (A) (A) (A) (A) (A) (A) (A) (A) (A) (A) (A)
                 (A) (A) (A) (A) (A) (A) (A) (A) (A) (A) (A) (A)
                 (A) (A) (A) (A) (A) (A) (A) (A) (A) (A) (A) (A)
                 (A) (A) (A) (A) (A) (A) (A) (A) (A) (A)
 The electronic state is 1-A.
 Alpha  occ. eigenvalues --  -46.81451 -19.22198 -19.20963 -19.17775 -19.17537
 Alpha  occ. eigenvalues --  -19.17226 -19.16679 -19.15654 -14.38739 -14.36973
 Alpha  occ. eigenvalues --  -14.36723 -14.36214 -10.35010 -10.34218 -10.32322
 Alpha  occ. eigenvalues --  -10.32039 -10.29621 -10.28470 -10.27970 -10.27866
 Alpha  occ. eigenvalues --  -10.26734 -10.26694 -10.26514 -10.26376 -10.25977
 Alpha  occ. eigenvalues --  -10.25926 -10.25899 -10.25854 -10.25564 -10.25450
 Alpha  occ. eigenvalues --  -10.24791 -10.24540 -10.24445 -10.24266 -10.24235
 Alpha  occ. eigenvalues --  -10.24192 -10.24023 -10.23966 -10.23929 -10.23467
 Alpha  occ. eigenvalues --  -10.23437 -10.23389 -10.23234 -10.23174 -10.23133
 Alpha  occ. eigenvalues --  -10.23125 -10.23108 -10.23087 -10.22748 -10.22542
 Alpha  occ. eigenvalues --  -10.22055 -10.22017 -10.21999 -10.21684 -10.21637
 Alpha  occ. eigenvalues --  -10.21399 -10.21302 -10.21159 -10.20975 -10.20916
 Alpha  occ. eigenvalues --  -10.20854 -10.20846 -10.20743 -10.19941 -10.19928
 Alpha  occ. eigenvalues --  -10.19115  -3.10011  -1.84951  -1.84510  -1.84393
 Alpha  occ. eigenvalues --   -1.13341  -1.12958  -1.05474  -1.04750  -1.04264
 Alpha  occ. eigenvalues --   -1.04031  -1.03951  -1.02024  -1.00488  -0.99448
 Alpha  occ. eigenvalues --   -0.98389  -0.88059  -0.87095  -0.86644  -0.86108
 Alpha  occ. eigenvalues --   -0.85945  -0.85606  -0.84525  -0.83927  -0.83576
 Alpha  occ. eigenvalues --   -0.83183  -0.83065  -0.82873  -0.81120  -0.79752
 Alpha  occ. eigenvalues --   -0.78807  -0.77693  -0.77156  -0.77077  -0.76427
 Alpha  occ. eigenvalues --   -0.75748  -0.74860  -0.74426  -0.73577  -0.72703
 Alpha  occ. eigenvalues --   -0.71397  -0.70735  -0.70569  -0.70039  -0.69798
 Alpha  occ. eigenvalues --   -0.69706  -0.69124  -0.67547  -0.66977  -0.66685
 Alpha  occ. eigenvalues --   -0.66625  -0.64708  -0.64432  -0.63091  -0.61998
 Alpha  occ. eigenvalues --   -0.61573  -0.60520  -0.59732  -0.58962  -0.58935
 Alpha  occ. eigenvalues --   -0.58207  -0.57984  -0.57800  -0.57340  -0.57177
 Alpha  occ. eigenvalues --   -0.56761  -0.56244  -0.55940  -0.55857  -0.54369
 Alpha  occ. eigenvalues --   -0.54052  -0.53737  -0.53484  -0.52794  -0.52437
 Alpha  occ. eigenvalues --   -0.51791  -0.51497  -0.51096  -0.50735  -0.50153
 Alpha  occ. eigenvalues --   -0.50020  -0.49836  -0.49724  -0.49460  -0.49265
 Alpha  occ. eigenvalues --   -0.48947  -0.48558  -0.48198  -0.48176  -0.47702
 Alpha  occ. eigenvalues --   -0.47423  -0.47417  -0.47236  -0.47080  -0.46975
 Alpha  occ. eigenvalues --   -0.46675  -0.46467  -0.46441  -0.45992  -0.45515
 Alpha  occ. eigenvalues --   -0.45466  -0.45264  -0.45158  -0.45000  -0.44803
 Alpha  occ. eigenvalues --   -0.44489  -0.44280  -0.44082  -0.44028  -0.43827
 Alpha  occ. eigenvalues --   -0.43566  -0.43390  -0.43234  -0.43143  -0.42868
 Alpha  occ. eigenvalues --   -0.42552  -0.42251  -0.42179  -0.42071  -0.41978
 Alpha  occ. eigenvalues --   -0.41625  -0.41582  -0.41176  -0.40911  -0.40648
 Alpha  occ. eigenvalues --   -0.40580  -0.40472  -0.40394  -0.40178  -0.40009
 Alpha  occ. eigenvalues --   -0.39818  -0.39695  -0.39397  -0.39320  -0.38892
 Alpha  occ. eigenvalues --   -0.38812  -0.38524  -0.38422  -0.38203  -0.38175
 Alpha  occ. eigenvalues --   -0.37556  -0.37361  -0.37262  -0.36884  -0.36755
 Alpha  occ. eigenvalues --   -0.36732  -0.36484  -0.36264  -0.36014  -0.35965
 Alpha  occ. eigenvalues --   -0.35870  -0.35417  -0.35231  -0.34964  -0.34609
 Alpha  occ. eigenvalues --   -0.34264  -0.34022  -0.33586  -0.33273  -0.33217
 Alpha  occ. eigenvalues --   -0.32669  -0.32318  -0.32193  -0.31859  -0.31660
 Alpha  occ. eigenvalues --   -0.31208  -0.30929  -0.30817  -0.30423  -0.30331
 Alpha  occ. eigenvalues --   -0.28731  -0.28501  -0.28278  -0.28050  -0.27630
 Alpha  occ. eigenvalues --   -0.27146  -0.26470  -0.23637  -0.22352
 Alpha virt. eigenvalues --   -0.09651  -0.07131  -0.01954  -0.01215   0.00976
 Alpha virt. eigenvalues --    0.03206   0.04085   0.04173   0.04619   0.04913
 Alpha virt. eigenvalues --    0.05232   0.05832   0.07674   0.08484   0.08865
 Alpha virt. eigenvalues --    0.09107   0.09533   0.09742   0.09872   0.10614
 Alpha virt. eigenvalues --    0.10744   0.11106   0.11571   0.11669   0.11749
 Alpha virt. eigenvalues --    0.11850   0.12110   0.12421   0.12688   0.12747
 Alpha virt. eigenvalues --    0.12788   0.13092   0.13349   0.13626   0.14171
 Alpha virt. eigenvalues --    0.14345   0.14431   0.14511   0.14621   0.14779
 Alpha virt. eigenvalues --    0.15095   0.15298   0.15372   0.15595   0.15605
 Alpha virt. eigenvalues --    0.15920   0.16086   0.16284   0.16409   0.16591
 Alpha virt. eigenvalues --    0.16904   0.17151   0.17295   0.17412   0.17510
 Alpha virt. eigenvalues --    0.17706   0.17778   0.17825   0.17992   0.18199
 Alpha virt. eigenvalues --    0.18362   0.18644   0.18703   0.18842   0.18888
 Alpha virt. eigenvalues --    0.19034   0.19251   0.19285   0.19583   0.19814
 Alpha virt. eigenvalues --    0.20294   0.20482   0.20521   0.20585   0.20750
 Alpha virt. eigenvalues --    0.20928   0.21222   0.21332   0.21460   0.21848
 Alpha virt. eigenvalues --    0.22048   0.22123   0.22363   0.22684   0.22772
 Alpha virt. eigenvalues --    0.22954   0.23009   0.23136   0.23342   0.23398
 Alpha virt. eigenvalues --    0.23483   0.24003   0.24317   0.24411   0.24489
 Alpha virt. eigenvalues --    0.24842   0.24862   0.25050   0.25667   0.25880
 Alpha virt. eigenvalues --    0.25988   0.26045   0.26614   0.26732   0.26861
 Alpha virt. eigenvalues --    0.27207   0.27344   0.27569   0.27713   0.27808
 Alpha virt. eigenvalues --    0.28308   0.28582   0.28925   0.28963   0.29446
 Alpha virt. eigenvalues --    0.29912   0.29980   0.30207   0.30444   0.30814
 Alpha virt. eigenvalues --    0.31122   0.31527   0.31877   0.32001   0.32124
 Alpha virt. eigenvalues --    0.32262   0.32755   0.33374   0.33821   0.33943
 Alpha virt. eigenvalues --    0.34379   0.34604   0.35331   0.35762   0.36143
 Alpha virt. eigenvalues --    0.36733   0.37116   0.37394   0.38105   0.38862
 Alpha virt. eigenvalues --    0.39043   0.39256   0.39579   0.40101   0.40601
 Alpha virt. eigenvalues --    0.41222   0.41885   0.43345   0.43636   0.44085
 Alpha virt. eigenvalues --    0.45115   0.45756   0.46179   0.46989   0.47791
 Alpha virt. eigenvalues --    0.48378   0.48580   0.48855   0.48975   0.49586
 Alpha virt. eigenvalues --    0.49927   0.50259   0.51068   0.51096   0.51628
 Alpha virt. eigenvalues --    0.51781   0.52069   0.52367   0.52602   0.52877
 Alpha virt. eigenvalues --    0.53019   0.53566   0.53730   0.53740   0.54199
 Alpha virt. eigenvalues --    0.54291   0.54649   0.54702   0.54928   0.55118
 Alpha virt. eigenvalues --    0.55447   0.55679   0.56024   0.56175   0.56386
 Alpha virt. eigenvalues --    0.56732   0.56923   0.57053   0.57252   0.57338
 Alpha virt. eigenvalues --    0.57568   0.57717   0.57929   0.58591   0.58850
 Alpha virt. eigenvalues --    0.59008   0.59175   0.59425   0.59512   0.59558
 Alpha virt. eigenvalues --    0.60076   0.60543   0.60770   0.60919   0.61151
 Alpha virt. eigenvalues --    0.61560   0.61883   0.61971   0.62244   0.62468
 Alpha virt. eigenvalues --    0.62678   0.62847   0.62942   0.63069   0.63309
 Alpha virt. eigenvalues --    0.63451   0.63673   0.64391   0.64499   0.64748
 Alpha virt. eigenvalues --    0.65025   0.65416   0.65866   0.66034   0.66353
 Alpha virt. eigenvalues --    0.66638   0.66773   0.66974   0.67295   0.67371
 Alpha virt. eigenvalues --    0.67605   0.68018   0.68145   0.68411   0.68659
 Alpha virt. eigenvalues --    0.69148   0.69537   0.69743   0.69957   0.70245
 Alpha virt. eigenvalues --    0.70456   0.70785   0.71189   0.71416   0.71613
 Alpha virt. eigenvalues --    0.71850   0.72073   0.72387   0.72579   0.72738
 Alpha virt. eigenvalues --    0.73193   0.73327   0.73698   0.73909   0.74337
 Alpha virt. eigenvalues --    0.74571   0.74792   0.75004   0.75105   0.75486
 Alpha virt. eigenvalues --    0.75593   0.75870   0.75902   0.76169   0.76315
 Alpha virt. eigenvalues --    0.76597   0.77094   0.77347   0.77715   0.77753
 Alpha virt. eigenvalues --    0.78022   0.78066   0.78585   0.78982   0.79214
 Alpha virt. eigenvalues --    0.79269   0.79845   0.79916   0.80175   0.80271
 Alpha virt. eigenvalues --    0.80658   0.80757   0.81185   0.81219   0.81377
 Alpha virt. eigenvalues --    0.81460   0.81594   0.81797   0.82084   0.82098
 Alpha virt. eigenvalues --    0.82478   0.82743   0.82804   0.83227   0.83352
 Alpha virt. eigenvalues --    0.83706   0.84072   0.84233   0.84446   0.84610
 Alpha virt. eigenvalues --    0.84767   0.85201   0.85239   0.85649   0.85796
 Alpha virt. eigenvalues --    0.86055   0.86293   0.86448   0.86750   0.86871
 Alpha virt. eigenvalues --    0.87012   0.87049   0.87156   0.87262   0.87365
 Alpha virt. eigenvalues --    0.87786   0.87966   0.88026   0.88149   0.88319
 Alpha virt. eigenvalues --    0.88511   0.88676   0.89165   0.89358   0.89713
 Alpha virt. eigenvalues --    0.89773   0.89922   0.90148   0.90502   0.90620
 Alpha virt. eigenvalues --    0.90728   0.90903   0.91152   0.91306   0.91567
 Alpha virt. eigenvalues --    0.91665   0.91888   0.91971   0.92368   0.92463
 Alpha virt. eigenvalues --    0.92893   0.93170   0.93358   0.93661   0.93881
 Alpha virt. eigenvalues --    0.94028   0.94315   0.94634   0.94822   0.95021
 Alpha virt. eigenvalues --    0.95090   0.95364   0.95591   0.95723   0.95855
 Alpha virt. eigenvalues --    0.95964   0.96420   0.96742   0.96828   0.97039
 Alpha virt. eigenvalues --    0.97459   0.97697   0.97902   0.98260   0.98342
 Alpha virt. eigenvalues --    0.98894   0.99290   0.99403   0.99615   0.99828
 Alpha virt. eigenvalues --    1.00056   1.00202   1.00403   1.00655   1.00737
 Alpha virt. eigenvalues --    1.01049   1.01137   1.01634   1.02152   1.02206
 Alpha virt. eigenvalues --    1.02291   1.02597   1.02810   1.03328   1.03434
 Alpha virt. eigenvalues --    1.03578   1.04060   1.04268   1.04438   1.04958
 Alpha virt. eigenvalues --    1.05086   1.05278   1.05534   1.06348   1.06668
 Alpha virt. eigenvalues --    1.07118   1.07460   1.07590   1.08067   1.09100
 Alpha virt. eigenvalues --    1.09364   1.09637   1.10117   1.10231   1.10925
 Alpha virt. eigenvalues --    1.11270   1.11423   1.11980   1.12762   1.13348
 Alpha virt. eigenvalues --    1.13618   1.14366   1.15138   1.15484   1.16403
 Alpha virt. eigenvalues --    1.16606   1.17343   1.17994   1.18777   1.19367
 Alpha virt. eigenvalues --    1.19728   1.20299   1.20872   1.21007   1.21120
 Alpha virt. eigenvalues --    1.21416   1.21986   1.22107   1.23057   1.23949
 Alpha virt. eigenvalues --    1.24700   1.25218   1.25734   1.25973   1.26295
 Alpha virt. eigenvalues --    1.26674   1.27347   1.27598   1.28195   1.28582
 Alpha virt. eigenvalues --    1.29262   1.29402   1.29716   1.30313   1.30441
 Alpha virt. eigenvalues --    1.31094   1.31522   1.32750   1.33149   1.33450
 Alpha virt. eigenvalues --    1.33552   1.33891   1.34423   1.34547   1.35228
 Alpha virt. eigenvalues --    1.35552   1.35736   1.36102   1.36196   1.37500
 Alpha virt. eigenvalues --    1.38201   1.38503   1.38900   1.39448   1.39563
 Alpha virt. eigenvalues --    1.40787   1.40842   1.41043   1.41726   1.42371
 Alpha virt. eigenvalues --    1.42940   1.43527   1.43961   1.44758   1.45109
 Alpha virt. eigenvalues --    1.45307   1.45620   1.46755   1.47478   1.47678
 Alpha virt. eigenvalues --    1.47941   1.48300   1.49435   1.49502   1.49692
 Alpha virt. eigenvalues --    1.49968   1.50582   1.50973   1.51191   1.51508
 Alpha virt. eigenvalues --    1.52072   1.52161   1.52876   1.53263   1.53932
 Alpha virt. eigenvalues --    1.54055   1.54718   1.55052   1.55230   1.55661
 Alpha virt. eigenvalues --    1.56125   1.56368   1.57042   1.57643   1.58767
 Alpha virt. eigenvalues --    1.59322   1.59437   1.59703   1.59909   1.60589
 Alpha virt. eigenvalues --    1.61122   1.61333   1.61586   1.61906   1.62611
 Alpha virt. eigenvalues --    1.62682   1.62733   1.63335   1.63414   1.64312
 Alpha virt. eigenvalues --    1.65156   1.65218   1.65326   1.65937   1.66218
 Alpha virt. eigenvalues --    1.66593   1.66746   1.68151   1.68259   1.68819
 Alpha virt. eigenvalues --    1.69214   1.69345   1.69512   1.69658   1.70282
 Alpha virt. eigenvalues --    1.70642   1.71564   1.71729   1.72416   1.72515
 Alpha virt. eigenvalues --    1.73062   1.73693   1.73964   1.74217   1.74664
 Alpha virt. eigenvalues --    1.75305   1.75716   1.76369   1.76468   1.76888
 Alpha virt. eigenvalues --    1.76951   1.77195   1.77472   1.77530   1.78482
 Alpha virt. eigenvalues --    1.78681   1.79008   1.79193   1.79451   1.79545
 Alpha virt. eigenvalues --    1.80409   1.80749   1.81045   1.81353   1.81486
 Alpha virt. eigenvalues --    1.81842   1.81868   1.82053   1.82373   1.82536
 Alpha virt. eigenvalues --    1.82963   1.83219   1.83509   1.83854   1.84078
 Alpha virt. eigenvalues --    1.84478   1.84540   1.84971   1.85190   1.85361
 Alpha virt. eigenvalues --    1.85715   1.85920   1.86129   1.86518   1.86672
 Alpha virt. eigenvalues --    1.86711   1.87393   1.87524   1.87818   1.88014
 Alpha virt. eigenvalues --    1.88652   1.88728   1.89092   1.89157   1.89602
 Alpha virt. eigenvalues --    1.90209   1.90443   1.90499   1.90874   1.90983
 Alpha virt. eigenvalues --    1.91248   1.91545   1.91685   1.91910   1.92157
 Alpha virt. eigenvalues --    1.92286   1.92536   1.92966   1.93394   1.93414
 Alpha virt. eigenvalues --    1.93761   1.93936   1.94042   1.94208   1.94290
 Alpha virt. eigenvalues --    1.94676   1.95035   1.95302   1.95700   1.95844
 Alpha virt. eigenvalues --    1.96196   1.96426   1.97191   1.97447   1.97884
 Alpha virt. eigenvalues --    1.98153   1.98466   1.98744   1.98802   1.99498
 Alpha virt. eigenvalues --    1.99599   1.99678   1.99852   2.00222   2.00652
 Alpha virt. eigenvalues --    2.00710   2.00982   2.01325   2.01437   2.01580
 Alpha virt. eigenvalues --    2.02035   2.02271   2.02598   2.02934   2.03143
 Alpha virt. eigenvalues --    2.03352   2.03701   2.04336   2.04695   2.04903
 Alpha virt. eigenvalues --    2.04918   2.05094   2.05460   2.05468   2.05902
 Alpha virt. eigenvalues --    2.06082   2.06399   2.06944   2.07277   2.07487
 Alpha virt. eigenvalues --    2.08060   2.08326   2.08463   2.08688   2.09308
 Alpha virt. eigenvalues --    2.09954   2.10059   2.10576   2.10867   2.11083
 Alpha virt. eigenvalues --    2.11315   2.11432   2.11633   2.11970   2.12349
 Alpha virt. eigenvalues --    2.12451   2.12735   2.13277   2.13341   2.13547
 Alpha virt. eigenvalues --    2.13837   2.14223   2.14718   2.15273   2.15573
 Alpha virt. eigenvalues --    2.16140   2.16328   2.16602   2.16634   2.16802
 Alpha virt. eigenvalues --    2.17123   2.17315   2.17392   2.17506   2.18381
 Alpha virt. eigenvalues --    2.18479   2.19597   2.19780   2.20239   2.20608
 Alpha virt. eigenvalues --    2.20947   2.21212   2.21464   2.21629   2.22361
 Alpha virt. eigenvalues --    2.22651   2.23232   2.23278   2.23515   2.24109
 Alpha virt. eigenvalues --    2.24206   2.24275   2.24365   2.25051   2.25213
 Alpha virt. eigenvalues --    2.25730   2.26395   2.26671   2.26759   2.27030
 Alpha virt. eigenvalues --    2.27199   2.27508   2.27991   2.28120   2.28286
 Alpha virt. eigenvalues --    2.28598   2.29663   2.29926   2.30067   2.30354
 Alpha virt. eigenvalues --    2.30540   2.31051   2.31398   2.31558   2.31681
 Alpha virt. eigenvalues --    2.32214   2.32757   2.32884   2.33103   2.33372
 Alpha virt. eigenvalues --    2.33990   2.34190   2.34411   2.34838   2.35131
 Alpha virt. eigenvalues --    2.35760   2.35798   2.35985   2.36148   2.36488
 Alpha virt. eigenvalues --    2.36815   2.37062   2.37473   2.38070   2.38251
 Alpha virt. eigenvalues --    2.38680   2.38856   2.38967   2.39160   2.39731
 Alpha virt. eigenvalues --    2.40089   2.40477   2.40992   2.41249   2.41573
 Alpha virt. eigenvalues --    2.42126   2.42734   2.43033   2.43067   2.43851
 Alpha virt. eigenvalues --    2.44009   2.44112   2.44400   2.44528   2.44726
 Alpha virt. eigenvalues --    2.45062   2.45084   2.45441   2.45999   2.46272
 Alpha virt. eigenvalues --    2.46578   2.46816   2.47630   2.47720   2.47887
 Alpha virt. eigenvalues --    2.48867   2.49858   2.50169   2.50369   2.50749
 Alpha virt. eigenvalues --    2.51055   2.51351   2.51788   2.51830   2.52219
 Alpha virt. eigenvalues --    2.52853   2.53273   2.53662   2.53927   2.54217
 Alpha virt. eigenvalues --    2.54594   2.55301   2.55521   2.56431   2.56680
 Alpha virt. eigenvalues --    2.56932   2.57254   2.57713   2.57771   2.58116
 Alpha virt. eigenvalues --    2.58883   2.59581   2.59899   2.60031   2.60090
 Alpha virt. eigenvalues --    2.60405   2.60625   2.60960   2.61515   2.61638
 Alpha virt. eigenvalues --    2.62062   2.62322   2.62458   2.63439   2.63623
 Alpha virt. eigenvalues --    2.63759   2.64499   2.64780   2.64865   2.65901
 Alpha virt. eigenvalues --    2.66007   2.66295   2.66474   2.66571   2.67255
 Alpha virt. eigenvalues --    2.67317   2.67528   2.67687   2.68056   2.68513
 Alpha virt. eigenvalues --    2.68594   2.68892   2.69113   2.69332   2.69896
 Alpha virt. eigenvalues --    2.70260   2.70465   2.70943   2.71320   2.71863
 Alpha virt. eigenvalues --    2.72328   2.72467   2.72701   2.73118   2.73466
 Alpha virt. eigenvalues --    2.73998   2.74145   2.74492   2.74597   2.75261
 Alpha virt. eigenvalues --    2.75394   2.75617   2.75858   2.76194   2.76426
 Alpha virt. eigenvalues --    2.76992   2.77416   2.78003   2.78248   2.78631
 Alpha virt. eigenvalues --    2.79073   2.79254   2.79826   2.80218   2.80543
 Alpha virt. eigenvalues --    2.80714   2.80786   2.81123   2.81401   2.81812
 Alpha virt. eigenvalues --    2.82112   2.82743   2.82902   2.83421   2.83558
 Alpha virt. eigenvalues --    2.83873   2.84250   2.84911   2.85535   2.85889
 Alpha virt. eigenvalues --    2.85982   2.86324   2.87229   2.87424   2.88333
 Alpha virt. eigenvalues --    2.88497   2.88863   2.89286   2.89517   2.89938
 Alpha virt. eigenvalues --    2.90097   2.90522   2.90679   2.91039   2.91342
 Alpha virt. eigenvalues --    2.91630   2.92333   2.92630   2.93308   2.93551
 Alpha virt. eigenvalues --    2.94223   2.94667   2.94982   2.95198   2.95728
 Alpha virt. eigenvalues --    2.95853   2.96304   2.96710   2.96841   2.96991
 Alpha virt. eigenvalues --    2.97990   2.98520   2.99002   2.99274   2.99425
 Alpha virt. eigenvalues --    2.99590   3.01253   3.01333   3.01792   3.02348
 Alpha virt. eigenvalues --    3.02816   3.03434   3.04068   3.04574   3.05299
 Alpha virt. eigenvalues --    3.05572   3.05800   3.06158   3.07244   3.08384
 Alpha virt. eigenvalues --    3.08537   3.09378   3.10155   3.10589   3.11005
 Alpha virt. eigenvalues --    3.11081   3.11477   3.11737   3.12074   3.12865
 Alpha virt. eigenvalues --    3.13840   3.14084   3.14883   3.15021   3.17444
 Alpha virt. eigenvalues --    3.17785   3.18673   3.20727   3.21400   3.22091
 Alpha virt. eigenvalues --    3.22669   3.22927   3.23638   3.24121   3.24843
 Alpha virt. eigenvalues --    3.25941   3.26739   3.27300   3.27483   3.27807
 Alpha virt. eigenvalues --    3.28758   3.28998   3.29713   3.30313   3.31111
 Alpha virt. eigenvalues --    3.32128   3.33171   3.33367   3.35208   3.35770
 Alpha virt. eigenvalues --    3.37401   3.37531   3.37945   3.38218   3.38818
 Alpha virt. eigenvalues --    3.39136   3.39348   3.40433   3.41269   3.41382
 Alpha virt. eigenvalues --    3.42244   3.43356   3.44114   3.44695   3.44700
 Alpha virt. eigenvalues --    3.45657   3.45888   3.47426   3.47644   3.48009
 Alpha virt. eigenvalues --    3.48875   3.48937   3.49254   3.50123   3.50982
 Alpha virt. eigenvalues --    3.51827   3.51961   3.53331   3.53896   3.54748
 Alpha virt. eigenvalues --    3.54939   3.56185   3.56572   3.57987   3.59247
 Alpha virt. eigenvalues --    3.60307   3.61572   3.62541   3.64987   3.65949
 Alpha virt. eigenvalues --    3.69139   3.71692   3.72790   3.74443   3.75590
 Alpha virt. eigenvalues --    3.96441   4.00773   4.02817   4.07435   4.08322
 Alpha virt. eigenvalues --    4.11575   4.14510   4.17588   4.20076   4.20954
 Alpha virt. eigenvalues --    4.22051   4.22914   4.24243   4.24369   4.26322
 Alpha virt. eigenvalues --    4.26904   4.29454   4.30557   4.31274   4.32693
 Alpha virt. eigenvalues --    4.35504   4.36264   4.36772   4.37162   4.37764
 Alpha virt. eigenvalues --    4.38694   4.40035   4.40360   4.41973   4.43724
 Alpha virt. eigenvalues --    4.45506   4.45826   4.47250   4.47849   4.48860
 Alpha virt. eigenvalues --    4.49937   4.51462   4.51754   4.54977   4.55477
 Alpha virt. eigenvalues --    4.55752   4.56918   4.58441   4.59533   4.60048
 Alpha virt. eigenvalues --    4.60064   4.61254   4.63931   4.66576   4.66792
 Alpha virt. eigenvalues --    4.67449   4.67844   4.69533   4.71028   4.74634
 Alpha virt. eigenvalues --    4.75898   4.77425   4.80645   4.81468   4.81640
 Alpha virt. eigenvalues --    4.83018   4.84740   4.85500   4.91567   4.96262
          Condensed to atoms (all electrons):
 Mulliken charges:
               1
     1  Mg   0.822244
     2  C    0.029471
     3  C   -0.232273
     4  C   -0.115711
     5  C   -0.195255
     6  N   -0.623824
     7  C    0.336579
     8  C   -0.167313
     9  C   -0.118364
    10  C    0.352408
    11  C   -0.298634
    12  C   -0.188742
    13  C   -0.262492
    14  C    0.591019
    15  O   -0.470115
    16  O   -0.490330
    17  N   -0.723636
    18  C    0.316155
    19  C    0.102296
    20  C   -0.096499
    21  C    0.369939
    22  C   -0.398270
    23  C    0.226096
    24  O   -0.431729
    25  N   -0.735959
    26  C    0.310423
    27  C   -0.051271
    28  C    0.014376
    29  C    0.351851
    30  C    0.237802
    31  C   -0.243578
    32  C   -0.306054
    33  N   -0.745264
    34  C    0.283222
    35  C    0.011077
    36  C    0.052197
    37  C    0.317249
    38  C   -0.378298
    39  C    0.360719
    40  O   -0.491852
    41  C   -0.275257
    42  C    0.608140
    43  O   -0.477211
    44  O   -0.454322
    45  C   -0.095199
    46  C   -0.008216
    47  C   -0.137294
    48  C    0.181530
    49  C   -0.371903
    50  C   -0.219524
    51  C   -0.175598
    52  C   -0.169105
    53  C   -0.044355
    54  C   -0.313162
    55  C   -0.154015
    56  C   -0.207435
    57  C   -0.168554
    58  C   -0.037342
    59  C   -0.306590
    60  C   -0.172407
    61  C   -0.185117
    62  C   -0.149556
    63  C   -0.042156
    64  C   -0.282271
    65  C   -0.299256
    66  H    0.059665
    67  H    0.129584
    68  H    0.091703
    69  H    0.116149
    70  H    0.105912
    71  H    0.109105
    72  H    0.111025
    73  H    0.131489
    74  H    0.122622
    75  H    0.132690
    76  H    0.141154
    77  H    0.151712
    78  H    0.130175
    79  H    0.167070
    80  H    0.113908
    81  H    0.077144
    82  H    0.101926
    83  H    0.115415
    84  H    0.116998
    85  H    0.105184
    86  H    0.132500
    87  H    0.094574
    88  H    0.156921
    89  H    0.135449
    90  H    0.154929
    91  H    0.108311
    92  H    0.122997
    93  H    0.076485
    94  H    0.141885
    95  H    0.120897
    96  H    0.106609
    97  H    0.062884
    98  H    0.082073
    99  H    0.106377
   100  H    0.095812
   101  H    0.090872
   102  H    0.077572
   103  H    0.088668
   104  H    0.099192
   105  H    0.106498
   106  H    0.094931
   107  H    0.093539
   108  H    0.079879
   109  H    0.101586
   110  H    0.078406
   111  H    0.053961
   112  H    0.097946
   113  H    0.094745
   114  H    0.063860
   115  H    0.106301
   116  H    0.084848
   117  H    0.075162
   118  H    0.083546
   119  H    0.105859
   120  H    0.063620
   121  H    0.087388
   122  H    0.098508
   123  H    0.076971
   124  H    0.095954
   125  H    0.085026
   126  H    0.092827
   127  H    0.108942
   128  H    0.094055
   129  H    0.065713
   130  H    0.147378
   131  H    0.150046
   132  H    0.132433
   133  O   -0.439370
   134  H    0.070322
 Sum of Mulliken charges =   0.00000
 Mulliken charges with hydrogens summed into heavy atoms:
               1
     1  Mg   0.822244
     2  C    0.029471
     3  C   -0.172608
     4  C    0.013873
     5  C   -0.103552
     6  N   -0.623824
     7  C    0.336579
     8  C   -0.051164
     9  C   -0.012452
    10  C    0.352408
    11  C    0.052985
    12  C    0.066570
    13  C    0.030374
    14  C    0.591019
    15  O   -0.470115
    16  O   -0.490330
    17  N   -0.723636
    18  C    0.316155
    19  C    0.102296
    20  C   -0.096499
    21  C    0.369939
    22  C    0.012883
    23  C    0.303240
    24  O   -0.431729
    25  N   -0.735959
    26  C    0.310423
    27  C   -0.051271
    28  C    0.014376
    29  C    0.351851
    30  C    0.308124
    31  C   -0.026236
    32  C    0.048628
    33  N   -0.745264
    34  C    0.283222
    35  C    0.011077
    36  C    0.052197
    37  C    0.317249
    38  C    0.008646
    39  C    0.360719
    40  O   -0.491852
    41  C   -0.120328
    42  C    0.608140
    43  O   -0.477211
    44  O   -0.454322
    45  C    0.334658
    46  C    0.223093
    47  C   -0.060809
    48  C    0.181530
    49  C   -0.002512
    50  C   -0.074567
    51  C    0.026590
    52  C   -0.000661
    53  C    0.044314
    54  C   -0.012543
    55  C    0.019403
    56  C   -0.027443
    57  C   -0.016647
    58  C    0.057403
    59  C   -0.051582
    60  C   -0.013700
    61  C   -0.015637
    62  C    0.036339
    63  C    0.034816
    64  C   -0.008464
    65  C   -0.030547
   133  O   -0.439370
 Electronic spatial extent (au):  <R**2>=         147002.1296
 Charge=              0.0000 electrons
 Dipole moment (field-independent basis, Debye):
    X=              2.0654    Y=             -5.9975    Z=             -1.8361  Tot=              6.6035
 Quadrupole moment (field-independent basis, Debye-Ang):
   XX=           -373.3945   YY=           -436.5821   ZZ=           -396.4842
   XY=             10.0338   XZ=             28.6052   YZ=            -33.8731
 Traceless Quadrupole moment (field-independent basis, Debye-Ang):
   XX=             28.7591   YY=            -34.4285   ZZ=              5.6694
   XY=             10.0338   XZ=             28.6052   YZ=            -33.8731
 Octapole moment (field-independent basis, Debye-Ang**2):
  XXX=           -125.7090  YYY=           -705.8540  ZZZ=            -49.2459  XYY=            216.6520
  XXY=            -67.4206  XXZ=           -231.8126  XZZ=           -127.6815  YZZ=            -42.3859
  YYZ=            -87.8132  XYZ=            185.4227
 Hexadecapole moment (field-independent basis, Debye-Ang**3):
 XXXX=        -157672.7973 YYYY=         -31314.4514 ZZZZ=          -9116.6005 XXXY=           -875.7101
 XXXZ=           3425.5166 YYYX=           3021.2278 YYYZ=          -1388.8860 ZZZX=            822.3162
 ZZZY=           -381.7058 XXYY=         -34060.2171 XXZZ=         -28732.9700 YYZZ=          -7173.9387
 XXYZ=          -1054.1025 YYXZ=            335.6222 ZZXY=           -272.4279
 N-N= 9.117993647702D+03 E-N=-2.532029952743D+04  KE= 3.016065004997D+03

 Test job not archived.
 1\1\GINC-PEDRO-RYZENSSD\SP\RCAM-B3LYP TD-FC\6-31G(d,p)\C54H68Mg1N4O7\P
 ADAWAN\08-Oct-2019\0\\# td=(NStates=1) iop(3/107=0140000000,3/108=0140
 000000) iop(3/107=0140000000,3/108=0140000000) CAM-B3LYP/6-31G(d,p)\\T
 D\\0,1\Mg,0,-5.619847716,1.2451345412,0.1706997388\C,0,-4.9712372455,-
 2.0682107858,-0.3880318683\C,0,-3.4703084907,1.121604702,2.7589073289\
 C,0,-6.2292293452,4.5445824813,0.7679091521\C,0,-7.9664675648,1.215140
 1964,-2.3600300969\N,0,-4.2481919037,-0.2440003231,1.0279829653\C,0,-4
 .1996651869,-1.5710282842,0.7063243509\C,0,-3.2675181535,-2.3605072493
 ,1.5005956482\C,0,-2.8812022756,-1.4082314928,2.6067974663\C,0,-3.5070
 775078,-0.0404932019,2.1504357022\C,0,-3.4174838564,-1.7998566783,3.91
 08389433\C,0,-2.0649413374,-2.7559395872,0.5923434204\C,0,-0.983286091
 5,-3.656200708,1.3903929162\C,0,0.2138272501,-3.8867635485,0.617599921
 1\O,0,0.5075246064,-3.4674364324,-0.464666482\O,0,1.0428959718,-4.6990
 550503,1.3272087094\N,0,-4.8801965707,2.6422044571,1.5237090575\C,0,-4
 .0180958968,2.4822562416,2.5095561814\C,0,-3.6288634235,3.6056006426,3
 .17305625\C,0,-4.4879345492,4.5979382593,2.5033662208\C,0,-5.259945356
 9,3.9301976963,1.4849936513\C,0,-2.6339920241,3.8096080445,4.241938064
 3\C,0,-4.5858912891,5.9897890131,2.8834937862\O,0,-3.9684393312,6.5574
 205723,3.7709810706\N,0,-6.8864202916,2.5773156641,-0.703463014\C,0,-6
 .9891411119,3.9128216877,-0.2341016133\C,0,-7.9543205723,4.5499060474,
 -1.0325960687\C,0,-8.4722702598,3.595468677,-2.0209866511\C,0,-7.78739
 25508,2.3885270268,-1.7140551753\C,0,-8.3987521539,5.9927106408,-1.070
 7082054\C,0,-9.3203485133,3.8789288312,-3.2832808767\C,0,-8.5846874494
 ,4.1565570188,-4.6883120779\N,0,-6.3922749948,-0.0820933895,-1.0753985
 603\C,0,-7.3608096877,-0.0209930049,-2.180583981\C,0,-7.509664083,-1.2
 840135541,-2.7023032549\C,0,-6.6476302467,-2.1639401673,-2.0468438943\
 C,0,-5.9340713306,-1.3602400535,-1.149202785\C,0,-8.5488002547,-1.7244
 822368,-3.7734682662\C,0,-6.2388275099,-3.5866577718,-1.9691523091\O,0
 ,-6.605933834,-4.6837233424,-2.5110313488\C,0,-5.044814735,-3.54073584
 03,-0.958732494\C,0,-5.3533924668,-4.6353787395,0.1420513561\O,0,-5.90
 85550381,-4.4588318166,1.194286549\O,0,-4.9033202952,-5.8004239265,-0.
 2862527967\C,0,-5.2681301622,-7.0981534064,0.4393114659\C,0,2.30694737
 63,-5.0651227725,0.6755855399\C,0,3.4030636165,-4.056917191,0.91733301
 91\C,0,3.9888279865,-3.314221243,0.0887712521\C,0,3.5948943867,-3.1619
 093793,-1.3148491537\C,0,5.0897831843,-2.3247467429,0.5096528162\C,0,6
 .475923197,-2.7643313861,0.0237527012\C,0,7.6098901157,-1.7687885247,0
 .6114949841\C,0,9.0503636449,-2.0209780798,0.0065939462\C,0,9.60487756
 79,-3.3626061631,0.2787009951\C,0,9.8932647621,-0.8932299439,0.4975677
 202\C,0,11.140407198,-0.763779173,-0.2769130019\C,0,12.2183194525,0.32
 49716877,0.2467954677\C,0,13.5486442585,0.4315728442,-0.4968094381\C,0
 ,14.414979671,-0.7023109611,-0.2315298382\C,0,14.1500249407,1.88665343
 75,-0.2590835508\C,0,15.5374330242,2.1177937147,-0.963363444\C,0,16.07
 70073204,3.5813806481,-0.6626173547\C,0,17.2367380685,3.9682757431,-1.
 4267937272\C,0,17.0752465068,3.9499305558,-2.9026525853\C,0,17.9189953
 187,5.218199946,-0.8776887259\H,0,-2.7143269386,1.1888157452,3.6923868
 499\H,0,-6.4462655095,5.5452407263,0.8611058733\H,0,-8.6544006392,1.18
 68129428,-3.2237377547\H,0,-3.7391509803,-3.3121043271,2.134609203\H,0
 ,-1.8958106671,-1.3176293711,2.6163037964\H,0,-2.7081401392,-2.5073573
 166,4.3526952154\H,0,-3.4078273828,-0.8748696047,4.4400201379\H,0,-4.4
 211837942,-2.0935372717,3.7600492275\H,0,-2.2322903946,-3.3395570007,-
 0.3204697816\H,0,-1.5757282725,-1.9257211995,0.2944402853\H,0,-0.65088
 9479,-3.2150914814,2.3159861397\H,0,-1.3958390625,-4.603157152,1.42531
 15679\H,0,-1.6141900711,3.6128759743,3.8542778089\H,0,-2.4711447685,4.
 8588955287,4.6914848114\H,0,-2.8221921517,2.9347366678,4.9825152283\H,
 0,-5.0867525346,6.6897869612,2.2634484606\H,0,-10.0243064131,2.9992270
 746,-3.5646376184\H,0,-10.0586733502,4.6054180763,-2.8539783904\H,0,-9
 .3425600169,4.1359414941,-5.5226485755\H,0,-8.2058845545,5.2765095916,
 -4.6113308149\H,0,-7.7470949844,3.5403083447,-4.9101351282\H,0,-8.2722
 13803,-1.1771209698,-4.8416541344\H,0,-8.4511347414,-2.703447405,-4.05
 27746214\H,0,-9.6218454336,-1.6596525999,-3.5855228374\H,0,-4.27400917
 69,-3.7869745205,-1.5223271628\H,0,2.4143893827,-6.1575830514,1.087687
 1566\H,0,1.8679901256,-5.1205605825,-0.3295483899\H,0,3.6437903614,-4.
 0419043127,2.0310714712\H,0,2.634650917,-3.5582773826,-1.4909417443\H,
 0,3.5554228803,-2.1553902396,-1.6160898265\H,0,4.3825507625,-3.6160834
 646,-1.957667224\H,0,5.0359374627,-1.1150370483,0.083198711\H,0,5.0225
 046089,-2.2996942866,1.6950833946\H,0,6.5249317132,-3.7475190514,0.413
 9707188\H,0,6.7532541649,-2.6906512811,-1.0477544616\H,0,7.3149923008,
 -0.7415707114,0.3681255659\H,0,7.488327743,-1.9771959681,1.7663441068\
 H,0,9.0493608357,-1.8241304537,-1.0403222509\H,0,9.0282349889,-4.21556
 04159,-0.2017526455\H,0,10.5373267621,-3.5607294276,-0.2259201739\H,0,
 9.9089276404,-3.4606717958,1.389359899\H,0,9.398240885,0.0542838388,0.
 2472338978\H,0,10.2596549241,-0.9743257519,1.6047514124\H,0,11.6887508
 062,-1.6172090426,-0.1509544032\H,0,11.122928233,-0.6758292184,-1.3996
 808118\H,0,11.7534053586,1.4422772995,0.212844074\H,0,12.4860393626,0.
 0261638997,1.2091500901\H,0,13.2730480471,0.1538501278,-1.5314093457\H
 ,0,14.8669769249,-1.0643994572,0.8506401615\H,0,13.9956999565,-1.67874
 1053,-0.5577420283\H,0,15.447724629,-0.3910024279,-0.680110414\H,0,13.
 2382930749,2.6327515744,-0.5901688942\H,0,14.2112387361,2.2148779023,0
 .8703958669\H,0,16.1834270698,1.2756130228,-0.6929271077\H,0,15.279502
 7458,2.0616444158,-2.2060741383\H,0,15.278559318,4.2919624039,-0.78234
 9515\H,0,16.1475543893,3.5602419836,0.3897414329\H,0,17.8589057074,3.0
 710806166,-1.163560744\H,0,16.3105281896,4.7550427832,-3.0505093298\H,
 0,18.1173441243,4.3081372069,-3.4065380874\H,0,16.7076854538,2.8412190
 331,-3.2008906423\H,0,18.4516930433,4.9323638894,0.0840375695\H,0,18.7
 748951003,5.5587320997,-1.5469768388\H,0,17.2200045703,6.2947238825,-1
 .0821965718\H,0,-5.1910669913,-8.0766187613,-0.1068950055\H,0,-6.34866
 53578,-6.9353629177,0.6587257159\H,0,-4.637685986,-6.9645963358,1.4002
 128897\O,0,-7.84424732,6.958755907,-0.4527987083\H,0,-9.2917425581,6.1
 985472704,-1.8295214196\\Version=ES64L-G09RevD.01\State=1-A\HF=-3043.4
 67277\RMSD=4.203e-09\PG=C01 [X(C54H68Mg1N4O7)]\\@


 ABALONE: AN EXPRESSION OF DISBELIEF.
 Job cpu time:       0 days  6 hours 31 minutes 12.3 seconds.
 File lengths (MBytes):  RWF=   2102 Int=      0 D2E=      0 Chk=    163 Scr=      1
 Normal termination of Gaussian 09 at Tue Oct  8 20:27:50 2019.
