 Entering Gaussian System, Link 0=g16
 Input=Geometria-477-.com
 Output=Geometria-477-.log
 Initial command:
 /usr/local/g09/l1.exe "/home/padawan/israel-mol/chlorophyll-b/spectra/emi/Gau-22249.inp" -scrdir="/home/padawan/israel-mol/chlorophyll-b/spectra/emi/"
 Entering Link 1 = /usr/local/g09/l1.exe PID=     22251.
  
 Copyright (c) 1988,1990,1992,1993,1995,1998,2003,2009,2013,
            Gaussian, Inc.  All Rights Reserved.
  
 This is part of the Gaussian(R) 09 program.  It is based on
 the Gaussian(R) 03 system (copyright 2003, Gaussian, Inc.),
 the Gaussian(R) 98 system (copyright 1998, Gaussian, Inc.),
 the Gaussian(R) 94 system (copyright 1995, Gaussian, Inc.),
 the Gaussian 92(TM) system (copyright 1992, Gaussian, Inc.),
 the Gaussian 90(TM) system (copyright 1990, Gaussian, Inc.),
 the Gaussian 88(TM) system (copyright 1988, Gaussian, Inc.),
 the Gaussian 86(TM) system (copyright 1986, Carnegie Mellon
 University), and the Gaussian 82(TM) system (copyright 1983,
 Carnegie Mellon University). Gaussian is a federally registered
 trademark of Gaussian, Inc.
  
 This software contains proprietary and confidential information,
 including trade secrets, belonging to Gaussian, Inc.
  
 This software is provided under written license and may be
 used, copied, transmitted, or stored only in accord with that
 written license.
  
 The following legend is applicable only to US Government
 contracts under FAR:
  
                    RESTRICTED RIGHTS LEGEND
  
 Use, reproduction and disclosure by the US Government is
 subject to restrictions as set forth in subparagraphs (a)
 and (c) of the Commercial Computer Software - Restricted
 Rights clause in FAR 52.227-19.
  
 Gaussian, Inc.
 340 Quinnipiac St., Bldg. 40, Wallingford CT 06492
  
  
 ---------------------------------------------------------------
 Warning -- This program may not be used in any manner that
 competes with the business of Gaussian, Inc. or will provide
 assistance to any competitor of Gaussian, Inc.  The licensee
 of this program is prohibited from giving any competitor of
 Gaussian, Inc. access to this program.  By using this program,
 the user acknowledges that Gaussian, Inc. is engaged in the
 business of creating and licensing software in the field of
 computational chemistry and represents and warrants to the
 licensee that it is not a competitor of Gaussian, Inc. and that
 it will not use this program in any manner prohibited above.
 ---------------------------------------------------------------
  

 Cite this work as:
 Gaussian 09, Revision D.01,
 M. J. Frisch, G. W. Trucks, H. B. Schlegel, G. E. Scuseria, 
 M. A. Robb, J. R. Cheeseman, G. Scalmani, V. Barone, B. Mennucci, 
 G. A. Petersson, H. Nakatsuji, M. Caricato, X. Li, H. P. Hratchian, 
 A. F. Izmaylov, J. Bloino, G. Zheng, J. L. Sonnenberg, M. Hada, 
 M. Ehara, K. Toyota, R. Fukuda, J. Hasegawa, M. Ishida, T. Nakajima, 
 Y. Honda, O. Kitao, H. Nakai, T. Vreven, J. A. Montgomery, Jr., 
 J. E. Peralta, F. Ogliaro, M. Bearpark, J. J. Heyd, E. Brothers, 
 K. N. Kudin, V. N. Staroverov, T. Keith, R. Kobayashi, J. Normand, 
 K. Raghavachari, A. Rendell, J. C. Burant, S. S. Iyengar, J. Tomasi, 
 M. Cossi, N. Rega, J. M. Millam, M. Klene, J. E. Knox, J. B. Cross, 
 V. Bakken, C. Adamo, J. Jaramillo, R. Gomperts, R. E. Stratmann, 
 O. Yazyev, A. J. Austin, R. Cammi, C. Pomelli, J. W. Ochterski, 
 R. L. Martin, K. Morokuma, V. G. Zakrzewski, G. A. Voth, 
 P. Salvador, J. J. Dannenberg, S. Dapprich, A. D. Daniels, 
 O. Farkas, J. B. Foresman, J. V. Ortiz, J. Cioslowski, 
 and D. J. Fox, Gaussian, Inc., Wallingford CT, 2013.
 
 ******************************************
 Gaussian 09:  ES64L-G09RevD.01 24-Apr-2013
                 9-Oct-2019 
 ******************************************
 %nproc=3
 Will use up to    3 processors via shared memory.
 %Mem=2GB
 ----------------------------------------------------------------------
 # td=(NStates=1) iop(3/107=0140000000,3/108=0140000000) iop(3/107=0140
 000000,3/108=0140000000) CAM-B3LYP/6-31G(d,p)
 ----------------------------------------------------------------------
 1/38=1/1;
 2/12=2,17=6,18=5,40=1/2;
 3/5=1,6=6,7=101,11=9,16=1,25=1,30=1,74=-40,107=140000000,108=140000000/1,2,8,3;
 4//1;
 5/5=2,38=5/2;
 8/6=1,10=2,108=1/1;
 9/41=1,42=1,70=2/14;
 6/7=2,8=2,9=2,10=2/1;
 99/5=1,9=1/99;
 --
 TD
 --
 Symbolic Z-matrix:
 Charge =  0 Multiplicity = 1
 12                   -5.63211   1.32561   0.16386 
 6                    -4.97344  -2.12775  -0.39624 
 6                    -3.41365   1.22745   2.71649 
 6                    -6.23711   4.54213   0.59187 
 6                    -8.02839   1.13064  -2.39457 
 7                    -4.38125  -0.25531   0.89713 
 6                    -4.226    -1.59469   0.51823 
 6                    -3.18309  -2.25461   1.4516 
 6                    -2.87286  -1.31874   2.50398 
 6                    -3.59116  -0.08744   2.04479 
 6                    -3.28213  -1.76759   3.93075 
 6                    -1.95957  -2.80064   0.67696 
 6                    -0.96632  -3.53703   1.4061 
 6                     0.27591  -3.83442   0.65141 
 8                     0.51396  -3.42669  -0.46318 
 8                     1.06238  -4.68175   1.34581 
 7                    -5.00285   2.66067   1.5144 
 6                    -4.07222   2.40313   2.47091 
 6                    -3.84757   3.66266   3.21234 
 6                    -4.61525   4.63757   2.59761 
 6                    -5.34411   3.97105   1.49743 
 6                    -2.85511   3.66584   4.40864 
 6                    -4.6631    6.0124    2.94833 
 8                    -3.82748   6.54673   3.70936 
 7                    -6.87858   2.57822  -0.68514 
 6                    -7.00842   3.99249  -0.3452 
 6                    -8.07116   4.64107  -1.15442 
 6                    -8.52341   3.6573   -1.95853 
 6                    -7.83207   2.38722  -1.72943 
 6                    -8.55637   5.99214  -1.04291 
 6                    -9.55488   3.71973  -3.05295 
 6                    -8.88477   4.26102  -4.45026 
 7                    -6.39604  -0.12004  -1.07887 
 6                    -7.32142   0.0203   -2.12905 
 6                    -7.44117  -1.27657  -2.81662 
 6                    -6.60563  -2.1729   -2.1502 
 6                    -5.98586  -1.39151  -1.17669 
 6                    -8.39582  -1.65338  -3.90711 
 6                    -6.16187  -3.62853  -2.0294 
 8                    -6.4829   -4.6548   -2.53352 
 6                    -5.0169   -3.56316  -0.85197 
 6                    -5.3922   -4.59209   0.17469 
 8                    -5.873    -4.40435   1.29238 
 8                    -5.06644  -5.86526  -0.27148 
 6                    -5.34628  -6.88216   0.63662 
 6                     2.3571   -5.20229   0.61268 
 6                     3.42741  -4.21046   0.97317 
 6                     4.16088  -3.36387   0.16919 
 6                     3.76453  -3.19943  -1.35945 
 6                     5.26519  -2.45355   0.68438 
 6                     6.61306  -2.69081   0.0938 
 6                     7.69638  -1.75615   0.58025 
 6                     9.01614  -1.9121   -0.11152 
 6                     9.52448  -3.34724   0.1384 
 6                     9.99791  -0.88826   0.33271 
 6                     11.42197  -0.98731  -0.30492 
 6                     12.20202   0.28986   0.16288 
 6                     13.62778   0.46155  -0.52846 
 6                     14.56148  -0.72543  -0.15447 
 6                     14.22919   1.80311  -0.08613 
 6                     15.38813   2.14779  -0.97152 
 6                     15.99677   3.57059  -0.69662 
 6                     17.29024   3.92822  -1.34219 
 6                     17.20673   3.92119  -2.88002 
 6                     17.98947   5.17516  -0.80901 
 1                    -3.06075   1.17922   3.83217 
 1                    -6.45906   5.60579   0.64931 
 1                    -8.79179   1.24188  -3.32502 
 1                    -3.94898  -3.08388   1.6943 
 1                    -1.94702  -1.11551   2.6006 
 1                    -2.75093  -2.74127   4.25412 
 1                    -3.01111  -1.04822   4.76538 
 1                    -4.4856   -2.07368   4.02477 
 1                    -2.52279  -3.43876  -0.07515 
 1                    -1.54803  -1.88087   0.16428 
 1                    -0.85255  -3.13661   2.45766 
 1                    -1.42289  -4.51415   1.44266 
 1                    -1.86724   3.51938   3.85567 
 1                    -2.89353   4.88206   4.80223 
 1                    -2.94064   3.09725   5.20383 
 1                    -5.72452   6.45423   2.54394 
 1                    -10.14123   2.68316  -3.13 
 1                    -10.26639   4.5397   -2.89394 
 1                    -9.68205   4.34468  -5.29778 
 1                    -8.35796   5.29281  -4.50278 
 1                    -8.29361   3.51532  -4.90967 
 1                    -8.27276  -1.30653  -4.78505 
 1                    -8.2323   -2.64338  -4.0582 
 1                    -9.57075  -1.47154  -3.49847 
 1                    -4.22943  -3.94655  -1.40846 
 1                     2.59341  -6.07084   0.87862 
 1                     2.20604  -5.05298  -0.39353 
 1                     3.70957  -4.12018   2.02826 
 1                     2.67064  -3.45416  -1.61617 
 1                     3.99113  -2.20322  -1.81741 
 1                     4.41856  -3.77287  -2.01821 
 1                     4.968    -1.46235   0.44388 
 1                     5.33403  -2.28558   1.78149 
 1                     6.87591  -3.81863   0.35356 
 1                     6.55579  -2.5121   -0.94365 
 1                     7.40493  -0.70232   0.22902 
 1                     7.82785  -1.93005   1.71946 
 1                     8.88838  -1.85167  -1.24002 
 1                     8.71571  -4.17521  -0.08215 
 1                     10.57159  -3.59     -0.35295 
 1                     9.56201  -3.43223   1.17164 
 1                     9.53996   0.10366   0.2616 
 1                     10.32308  -1.18355   1.31792 
 1                     11.90228  -1.93736   0.30659 
 1                     11.46011  -0.80691  -1.35264 
 1                     11.5168   1.07431  -0.1149 
 1                     12.31582   0.30833   1.18554 
 1                     13.60986   0.32092  -1.7403 
 1                     14.90237  -0.93807   0.75736 
 1                     14.11676  -1.52321  -0.59207 
 1                     15.44347  -0.66349  -0.68515 
 1                     13.51253   2.44155  -0.10559 
 1                     14.55015   1.77001   0.88366 
 1                     16.22462   1.37694  -0.98032 
 1                     15.15986   1.95969  -2.03557 
 1                     15.19579   4.1513   -1.05887 
 1                     16.1655   3.54599   0.38305 
 1                     18.01223   3.21467  -1.11953 
 1                     16.5319   4.66361  -3.38634 
 1                     18.12571   4.12421  -3.38815 
 1                     16.88864   3.05671  -3.31468 
 1                     18.30652   5.05017   0.24486 
 1                     19.02849   5.21289  -1.4091 
 1                     17.47814   6.00893  -1.01491 
 1                    -5.0011   -7.7103   -0.06915 
 1                    -6.46589  -7.0226    1.24441 
 1                    -4.56009  -7.00049   1.48645 
 8                    -7.88962   6.92417  -0.52411 
 1                    -9.26933   6.33553  -1.82027 
 
 Stoichiometry    C54H68MgN4O7
 Framework group  C1[X(C54H68MgN4O7)]
 Deg. of freedom   396
 Full point group                 C1      NOp   1
 Largest Abelian subgroup         C1      NOp   1
 Largest concise Abelian subgroup C1      NOp   1
                         Standard orientation:                         
 ---------------------------------------------------------------------
 Center     Atomic      Atomic             Coordinates (Angstroms)
 Number     Number       Type             X           Y           Z
 ---------------------------------------------------------------------
      1         12           0       -5.637442    1.304834    0.168490
      2          6           0       -4.964960   -2.144154   -0.402039
      3          6           0       -3.418761    1.207777    2.720971
      4          6           0       -6.255301    4.517600    0.606215
      5          6           0       -8.032780    1.108064   -2.390691
      6          7           0       -4.380322   -0.273303    0.897050
      7          6           0       -4.219708   -1.610896    0.514095
      8          6           0       -3.174229   -2.269473    1.445538
      9          6           0       -2.867800   -1.335576    2.500770
     10          6           0       -3.590976   -0.105760    2.045265
     11          6           0       -3.275357   -1.790383    3.926147
     12          6           0       -1.948495   -2.808271    0.669333
     13          6           0       -0.952360   -3.542895    1.396308
     14          6           0        0.291099   -3.833033    0.640806
     15          8           0        0.527577   -3.420981   -0.472525
     16          8           0        1.080898   -4.679326    1.332685
     17          7           0       -5.013594    2.638285    1.523117
     18          6           0       -4.082002    2.381562    2.478911
     19          6           0       -3.862418    3.639722    3.224173
     20          6           0       -4.633949    4.613427    2.612344
     21          6           0       -5.360085    3.947343    1.510105
     22          6           0       -2.870058    3.643240    4.420551
     23          6           0       -4.687308    5.986983    2.967234
     24          8           0       -3.853868    6.522331    3.729945
     25          7           0       -6.888852    2.555023   -0.676794
     26          6           0       -7.024359    3.967729   -0.332576
     27          6           0       -8.089631    4.614510   -1.139896
     28          6           0       -8.537897    3.631397   -1.947020
     29          6           0       -7.841509    2.363389   -1.721722
     30          6           0       -8.580231    5.963294   -1.024319
     31          6           0       -9.569551    3.693028   -3.041316
     32          6           0       -8.901520    4.241219   -4.436931
     33          7           0       -6.395520   -0.140076   -1.078672
     34          6           0       -7.321392   -0.000247   -2.128486
     35          6           0       -7.435926   -1.295496   -2.820002
     36          6           0       -6.596853   -2.190501   -2.156244
     37          6           0       -5.980264   -1.409603   -1.180316
     38          6           0       -8.389009   -1.672795   -3.911694
     39          6           0       -6.147298   -3.644709   -2.039823
     40          8           0       -6.464202   -4.670716   -2.547082
     41          6           0       -5.002669   -3.578338   -0.862123
     42          6           0       -5.373914   -4.611874    0.161391
     43          8           0       -5.855530   -4.429438    1.279603
     44          8           0       -5.043049   -5.882371   -0.288622
     45          6           0       -5.318883   -6.903131    0.616371
     46          6           0        2.377733   -5.192461    0.598069
     47          6           0        3.444048   -4.197472    0.961641
     48          6           0        4.174180   -3.345520    0.160286
     49          6           0        3.777272   -3.178033   -1.367879
     50          6           0        5.274823   -2.432370    0.678314
     51          6           0        6.623660   -2.662461    0.087111
     52          6           0        7.703215   -1.724958    0.576473
     53          6           0        9.023629   -1.873541   -0.115673
     54          6           0        9.537677   -3.307399    0.129923
     55          6           0       10.001274   -0.847145    0.331729
     56          6           0       11.425755   -0.938578   -0.306095
     57          6           0       12.200677    0.340269    0.165625
     58          6           0       13.625785    0.519742   -0.525090
     59          6           0       14.564195   -0.664630   -0.154636
     60          6           0       14.221811    1.862343   -0.078644
     61          6           0       15.379413    2.214331   -0.962910
     62          6           0       15.982354    3.638711   -0.683649
     63          6           0       17.274429    4.003459   -1.328034
     64          6           0       17.191034    4.000758   -2.865889
     65          6           0       17.968644    5.251551   -0.791031
     66          1           0       -3.065735    1.157581    3.836522
     67          1           0       -6.481494    5.580181    0.666869
     68          1           0       -8.796564    1.219075   -3.320848
     69          1           0       -3.936819   -3.102531    1.685662
     70          1           0       -1.942778   -1.128943    2.598077
     71          1           0       -2.740298   -2.762909    4.246594
     72          1           0       -3.007257   -1.072466    4.762976
     73          1           0       -4.477601   -2.101549    4.019148
     74          1           0       -2.509118   -3.446342   -0.084747
     75          1           0       -1.540594   -1.885307    0.159470
     76          1           0       -0.840246   -3.145221    2.449082
     77          1           0       -1.405026   -4.521935    1.429870
     78          1           0       -1.881570    3.502395    3.867203
     79          1           0       -2.913347    4.858092    4.817818
     80          1           0       -2.953364    3.071903    5.214000
     81          1           0       -5.750456    6.425801    2.564108
     82          1           0      -10.151751    2.654357   -3.121558
     83          1           0      -10.284339    4.509664   -2.879874
     84          1           0       -9.699085    4.324272   -5.284247
     85          1           0       -8.378831    5.275262   -4.486285
     86          1           0       -8.307364    3.499280   -4.898556
     87          1           0       -8.267281   -1.322804   -4.788566
     88          1           0       -8.221528   -2.661678   -4.065768
     89          1           0       -9.564674   -1.496895   -3.502590
     90          1           0       -4.213645   -3.956895   -1.419712
     91          1           0        2.617487   -6.060872    0.861387
     92          1           0        2.226138   -5.040710   -0.407698
     93          1           0        3.725785   -4.109267    2.017023
     94          1           0        2.684426   -3.436340   -1.625449
     95          1           0        3.999916   -2.179534   -1.822795
     96          1           0        4.433627   -3.746853   -2.028329
     97          1           0        4.973694   -1.441641    0.440805
     98          1           0        5.342923   -2.267459    1.775935
     99          1           0        6.890994   -3.789998    0.343472
    100          1           0        6.565746   -2.480834   -0.949799
    101          1           0        7.407584   -0.671239    0.228421
    102          1           0        7.835314   -1.901792    1.715157
    103          1           0        8.895699   -1.810203   -1.243998
    104          1           0        8.732235   -4.137909   -0.093193
    105          1           0       10.585777   -3.544485   -0.362087
    106          1           0        9.575489   -3.395368    1.162904
    107          1           0        9.539372    0.143149    0.263590
    108          1           0       10.327568   -1.144120    1.316063
    109          1           0       11.909824   -1.888554    0.302561
    110          1           0       11.463243   -0.754851   -1.353261
    111          1           0       11.512351    1.122820   -0.109818
    112          1           0       12.314347    0.356094    1.188345
    113          1           0       13.608497    0.382720   -1.737350
    114          1           0       14.905874   -0.878667    0.756572
    115          1           0       14.122686   -1.462840   -0.594679
    116          1           0       15.445962   -0.597558   -0.685062
    117          1           0       13.502607    2.497981   -0.096221
    118          1           0       14.542843    1.827590    0.891058
    119          1           0       16.218976    1.446862   -0.973981
    120          1           0       15.151960    2.028558   -2.027535
    121          1           0       15.179086    4.217315   -1.044188
    122          1           0       16.151115    3.611510    0.395955
    123          1           0       17.999245    3.292128   -1.107490
    124          1           0       16.513276    4.742017   -3.370005
    125          1           0       18.109231    4.208985   -3.373332
    126          1           0       16.876426    3.136341   -3.303194
    127          1           0       18.286125    5.124630    0.262483
    128          1           0       19.007539    5.295249   -1.390932
    129          1           0       17.454001    6.083894   -0.994435
    130          1           0       -4.970359   -7.727742   -0.091886
    131          1           0       -6.437958   -7.049881    1.223657
    132          1           0       -4.532277   -7.020898    1.465894
    133          8           0       -7.917241    6.896401   -0.502648
    134          1           0       -9.294513    6.306193   -1.800689
 ---------------------------------------------------------------------
 Rotational constants (GHZ):      0.0346702      0.0080486      0.0071155
 Standard basis: 6-31G(d,p) (6D, 7F)
 There are  1334 symmetry adapted cartesian basis functions of A   symmetry.
 There are  1334 symmetry adapted basis functions of A   symmetry.
  1334 basis functions,  2348 primitive gaussians,  1334 cartesian basis functions
   244 alpha electrons      244 beta electrons
       nuclear repulsion energy      9106.9509632648 Hartrees.
 NAtoms=  134 NActive=  134 NUniq=  134 SFac= 1.00D+00 NAtFMM=   60 NAOKFM=T Big=T
 Integral buffers will be    131072 words long.
 Raffenetti 1 integral format.
 Two-electron integral symmetry is turned on.
 One-electron integrals computed using PRISM.
 NBasis=  1334 RedAO= T EigKep=  2.73D-04  NBF=  1334
 NBsUse=  1334 1.00D-06 EigRej= -1.00D+00 NBFU=  1334
 ExpMin= 4.21D-02 ExpMax= 1.17D+04 ExpMxC= 1.76D+03 IAcc=2 IRadAn=         4 AccDes= 0.00D+00
 Harris functional with IExCor=20419 and IRadAn=       4 diagonalized for initial guess.
 HarFok:  IExCor=20419 AccDes= 0.00D+00 IRadAn=         4 IDoV= 1 UseB2=F ITyADJ=14
 ICtDFT=  3500011 ScaDFX=  1.000000  1.000000  1.000000  1.000000
 FoFCou: FMM=F IPFlag=           0 FMFlag=      100000 FMFlg1=        2001
         NFxFlg=           0 DoJE=T BraDBF=F KetDBF=T FulRan=T
         wScrn=  0.000000 ICntrl=     500 IOpCl=  0 I1Cent=   200000004 NGrid=           0
         NMat0=    1 NMatS0=      1 NMatT0=    0 NMatD0=    1 NMtDS0=    0 NMtDT0=    0
 Petite list used in FoFCou.
 Requested convergence on RMS density matrix=1.00D-08 within 128 cycles.
 Requested convergence on MAX density matrix=1.00D-06.
 Requested convergence on             energy=1.00D-06.
 No special actions if energy rises.
 SCF Done:  E(RCAM-B3LYP) =  -3043.43277660     A.U. after   16 cycles
            NFock= 16  Conv=0.45D-08     -V/T= 2.0087
 DoSCS=F DFT=T ScalE2(SS,OS)=  1.000000  1.000000
 ExpMin= 4.21D-02 ExpMax= 1.17D+04 ExpMxC= 1.76D+03 IAcc=3 IRadAn=         5 AccDes= 0.00D+00
 HarFok:  IExCor=  205 AccDes= 0.00D+00 IRadAn=         5 IDoV=-2 UseB2=F ITyADJ=14
 ICtDFT= 12500011 ScaDFX=  1.000000  1.000000  1.000000  1.000000
 Range of M.O.s used for correlation:    71  1334
 NBasis=  1334 NAE=   244 NBE=   244 NFC=    70 NFV=     0
 NROrb=   1264 NOA=   174 NOB=   174 NVA=  1090 NVB=  1090
 Would need an additional       2379600800000 words for in-memory AO integral storage.
 Orbital symmetries:
       Occupied  (A) (A) (A) (A) (A) (A) (A) (A) (A) (A) (A) (A)
                 (A) (A) (A) (A) (A) (A) (A) (A) (A) (A) (A) (A)
                 (A) (A) (A) (A) (A) (A) (A) (A) (A) (A) (A) (A)
                 (A) (A) (A) (A) (A) (A) (A) (A) (A) (A) (A) (A)
                 (A) (A) (A) (A) (A) (A) (A) (A) (A) (A) (A) (A)
                 (A) (A) (A) (A) (A) (A) (A) (A) (A) (A) (A) (A)
                 (A) (A) (A) (A) (A) (A) (A) (A) (A) (A) (A) (A)
                 (A) (A) (A) (A) (A) (A) (A) (A) (A) (A) (A) (A)
                 (A) (A) (A) (A) (A) (A) (A) (A) (A) (A) (A) (A)
                 (A) (A) (A) (A) (A) (A) (A) (A) (A) (A) (A) (A)
                 (A) (A) (A) (A) (A) (A) (A) (A) (A) (A) (A) (A)
                 (A) (A) (A) (A) (A) (A) (A) (A) (A) (A) (A) (A)
                 (A) (A) (A) (A) (A) (A) (A) (A) (A) (A) (A) (A)
                 (A) (A) (A) (A) (A) (A) (A) (A) (A) (A) (A) (A)
                 (A) (A) (A) (A) (A) (A) (A) (A) (A) (A) (A) (A)
                 (A) (A) (A) (A) (A) (A) (A) (A) (A) (A) (A) (A)
                 (A) (A) (A) (A) (A) (A) (A) (A) (A) (A) (A) (A)
                 (A) (A) (A) (A) (A) (A) (A) (A) (A) (A) (A) (A)
                 (A) (A) (A) (A) (A) (A) (A) (A) (A) (A) (A) (A)
                 (A) (A) (A) (A) (A) (A) (A) (A) (A) (A) (A) (A)
                 (A) (A) (A) (A)
       Virtual   (A) (A) (A) (A) (A) (A) (A) (A) (A) (A) (A) (A)
                 (A) (A) (A) (A) (A) (A) (A) (A) (A) (A) (A) (A)
                 (A) (A) (A) (A) (A) (A) (A) (A) (A) (A) (A) (A)
                 (A) (A) (A) (A) (A) (A) (A) (A) (A) (A) (A) (A)
                 (A) (A) (A) (A) (A) (A) (A) (A) (A) (A) (A) (A)
                 (A) (A) (A) (A) (A) (A) (A) (A) (A) (A) (A) (A)
                 (A) (A) (A) (A) (A) (A) (A) (A) (A) (A) (A) (A)
                 (A) (A) (A) (A) (A) (A) (A) (A) (A) (A) (A) (A)
                 (A) (A) (A) (A) (A) (A) (A) (A) (A) (A) (A) (A)
                 (A) (A) (A) (A) (A) (A) (A) (A) (A) (A) (A) (A)
                 (A) (A) (A) (A) (A) (A) (A) (A) (A) (A) (A) (A)
                 (A) (A) (A) (A) (A) (A) (A) (A) (A) (A) (A) (A)
                 (A) (A) (A) (A) (A) (A) (A) (A) (A) (A) (A) (A)
                 (A) (A) (A) (A) (A) (A) (A) (A) (A) (A) (A) (A)
                 (A) (A) (A) (A) (A) (A) (A) (A) (A) (A) (A) (A)
                 (A) (A) (A) (A) (A) (A) (A) (A) (A) (A) (A) (A)
                 (A) (A) (A) (A) (A) (A) (A) (A) (A) (A) (A) (A)
                 (A) (A) (A) (A) (A) (A) (A) (A) (A) (A) (A) (A)
                 (A) (A) (A) (A) (A) (A) (A) (A) (A) (A) (A) (A)
                 (A) (A) (A) (A) (A) (A) (A) (A) (A) (A) (A) (A)
                 (A) (A) (A) (A) (A) (A) (A) (A) (A) (A) (A) (A)
                 (A) (A) (A) (A) (A) (A) (A) (A) (A) (A) (A) (A)
                 (A) (A) (A) (A) (A) (A) (A) (A) (A) (A) (A) (A)
                 (A) (A) (A) (A) (A) (A) (A) (A) (A) (A) (A) (A)
                 (A) (A) (A) (A) (A) (A) (A) (A) (A) (A) (A) (A)
                 (A) (A) (A) (A) (A) (A) (A) (A) (A) (A) (A) (A)
                 (A) (A) (A) (A) (A) (A) (A) (A) (A) (A) (A) (A)
                 (A) (A) (A) (A) (A) (A) (A) (A) (A) (A) (A) (A)
                 (A) (A) (A) (A) (A) (A) (A) (A) (A) (A) (A) (A)
                 (A) (A) (A) (A) (A) (A) (A) (A) (A) (A) (A) (A)
                 (A) (A) (A) (A) (A) (A) (A) (A) (A) (A) (A) (A)
                 (A) (A) (A) (A) (A) (A) (A) (A) (A) (A) (A) (A)
                 (A) (A) (A) (A) (A) (A) (A) (A) (A) (A) (A) (A)
                 (A) (A) (A) (A) (A) (A) (A) (A) (A) (A) (A) (A)
                 (A) (A) (A) (A) (A) (A) (A) (A) (A) (A) (A) (A)
                 (A) (A) (A) (A) (A) (A) (A) (A) (A) (A) (A) (A)
                 (A) (A) (A) (A) (A) (A) (A) (A) (A) (A) (A) (A)
                 (A) (A) (A) (A) (A) (A) (A) (A) (A) (A) (A) (A)
                 (A) (A) (A) (A) (A) (A) (A) (A) (A) (A) (A) (A)
                 (A) (A) (A) (A) (A) (A) (A) (A) (A) (A) (A) (A)
                 (A) (A) (A) (A) (A) (A) (A) (A) (A) (A) (A) (A)
                 (A) (A) (A) (A) (A) (A) (A) (A) (A) (A) (A) (A)
                 (A) (A) (A) (A) (A) (A) (A) (A) (A) (A) (A) (A)
                 (A) (A) (A) (A) (A) (A) (A) (A) (A) (A) (A) (A)
                 (A) (A) (A) (A) (A) (A) (A) (A) (A) (A) (A) (A)
                 (A) (A) (A) (A) (A) (A) (A) (A) (A) (A) (A) (A)
                 (A) (A) (A) (A) (A) (A) (A) (A) (A) (A) (A) (A)
                 (A) (A) (A) (A) (A) (A) (A) (A) (A) (A) (A) (A)
                 (A) (A) (A) (A) (A) (A) (A) (A) (A) (A) (A) (A)
                 (A) (A) (A) (A) (A) (A) (A) (A) (A) (A) (A) (A)
                 (A) (A) (A) (A) (A) (A) (A) (A) (A) (A) (A) (A)
                 (A) (A) (A) (A) (A) (A) (A) (A) (A) (A) (A) (A)
                 (A) (A) (A) (A) (A) (A) (A) (A) (A) (A) (A) (A)
                 (A) (A) (A) (A) (A) (A) (A) (A) (A) (A) (A) (A)
                 (A) (A) (A) (A) (A) (A) (A) (A) (A) (A) (A) (A)
                 (A) (A) (A) (A) (A) (A) (A) (A) (A) (A) (A) (A)
                 (A) (A) (A) (A) (A) (A) (A) (A) (A) (A) (A) (A)
                 (A) (A) (A) (A) (A) (A) (A) (A) (A) (A) (A) (A)
                 (A) (A) (A) (A) (A) (A) (A) (A) (A) (A) (A) (A)
                 (A) (A) (A) (A) (A) (A) (A) (A) (A) (A) (A) (A)
                 (A) (A) (A) (A) (A) (A) (A) (A) (A) (A) (A) (A)
                 (A) (A) (A) (A) (A) (A) (A) (A) (A) (A) (A) (A)
                 (A) (A) (A) (A) (A) (A) (A) (A) (A) (A) (A) (A)
                 (A) (A) (A) (A) (A) (A) (A) (A) (A) (A) (A) (A)
                 (A) (A) (A) (A) (A) (A) (A) (A) (A) (A) (A) (A)
                 (A) (A) (A) (A) (A) (A) (A) (A) (A) (A) (A) (A)
                 (A) (A) (A) (A) (A) (A) (A) (A) (A) (A) (A) (A)
                 (A) (A) (A) (A) (A) (A) (A) (A) (A) (A) (A) (A)
                 (A) (A) (A) (A) (A) (A) (A) (A) (A) (A) (A) (A)
                 (A) (A) (A) (A) (A) (A) (A) (A) (A) (A) (A) (A)
                 (A) (A) (A) (A) (A) (A) (A) (A) (A) (A) (A) (A)
                 (A) (A) (A) (A) (A) (A) (A) (A) (A) (A) (A) (A)
                 (A) (A) (A) (A) (A) (A) (A) (A) (A) (A) (A) (A)
                 (A) (A) (A) (A) (A) (A) (A) (A) (A) (A) (A) (A)
                 (A) (A) (A) (A) (A) (A) (A) (A) (A) (A) (A) (A)
                 (A) (A) (A) (A) (A) (A) (A) (A) (A) (A) (A) (A)
                 (A) (A) (A) (A) (A) (A) (A) (A) (A) (A) (A) (A)
                 (A) (A) (A) (A) (A) (A) (A) (A) (A) (A) (A) (A)
                 (A) (A) (A) (A) (A) (A) (A) (A) (A) (A) (A) (A)
                 (A) (A) (A) (A) (A) (A) (A) (A) (A) (A) (A) (A)
                 (A) (A) (A) (A) (A) (A) (A) (A) (A) (A) (A) (A)
                 (A) (A) (A) (A) (A) (A) (A) (A) (A) (A) (A) (A)
                 (A) (A) (A) (A) (A) (A) (A) (A) (A) (A) (A) (A)
                 (A) (A) (A) (A) (A) (A) (A) (A) (A) (A) (A) (A)
                 (A) (A) (A) (A) (A) (A) (A) (A) (A) (A) (A) (A)
                 (A) (A) (A) (A) (A) (A) (A) (A) (A) (A) (A) (A)
                 (A) (A) (A) (A) (A) (A) (A) (A) (A) (A) (A) (A)
                 (A) (A) (A) (A) (A) (A) (A) (A) (A) (A) (A) (A)
                 (A) (A) (A) (A) (A) (A) (A) (A) (A) (A) (A) (A)
                 (A) (A) (A) (A) (A) (A) (A) (A) (A) (A) (A) (A)
                 (A) (A) (A) (A) (A) (A) (A) (A) (A) (A)
     8 initial guesses have been made.
 Convergence on wavefunction:    0.001000000000000
 Iteration     1 Dimension     8 NMult     0 NNew      8
 CISAX will form     8 AO SS matrices at one time.
 Iteration     2 Dimension    12 NMult     8 NNew      4
 Iteration     3 Dimension    16 NMult    12 NNew      4
 Iteration     4 Dimension    20 NMult    16 NNew      4
 Iteration     5 Dimension    24 NMult    20 NNew      4
 Iteration     6 Dimension    28 NMult    24 NNew      4
 Iteration     7 Dimension    32 NMult    28 NNew      4
 ***********************************************************************
 Excited states from <AA,BB:AA,BB> singles matrix:
 ***********************************************************************
 
 Ground to excited state transition densities written to RWF  633
 Ground to excited state transition electric dipole moments (Au):
       state          X           Y           Z        Dip. S.      Osc.
         1         1.2252      0.8384      1.6655      4.9779      0.2336
 Ground to excited state transition velocity dipole moments (Au):
       state          X           Y           Z        Dip. S.      Osc.
         1        -0.0829     -0.0568     -0.1134      0.0230      0.2174
 Ground to excited state transition magnetic dipole moments (Au):
       state          X           Y           Z
         1        -1.2740     -1.5722      1.7027
 Ground to excited state transition velocity quadrupole moments (Au):
       state          XX          YY          ZZ          XY          XZ          YZ
         1         1.7118     -0.0267     -0.1869      0.3790      1.1511     -0.2872
 <0|del|b> * <b|rxdel|0> + <0|del|b> * <b|delr+rdel|0>
 Rotatory Strengths (R) in cgs (10**-40 erg-esu-cm/Gauss)
       state          XX          YY          ZZ    R(velocity)    E-M Angle
         1      -408.5823   -103.8958    531.1006      6.2075       89.73
 1/2[<0|r|b>*<b|rxdel|0> + (<0|rxdel|b>*<b|r|0>)*]
 Rotatory Strengths (R) in cgs (10**-40 erg-esu-cm/Gauss)
       state          XX          YY          ZZ     R(length)
         1      1103.8749    932.0591  -2005.3284     10.2019
  1/2[<0|del|b>*<b|r|0> + (<0|r|b>*<b|del|0>)*] (Au)
       state          X           Y           Z        Dip. S.   Osc.(frdel)
         1        -0.1016     -0.0476     -0.1889      0.3381      0.2254

 Excitation energies and oscillator strengths:
 
 Excited State   1:      Singlet-A      1.9154 eV  647.31 nm  f=0.2336  <S**2>=0.000
     243 -> 246       -0.18345
     244 -> 245        0.67520
 This state for optimization and/or second-order correction.
 Total Energy, E(TD-HF/TD-KS) =  -3043.36238756    
 Copying the excited state density for this state as the 1-particle RhoCI density.
 SavETr:  write IOETrn=   770 NScale= 10 NData=  16 NLR=1 NState=    1 LETran=      28.

 **********************************************************************

            Population analysis using the SCF density.

 **********************************************************************

 Orbital symmetries:
       Occupied  (A) (A) (A) (A) (A) (A) (A) (A) (A) (A) (A) (A)
                 (A) (A) (A) (A) (A) (A) (A) (A) (A) (A) (A) (A)
                 (A) (A) (A) (A) (A) (A) (A) (A) (A) (A) (A) (A)
                 (A) (A) (A) (A) (A) (A) (A) (A) (A) (A) (A) (A)
                 (A) (A) (A) (A) (A) (A) (A) (A) (A) (A) (A) (A)
                 (A) (A) (A) (A) (A) (A) (A) (A) (A) (A) (A) (A)
                 (A) (A) (A) (A) (A) (A) (A) (A) (A) (A) (A) (A)
                 (A) (A) (A) (A) (A) (A) (A) (A) (A) (A) (A) (A)
                 (A) (A) (A) (A) (A) (A) (A) (A) (A) (A) (A) (A)
                 (A) (A) (A) (A) (A) (A) (A) (A) (A) (A) (A) (A)
                 (A) (A) (A) (A) (A) (A) (A) (A) (A) (A) (A) (A)
                 (A) (A) (A) (A) (A) (A) (A) (A) (A) (A) (A) (A)
                 (A) (A) (A) (A) (A) (A) (A) (A) (A) (A) (A) (A)
                 (A) (A) (A) (A) (A) (A) (A) (A) (A) (A) (A) (A)
                 (A) (A) (A) (A) (A) (A) (A) (A) (A) (A) (A) (A)
                 (A) (A) (A) (A) (A) (A) (A) (A) (A) (A) (A) (A)
                 (A) (A) (A) (A) (A) (A) (A) (A) (A) (A) (A) (A)
                 (A) (A) (A) (A) (A) (A) (A) (A) (A) (A) (A) (A)
                 (A) (A) (A) (A) (A) (A) (A) (A) (A) (A) (A) (A)
                 (A) (A) (A) (A) (A) (A) (A) (A) (A) (A) (A) (A)
                 (A) (A) (A) (A)
       Virtual   (A) (A) (A) (A) (A) (A) (A) (A) (A) (A) (A) (A)
                 (A) (A) (A) (A) (A) (A) (A) (A) (A) (A) (A) (A)
                 (A) (A) (A) (A) (A) (A) (A) (A) (A) (A) (A) (A)
                 (A) (A) (A) (A) (A) (A) (A) (A) (A) (A) (A) (A)
                 (A) (A) (A) (A) (A) (A) (A) (A) (A) (A) (A) (A)
                 (A) (A) (A) (A) (A) (A) (A) (A) (A) (A) (A) (A)
                 (A) (A) (A) (A) (A) (A) (A) (A) (A) (A) (A) (A)
                 (A) (A) (A) (A) (A) (A) (A) (A) (A) (A) (A) (A)
                 (A) (A) (A) (A) (A) (A) (A) (A) (A) (A) (A) (A)
                 (A) (A) (A) (A) (A) (A) (A) (A) (A) (A) (A) (A)
                 (A) (A) (A) (A) (A) (A) (A) (A) (A) (A) (A) (A)
                 (A) (A) (A) (A) (A) (A) (A) (A) (A) (A) (A) (A)
                 (A) (A) (A) (A) (A) (A) (A) (A) (A) (A) (A) (A)
                 (A) (A) (A) (A) (A) (A) (A) (A) (A) (A) (A) (A)
                 (A) (A) (A) (A) (A) (A) (A) (A) (A) (A) (A) (A)
                 (A) (A) (A) (A) (A) (A) (A) (A) (A) (A) (A) (A)
                 (A) (A) (A) (A) (A) (A) (A) (A) (A) (A) (A) (A)
                 (A) (A) (A) (A) (A) (A) (A) (A) (A) (A) (A) (A)
                 (A) (A) (A) (A) (A) (A) (A) (A) (A) (A) (A) (A)
                 (A) (A) (A) (A) (A) (A) (A) (A) (A) (A) (A) (A)
                 (A) (A) (A) (A) (A) (A) (A) (A) (A) (A) (A) (A)
                 (A) (A) (A) (A) (A) (A) (A) (A) (A) (A) (A) (A)
                 (A) (A) (A) (A) (A) (A) (A) (A) (A) (A) (A) (A)
                 (A) (A) (A) (A) (A) (A) (A) (A) (A) (A) (A) (A)
                 (A) (A) (A) (A) (A) (A) (A) (A) (A) (A) (A) (A)
                 (A) (A) (A) (A) (A) (A) (A) (A) (A) (A) (A) (A)
                 (A) (A) (A) (A) (A) (A) (A) (A) (A) (A) (A) (A)
                 (A) (A) (A) (A) (A) (A) (A) (A) (A) (A) (A) (A)
                 (A) (A) (A) (A) (A) (A) (A) (A) (A) (A) (A) (A)
                 (A) (A) (A) (A) (A) (A) (A) (A) (A) (A) (A) (A)
                 (A) (A) (A) (A) (A) (A) (A) (A) (A) (A) (A) (A)
                 (A) (A) (A) (A) (A) (A) (A) (A) (A) (A) (A) (A)
                 (A) (A) (A) (A) (A) (A) (A) (A) (A) (A) (A) (A)
                 (A) (A) (A) (A) (A) (A) (A) (A) (A) (A) (A) (A)
                 (A) (A) (A) (A) (A) (A) (A) (A) (A) (A) (A) (A)
                 (A) (A) (A) (A) (A) (A) (A) (A) (A) (A) (A) (A)
                 (A) (A) (A) (A) (A) (A) (A) (A) (A) (A) (A) (A)
                 (A) (A) (A) (A) (A) (A) (A) (A) (A) (A) (A) (A)
                 (A) (A) (A) (A) (A) (A) (A) (A) (A) (A) (A) (A)
                 (A) (A) (A) (A) (A) (A) (A) (A) (A) (A) (A) (A)
                 (A) (A) (A) (A) (A) (A) (A) (A) (A) (A) (A) (A)
                 (A) (A) (A) (A) (A) (A) (A) (A) (A) (A) (A) (A)
                 (A) (A) (A) (A) (A) (A) (A) (A) (A) (A) (A) (A)
                 (A) (A) (A) (A) (A) (A) (A) (A) (A) (A) (A) (A)
                 (A) (A) (A) (A) (A) (A) (A) (A) (A) (A) (A) (A)
                 (A) (A) (A) (A) (A) (A) (A) (A) (A) (A) (A) (A)
                 (A) (A) (A) (A) (A) (A) (A) (A) (A) (A) (A) (A)
                 (A) (A) (A) (A) (A) (A) (A) (A) (A) (A) (A) (A)
                 (A) (A) (A) (A) (A) (A) (A) (A) (A) (A) (A) (A)
                 (A) (A) (A) (A) (A) (A) (A) (A) (A) (A) (A) (A)
                 (A) (A) (A) (A) (A) (A) (A) (A) (A) (A) (A) (A)
                 (A) (A) (A) (A) (A) (A) (A) (A) (A) (A) (A) (A)
                 (A) (A) (A) (A) (A) (A) (A) (A) (A) (A) (A) (A)
                 (A) (A) (A) (A) (A) (A) (A) (A) (A) (A) (A) (A)
                 (A) (A) (A) (A) (A) (A) (A) (A) (A) (A) (A) (A)
                 (A) (A) (A) (A) (A) (A) (A) (A) (A) (A) (A) (A)
                 (A) (A) (A) (A) (A) (A) (A) (A) (A) (A) (A) (A)
                 (A) (A) (A) (A) (A) (A) (A) (A) (A) (A) (A) (A)
                 (A) (A) (A) (A) (A) (A) (A) (A) (A) (A) (A) (A)
                 (A) (A) (A) (A) (A) (A) (A) (A) (A) (A) (A) (A)
                 (A) (A) (A) (A) (A) (A) (A) (A) (A) (A) (A) (A)
                 (A) (A) (A) (A) (A) (A) (A) (A) (A) (A) (A) (A)
                 (A) (A) (A) (A) (A) (A) (A) (A) (A) (A) (A) (A)
                 (A) (A) (A) (A) (A) (A) (A) (A) (A) (A) (A) (A)
                 (A) (A) (A) (A) (A) (A) (A) (A) (A) (A) (A) (A)
                 (A) (A) (A) (A) (A) (A) (A) (A) (A) (A) (A) (A)
                 (A) (A) (A) (A) (A) (A) (A) (A) (A) (A) (A) (A)
                 (A) (A) (A) (A) (A) (A) (A) (A) (A) (A) (A) (A)
                 (A) (A) (A) (A) (A) (A) (A) (A) (A) (A) (A) (A)
                 (A) (A) (A) (A) (A) (A) (A) (A) (A) (A) (A) (A)
                 (A) (A) (A) (A) (A) (A) (A) (A) (A) (A) (A) (A)
                 (A) (A) (A) (A) (A) (A) (A) (A) (A) (A) (A) (A)
                 (A) (A) (A) (A) (A) (A) (A) (A) (A) (A) (A) (A)
                 (A) (A) (A) (A) (A) (A) (A) (A) (A) (A) (A) (A)
                 (A) (A) (A) (A) (A) (A) (A) (A) (A) (A) (A) (A)
                 (A) (A) (A) (A) (A) (A) (A) (A) (A) (A) (A) (A)
                 (A) (A) (A) (A) (A) (A) (A) (A) (A) (A) (A) (A)
                 (A) (A) (A) (A) (A) (A) (A) (A) (A) (A) (A) (A)
                 (A) (A) (A) (A) (A) (A) (A) (A) (A) (A) (A) (A)
                 (A) (A) (A) (A) (A) (A) (A) (A) (A) (A) (A) (A)
                 (A) (A) (A) (A) (A) (A) (A) (A) (A) (A) (A) (A)
                 (A) (A) (A) (A) (A) (A) (A) (A) (A) (A) (A) (A)
                 (A) (A) (A) (A) (A) (A) (A) (A) (A) (A) (A) (A)
                 (A) (A) (A) (A) (A) (A) (A) (A) (A) (A) (A) (A)
                 (A) (A) (A) (A) (A) (A) (A) (A) (A) (A) (A) (A)
                 (A) (A) (A) (A) (A) (A) (A) (A) (A) (A) (A) (A)
                 (A) (A) (A) (A) (A) (A) (A) (A) (A) (A) (A) (A)
                 (A) (A) (A) (A) (A) (A) (A) (A) (A) (A) (A) (A)
                 (A) (A) (A) (A) (A) (A) (A) (A) (A) (A) (A) (A)
                 (A) (A) (A) (A) (A) (A) (A) (A) (A) (A) (A) (A)
                 (A) (A) (A) (A) (A) (A) (A) (A) (A) (A)
 The electronic state is 1-A.
 Alpha  occ. eigenvalues --  -46.80447 -19.23387 -19.21794 -19.19233 -19.18075
 Alpha  occ. eigenvalues --  -19.17399 -19.17261 -19.16800 -14.39308 -14.37190
 Alpha  occ. eigenvalues --  -14.36968 -14.36567 -10.35802 -10.34654 -10.33500
 Alpha  occ. eigenvalues --  -10.30800 -10.30760 -10.29192 -10.29186 -10.26795
 Alpha  occ. eigenvalues --  -10.26776 -10.26690 -10.26546 -10.26544 -10.26433
 Alpha  occ. eigenvalues --  -10.26360 -10.26144 -10.25813 -10.25602 -10.25515
 Alpha  occ. eigenvalues --  -10.25173 -10.24996 -10.24964 -10.24828 -10.24428
 Alpha  occ. eigenvalues --  -10.23950 -10.23780 -10.23597 -10.23508 -10.23474
 Alpha  occ. eigenvalues --  -10.23411 -10.23139 -10.23069 -10.23044 -10.22936
 Alpha  occ. eigenvalues --  -10.22696 -10.22665 -10.22244 -10.21931 -10.21906
 Alpha  occ. eigenvalues --  -10.21872 -10.21776 -10.21766 -10.21418 -10.21385
 Alpha  occ. eigenvalues --  -10.21298 -10.20609 -10.20412 -10.20342 -10.20223
 Alpha  occ. eigenvalues --  -10.19883 -10.19854 -10.19637 -10.18711 -10.18076
 Alpha  occ. eigenvalues --  -10.16963  -3.09267  -1.84185  -1.83750  -1.83686
 Alpha  occ. eigenvalues --   -1.13768  -1.11872  -1.10190  -1.05075  -1.05051
 Alpha  occ. eigenvalues --   -1.04944  -1.03586  -1.00518  -0.99989  -0.98871
 Alpha  occ. eigenvalues --   -0.96646  -0.88715  -0.87491  -0.86690  -0.85349
 Alpha  occ. eigenvalues --   -0.85267  -0.84731  -0.84315  -0.84271  -0.83587
 Alpha  occ. eigenvalues --   -0.83295  -0.82775  -0.82668  -0.81292  -0.80345
 Alpha  occ. eigenvalues --   -0.79271  -0.78902  -0.77748  -0.77175  -0.76747
 Alpha  occ. eigenvalues --   -0.75509  -0.75081  -0.74173  -0.72490  -0.72412
 Alpha  occ. eigenvalues --   -0.72028  -0.71478  -0.70876  -0.70226  -0.69790
 Alpha  occ. eigenvalues --   -0.69600  -0.69189  -0.67976  -0.66814  -0.66419
 Alpha  occ. eigenvalues --   -0.66256  -0.64962  -0.64393  -0.62931  -0.62691
 Alpha  occ. eigenvalues --   -0.61993  -0.60267  -0.60181  -0.59656  -0.58671
 Alpha  occ. eigenvalues --   -0.58631  -0.58468  -0.57974  -0.57793  -0.56894
 Alpha  occ. eigenvalues --   -0.56407  -0.55870  -0.55585  -0.55156  -0.54886
 Alpha  occ. eigenvalues --   -0.54708  -0.54577  -0.53062  -0.52933  -0.52578
 Alpha  occ. eigenvalues --   -0.52045  -0.51809  -0.51558  -0.51262  -0.50978
 Alpha  occ. eigenvalues --   -0.50657  -0.50585  -0.49946  -0.49810  -0.49381
 Alpha  occ. eigenvalues --   -0.48998  -0.48763  -0.48268  -0.48139  -0.47890
 Alpha  occ. eigenvalues --   -0.47682  -0.47388  -0.47237  -0.47164  -0.47125
 Alpha  occ. eigenvalues --   -0.46780  -0.46488  -0.46328  -0.46075  -0.45791
 Alpha  occ. eigenvalues --   -0.45553  -0.45480  -0.45315  -0.45085  -0.44829
 Alpha  occ. eigenvalues --   -0.44670  -0.44268  -0.44007  -0.43891  -0.43748
 Alpha  occ. eigenvalues --   -0.43672  -0.43402  -0.43253  -0.42847  -0.42702
 Alpha  occ. eigenvalues --   -0.42619  -0.42547  -0.42202  -0.41977  -0.41836
 Alpha  occ. eigenvalues --   -0.41555  -0.41169  -0.41123  -0.41072  -0.40896
 Alpha  occ. eigenvalues --   -0.40730  -0.40420  -0.40278  -0.39944  -0.39782
 Alpha  occ. eigenvalues --   -0.39666  -0.39396  -0.39249  -0.39155  -0.39091
 Alpha  occ. eigenvalues --   -0.39015  -0.38751  -0.38651  -0.38365  -0.38086
 Alpha  occ. eigenvalues --   -0.38010  -0.37994  -0.37652  -0.37553  -0.37513
 Alpha  occ. eigenvalues --   -0.37278  -0.36792  -0.36682  -0.35949  -0.35830
 Alpha  occ. eigenvalues --   -0.35661  -0.35517  -0.35048  -0.34888  -0.34748
 Alpha  occ. eigenvalues --   -0.34625  -0.33942  -0.33666  -0.33476  -0.33369
 Alpha  occ. eigenvalues --   -0.33098  -0.32886  -0.32699  -0.32298  -0.32204
 Alpha  occ. eigenvalues --   -0.31626  -0.31334  -0.30543  -0.30520  -0.29928
 Alpha  occ. eigenvalues --   -0.29089  -0.28921  -0.28661  -0.28178  -0.27837
 Alpha  occ. eigenvalues --   -0.27491  -0.27082  -0.24103  -0.20993
 Alpha virt. eigenvalues --   -0.08767  -0.06706  -0.01873  -0.01781  -0.00102
 Alpha virt. eigenvalues --    0.01953   0.02686   0.03645   0.04068   0.04333
 Alpha virt. eigenvalues --    0.04816   0.05774   0.07718   0.08109   0.09042
 Alpha virt. eigenvalues --    0.09578   0.09699   0.10272   0.10401   0.11048
 Alpha virt. eigenvalues --    0.11306   0.11445   0.11538   0.11742   0.11832
 Alpha virt. eigenvalues --    0.11952   0.12199   0.12814   0.13032   0.13057
 Alpha virt. eigenvalues --    0.13262   0.13457   0.13679   0.13887   0.14271
 Alpha virt. eigenvalues --    0.14336   0.14716   0.14800   0.14827   0.15134
 Alpha virt. eigenvalues --    0.15379   0.15741   0.15839   0.15913   0.16146
 Alpha virt. eigenvalues --    0.16258   0.16377   0.16476   0.16639   0.16813
 Alpha virt. eigenvalues --    0.17053   0.17266   0.17332   0.17404   0.17512
 Alpha virt. eigenvalues --    0.17563   0.17862   0.17869   0.18344   0.18693
 Alpha virt. eigenvalues --    0.18925   0.19094   0.19236   0.19525   0.19722
 Alpha virt. eigenvalues --    0.19736   0.19797   0.20022   0.20161   0.20233
 Alpha virt. eigenvalues --    0.20571   0.20697   0.21123   0.21246   0.21527
 Alpha virt. eigenvalues --    0.21782   0.21866   0.21947   0.22227   0.22275
 Alpha virt. eigenvalues --    0.22697   0.22936   0.23103   0.23261   0.23314
 Alpha virt. eigenvalues --    0.23413   0.23720   0.23797   0.24189   0.24378
 Alpha virt. eigenvalues --    0.24385   0.24623   0.24716   0.25039   0.25092
 Alpha virt. eigenvalues --    0.25240   0.25474   0.25618   0.25689   0.26040
 Alpha virt. eigenvalues --    0.26069   0.26253   0.26341   0.26812   0.26905
 Alpha virt. eigenvalues --    0.27305   0.27441   0.27614   0.27883   0.28163
 Alpha virt. eigenvalues --    0.28190   0.28282   0.28530   0.29310   0.29449
 Alpha virt. eigenvalues --    0.29572   0.29918   0.30098   0.30268   0.30351
 Alpha virt. eigenvalues --    0.30497   0.30698   0.31370   0.31567   0.32444
 Alpha virt. eigenvalues --    0.32532   0.32834   0.33033   0.33474   0.34072
 Alpha virt. eigenvalues --    0.34245   0.34637   0.34937   0.35820   0.36017
 Alpha virt. eigenvalues --    0.36524   0.37141   0.37443   0.38353   0.38935
 Alpha virt. eigenvalues --    0.39231   0.39565   0.39629   0.40138   0.40291
 Alpha virt. eigenvalues --    0.40598   0.41518   0.42498   0.43120   0.43836
 Alpha virt. eigenvalues --    0.44558   0.45229   0.45436   0.45593   0.46728
 Alpha virt. eigenvalues --    0.47394   0.47713   0.48408   0.48591   0.49019
 Alpha virt. eigenvalues --    0.49643   0.50044   0.50587   0.50797   0.51135
 Alpha virt. eigenvalues --    0.51476   0.51972   0.52242   0.52541   0.52918
 Alpha virt. eigenvalues --    0.53039   0.53156   0.53284   0.53572   0.53637
 Alpha virt. eigenvalues --    0.54094   0.54459   0.54600   0.54792   0.54880
 Alpha virt. eigenvalues --    0.55118   0.55386   0.55858   0.55888   0.56258
 Alpha virt. eigenvalues --    0.56322   0.56491   0.56698   0.57021   0.57214
 Alpha virt. eigenvalues --    0.57530   0.57854   0.57891   0.58093   0.58396
 Alpha virt. eigenvalues --    0.58629   0.58704   0.59535   0.59588   0.59949
 Alpha virt. eigenvalues --    0.60085   0.60270   0.60564   0.60910   0.61127
 Alpha virt. eigenvalues --    0.61346   0.61511   0.61632   0.61817   0.62184
 Alpha virt. eigenvalues --    0.62271   0.62729   0.63038   0.63466   0.63610
 Alpha virt. eigenvalues --    0.63764   0.64062   0.64372   0.64522   0.64644
 Alpha virt. eigenvalues --    0.65057   0.65313   0.65437   0.65680   0.66342
 Alpha virt. eigenvalues --    0.66455   0.66779   0.66962   0.67110   0.67419
 Alpha virt. eigenvalues --    0.67770   0.68038   0.68212   0.68429   0.68562
 Alpha virt. eigenvalues --    0.69218   0.69306   0.69435   0.69641   0.69979
 Alpha virt. eigenvalues --    0.70048   0.70586   0.70680   0.71188   0.71311
 Alpha virt. eigenvalues --    0.71378   0.71688   0.71959   0.72166   0.72308
 Alpha virt. eigenvalues --    0.72564   0.72914   0.73331   0.73502   0.73892
 Alpha virt. eigenvalues --    0.74017   0.74225   0.74793   0.75116   0.75216
 Alpha virt. eigenvalues --    0.75771   0.75972   0.76490   0.76564   0.76886
 Alpha virt. eigenvalues --    0.77089   0.77229   0.77372   0.77679   0.77945
 Alpha virt. eigenvalues --    0.78064   0.78370   0.78844   0.79075   0.79358
 Alpha virt. eigenvalues --    0.79533   0.79669   0.79832   0.79997   0.80091
 Alpha virt. eigenvalues --    0.80320   0.80869   0.80963   0.81508   0.81708
 Alpha virt. eigenvalues --    0.81941   0.82009   0.82268   0.82344   0.82503
 Alpha virt. eigenvalues --    0.82747   0.83327   0.83440   0.83863   0.84425
 Alpha virt. eigenvalues --    0.84514   0.84681   0.85055   0.85233   0.85455
 Alpha virt. eigenvalues --    0.85661   0.85706   0.86273   0.86345   0.86367
 Alpha virt. eigenvalues --    0.86390   0.86574   0.86741   0.86997   0.87474
 Alpha virt. eigenvalues --    0.87661   0.87715   0.87936   0.88097   0.88230
 Alpha virt. eigenvalues --    0.88306   0.88358   0.88464   0.88725   0.88872
 Alpha virt. eigenvalues --    0.89254   0.89312   0.89615   0.89875   0.90171
 Alpha virt. eigenvalues --    0.90295   0.90500   0.90813   0.90940   0.91325
 Alpha virt. eigenvalues --    0.91378   0.91565   0.91842   0.92230   0.92361
 Alpha virt. eigenvalues --    0.92677   0.93010   0.93287   0.93796   0.93898
 Alpha virt. eigenvalues --    0.94208   0.94458   0.94625   0.94984   0.95191
 Alpha virt. eigenvalues --    0.95364   0.95588   0.95654   0.95798   0.96204
 Alpha virt. eigenvalues --    0.96438   0.96582   0.96693   0.96905   0.97043
 Alpha virt. eigenvalues --    0.97166   0.97551   0.97626   0.98099   0.98427
 Alpha virt. eigenvalues --    0.98641   0.98984   0.99194   0.99235   0.99491
 Alpha virt. eigenvalues --    0.99588   0.99726   1.00127   1.00319   1.00909
 Alpha virt. eigenvalues --    1.00947   1.01124   1.01221   1.01538   1.01571
 Alpha virt. eigenvalues --    1.01723   1.02314   1.02414   1.02562   1.02821
 Alpha virt. eigenvalues --    1.03276   1.03630   1.03805   1.03907   1.04526
 Alpha virt. eigenvalues --    1.04749   1.05110   1.05255   1.05553   1.05952
 Alpha virt. eigenvalues --    1.06540   1.06829   1.07228   1.07300   1.07470
 Alpha virt. eigenvalues --    1.07853   1.08004   1.08645   1.08772   1.09040
 Alpha virt. eigenvalues --    1.09251   1.09599   1.09876   1.10199   1.10369
 Alpha virt. eigenvalues --    1.11232   1.11410   1.11891   1.12697   1.13052
 Alpha virt. eigenvalues --    1.13955   1.14673   1.15634   1.15987   1.16344
 Alpha virt. eigenvalues --    1.17001   1.17494   1.17760   1.18030   1.19182
 Alpha virt. eigenvalues --    1.19884   1.19999   1.20175   1.21215   1.21458
 Alpha virt. eigenvalues --    1.22002   1.22500   1.22729   1.23552   1.23983
 Alpha virt. eigenvalues --    1.24509   1.25089   1.25543   1.26156   1.26578
 Alpha virt. eigenvalues --    1.27060   1.27415   1.27958   1.28357   1.28690
 Alpha virt. eigenvalues --    1.29110   1.29795   1.30234   1.30728   1.31665
 Alpha virt. eigenvalues --    1.32119   1.32510   1.32941   1.33324   1.33531
 Alpha virt. eigenvalues --    1.34229   1.34404   1.35093   1.35368   1.35615
 Alpha virt. eigenvalues --    1.35862   1.36073   1.37016   1.37219   1.38206
 Alpha virt. eigenvalues --    1.38660   1.38847   1.39796   1.39929   1.40489
 Alpha virt. eigenvalues --    1.40883   1.40933   1.41038   1.41334   1.41938
 Alpha virt. eigenvalues --    1.42424   1.42836   1.43765   1.44304   1.44784
 Alpha virt. eigenvalues --    1.45590   1.46014   1.46596   1.46876   1.47554
 Alpha virt. eigenvalues --    1.48160   1.48507   1.48703   1.49133   1.49755
 Alpha virt. eigenvalues --    1.49940   1.50130   1.51443   1.51822   1.52071
 Alpha virt. eigenvalues --    1.52166   1.52897   1.53035   1.53177   1.53633
 Alpha virt. eigenvalues --    1.54073   1.54637   1.54747   1.55277   1.56020
 Alpha virt. eigenvalues --    1.56683   1.57116   1.57428   1.58056   1.58342
 Alpha virt. eigenvalues --    1.58714   1.58968   1.59437   1.59959   1.60045
 Alpha virt. eigenvalues --    1.60430   1.60586   1.61292   1.61421   1.61861
 Alpha virt. eigenvalues --    1.62217   1.62491   1.62876   1.63110   1.64223
 Alpha virt. eigenvalues --    1.64511   1.64931   1.65675   1.65736   1.66157
 Alpha virt. eigenvalues --    1.66199   1.66578   1.67015   1.67335   1.68258
 Alpha virt. eigenvalues --    1.68448   1.69210   1.69524   1.70417   1.70646
 Alpha virt. eigenvalues --    1.71069   1.71548   1.71949   1.72343   1.72477
 Alpha virt. eigenvalues --    1.72850   1.73438   1.73724   1.74101   1.74196
 Alpha virt. eigenvalues --    1.74507   1.74783   1.74923   1.75637   1.75888
 Alpha virt. eigenvalues --    1.76279   1.76716   1.76924   1.77330   1.77726
 Alpha virt. eigenvalues --    1.77805   1.78495   1.78560   1.79302   1.79568
 Alpha virt. eigenvalues --    1.79881   1.80152   1.80521   1.80745   1.81037
 Alpha virt. eigenvalues --    1.81294   1.81626   1.81675   1.82173   1.82268
 Alpha virt. eigenvalues --    1.82702   1.82936   1.83257   1.83547   1.83758
 Alpha virt. eigenvalues --    1.84165   1.84245   1.84554   1.84614   1.84838
 Alpha virt. eigenvalues --    1.85210   1.85652   1.85865   1.86155   1.86393
 Alpha virt. eigenvalues --    1.86747   1.86823   1.87191   1.87371   1.87534
 Alpha virt. eigenvalues --    1.87696   1.87944   1.88309   1.88629   1.89175
 Alpha virt. eigenvalues --    1.89270   1.89759   1.89952   1.90126   1.90536
 Alpha virt. eigenvalues --    1.91021   1.91317   1.91392   1.91643   1.92336
 Alpha virt. eigenvalues --    1.93013   1.93237   1.93505   1.93616   1.93696
 Alpha virt. eigenvalues --    1.93914   1.94034   1.94841   1.95142   1.95342
 Alpha virt. eigenvalues --    1.95492   1.95754   1.96205   1.96654   1.96965
 Alpha virt. eigenvalues --    1.97284   1.97569   1.97777   1.98320   1.98567
 Alpha virt. eigenvalues --    1.98797   1.99238   1.99318   1.99548   1.99931
 Alpha virt. eigenvalues --    2.00229   2.00735   2.01020   2.01071   2.01554
 Alpha virt. eigenvalues --    2.01945   2.02023   2.02504   2.02572   2.02753
 Alpha virt. eigenvalues --    2.03090   2.03358   2.03697   2.03783   2.04544
 Alpha virt. eigenvalues --    2.04729   2.04795   2.05317   2.05430   2.05611
 Alpha virt. eigenvalues --    2.06193   2.06387   2.06895   2.07085   2.07321
 Alpha virt. eigenvalues --    2.07682   2.07875   2.08318   2.08507   2.09223
 Alpha virt. eigenvalues --    2.09358   2.09475   2.09823   2.10129   2.10231
 Alpha virt. eigenvalues --    2.10364   2.10660   2.11084   2.11490   2.11499
 Alpha virt. eigenvalues --    2.11717   2.11935   2.12765   2.12896   2.13119
 Alpha virt. eigenvalues --    2.13332   2.13673   2.13796   2.14238   2.14804
 Alpha virt. eigenvalues --    2.15060   2.15479   2.15797   2.15925   2.16016
 Alpha virt. eigenvalues --    2.16586   2.17457   2.18096   2.18311   2.18339
 Alpha virt. eigenvalues --    2.18715   2.18956   2.19324   2.19364   2.19643
 Alpha virt. eigenvalues --    2.20128   2.20193   2.20573   2.20778   2.21464
 Alpha virt. eigenvalues --    2.21743   2.22138   2.22308   2.22573   2.22840
 Alpha virt. eigenvalues --    2.23277   2.23337   2.23952   2.24238   2.24818
 Alpha virt. eigenvalues --    2.25320   2.25588   2.25939   2.26168   2.26198
 Alpha virt. eigenvalues --    2.26866   2.27035   2.27471   2.27603   2.27789
 Alpha virt. eigenvalues --    2.28292   2.29092   2.29191   2.29723   2.30387
 Alpha virt. eigenvalues --    2.30431   2.30719   2.31324   2.31615   2.31679
 Alpha virt. eigenvalues --    2.32093   2.32158   2.32595   2.32938   2.33026
 Alpha virt. eigenvalues --    2.34066   2.34165   2.34496   2.34812   2.35074
 Alpha virt. eigenvalues --    2.35335   2.35359   2.35490   2.35770   2.36068
 Alpha virt. eigenvalues --    2.36308   2.36594   2.36731   2.36932   2.37299
 Alpha virt. eigenvalues --    2.38392   2.38525   2.38977   2.39046   2.39516
 Alpha virt. eigenvalues --    2.39805   2.40106   2.40466   2.40791   2.41542
 Alpha virt. eigenvalues --    2.41630   2.41986   2.42047   2.42779   2.42863
 Alpha virt. eigenvalues --    2.43189   2.43279   2.43512   2.43663   2.43750
 Alpha virt. eigenvalues --    2.44199   2.44264   2.44371   2.44422   2.44874
 Alpha virt. eigenvalues --    2.45199   2.45535   2.45649   2.45923   2.46286
 Alpha virt. eigenvalues --    2.46795   2.46877   2.46948   2.47509   2.47803
 Alpha virt. eigenvalues --    2.48994   2.49158   2.49383   2.49718   2.50439
 Alpha virt. eigenvalues --    2.50701   2.51057   2.51734   2.52522   2.52595
 Alpha virt. eigenvalues --    2.52769   2.53349   2.54063   2.54703   2.55064
 Alpha virt. eigenvalues --    2.55150   2.55641   2.55952   2.56273   2.56311
 Alpha virt. eigenvalues --    2.56853   2.57271   2.57523   2.58128   2.58507
 Alpha virt. eigenvalues --    2.58636   2.58882   2.59593   2.60054   2.60675
 Alpha virt. eigenvalues --    2.61056   2.61264   2.61481   2.61752   2.62062
 Alpha virt. eigenvalues --    2.62161   2.62483   2.63524   2.63688   2.64123
 Alpha virt. eigenvalues --    2.64491   2.65327   2.65574   2.66024   2.66169
 Alpha virt. eigenvalues --    2.66791   2.67158   2.67306   2.67606   2.67959
 Alpha virt. eigenvalues --    2.68107   2.68573   2.68888   2.69235   2.69558
 Alpha virt. eigenvalues --    2.69643   2.70546   2.70581   2.70689   2.70840
 Alpha virt. eigenvalues --    2.71302   2.71550   2.72611   2.72688   2.72783
 Alpha virt. eigenvalues --    2.72865   2.73192   2.74217   2.74405   2.74847
 Alpha virt. eigenvalues --    2.75303   2.75450   2.75736   2.75916   2.76527
 Alpha virt. eigenvalues --    2.76857   2.77331   2.77596   2.77807   2.78539
 Alpha virt. eigenvalues --    2.79027   2.79207   2.79552   2.79825   2.79949
 Alpha virt. eigenvalues --    2.80386   2.81215   2.81659   2.81947   2.82670
 Alpha virt. eigenvalues --    2.82888   2.83226   2.83401   2.83767   2.83929
 Alpha virt. eigenvalues --    2.84316   2.84553   2.85273   2.85375   2.85924
 Alpha virt. eigenvalues --    2.86823   2.87101   2.87485   2.87779   2.87945
 Alpha virt. eigenvalues --    2.88434   2.88704   2.89214   2.89414   2.89650
 Alpha virt. eigenvalues --    2.89854   2.90009   2.90522   2.91414   2.91812
 Alpha virt. eigenvalues --    2.92058   2.92959   2.93214   2.93657   2.94024
 Alpha virt. eigenvalues --    2.94234   2.94367   2.94986   2.95019   2.95243
 Alpha virt. eigenvalues --    2.95667   2.95725   2.95873   2.96282   2.96440
 Alpha virt. eigenvalues --    2.96877   2.97466   2.97976   2.98372   2.98669
 Alpha virt. eigenvalues --    2.98749   2.99591   3.00083   3.00706   3.01265
 Alpha virt. eigenvalues --    3.01498   3.01899   3.02068   3.02666   3.02934
 Alpha virt. eigenvalues --    3.03087   3.03864   3.04866   3.05120   3.05259
 Alpha virt. eigenvalues --    3.05331   3.05503   3.06570   3.06820   3.08474
 Alpha virt. eigenvalues --    3.08619   3.09123   3.09299   3.09676   3.10312
 Alpha virt. eigenvalues --    3.10827   3.12497   3.12830   3.13102   3.13454
 Alpha virt. eigenvalues --    3.14960   3.16629   3.17417   3.17856   3.20104
 Alpha virt. eigenvalues --    3.20620   3.20662   3.21483   3.21917   3.23013
 Alpha virt. eigenvalues --    3.23300   3.23882   3.25283   3.25771   3.26404
 Alpha virt. eigenvalues --    3.27374   3.28235   3.28701   3.29342   3.30006
 Alpha virt. eigenvalues --    3.31136   3.34037   3.34425   3.34572   3.34887
 Alpha virt. eigenvalues --    3.35039   3.35544   3.35756   3.37616   3.38643
 Alpha virt. eigenvalues --    3.39989   3.40942   3.41554   3.41649   3.42565
 Alpha virt. eigenvalues --    3.42852   3.43005   3.43372   3.43571   3.43752
 Alpha virt. eigenvalues --    3.45951   3.46047   3.47406   3.48414   3.48617
 Alpha virt. eigenvalues --    3.48681   3.49724   3.49933   3.50768   3.50904
 Alpha virt. eigenvalues --    3.52252   3.53553   3.54673   3.55298   3.56002
 Alpha virt. eigenvalues --    3.56859   3.57318   3.57736   3.60493   3.61967
 Alpha virt. eigenvalues --    3.61979   3.62245   3.63516   3.63917   3.64043
 Alpha virt. eigenvalues --    3.65693   3.67711   3.70815   3.71594   3.74115
 Alpha virt. eigenvalues --    3.75141   3.82786   3.83918   3.85217   3.86158
 Alpha virt. eigenvalues --    3.92775   4.00096   4.01933   4.03269   4.09085
 Alpha virt. eigenvalues --    4.14233   4.16304   4.16614   4.18178   4.19262
 Alpha virt. eigenvalues --    4.19786   4.21766   4.23047   4.23940   4.26087
 Alpha virt. eigenvalues --    4.27223   4.28517   4.29950   4.30105   4.33268
 Alpha virt. eigenvalues --    4.34530   4.35769   4.36356   4.37319   4.38103
 Alpha virt. eigenvalues --    4.38670   4.40021   4.40907   4.41247   4.42973
 Alpha virt. eigenvalues --    4.45032   4.45118   4.45498   4.46503   4.47507
 Alpha virt. eigenvalues --    4.50124   4.52536   4.53313   4.53656   4.54114
 Alpha virt. eigenvalues --    4.55566   4.56114   4.57957   4.58400   4.59529
 Alpha virt. eigenvalues --    4.60516   4.60974   4.62937   4.65585   4.65996
 Alpha virt. eigenvalues --    4.67193   4.69450   4.69794   4.72403   4.74969
 Alpha virt. eigenvalues --    4.75705   4.76655   4.79382   4.80607   4.82486
 Alpha virt. eigenvalues --    4.82638   4.84318   4.87545   4.91824   4.99471
          Condensed to atoms (all electrons):
 Mulliken charges:
               1
     1  Mg   0.829591
     2  C    0.088713
     3  C   -0.207364
     4  C   -0.198698
     5  C   -0.179366
     6  N   -0.617152
     7  C    0.285463
     8  C   -0.179357
     9  C   -0.082814
    10  C    0.303329
    11  C   -0.315971
    12  C   -0.161733
    13  C   -0.260766
    14  C    0.619146
    15  O   -0.469859
    16  O   -0.497960
    17  N   -0.739606
    18  C    0.339683
    19  C    0.034258
    20  C   -0.002978
    21  C    0.343644
    22  C   -0.378438
    23  C    0.227026
    24  O   -0.434733
    25  N   -0.712068
    26  C    0.270188
    27  C    0.057084
    28  C    0.038135
    29  C    0.290838
    30  C    0.200086
    31  C   -0.267127
    32  C   -0.327364
    33  N   -0.710093
    34  C    0.310510
    35  C   -0.042662
    36  C    0.047689
    37  C    0.295445
    38  C   -0.353740
    39  C    0.370525
    40  O   -0.411910
    41  C   -0.346046
    42  C    0.631828
    43  O   -0.477847
    44  O   -0.429209
    45  C   -0.078325
    46  C    0.029702
    47  C   -0.155937
    48  C    0.146444
    49  C   -0.402690
    50  C   -0.238174
    51  C   -0.153935
    52  C   -0.161905
    53  C   -0.048457
    54  C   -0.319492
    55  C   -0.155123
    56  C   -0.188406
    57  C   -0.182267
    58  C   -0.076983
    59  C   -0.320461
    60  C   -0.132484
    61  C   -0.209657
    62  C   -0.153874
    63  C   -0.048689
    64  C   -0.330522
    65  C   -0.304087
    66  H    0.088687
    67  H    0.122610
    68  H    0.102520
    69  H    0.132460
    70  H    0.119523
    71  H    0.108070
    72  H    0.108815
    73  H    0.107823
    74  H    0.097411
    75  H    0.113955
    76  H    0.130831
    77  H    0.148105
    78  H    0.130692
    79  H    0.134785
    80  H    0.135444
    81  H    0.070954
    82  H    0.105147
    83  H    0.119832
    84  H    0.095177
    85  H    0.120955
    86  H    0.125599
    87  H    0.136113
    88  H    0.144624
    89  H    0.098901
    90  H    0.170633
    91  H    0.126464
    92  H    0.137639
    93  H    0.081376
    94  H    0.148970
    95  H    0.107000
    96  H    0.116782
    97  H    0.109924
    98  H    0.091489
    99  H    0.081908
   100  H    0.101623
   101  H    0.080192
   102  H    0.080064
   103  H    0.071851
   104  H    0.086412
   105  H    0.093903
   106  H    0.104004
   107  H    0.082634
   108  H    0.091856
   109  H    0.085605
   110  H    0.099354
   111  H    0.087466
   112  H    0.097926
   113  H    0.055110
   114  H    0.104968
   115  H    0.107006
   116  H    0.100618
   117  H    0.093975
   118  H    0.098020
   119  H    0.076245
   120  H    0.084226
   121  H    0.097548
   122  H    0.082508
   123  H    0.093762
   124  H    0.086041
   125  H    0.097109
   126  H    0.111016
   127  H    0.097595
   128  H    0.073566
   129  H    0.115497
   130  H    0.118354
   131  H    0.115639
   132  H    0.103263
   133  O   -0.419094
   134  H    0.079923
 Sum of Mulliken charges =   0.00000
 Mulliken charges with hydrogens summed into heavy atoms:
               1
     1  Mg   0.829591
     2  C    0.088713
     3  C   -0.118678
     4  C   -0.076088
     5  C   -0.076845
     6  N   -0.617152
     7  C    0.285463
     8  C   -0.046897
     9  C    0.036709
    10  C    0.303329
    11  C    0.008737
    12  C    0.049632
    13  C    0.018170
    14  C    0.619146
    15  O   -0.469859
    16  O   -0.497960
    17  N   -0.739606
    18  C    0.339683
    19  C    0.034258
    20  C   -0.002978
    21  C    0.343644
    22  C    0.022483
    23  C    0.297980
    24  O   -0.434733
    25  N   -0.712068
    26  C    0.270188
    27  C    0.057084
    28  C    0.038135
    29  C    0.290838
    30  C    0.280009
    31  C   -0.042148
    32  C    0.014366
    33  N   -0.710093
    34  C    0.310510
    35  C   -0.042662
    36  C    0.047689
    37  C    0.295445
    38  C    0.025897
    39  C    0.370525
    40  O   -0.411910
    41  C   -0.175412
    42  C    0.631828
    43  O   -0.477847
    44  O   -0.429209
    45  C    0.258930
    46  C    0.293804
    47  C   -0.074561
    48  C    0.146444
    49  C   -0.029938
    50  C   -0.036760
    51  C    0.029596
    52  C   -0.001649
    53  C    0.023395
    54  C   -0.035172
    55  C    0.019367
    56  C   -0.003447
    57  C    0.003124
    58  C   -0.021873
    59  C   -0.007869
    60  C    0.059511
    61  C   -0.049186
    62  C    0.026181
    63  C    0.045073
    64  C   -0.036356
    65  C   -0.017429
   133  O   -0.419094
 Electronic spatial extent (au):  <R**2>=         148213.0705
 Charge=              0.0000 electrons
 Dipole moment (field-independent basis, Debye):
    X=              1.6959    Y=             -5.2351    Z=             -1.5117  Tot=              5.7068
 Quadrupole moment (field-independent basis, Debye-Ang):
   XX=           -373.6961   YY=           -448.2219   ZZ=           -386.3187
   XY=              1.2706   XZ=             28.4649   YZ=            -31.3781
 Traceless Quadrupole moment (field-independent basis, Debye-Ang):
   XX=             29.0495   YY=            -45.4763   ZZ=             16.4269
   XY=              1.2706   XZ=             28.4649   YZ=            -31.3781
 Octapole moment (field-independent basis, Debye-Ang**2):
  XXX=           -281.1365  YYY=           -579.9250  ZZZ=            -35.4808  XYY=            229.9443
  XXY=            -22.1413  XXZ=           -210.9749  XZZ=            -93.8254  YZZ=            -29.4800
  YYZ=            -90.8257  XYZ=            152.5992
 Hexadecapole moment (field-independent basis, Debye-Ang**3):
 XXXX=        -161219.5725 YYYY=         -32233.1265 ZZZZ=          -8793.8316 XXXY=          -2316.6046
 XXXZ=           3148.2188 YYYX=           1835.9250 YYYZ=          -1423.3130 ZZZX=            437.1032
 ZZZY=           -316.4065 XXYY=         -34904.3248 XXZZ=         -27928.9795 YYZZ=          -6992.4864
 XXYZ=           -990.4567 YYXZ=            420.3661 ZZXY=           -155.7555
 N-N= 9.106950963265D+03 E-N=-2.529869800873D+04  KE= 3.017039907748D+03

 Test job not archived.
 1\1\GINC-PEDRO-RYZENSSD\SP\RCAM-B3LYP TD-FC\6-31G(d,p)\C54H68Mg1N4O7\P
 ADAWAN\09-Oct-2019\0\\# td=(NStates=1) iop(3/107=0140000000,3/108=0140
 000000) iop(3/107=0140000000,3/108=0140000000) CAM-B3LYP/6-31G(d,p)\\T
 D\\0,1\Mg,0,-5.6321089421,1.325612589,0.1638590547\C,0,-4.9734374655,-
 2.1277467394,-0.3962426894\C,0,-3.4136528252,1.227445286,2.7164930875\
 C,0,-6.2371101333,4.5421322363,0.5918715484\C,0,-8.0283937574,1.130641
 7466,-2.3945735513\N,0,-4.381245209,-0.2553114542,0.89712988\C,0,-4.22
 59978202,-1.5946906505,0.5182255411\C,0,-3.1830897107,-2.2546066593,1.
 4516007487\C,0,-2.8728614415,-1.318742544,2.5039771843\C,0,-3.59115591
 56,-0.0874378964,2.0447851371\C,0,-3.282130321,-1.7675934519,3.9307509
 345\C,0,-1.9595708004,-2.8006440576,0.6769618823\C,0,-0.9663243953,-3.
 5370287908,1.4061044873\C,0,0.2759134587,-3.8344183139,0.6514133024\O,
 0,0.5139552494,-3.426692358,-0.463176333\O,0,1.06237792,-4.6817533201,
 1.3458105696\N,0,-5.0028488359,2.6606663033,1.5143981264\C,0,-4.072221
 3093,2.4031283288,2.470912317\C,0,-3.8475652937,3.6626563481,3.2123401
 784\C,0,-4.6152472804,4.6375722227,2.5976056448\C,0,-5.3441137738,3.97
 10517817,1.4974348954\C,0,-2.8551141363,3.6658436681,4.408644735\C,0,-
 4.6630990099,6.0124012743,2.9483302698\O,0,-3.8274752348,6.5467295032,
 3.709364909\N,0,-6.8785795076,2.5782157541,-0.6851411818\C,0,-7.008423
 0401,3.9924896545,-0.3452027234\C,0,-8.0711622564,4.6410651633,-1.1544
 182509\C,0,-8.5234053733,3.6573048606,-1.9585304054\C,0,-7.8320670182,
 2.3872168958,-1.7294267125\C,0,-8.5563679155,5.9921405838,-1.042905425
 1\C,0,-9.5548819666,3.7197329116,-3.0529478434\C,0,-8.8847674574,4.261
 0174648,-4.4502582725\N,0,-6.3960353708,-0.1200371839,-1.0788689073\C,
 0,-7.3214157483,0.0203011245,-2.1290488275\C,0,-7.4411672333,-1.276572
 81,-2.8166246871\C,0,-6.6056260463,-2.1729010634,-2.1502042303\C,0,-5.
 9858565092,-1.3915131808,-1.1766855333\C,0,-8.3958249572,-1.6533751261
 ,-3.9071116306\C,0,-6.1618698141,-3.6285319592,-2.0293983337\O,0,-6.48
 29015308,-4.6548004501,-2.5335235981\C,0,-5.0169019437,-3.5631580825,-
 0.851971818\C,0,-5.3921963472,-4.592094411,0.1746946205\O,0,-5.8730014
 827,-4.404346368,1.2923763579\O,0,-5.0664366069,-5.8652604101,-0.27148
 13195\C,0,-5.346277977,-6.8821618073,0.6366211969\C,0,2.3571023918,-5.
 2022864888,0.6126792492\C,0,3.4274060507,-4.2104625456,0.9731686027\C,
 0,4.1608751912,-3.3638662075,0.1691892939\C,0,3.7645313504,-3.19943313
 17,-1.3594536142\C,0,5.2651907251,-2.4535496232,0.6843802889\C,0,6.613
 0569104,-2.6908140344,0.0937997059\C,0,7.6963787646,-1.7561472605,0.58
 02518598\C,0,9.0161402225,-1.9120971917,-0.111517865\C,0,9.5244795281,
 -3.347244627,0.1383969647\C,0,9.9979052261,-0.8882594468,0.3327112345\
 C,0,11.4219653538,-0.9873115263,-0.3049158022\C,0,12.2020178224,0.2898
 581763,0.1628770759\C,0,13.6277821723,0.4615458415,-0.5284626035\C,0,1
 4.5614843214,-0.7254332733,-0.1544721324\C,0,14.2291928575,1.803105082
 7,-0.086126255\C,0,15.3881280937,2.147786714,-0.9715242601\C,0,15.9967
 692966,3.570589569,-0.6966207551\C,0,17.290243419,3.9282217377,-1.3421
 852663\C,0,17.2067296551,3.9211876815,-2.880020322\C,0,17.9894723664,5
 .1751556416,-0.8090118582\H,0,-3.0607515811,1.1792247861,3.8321708283\
 H,0,-6.4590567886,5.6057867809,0.6493146942\H,0,-8.7917943785,1.241878
 4493,-3.3250178827\H,0,-3.9489819634,-3.0838815049,1.6942951716\H,0,-1
 .9470157876,-1.1155091591,2.6006022262\H,0,-2.7509344186,-2.741270708,
 4.2541153574\H,0,-3.0111077109,-1.0482169394,4.7653826742\H,0,-4.48560
 02358,-2.0736752855,4.0247656992\H,0,-2.5227894445,-3.4387569207,-0.07
 51452491\H,0,-1.5480255023,-1.8808667141,0.164277269\H,0,-0.8525496451
 ,-3.1366136337,2.4576603071\H,0,-1.4228917678,-4.5141482511,1.44266330
 3\H,0,-1.8672353756,3.5193766244,3.8556679479\H,0,-2.8935270067,4.8820
 578449,4.8022258855\H,0,-2.9406439969,3.0972529194,5.2038273595\H,0,-5
 .7245163109,6.4542334058,2.5439365095\H,0,-10.1412281053,2.6831554674,
 -3.130004155\H,0,-10.2663941223,4.5397015047,-2.8939423868\H,0,-9.6820
 539663,4.3446823682,-5.2977760882\H,0,-8.357959762,5.2928112217,-4.502
 7799598\H,0,-8.2936096359,3.5153158455,-4.9096650812\H,0,-8.272763858,
 -1.3065339111,-4.7850484738\H,0,-8.2323028582,-2.6433813984,-4.0581951
 634\H,0,-9.5707503241,-1.471543789,-3.4984741325\H,0,-4.2294347195,-3.
 946550478,-1.4084557757\H,0,2.5934072845,-6.0708443775,0.8786162495\H,
 0,2.206043931,-5.0529838248,-0.3935347886\H,0,3.7095669391,-4.12018214
 05,2.0282611902\H,0,2.6706445164,-3.4541569706,-1.6161742675\H,0,3.991
 1264506,-2.2032150221,-1.8174099585\H,0,4.4185643638,-3.7728691432,-2.
 0182132786\H,0,4.9680006691,-1.4623517798,0.4438847796\H,0,5.334025761
 ,-2.2855828755,1.7814920355\H,0,6.8759068107,-3.8186261621,0.353564678
 2\H,0,6.5557944189,-2.5121034263,-0.9436540516\H,0,7.4049312947,-0.702
 316786,0.2290216555\H,0,7.8278516954,-1.9300512536,1.7194594183\H,0,8.
 8883847381,-1.851673208,-1.2400222209\H,0,8.7157137368,-4.1752063805,-
 0.0821506853\H,0,10.5715901884,-3.5900023549,-0.3529528772\H,0,9.56201
 29489,-3.4322289515,1.1716381268\H,0,9.5399550564,0.1036587763,0.26159
 53339\H,0,10.3230812667,-1.183546674,1.3179227296\H,0,11.9022821593,-1
 .9373610578,0.3065913513\H,0,11.4601119514,-0.8069123267,-1.3526361073
 \H,0,11.5168016983,1.0743105029,-0.1148987003\H,0,12.3158223409,0.3083
 321165,1.1855377289\H,0,13.6098617285,0.3209168345,-1.7403002348\H,0,1
 4.9023704642,-0.938066824,0.7573608336\H,0,14.1167620627,-1.5232054994
 ,-0.5920654606\H,0,15.4434742039,-0.6634896767,-0.6851509181\H,0,13.51
 25304986,2.4415524544,-0.1055904363\H,0,14.5501526275,1.7700134158,0.8
 83657193\H,0,16.2246211892,1.3769431558,-0.9803158466\H,0,15.159860781
 6,1.9596942208,-2.0355670876\H,0,15.1957910412,4.1512983375,-1.0588671
 667\H,0,16.1654961835,3.5459905585,0.3830507639\H,0,18.0122310399,3.21
 4674976,-1.1195263405\H,0,16.5319003268,4.6636136403,-3.3863429132\H,0
 ,18.1257149614,4.1242088141,-3.3881462482\H,0,16.8886435497,3.05671058
 23,-3.3146820214\H,0,18.3065185259,5.0501656696,0.2448636521\H,0,19.02
 84904598,5.2128875153,-1.4091030514\H,0,17.4781403838,6.0089253026,-1.
 0149098431\H,0,-5.0010979944,-7.7103021296,-0.0691512311\H,0,-6.465887
 08,-7.0226016416,1.2444142847\H,0,-4.5600882262,-7.0004899252,1.486451
 5136\O,0,-7.8896218575,6.9241724486,-0.524105839\H,0,-9.2693303168,6.3
 355309688,-1.8202704945\\Version=ES64L-G09RevD.01\State=1-A\HF=-3043.4
 327766\RMSD=4.506e-09\PG=C01 [X(C54H68Mg1N4O7)]\\@


 ALTHOUGH J.J. COULD DIAGNOSE THE FAULTS OF AN
 APPARATUS WITH UNCANNY ACCURACY, IT WAS JUST AS
 WELL NOT TO LET HIM HANDLE IT.
   -- GEORGE THOMPSON, ABOUT HIS FATHER
 Job cpu time:       0 days  6 hours 22 minutes 17.4 seconds.
 File lengths (MBytes):  RWF=   2102 Int=      0 D2E=      0 Chk=    163 Scr=      1
 Normal termination of Gaussian 09 at Wed Oct  9 08:30:32 2019.
