 Entering Gaussian System, Link 0=g16
 Input=Geometria-362-.com
 Output=Geometria-362-.log
 Initial command:
 /usr/local/g09/l1.exe "/home/padawan/israel-mol/chlorophyll-b/spectra/emi/Gau-10460.inp" -scrdir="/home/padawan/israel-mol/chlorophyll-b/spectra/emi/"
 Entering Link 1 = /usr/local/g09/l1.exe PID=     10462.
  
 Copyright (c) 1988,1990,1992,1993,1995,1998,2003,2009,2013,
            Gaussian, Inc.  All Rights Reserved.
  
 This is part of the Gaussian(R) 09 program.  It is based on
 the Gaussian(R) 03 system (copyright 2003, Gaussian, Inc.),
 the Gaussian(R) 98 system (copyright 1998, Gaussian, Inc.),
 the Gaussian(R) 94 system (copyright 1995, Gaussian, Inc.),
 the Gaussian 92(TM) system (copyright 1992, Gaussian, Inc.),
 the Gaussian 90(TM) system (copyright 1990, Gaussian, Inc.),
 the Gaussian 88(TM) system (copyright 1988, Gaussian, Inc.),
 the Gaussian 86(TM) system (copyright 1986, Carnegie Mellon
 University), and the Gaussian 82(TM) system (copyright 1983,
 Carnegie Mellon University). Gaussian is a federally registered
 trademark of Gaussian, Inc.
  
 This software contains proprietary and confidential information,
 including trade secrets, belonging to Gaussian, Inc.
  
 This software is provided under written license and may be
 used, copied, transmitted, or stored only in accord with that
 written license.
  
 The following legend is applicable only to US Government
 contracts under FAR:
  
                    RESTRICTED RIGHTS LEGEND
  
 Use, reproduction and disclosure by the US Government is
 subject to restrictions as set forth in subparagraphs (a)
 and (c) of the Commercial Computer Software - Restricted
 Rights clause in FAR 52.227-19.
  
 Gaussian, Inc.
 340 Quinnipiac St., Bldg. 40, Wallingford CT 06492
  
  
 ---------------------------------------------------------------
 Warning -- This program may not be used in any manner that
 competes with the business of Gaussian, Inc. or will provide
 assistance to any competitor of Gaussian, Inc.  The licensee
 of this program is prohibited from giving any competitor of
 Gaussian, Inc. access to this program.  By using this program,
 the user acknowledges that Gaussian, Inc. is engaged in the
 business of creating and licensing software in the field of
 computational chemistry and represents and warrants to the
 licensee that it is not a competitor of Gaussian, Inc. and that
 it will not use this program in any manner prohibited above.
 ---------------------------------------------------------------
  

 Cite this work as:
 Gaussian 09, Revision D.01,
 M. J. Frisch, G. W. Trucks, H. B. Schlegel, G. E. Scuseria, 
 M. A. Robb, J. R. Cheeseman, G. Scalmani, V. Barone, B. Mennucci, 
 G. A. Petersson, H. Nakatsuji, M. Caricato, X. Li, H. P. Hratchian, 
 A. F. Izmaylov, J. Bloino, G. Zheng, J. L. Sonnenberg, M. Hada, 
 M. Ehara, K. Toyota, R. Fukuda, J. Hasegawa, M. Ishida, T. Nakajima, 
 Y. Honda, O. Kitao, H. Nakai, T. Vreven, J. A. Montgomery, Jr., 
 J. E. Peralta, F. Ogliaro, M. Bearpark, J. J. Heyd, E. Brothers, 
 K. N. Kudin, V. N. Staroverov, T. Keith, R. Kobayashi, J. Normand, 
 K. Raghavachari, A. Rendell, J. C. Burant, S. S. Iyengar, J. Tomasi, 
 M. Cossi, N. Rega, J. M. Millam, M. Klene, J. E. Knox, J. B. Cross, 
 V. Bakken, C. Adamo, J. Jaramillo, R. Gomperts, R. E. Stratmann, 
 O. Yazyev, A. J. Austin, R. Cammi, C. Pomelli, J. W. Ochterski, 
 R. L. Martin, K. Morokuma, V. G. Zakrzewski, G. A. Voth, 
 P. Salvador, J. J. Dannenberg, S. Dapprich, A. D. Daniels, 
 O. Farkas, J. B. Foresman, J. V. Ortiz, J. Cioslowski, 
 and D. J. Fox, Gaussian, Inc., Wallingford CT, 2013.
 
 ******************************************
 Gaussian 09:  ES64L-G09RevD.01 24-Apr-2013
                 8-Oct-2019 
 ******************************************
 %nproc=3
 Will use up to    3 processors via shared memory.
 %Mem=2GB
 ----------------------------------------------------------------------
 # td=(NStates=1) iop(3/107=0140000000,3/108=0140000000) iop(3/107=0140
 000000,3/108=0140000000) CAM-B3LYP/6-31G(d,p)
 ----------------------------------------------------------------------
 1/38=1/1;
 2/12=2,17=6,18=5,40=1/2;
 3/5=1,6=6,7=101,11=9,16=1,25=1,30=1,74=-40,107=140000000,108=140000000/1,2,8,3;
 4//1;
 5/5=2,38=5/2;
 8/6=1,10=2,108=1/1;
 9/41=1,42=1,70=2/14;
 6/7=2,8=2,9=2,10=2/1;
 99/5=1,9=1/99;
 --
 TD
 --
 Symbolic Z-matrix:
 Charge =  0 Multiplicity = 1
 12                   -5.68427   1.18902   0.37502 
 6                    -5.03831  -2.01903  -0.33579 
 6                    -3.36879   1.16971   2.85748 
 6                    -6.26557   4.55588   0.73569 
 6                    -8.04619   1.12396  -2.32573 
 7                    -4.46404  -0.27821   1.18646 
 6                    -4.2689   -1.60785   0.72427 
 6                    -3.17483  -2.29582   1.53464 
 6                    -2.86391  -1.2377    2.79329 
 6                    -3.64958  -0.07011   2.29608 
 6                    -3.50106  -1.90619   4.0922 
 6                    -1.93074  -2.58453   0.69157 
 6                    -0.85905  -3.38815   1.60076 
 6                     0.33545  -3.92511   0.64664 
 8                     0.37379  -3.52639  -0.59484 
 8                     1.11298  -4.85146   1.18212 
 7                    -4.92396   2.6029    1.48482 
 6                    -3.95535   2.40956   2.47551 
 6                    -3.70089   3.66195   3.16084 
 6                    -4.58253   4.58868   2.59786 
 6                    -5.31373   3.98884   1.53066 
 6                    -2.79893   3.77798   4.30253 
 6                    -4.62341   6.03603   2.92467 
 8                    -3.99922   6.69893   3.6052 
 7                    -6.9884    2.64699  -0.7173 
 6                    -6.96197   3.94707  -0.33569 
 6                    -7.92072   4.63782  -1.30606 
 6                    -8.44166   3.68962  -2.01953 
 6                    -7.8688    2.35359  -1.72727 
 6                    -8.23453   6.01897  -1.26301 
 6                    -9.48716   3.75111  -3.14078 
 6                    -8.82687   3.97924  -4.54459 
 7                    -6.41472  -0.05891  -1.08407 
 6                    -7.28496  -0.04659  -2.16783 
 6                    -7.49698  -1.27004  -2.80329 
 6                    -6.59997  -2.20412  -2.1825 
 6                    -6.0005   -1.38835  -1.05577 
 6                    -8.34207  -1.69958  -3.91585 
 6                    -6.0893   -3.60493  -1.96085 
 8                    -6.41515  -4.57619  -2.69785 
 6                    -5.03312  -3.50851  -0.86797 
 6                    -5.28142  -4.59776   0.22304 
 8                    -5.70743  -4.41957   1.24518 
 8                    -5.10096  -5.7922   -0.41729 
 6                    -5.453    -6.92723   0.30269 
 6                     2.42438  -5.11629   0.45689 
 6                     3.38469  -4.12151   0.91233 
 6                     4.15716  -3.26742   0.12873 
 6                     3.65407  -3.03418  -1.2881 
 6                     5.18746  -2.33767   0.70068 
 6                     6.53014  -2.68677   0.14412 
 6                     7.73284  -1.98467   0.80997 
 6                     9.04143  -2.05897  -0.085 
 6                     9.69866  -3.40021   0.06422 
 6                     9.97413  -0.85302   0.42396 
 6                     11.31625  -0.83696  -0.32593 
 6                     12.33589   0.18715   0.27264 
 6                     13.61328   0.39423  -0.59835 
 6                     14.42236  -0.81024  -0.27606 
 6                     14.18164   1.81814  -0.25319 
 6                     15.41581   2.05904  -1.0586 
 6                     15.88776   3.5154   -0.71877 
 6                     17.12037   3.92466  -1.39918 
 6                     17.14419   4.10259  -2.88209 
 6                     17.74948   5.20359  -0.70427 
 1                    -2.70879   1.25839   3.71705 
 1                    -6.32538   5.67009   0.59798 
 1                    -8.64122   1.17515  -3.19948 
 1                    -3.52404  -3.3021    2.03457 
 1                    -1.75167  -1.11436   2.77908 
 1                    -2.83338  -2.65524   4.53461 
 1                    -3.56808  -1.13431   4.95713 
 1                    -4.51602  -2.31323   3.81678 
 1                    -2.10442  -3.49068  -0.01088 
 1                    -1.37947  -1.80865   0.10518 
 1                    -0.44024  -2.67714   2.37405 
 1                    -1.7389   -4.22435   2.2357 
 1                    -1.75898   3.59529   4.17052 
 1                    -2.52029   4.87478   4.75988 
 1                    -3.06601   3.25109   5.14524 
 1                    -5.3419    6.63759   2.08034 
 1                    -10.20532   2.76888  -3.25128 
 1                    -10.14004   4.39176  -2.93289 
 1                    -9.33537   3.71005  -5.529 
 1                    -8.34807   4.81716  -4.68084 
 1                    -8.21963   3.29138  -4.63351 
 1                    -8.11078  -1.23857  -4.8804 
 1                    -8.46703  -2.79903  -4.16451 
 1                    -9.45505  -1.42095  -3.78122 
 1                    -3.91009  -3.59347  -1.38147 
 1                     2.67165  -6.27472   0.52535 
 1                     2.1296   -5.11847  -0.60874 
 1                     3.92837  -3.99217   1.85733 
 1                     2.5756   -3.02225  -1.44087 
 1                     3.69106  -1.99458  -1.57178 
 1                     4.37717  -3.53168  -2.03262 
 1                     5.01711  -1.35302   0.14827 
 1                     5.25068  -2.29235   1.73732 
 1                     6.66247  -3.74774   0.36332 
 1                     6.58535  -2.64764  -1.01117 
 1                     7.44079  -0.73741   0.90121 
 1                     8.21466  -2.23244   1.83503 
 1                     8.64734  -1.95343  -1.16239 
 1                     9.10185  -4.23809  -0.45629 
 1                     10.60476  -3.67441  -0.56851 
 1                     9.81654  -3.79241   1.12989 
 1                     9.47831   0.09643   0.36033 
 1                     10.26983  -0.94855   1.6563 
 1                     11.96024  -1.74812  -0.53849 
 1                     11.28844  -0.5478   -1.44238 
 1                     11.7194   1.21575   0.18674 
 1                     12.50384   0.06117   1.33767 
 1                     13.14757   0.26382  -1.57301 
 1                     14.62089  -0.95339   0.75074 
 1                     14.08757  -1.63985  -0.55655 
 1                     15.33971  -0.69587  -0.83613 
 1                     13.3397   2.56106  -0.34864 
 1                     14.45576   1.58774   0.74792 
 1                     16.26114   1.27795  -0.70893 
 1                     15.35723   2.16476  -2.1448 
 1                     15.08258   4.13269  -1.1299 
 1                     15.89412   3.72042   0.44539 
 1                     17.77308   3.08528  -1.01691 
 1                     16.55354   5.06799  -3.24535 
 1                     18.05707   4.26251  -3.55965 
 1                     16.5958   3.3417   -3.32643 
 1                     17.87817   4.9334    0.43727 
 1                     18.79252   5.42197  -1.22821 
 1                     17.02908   6.12674  -0.79757 
 1                    -4.90017  -7.75184  -0.2484 
 1                    -6.52761  -7.12374   0.30245 
 1                    -4.94865  -6.93931   1.34152 
 8                    -7.85523   6.93038  -0.54574 
 1                    -9.11878   6.42808  -2.0572 
 
 Stoichiometry    C54H68MgN4O7
 Framework group  C1[X(C54H68MgN4O7)]
 Deg. of freedom   396
 Full point group                 C1      NOp   1
 Largest Abelian subgroup         C1      NOp   1
 Largest concise Abelian subgroup C1      NOp   1
                         Standard orientation:                         
 ---------------------------------------------------------------------
 Center     Atomic      Atomic             Coordinates (Angstroms)
 Number     Number       Type             X           Y           Z
 ---------------------------------------------------------------------
      1         12           0       -5.688089    1.172837    0.375313
      2          6           0       -5.032109   -2.034546   -0.329279
      3          6           0       -3.372047    1.165781    2.857316
      4          6           0       -6.279983    4.538549    0.729436
      5          6           0       -8.050334    1.094946   -2.324803
      6          7           0       -4.463048   -0.288912    1.189397
      7          6           0       -4.263788   -1.618838    0.729796
      8          6           0       -3.167374   -2.301730    1.541299
      9          6           0       -2.859554   -1.240144    2.797783
     10          6           0       -3.649024   -0.076028    2.298433
     11          6           0       -3.494318   -1.908069    4.098149
     12          6           0       -1.922546   -2.588166    0.698544
     13          6           0       -0.848134   -3.386585    1.609098
     14          6           0        0.347870   -3.921638    0.655790
     15          8           0        0.384694   -3.525262   -0.586487
     16          8           0        1.128445   -4.844460    1.192940
     17          7           0       -4.932035    2.591315    1.482147
     18          6           0       -3.962613    2.403006    2.473022
     19          6           0       -3.711985    3.657548    3.155810
     20          6           0       -4.596676    4.580364    2.591183
     21          6           0       -5.326186    3.976104    1.525329
     22          6           0       -2.810162    3.778705    4.297088
     23          6           0       -4.642068    6.028228    2.915139
     24          8           0       -4.019851    6.694450    3.594231
     25          7           0       -6.997053    2.624504   -0.719621
     26          6           0       -6.974664    3.925407   -0.340588
     27          6           0       -7.935795    4.611202   -1.312123
     28          6           0       -8.453873    3.659938   -2.023598
     29          6           0       -7.876725    2.326317   -1.728815
     30          6           0       -8.253971    5.991432   -1.271734
     31          6           0       -9.499790    3.715893   -3.144748
     32          6           0       -8.840519    3.943338   -4.549146
     33          7           0       -6.414871   -0.080289   -1.081150
     34          6           0       -7.285371   -0.072867   -2.164753
     35          6           0       -7.493643   -1.298245   -2.797746
     36          6           0       -6.593543   -2.228248   -2.175291
     37          6           0       -5.996434   -1.408352   -1.050310
     38          6           0       -8.337591   -1.732661   -3.909275
     39          6           0       -6.078397   -3.626987   -1.950981
     40          8           0       -6.401319   -4.600735   -2.685987
     41          6           0       -5.022306   -3.525059   -0.858518
     42          6           0       -5.266921   -4.612931    0.234701
     43          8           0       -5.693294   -4.434062    1.256578
     44          8           0       -5.082811   -5.808057   -0.403297
     45          6           0       -5.431103   -6.942762    0.318996
     46          6           0        2.440526   -5.106566    0.467959
     47          6           0        3.397774   -4.107853    0.921226
     48          6           0        4.167376   -3.252865    0.135768
     49          6           0        3.663255   -3.024027   -1.281407
     50          6           0        5.194838   -2.318726    0.705666
     51          6           0        6.538500   -2.664675    0.149518
     52          6           0        7.739108   -1.957447    0.813725
     53          6           0        9.047745   -2.029373   -0.081372
     54          6           0        9.709248   -3.368223    0.070359
     55          6           0        9.976722   -0.819461    0.424999
     56          6           0       11.318633   -0.800633   -0.325202
     57          6           0       12.335140    0.227881    0.271122
     58          6           0       13.611689    0.437284   -0.600543
     59          6           0       14.424648   -0.763976   -0.276045
     60          6           0       14.175601    1.863666   -0.258325
     61          6           0       15.408839    2.106883   -1.064470
     62          6           0       15.876238    3.565407   -0.727622
     63          6           0       17.107403    3.977221   -1.409098
     64          6           0       17.130363    4.152284   -2.892362
     65          6           0       17.732600    5.259509   -0.716854
     66          1           0       -2.712154    1.258257    3.716572
     67          1           0       -6.343353    5.652289    0.589538
     68          1           0       -8.645705    1.142521   -3.198526
     69          1           0       -3.513291   -3.308122    2.043293
     70          1           0       -1.747709   -1.113302    2.783099
     71          1           0       -2.824177   -2.654127    4.541906
     72          1           0       -3.563609   -1.134693    4.961568
     73          1           0       -4.508040   -2.318870    3.823757
     74          1           0       -2.093496   -3.496250   -0.002077
     75          1           0       -1.373859   -1.811702    0.110502
     76          1           0       -0.431417   -2.672716    2.380889
     77          1           0       -1.725199   -4.224306    2.245875
     78          1           0       -1.769671    3.599050    4.165216
     79          1           0       -2.534908    4.877278    4.752205
     80          1           0       -3.075397    3.252634    5.140892
     81          1           0       -5.362637    6.625833    2.069774
     82          1           0      -10.214864    2.731183   -3.253152
     83          1           0      -10.154661    4.354881   -2.937988
     84          1           0       -9.348362    3.670588   -5.532916
     85          1           0       -8.364402    4.782504   -4.687155
     86          1           0       -8.231121    3.257235   -4.636832
     87          1           0       -8.107958   -1.272828   -4.874780
     88          1           0       -8.459113   -2.832988   -4.155725
     89          1           0       -9.451420   -1.457292   -3.774962
     90          1           0       -3.899116   -3.607469   -1.372085
     91          1           0        2.691477   -6.264075    0.538657
     92          1           0        2.145534   -5.111792   -0.597602
     93          1           0        3.941231   -3.974916    1.865856
     94          1           0        2.584716   -3.015824   -1.433974
     95          1           0        3.696888   -1.984886   -1.567151
     96          1           0        4.387776   -3.520704   -2.025101
     97          1           0        5.021248   -1.335719    0.151338
     98          1           0        5.258120   -2.271159    1.742197
     99          1           0        6.674234   -3.724780    0.370781
    100          1           0        6.593349   -2.627651   -1.005864
    101          1           0        7.443128   -0.710941    0.902551
    102          1           0        8.221919   -2.201660    1.839168
    103          1           0        8.653100   -1.927217   -1.158895
    104          1           0        9.114996   -4.209022   -0.448364
    105          1           0       10.616089   -3.640803   -0.562022
    106          1           0        9.828589   -3.757942    1.136782
    107          1           0        9.477878    0.128279    0.359590
    108          1           0       10.272968   -0.911621    1.657460
    109          1           0       11.965457   -1.710172   -0.536099
    110          1           0       11.289679   -0.513774   -1.442213
    111          1           0       11.715376    1.254356    0.183319
    112          1           0       12.503706    0.104542    1.336368
    113          1           0       13.146191    0.303472   -1.574849
    114          1           0       14.623843   -0.904459    0.750999
    115          1           0       14.092431   -1.595192   -0.554819
    116          1           0       15.341520   -0.647809   -0.836525
    117          1           0       13.331296    2.603732   -0.355070
    118          1           0       14.450659    1.636118    0.743188
    119          1           0       16.256716    1.329175   -0.713428
    120          1           0       15.349702    2.210273   -2.150859
    121          1           0       15.069022    4.179320   -1.139805
    122          1           0       15.882186    3.772745    0.436128
    123          1           0       17.762849    3.140673   -1.025300
    124          1           0       16.536581    5.115094   -3.257406
    125          1           0       18.042588    4.313761   -3.570432
    126          1           0       16.584298    3.388785   -3.335082
    127          1           0       17.862376    4.991994    0.425196
    128          1           0       18.774834    5.480156   -1.241448
    129          1           0       17.009256    6.180183   -0.811826
    130          1           0       -4.875774   -7.766705   -0.230574
    131          1           0       -6.505090   -7.142683    0.319373
    132          1           0       -4.926504   -6.951195    1.357741
    133          8           0       -7.877418    6.905457   -0.556350
    134          1           0       -9.139675    6.396161   -2.066553
 ---------------------------------------------------------------------
 Rotational constants (GHZ):      0.0344419      0.0081046      0.0071694
 Standard basis: 6-31G(d,p) (6D, 7F)
 There are  1334 symmetry adapted cartesian basis functions of A   symmetry.
 There are  1334 symmetry adapted basis functions of A   symmetry.
  1334 basis functions,  2348 primitive gaussians,  1334 cartesian basis functions
   244 alpha electrons      244 beta electrons
       nuclear repulsion energy      9088.6488506744 Hartrees.
 NAtoms=  134 NActive=  134 NUniq=  134 SFac= 1.00D+00 NAtFMM=   60 NAOKFM=T Big=T
 Integral buffers will be    131072 words long.
 Raffenetti 1 integral format.
 Two-electron integral symmetry is turned on.
 One-electron integrals computed using PRISM.
 NBasis=  1334 RedAO= T EigKep=  3.43D-04  NBF=  1334
 NBsUse=  1334 1.00D-06 EigRej= -1.00D+00 NBFU=  1334
 ExpMin= 4.21D-02 ExpMax= 1.17D+04 ExpMxC= 1.76D+03 IAcc=2 IRadAn=         4 AccDes= 0.00D+00
 Harris functional with IExCor=20419 and IRadAn=       4 diagonalized for initial guess.
 HarFok:  IExCor=20419 AccDes= 0.00D+00 IRadAn=         4 IDoV= 1 UseB2=F ITyADJ=14
 ICtDFT=  3500011 ScaDFX=  1.000000  1.000000  1.000000  1.000000
 FoFCou: FMM=F IPFlag=           0 FMFlag=      100000 FMFlg1=        2001
         NFxFlg=           0 DoJE=T BraDBF=F KetDBF=T FulRan=T
         wScrn=  0.000000 ICntrl=     500 IOpCl=  0 I1Cent=   200000004 NGrid=           0
         NMat0=    1 NMatS0=      1 NMatT0=    0 NMatD0=    1 NMtDS0=    0 NMtDT0=    0
 Petite list used in FoFCou.
 Requested convergence on RMS density matrix=1.00D-08 within 128 cycles.
 Requested convergence on MAX density matrix=1.00D-06.
 Requested convergence on             energy=1.00D-06.
 No special actions if energy rises.
 SCF Done:  E(RCAM-B3LYP) =  -3043.35115219     A.U. after   16 cycles
            NFock= 16  Conv=0.61D-08     -V/T= 2.0094
 DoSCS=F DFT=T ScalE2(SS,OS)=  1.000000  1.000000
 ExpMin= 4.21D-02 ExpMax= 1.17D+04 ExpMxC= 1.76D+03 IAcc=3 IRadAn=         5 AccDes= 0.00D+00
 HarFok:  IExCor=  205 AccDes= 0.00D+00 IRadAn=         5 IDoV=-2 UseB2=F ITyADJ=14
 ICtDFT= 12500011 ScaDFX=  1.000000  1.000000  1.000000  1.000000
 Range of M.O.s used for correlation:    71  1334
 NBasis=  1334 NAE=   244 NBE=   244 NFC=    70 NFV=     0
 NROrb=   1264 NOA=   174 NOB=   174 NVA=  1090 NVB=  1090
 Would need an additional       2379600800000 words for in-memory AO integral storage.
 Orbital symmetries:
       Occupied  (A) (A) (A) (A) (A) (A) (A) (A) (A) (A) (A) (A)
                 (A) (A) (A) (A) (A) (A) (A) (A) (A) (A) (A) (A)
                 (A) (A) (A) (A) (A) (A) (A) (A) (A) (A) (A) (A)
                 (A) (A) (A) (A) (A) (A) (A) (A) (A) (A) (A) (A)
                 (A) (A) (A) (A) (A) (A) (A) (A) (A) (A) (A) (A)
                 (A) (A) (A) (A) (A) (A) (A) (A) (A) (A) (A) (A)
                 (A) (A) (A) (A) (A) (A) (A) (A) (A) (A) (A) (A)
                 (A) (A) (A) (A) (A) (A) (A) (A) (A) (A) (A) (A)
                 (A) (A) (A) (A) (A) (A) (A) (A) (A) (A) (A) (A)
                 (A) (A) (A) (A) (A) (A) (A) (A) (A) (A) (A) (A)
                 (A) (A) (A) (A) (A) (A) (A) (A) (A) (A) (A) (A)
                 (A) (A) (A) (A) (A) (A) (A) (A) (A) (A) (A) (A)
                 (A) (A) (A) (A) (A) (A) (A) (A) (A) (A) (A) (A)
                 (A) (A) (A) (A) (A) (A) (A) (A) (A) (A) (A) (A)
                 (A) (A) (A) (A) (A) (A) (A) (A) (A) (A) (A) (A)
                 (A) (A) (A) (A) (A) (A) (A) (A) (A) (A) (A) (A)
                 (A) (A) (A) (A) (A) (A) (A) (A) (A) (A) (A) (A)
                 (A) (A) (A) (A) (A) (A) (A) (A) (A) (A) (A) (A)
                 (A) (A) (A) (A) (A) (A) (A) (A) (A) (A) (A) (A)
                 (A) (A) (A) (A) (A) (A) (A) (A) (A) (A) (A) (A)
                 (A) (A) (A) (A)
       Virtual   (A) (A) (A) (A) (A) (A) (A) (A) (A) (A) (A) (A)
                 (A) (A) (A) (A) (A) (A) (A) (A) (A) (A) (A) (A)
                 (A) (A) (A) (A) (A) (A) (A) (A) (A) (A) (A) (A)
                 (A) (A) (A) (A) (A) (A) (A) (A) (A) (A) (A) (A)
                 (A) (A) (A) (A) (A) (A) (A) (A) (A) (A) (A) (A)
                 (A) (A) (A) (A) (A) (A) (A) (A) (A) (A) (A) (A)
                 (A) (A) (A) (A) (A) (A) (A) (A) (A) (A) (A) (A)
                 (A) (A) (A) (A) (A) (A) (A) (A) (A) (A) (A) (A)
                 (A) (A) (A) (A) (A) (A) (A) (A) (A) (A) (A) (A)
                 (A) (A) (A) (A) (A) (A) (A) (A) (A) (A) (A) (A)
                 (A) (A) (A) (A) (A) (A) (A) (A) (A) (A) (A) (A)
                 (A) (A) (A) (A) (A) (A) (A) (A) (A) (A) (A) (A)
                 (A) (A) (A) (A) (A) (A) (A) (A) (A) (A) (A) (A)
                 (A) (A) (A) (A) (A) (A) (A) (A) (A) (A) (A) (A)
                 (A) (A) (A) (A) (A) (A) (A) (A) (A) (A) (A) (A)
                 (A) (A) (A) (A) (A) (A) (A) (A) (A) (A) (A) (A)
                 (A) (A) (A) (A) (A) (A) (A) (A) (A) (A) (A) (A)
                 (A) (A) (A) (A) (A) (A) (A) (A) (A) (A) (A) (A)
                 (A) (A) (A) (A) (A) (A) (A) (A) (A) (A) (A) (A)
                 (A) (A) (A) (A) (A) (A) (A) (A) (A) (A) (A) (A)
                 (A) (A) (A) (A) (A) (A) (A) (A) (A) (A) (A) (A)
                 (A) (A) (A) (A) (A) (A) (A) (A) (A) (A) (A) (A)
                 (A) (A) (A) (A) (A) (A) (A) (A) (A) (A) (A) (A)
                 (A) (A) (A) (A) (A) (A) (A) (A) (A) (A) (A) (A)
                 (A) (A) (A) (A) (A) (A) (A) (A) (A) (A) (A) (A)
                 (A) (A) (A) (A) (A) (A) (A) (A) (A) (A) (A) (A)
                 (A) (A) (A) (A) (A) (A) (A) (A) (A) (A) (A) (A)
                 (A) (A) (A) (A) (A) (A) (A) (A) (A) (A) (A) (A)
                 (A) (A) (A) (A) (A) (A) (A) (A) (A) (A) (A) (A)
                 (A) (A) (A) (A) (A) (A) (A) (A) (A) (A) (A) (A)
                 (A) (A) (A) (A) (A) (A) (A) (A) (A) (A) (A) (A)
                 (A) (A) (A) (A) (A) (A) (A) (A) (A) (A) (A) (A)
                 (A) (A) (A) (A) (A) (A) (A) (A) (A) (A) (A) (A)
                 (A) (A) (A) (A) (A) (A) (A) (A) (A) (A) (A) (A)
                 (A) (A) (A) (A) (A) (A) (A) (A) (A) (A) (A) (A)
                 (A) (A) (A) (A) (A) (A) (A) (A) (A) (A) (A) (A)
                 (A) (A) (A) (A) (A) (A) (A) (A) (A) (A) (A) (A)
                 (A) (A) (A) (A) (A) (A) (A) (A) (A) (A) (A) (A)
                 (A) (A) (A) (A) (A) (A) (A) (A) (A) (A) (A) (A)
                 (A) (A) (A) (A) (A) (A) (A) (A) (A) (A) (A) (A)
                 (A) (A) (A) (A) (A) (A) (A) (A) (A) (A) (A) (A)
                 (A) (A) (A) (A) (A) (A) (A) (A) (A) (A) (A) (A)
                 (A) (A) (A) (A) (A) (A) (A) (A) (A) (A) (A) (A)
                 (A) (A) (A) (A) (A) (A) (A) (A) (A) (A) (A) (A)
                 (A) (A) (A) (A) (A) (A) (A) (A) (A) (A) (A) (A)
                 (A) (A) (A) (A) (A) (A) (A) (A) (A) (A) (A) (A)
                 (A) (A) (A) (A) (A) (A) (A) (A) (A) (A) (A) (A)
                 (A) (A) (A) (A) (A) (A) (A) (A) (A) (A) (A) (A)
                 (A) (A) (A) (A) (A) (A) (A) (A) (A) (A) (A) (A)
                 (A) (A) (A) (A) (A) (A) (A) (A) (A) (A) (A) (A)
                 (A) (A) (A) (A) (A) (A) (A) (A) (A) (A) (A) (A)
                 (A) (A) (A) (A) (A) (A) (A) (A) (A) (A) (A) (A)
                 (A) (A) (A) (A) (A) (A) (A) (A) (A) (A) (A) (A)
                 (A) (A) (A) (A) (A) (A) (A) (A) (A) (A) (A) (A)
                 (A) (A) (A) (A) (A) (A) (A) (A) (A) (A) (A) (A)
                 (A) (A) (A) (A) (A) (A) (A) (A) (A) (A) (A) (A)
                 (A) (A) (A) (A) (A) (A) (A) (A) (A) (A) (A) (A)
                 (A) (A) (A) (A) (A) (A) (A) (A) (A) (A) (A) (A)
                 (A) (A) (A) (A) (A) (A) (A) (A) (A) (A) (A) (A)
                 (A) (A) (A) (A) (A) (A) (A) (A) (A) (A) (A) (A)
                 (A) (A) (A) (A) (A) (A) (A) (A) (A) (A) (A) (A)
                 (A) (A) (A) (A) (A) (A) (A) (A) (A) (A) (A) (A)
                 (A) (A) (A) (A) (A) (A) (A) (A) (A) (A) (A) (A)
                 (A) (A) (A) (A) (A) (A) (A) (A) (A) (A) (A) (A)
                 (A) (A) (A) (A) (A) (A) (A) (A) (A) (A) (A) (A)
                 (A) (A) (A) (A) (A) (A) (A) (A) (A) (A) (A) (A)
                 (A) (A) (A) (A) (A) (A) (A) (A) (A) (A) (A) (A)
                 (A) (A) (A) (A) (A) (A) (A) (A) (A) (A) (A) (A)
                 (A) (A) (A) (A) (A) (A) (A) (A) (A) (A) (A) (A)
                 (A) (A) (A) (A) (A) (A) (A) (A) (A) (A) (A) (A)
                 (A) (A) (A) (A) (A) (A) (A) (A) (A) (A) (A) (A)
                 (A) (A) (A) (A) (A) (A) (A) (A) (A) (A) (A) (A)
                 (A) (A) (A) (A) (A) (A) (A) (A) (A) (A) (A) (A)
                 (A) (A) (A) (A) (A) (A) (A) (A) (A) (A) (A) (A)
                 (A) (A) (A) (A) (A) (A) (A) (A) (A) (A) (A) (A)
                 (A) (A) (A) (A) (A) (A) (A) (A) (A) (A) (A) (A)
                 (A) (A) (A) (A) (A) (A) (A) (A) (A) (A) (A) (A)
                 (A) (A) (A) (A) (A) (A) (A) (A) (A) (A) (A) (A)
                 (A) (A) (A) (A) (A) (A) (A) (A) (A) (A) (A) (A)
                 (A) (A) (A) (A) (A) (A) (A) (A) (A) (A) (A) (A)
                 (A) (A) (A) (A) (A) (A) (A) (A) (A) (A) (A) (A)
                 (A) (A) (A) (A) (A) (A) (A) (A) (A) (A) (A) (A)
                 (A) (A) (A) (A) (A) (A) (A) (A) (A) (A) (A) (A)
                 (A) (A) (A) (A) (A) (A) (A) (A) (A) (A) (A) (A)
                 (A) (A) (A) (A) (A) (A) (A) (A) (A) (A) (A) (A)
                 (A) (A) (A) (A) (A) (A) (A) (A) (A) (A) (A) (A)
                 (A) (A) (A) (A) (A) (A) (A) (A) (A) (A) (A) (A)
                 (A) (A) (A) (A) (A) (A) (A) (A) (A) (A) (A) (A)
                 (A) (A) (A) (A) (A) (A) (A) (A) (A) (A) (A) (A)
                 (A) (A) (A) (A) (A) (A) (A) (A) (A) (A) (A) (A)
                 (A) (A) (A) (A) (A) (A) (A) (A) (A) (A)
     8 initial guesses have been made.
 Convergence on wavefunction:    0.001000000000000
 Iteration     1 Dimension     8 NMult     0 NNew      8
 CISAX will form     8 AO SS matrices at one time.
 Iteration     2 Dimension    12 NMult     8 NNew      4
 Iteration     3 Dimension    16 NMult    12 NNew      4
 Iteration     4 Dimension    20 NMult    16 NNew      4
 Iteration     5 Dimension    24 NMult    20 NNew      4
 Iteration     6 Dimension    28 NMult    24 NNew      4
 Iteration     7 Dimension    32 NMult    28 NNew      4
 ***********************************************************************
 Excited states from <AA,BB:AA,BB> singles matrix:
 ***********************************************************************
 
 Ground to excited state transition densities written to RWF  633
 Ground to excited state transition electric dipole moments (Au):
       state          X           Y           Z        Dip. S.      Osc.
         1        -0.5140     -1.6422     -1.2059      4.4154      0.2186
 Ground to excited state transition velocity dipole moments (Au):
       state          X           Y           Z        Dip. S.      Osc.
         1         0.0380      0.1174      0.0879      0.0229      0.2059
 Ground to excited state transition magnetic dipole moments (Au):
       state          X           Y           Z
         1         1.0552      1.2805     -2.1971
 Ground to excited state transition velocity quadrupole moments (Au):
       state          XX          YY          ZZ          XY          XZ          YZ
         1        -0.8224      0.2125      0.1744     -1.1132     -0.8336      0.1894
 <0|del|b> * <b|rxdel|0> + <0|del|b> * <b|delr+rdel|0>
 Rotatory Strengths (R) in cgs (10**-40 erg-esu-cm/Gauss)
       state          XX          YY          ZZ    R(velocity)    E-M Angle
         1      -203.0801   -228.2956    406.3005     -8.3584       90.36
 1/2[<0|r|b>*<b|rxdel|0> + (<0|rxdel|b>*<b|r|0>)*]
 Rotatory Strengths (R) in cgs (10**-40 erg-esu-cm/Gauss)
       state          XX          YY          ZZ     R(length)
         1       383.5393   1487.1018  -1873.6985     -1.0191
  1/2[<0|del|b>*<b|r|0> + (<0|r|b>*<b|del|0>)*] (Au)
       state          X           Y           Z        Dip. S.   Osc.(frdel)
         1        -0.0195     -0.1928     -0.1059      0.3182      0.2122

 Excitation energies and oscillator strengths:
 
 Excited State   1:      Singlet-A      2.0209 eV  613.51 nm  f=0.2186  <S**2>=0.000
     243 -> 246        0.25449
     244 -> 245        0.64923
 This state for optimization and/or second-order correction.
 Total Energy, E(TD-HF/TD-KS) =  -3043.27688520    
 Copying the excited state density for this state as the 1-particle RhoCI density.
 SavETr:  write IOETrn=   770 NScale= 10 NData=  16 NLR=1 NState=    1 LETran=      28.

 **********************************************************************

            Population analysis using the SCF density.

 **********************************************************************

 Orbital symmetries:
       Occupied  (A) (A) (A) (A) (A) (A) (A) (A) (A) (A) (A) (A)
                 (A) (A) (A) (A) (A) (A) (A) (A) (A) (A) (A) (A)
                 (A) (A) (A) (A) (A) (A) (A) (A) (A) (A) (A) (A)
                 (A) (A) (A) (A) (A) (A) (A) (A) (A) (A) (A) (A)
                 (A) (A) (A) (A) (A) (A) (A) (A) (A) (A) (A) (A)
                 (A) (A) (A) (A) (A) (A) (A) (A) (A) (A) (A) (A)
                 (A) (A) (A) (A) (A) (A) (A) (A) (A) (A) (A) (A)
                 (A) (A) (A) (A) (A) (A) (A) (A) (A) (A) (A) (A)
                 (A) (A) (A) (A) (A) (A) (A) (A) (A) (A) (A) (A)
                 (A) (A) (A) (A) (A) (A) (A) (A) (A) (A) (A) (A)
                 (A) (A) (A) (A) (A) (A) (A) (A) (A) (A) (A) (A)
                 (A) (A) (A) (A) (A) (A) (A) (A) (A) (A) (A) (A)
                 (A) (A) (A) (A) (A) (A) (A) (A) (A) (A) (A) (A)
                 (A) (A) (A) (A) (A) (A) (A) (A) (A) (A) (A) (A)
                 (A) (A) (A) (A) (A) (A) (A) (A) (A) (A) (A) (A)
                 (A) (A) (A) (A) (A) (A) (A) (A) (A) (A) (A) (A)
                 (A) (A) (A) (A) (A) (A) (A) (A) (A) (A) (A) (A)
                 (A) (A) (A) (A) (A) (A) (A) (A) (A) (A) (A) (A)
                 (A) (A) (A) (A) (A) (A) (A) (A) (A) (A) (A) (A)
                 (A) (A) (A) (A) (A) (A) (A) (A) (A) (A) (A) (A)
                 (A) (A) (A) (A)
       Virtual   (A) (A) (A) (A) (A) (A) (A) (A) (A) (A) (A) (A)
                 (A) (A) (A) (A) (A) (A) (A) (A) (A) (A) (A) (A)
                 (A) (A) (A) (A) (A) (A) (A) (A) (A) (A) (A) (A)
                 (A) (A) (A) (A) (A) (A) (A) (A) (A) (A) (A) (A)
                 (A) (A) (A) (A) (A) (A) (A) (A) (A) (A) (A) (A)
                 (A) (A) (A) (A) (A) (A) (A) (A) (A) (A) (A) (A)
                 (A) (A) (A) (A) (A) (A) (A) (A) (A) (A) (A) (A)
                 (A) (A) (A) (A) (A) (A) (A) (A) (A) (A) (A) (A)
                 (A) (A) (A) (A) (A) (A) (A) (A) (A) (A) (A) (A)
                 (A) (A) (A) (A) (A) (A) (A) (A) (A) (A) (A) (A)
                 (A) (A) (A) (A) (A) (A) (A) (A) (A) (A) (A) (A)
                 (A) (A) (A) (A) (A) (A) (A) (A) (A) (A) (A) (A)
                 (A) (A) (A) (A) (A) (A) (A) (A) (A) (A) (A) (A)
                 (A) (A) (A) (A) (A) (A) (A) (A) (A) (A) (A) (A)
                 (A) (A) (A) (A) (A) (A) (A) (A) (A) (A) (A) (A)
                 (A) (A) (A) (A) (A) (A) (A) (A) (A) (A) (A) (A)
                 (A) (A) (A) (A) (A) (A) (A) (A) (A) (A) (A) (A)
                 (A) (A) (A) (A) (A) (A) (A) (A) (A) (A) (A) (A)
                 (A) (A) (A) (A) (A) (A) (A) (A) (A) (A) (A) (A)
                 (A) (A) (A) (A) (A) (A) (A) (A) (A) (A) (A) (A)
                 (A) (A) (A) (A) (A) (A) (A) (A) (A) (A) (A) (A)
                 (A) (A) (A) (A) (A) (A) (A) (A) (A) (A) (A) (A)
                 (A) (A) (A) (A) (A) (A) (A) (A) (A) (A) (A) (A)
                 (A) (A) (A) (A) (A) (A) (A) (A) (A) (A) (A) (A)
                 (A) (A) (A) (A) (A) (A) (A) (A) (A) (A) (A) (A)
                 (A) (A) (A) (A) (A) (A) (A) (A) (A) (A) (A) (A)
                 (A) (A) (A) (A) (A) (A) (A) (A) (A) (A) (A) (A)
                 (A) (A) (A) (A) (A) (A) (A) (A) (A) (A) (A) (A)
                 (A) (A) (A) (A) (A) (A) (A) (A) (A) (A) (A) (A)
                 (A) (A) (A) (A) (A) (A) (A) (A) (A) (A) (A) (A)
                 (A) (A) (A) (A) (A) (A) (A) (A) (A) (A) (A) (A)
                 (A) (A) (A) (A) (A) (A) (A) (A) (A) (A) (A) (A)
                 (A) (A) (A) (A) (A) (A) (A) (A) (A) (A) (A) (A)
                 (A) (A) (A) (A) (A) (A) (A) (A) (A) (A) (A) (A)
                 (A) (A) (A) (A) (A) (A) (A) (A) (A) (A) (A) (A)
                 (A) (A) (A) (A) (A) (A) (A) (A) (A) (A) (A) (A)
                 (A) (A) (A) (A) (A) (A) (A) (A) (A) (A) (A) (A)
                 (A) (A) (A) (A) (A) (A) (A) (A) (A) (A) (A) (A)
                 (A) (A) (A) (A) (A) (A) (A) (A) (A) (A) (A) (A)
                 (A) (A) (A) (A) (A) (A) (A) (A) (A) (A) (A) (A)
                 (A) (A) (A) (A) (A) (A) (A) (A) (A) (A) (A) (A)
                 (A) (A) (A) (A) (A) (A) (A) (A) (A) (A) (A) (A)
                 (A) (A) (A) (A) (A) (A) (A) (A) (A) (A) (A) (A)
                 (A) (A) (A) (A) (A) (A) (A) (A) (A) (A) (A) (A)
                 (A) (A) (A) (A) (A) (A) (A) (A) (A) (A) (A) (A)
                 (A) (A) (A) (A) (A) (A) (A) (A) (A) (A) (A) (A)
                 (A) (A) (A) (A) (A) (A) (A) (A) (A) (A) (A) (A)
                 (A) (A) (A) (A) (A) (A) (A) (A) (A) (A) (A) (A)
                 (A) (A) (A) (A) (A) (A) (A) (A) (A) (A) (A) (A)
                 (A) (A) (A) (A) (A) (A) (A) (A) (A) (A) (A) (A)
                 (A) (A) (A) (A) (A) (A) (A) (A) (A) (A) (A) (A)
                 (A) (A) (A) (A) (A) (A) (A) (A) (A) (A) (A) (A)
                 (A) (A) (A) (A) (A) (A) (A) (A) (A) (A) (A) (A)
                 (A) (A) (A) (A) (A) (A) (A) (A) (A) (A) (A) (A)
                 (A) (A) (A) (A) (A) (A) (A) (A) (A) (A) (A) (A)
                 (A) (A) (A) (A) (A) (A) (A) (A) (A) (A) (A) (A)
                 (A) (A) (A) (A) (A) (A) (A) (A) (A) (A) (A) (A)
                 (A) (A) (A) (A) (A) (A) (A) (A) (A) (A) (A) (A)
                 (A) (A) (A) (A) (A) (A) (A) (A) (A) (A) (A) (A)
                 (A) (A) (A) (A) (A) (A) (A) (A) (A) (A) (A) (A)
                 (A) (A) (A) (A) (A) (A) (A) (A) (A) (A) (A) (A)
                 (A) (A) (A) (A) (A) (A) (A) (A) (A) (A) (A) (A)
                 (A) (A) (A) (A) (A) (A) (A) (A) (A) (A) (A) (A)
                 (A) (A) (A) (A) (A) (A) (A) (A) (A) (A) (A) (A)
                 (A) (A) (A) (A) (A) (A) (A) (A) (A) (A) (A) (A)
                 (A) (A) (A) (A) (A) (A) (A) (A) (A) (A) (A) (A)
                 (A) (A) (A) (A) (A) (A) (A) (A) (A) (A) (A) (A)
                 (A) (A) (A) (A) (A) (A) (A) (A) (A) (A) (A) (A)
                 (A) (A) (A) (A) (A) (A) (A) (A) (A) (A) (A) (A)
                 (A) (A) (A) (A) (A) (A) (A) (A) (A) (A) (A) (A)
                 (A) (A) (A) (A) (A) (A) (A) (A) (A) (A) (A) (A)
                 (A) (A) (A) (A) (A) (A) (A) (A) (A) (A) (A) (A)
                 (A) (A) (A) (A) (A) (A) (A) (A) (A) (A) (A) (A)
                 (A) (A) (A) (A) (A) (A) (A) (A) (A) (A) (A) (A)
                 (A) (A) (A) (A) (A) (A) (A) (A) (A) (A) (A) (A)
                 (A) (A) (A) (A) (A) (A) (A) (A) (A) (A) (A) (A)
                 (A) (A) (A) (A) (A) (A) (A) (A) (A) (A) (A) (A)
                 (A) (A) (A) (A) (A) (A) (A) (A) (A) (A) (A) (A)
                 (A) (A) (A) (A) (A) (A) (A) (A) (A) (A) (A) (A)
                 (A) (A) (A) (A) (A) (A) (A) (A) (A) (A) (A) (A)
                 (A) (A) (A) (A) (A) (A) (A) (A) (A) (A) (A) (A)
                 (A) (A) (A) (A) (A) (A) (A) (A) (A) (A) (A) (A)
                 (A) (A) (A) (A) (A) (A) (A) (A) (A) (A) (A) (A)
                 (A) (A) (A) (A) (A) (A) (A) (A) (A) (A) (A) (A)
                 (A) (A) (A) (A) (A) (A) (A) (A) (A) (A) (A) (A)
                 (A) (A) (A) (A) (A) (A) (A) (A) (A) (A) (A) (A)
                 (A) (A) (A) (A) (A) (A) (A) (A) (A) (A) (A) (A)
                 (A) (A) (A) (A) (A) (A) (A) (A) (A) (A) (A) (A)
                 (A) (A) (A) (A) (A) (A) (A) (A) (A) (A) (A) (A)
                 (A) (A) (A) (A) (A) (A) (A) (A) (A) (A) (A) (A)
                 (A) (A) (A) (A) (A) (A) (A) (A) (A) (A)
 The electronic state is 1-A.
 Alpha  occ. eigenvalues --  -46.81355 -19.24037 -19.21970 -19.19158 -19.17658
 Alpha  occ. eigenvalues --  -19.17411 -19.17296 -19.16436 -14.39437 -14.36960
 Alpha  occ. eigenvalues --  -14.36661 -14.36636 -10.37084 -10.35359 -10.31717
 Alpha  occ. eigenvalues --  -10.31044 -10.30470 -10.30137 -10.27983 -10.27807
 Alpha  occ. eigenvalues --  -10.27586 -10.27580 -10.26990 -10.26819 -10.26663
 Alpha  occ. eigenvalues --  -10.26283 -10.26095 -10.26028 -10.25944 -10.25676
 Alpha  occ. eigenvalues --  -10.25668 -10.25248 -10.24740 -10.24600 -10.24541
 Alpha  occ. eigenvalues --  -10.24187 -10.24037 -10.23968 -10.23964 -10.23747
 Alpha  occ. eigenvalues --  -10.23682 -10.23544 -10.23353 -10.23281 -10.23148
 Alpha  occ. eigenvalues --  -10.23143 -10.22938 -10.22925 -10.22774 -10.22689
 Alpha  occ. eigenvalues --  -10.22554 -10.22500 -10.22245 -10.22146 -10.21939
 Alpha  occ. eigenvalues --  -10.21655 -10.21589 -10.21580 -10.21141 -10.21078
 Alpha  occ. eigenvalues --  -10.20972 -10.20845 -10.20755 -10.20596 -10.19036
 Alpha  occ. eigenvalues --  -10.17693  -3.09928  -1.84856  -1.84417  -1.84328
 Alpha  occ. eigenvalues --   -1.17066  -1.12814  -1.11532  -1.08917  -1.06680
 Alpha  occ. eigenvalues --   -1.03872  -1.01472  -0.99652  -0.98744  -0.98194
 Alpha  occ. eigenvalues --   -0.97297  -0.88169  -0.87092  -0.85862  -0.85410
 Alpha  occ. eigenvalues --   -0.84461  -0.84359  -0.84237  -0.83572  -0.83530
 Alpha  occ. eigenvalues --   -0.83392  -0.83011  -0.81236  -0.80839  -0.79330
 Alpha  occ. eigenvalues --   -0.78852  -0.78465  -0.77435  -0.77377  -0.76704
 Alpha  occ. eigenvalues --   -0.75726  -0.75092  -0.73454  -0.72808  -0.71820
 Alpha  occ. eigenvalues --   -0.71646  -0.71525  -0.70394  -0.70278  -0.69899
 Alpha  occ. eigenvalues --   -0.69474  -0.68766  -0.68269  -0.66888  -0.65967
 Alpha  occ. eigenvalues --   -0.65059  -0.64383  -0.63817  -0.62167  -0.62085
 Alpha  occ. eigenvalues --   -0.61201  -0.60675  -0.59673  -0.59387  -0.59002
 Alpha  occ. eigenvalues --   -0.58635  -0.58387  -0.57726  -0.57551  -0.56632
 Alpha  occ. eigenvalues --   -0.56591  -0.56140  -0.55588  -0.54875  -0.54389
 Alpha  occ. eigenvalues --   -0.53557  -0.53135  -0.52948  -0.52905  -0.52554
 Alpha  occ. eigenvalues --   -0.52016  -0.51472  -0.51331  -0.51135  -0.50840
 Alpha  occ. eigenvalues --   -0.50798  -0.50340  -0.49784  -0.49371  -0.49146
 Alpha  occ. eigenvalues --   -0.48922  -0.48289  -0.48200  -0.48045  -0.47879
 Alpha  occ. eigenvalues --   -0.47793  -0.47537  -0.47340  -0.47143  -0.47124
 Alpha  occ. eigenvalues --   -0.46571  -0.46547  -0.46219  -0.46074  -0.45615
 Alpha  occ. eigenvalues --   -0.45307  -0.45233  -0.45070  -0.44833  -0.44695
 Alpha  occ. eigenvalues --   -0.44666  -0.44599  -0.44443  -0.44336  -0.43956
 Alpha  occ. eigenvalues --   -0.43745  -0.43539  -0.43333  -0.43247  -0.43000
 Alpha  occ. eigenvalues --   -0.42663  -0.42410  -0.42305  -0.42187  -0.42027
 Alpha  occ. eigenvalues --   -0.41465  -0.41256  -0.41118  -0.40993  -0.40829
 Alpha  occ. eigenvalues --   -0.40753  -0.40626  -0.40489  -0.39967  -0.39636
 Alpha  occ. eigenvalues --   -0.39570  -0.39522  -0.39222  -0.38974  -0.38875
 Alpha  occ. eigenvalues --   -0.38617  -0.38546  -0.38358  -0.38097  -0.37975
 Alpha  occ. eigenvalues --   -0.37801  -0.37708  -0.37418  -0.37236  -0.37074
 Alpha  occ. eigenvalues --   -0.36638  -0.36547  -0.36256  -0.35959  -0.35634
 Alpha  occ. eigenvalues --   -0.35441  -0.35403  -0.35075  -0.34847  -0.34577
 Alpha  occ. eigenvalues --   -0.34473  -0.34127  -0.33937  -0.33697  -0.33423
 Alpha  occ. eigenvalues --   -0.32926  -0.32386  -0.32307  -0.31958  -0.31480
 Alpha  occ. eigenvalues --   -0.31176  -0.30814  -0.30433  -0.30108  -0.29474
 Alpha  occ. eigenvalues --   -0.29361  -0.28116  -0.27700  -0.27457  -0.27328
 Alpha  occ. eigenvalues --   -0.27112  -0.26520  -0.23127  -0.21718
 Alpha virt. eigenvalues --   -0.08825  -0.06228  -0.02342  -0.00201   0.00262
 Alpha virt. eigenvalues --    0.00803   0.01480   0.03108   0.03574   0.04553
 Alpha virt. eigenvalues --    0.05199   0.05679   0.07112   0.08593   0.09425
 Alpha virt. eigenvalues --    0.09482   0.09819   0.09881   0.10299   0.10331
 Alpha virt. eigenvalues --    0.10467   0.11078   0.11155   0.11872   0.12003
 Alpha virt. eigenvalues --    0.12242   0.12351   0.12442   0.12617   0.12710
 Alpha virt. eigenvalues --    0.12993   0.13223   0.13453   0.13523   0.13665
 Alpha virt. eigenvalues --    0.13827   0.14068   0.14121   0.14265   0.14483
 Alpha virt. eigenvalues --    0.14715   0.14873   0.14935   0.15050   0.15362
 Alpha virt. eigenvalues --    0.15559   0.15736   0.15985   0.16005   0.16182
 Alpha virt. eigenvalues --    0.16412   0.16595   0.16742   0.16865   0.17134
 Alpha virt. eigenvalues --    0.17332   0.17406   0.17587   0.17611   0.18143
 Alpha virt. eigenvalues --    0.18229   0.18304   0.18454   0.18671   0.18804
 Alpha virt. eigenvalues --    0.18854   0.19210   0.19307   0.19430   0.19742
 Alpha virt. eigenvalues --    0.20102   0.20124   0.20543   0.20610   0.20804
 Alpha virt. eigenvalues --    0.20895   0.21261   0.21409   0.21649   0.21731
 Alpha virt. eigenvalues --    0.22093   0.22139   0.22241   0.22315   0.22492
 Alpha virt. eigenvalues --    0.22897   0.23180   0.23351   0.23477   0.23610
 Alpha virt. eigenvalues --    0.23669   0.23899   0.24088   0.24181   0.24406
 Alpha virt. eigenvalues --    0.24690   0.24994   0.25130   0.25594   0.25807
 Alpha virt. eigenvalues --    0.26077   0.26236   0.26422   0.26691   0.26850
 Alpha virt. eigenvalues --    0.27036   0.27157   0.27464   0.27689   0.27860
 Alpha virt. eigenvalues --    0.27998   0.28197   0.28352   0.28599   0.28898
 Alpha virt. eigenvalues --    0.29344   0.29804   0.30048   0.30098   0.30287
 Alpha virt. eigenvalues --    0.30873   0.31441   0.31544   0.31854   0.32289
 Alpha virt. eigenvalues --    0.32471   0.33253   0.33442   0.33742   0.33965
 Alpha virt. eigenvalues --    0.34279   0.34489   0.34613   0.35244   0.35517
 Alpha virt. eigenvalues --    0.36174   0.37117   0.37295   0.37345   0.38237
 Alpha virt. eigenvalues --    0.38282   0.39000   0.39071   0.39666   0.40052
 Alpha virt. eigenvalues --    0.40895   0.41321   0.41624   0.42577   0.43080
 Alpha virt. eigenvalues --    0.44041   0.44497   0.45111   0.45933   0.46362
 Alpha virt. eigenvalues --    0.47665   0.48196   0.48588   0.48804   0.49339
 Alpha virt. eigenvalues --    0.49680   0.49822   0.50435   0.50757   0.51146
 Alpha virt. eigenvalues --    0.51530   0.51779   0.52198   0.52314   0.52452
 Alpha virt. eigenvalues --    0.52683   0.53136   0.53231   0.53546   0.53899
 Alpha virt. eigenvalues --    0.54116   0.54377   0.54797   0.54880   0.55042
 Alpha virt. eigenvalues --    0.55291   0.55375   0.55467   0.55587   0.55767
 Alpha virt. eigenvalues --    0.55884   0.56030   0.56437   0.56838   0.57106
 Alpha virt. eigenvalues --    0.57373   0.57755   0.57862   0.57952   0.58055
 Alpha virt. eigenvalues --    0.58337   0.58497   0.58852   0.59078   0.59432
 Alpha virt. eigenvalues --    0.59921   0.60065   0.60633   0.60761   0.60899
 Alpha virt. eigenvalues --    0.61051   0.61231   0.61490   0.61590   0.62029
 Alpha virt. eigenvalues --    0.62138   0.62321   0.62828   0.63024   0.63152
 Alpha virt. eigenvalues --    0.63347   0.63523   0.63721   0.63998   0.64059
 Alpha virt. eigenvalues --    0.64286   0.65026   0.65211   0.65480   0.65818
 Alpha virt. eigenvalues --    0.66061   0.66221   0.66775   0.66934   0.67370
 Alpha virt. eigenvalues --    0.67502   0.67844   0.67861   0.67991   0.68328
 Alpha virt. eigenvalues --    0.68612   0.68975   0.69016   0.69575   0.69584
 Alpha virt. eigenvalues --    0.69870   0.70775   0.71101   0.71169   0.71238
 Alpha virt. eigenvalues --    0.71490   0.71723   0.71921   0.72453   0.72928
 Alpha virt. eigenvalues --    0.73099   0.73357   0.73507   0.74193   0.74374
 Alpha virt. eigenvalues --    0.74541   0.75040   0.75279   0.75391   0.75514
 Alpha virt. eigenvalues --    0.75815   0.75913   0.76337   0.76570   0.76837
 Alpha virt. eigenvalues --    0.77101   0.77311   0.77792   0.77830   0.78194
 Alpha virt. eigenvalues --    0.78349   0.78439   0.78666   0.78754   0.78879
 Alpha virt. eigenvalues --    0.78918   0.79033   0.79409   0.79515   0.79870
 Alpha virt. eigenvalues --    0.79996   0.80496   0.80624   0.81107   0.81298
 Alpha virt. eigenvalues --    0.81412   0.81508   0.82168   0.82284   0.82449
 Alpha virt. eigenvalues --    0.82520   0.82811   0.82928   0.83221   0.83306
 Alpha virt. eigenvalues --    0.83431   0.83676   0.83833   0.84202   0.84365
 Alpha virt. eigenvalues --    0.84475   0.84739   0.84811   0.85047   0.85249
 Alpha virt. eigenvalues --    0.85381   0.85740   0.86151   0.86232   0.86555
 Alpha virt. eigenvalues --    0.86571   0.86872   0.87316   0.87381   0.87538
 Alpha virt. eigenvalues --    0.87672   0.87825   0.87979   0.88127   0.88620
 Alpha virt. eigenvalues --    0.88873   0.89009   0.89165   0.89302   0.89418
 Alpha virt. eigenvalues --    0.89512   0.89662   0.89784   0.90251   0.90480
 Alpha virt. eigenvalues --    0.90559   0.90749   0.90908   0.90976   0.91328
 Alpha virt. eigenvalues --    0.91452   0.91669   0.91779   0.91875   0.91957
 Alpha virt. eigenvalues --    0.92310   0.92813   0.92938   0.93284   0.93466
 Alpha virt. eigenvalues --    0.93721   0.94085   0.94449   0.94535   0.94740
 Alpha virt. eigenvalues --    0.94900   0.95166   0.95411   0.95630   0.95854
 Alpha virt. eigenvalues --    0.96088   0.96331   0.96450   0.96808   0.96836
 Alpha virt. eigenvalues --    0.97134   0.97574   0.97772   0.97900   0.98023
 Alpha virt. eigenvalues --    0.98202   0.98348   0.98369   0.98906   0.98933
 Alpha virt. eigenvalues --    0.99290   0.99627   0.99764   0.99957   1.00054
 Alpha virt. eigenvalues --    1.00229   1.00449   1.00650   1.01298   1.01585
 Alpha virt. eigenvalues --    1.01658   1.01805   1.02121   1.02689   1.02837
 Alpha virt. eigenvalues --    1.02931   1.03269   1.03648   1.03896   1.04365
 Alpha virt. eigenvalues --    1.04535   1.04781   1.05080   1.05789   1.06155
 Alpha virt. eigenvalues --    1.07238   1.07299   1.07771   1.07886   1.08970
 Alpha virt. eigenvalues --    1.09234   1.09635   1.10128   1.10440   1.10991
 Alpha virt. eigenvalues --    1.11088   1.11743   1.12721   1.12960   1.13444
 Alpha virt. eigenvalues --    1.13754   1.13939   1.14585   1.14745   1.15186
 Alpha virt. eigenvalues --    1.15484   1.15853   1.16908   1.17308   1.18941
 Alpha virt. eigenvalues --    1.19498   1.19865   1.20332   1.20521   1.21185
 Alpha virt. eigenvalues --    1.21615   1.21938   1.22288   1.23162   1.23428
 Alpha virt. eigenvalues --    1.24068   1.24278   1.25099   1.25524   1.25896
 Alpha virt. eigenvalues --    1.26763   1.27027   1.27624   1.27990   1.28326
 Alpha virt. eigenvalues --    1.29371   1.29853   1.30430   1.30702   1.31469
 Alpha virt. eigenvalues --    1.31880   1.32010   1.32215   1.33518   1.33668
 Alpha virt. eigenvalues --    1.34447   1.34604   1.34881   1.35184   1.35564
 Alpha virt. eigenvalues --    1.35887   1.36324   1.36619   1.37225   1.37669
 Alpha virt. eigenvalues --    1.38297   1.38418   1.38774   1.39729   1.39877
 Alpha virt. eigenvalues --    1.40071   1.40351   1.41062   1.41161   1.41852
 Alpha virt. eigenvalues --    1.42606   1.42986   1.43518   1.44520   1.45103
 Alpha virt. eigenvalues --    1.45281   1.46220   1.46704   1.46849   1.47269
 Alpha virt. eigenvalues --    1.47593   1.48193   1.48594   1.49170   1.49313
 Alpha virt. eigenvalues --    1.49634   1.49764   1.51358   1.51460   1.51608
 Alpha virt. eigenvalues --    1.51905   1.52396   1.52823   1.52899   1.53187
 Alpha virt. eigenvalues --    1.53376   1.53821   1.53905   1.54155   1.54978
 Alpha virt. eigenvalues --    1.55954   1.56264   1.56578   1.56660   1.57402
 Alpha virt. eigenvalues --    1.57921   1.58499   1.58608   1.58928   1.59676
 Alpha virt. eigenvalues --    1.60159   1.60393   1.60928   1.61371   1.61423
 Alpha virt. eigenvalues --    1.62311   1.62378   1.62764   1.63408   1.63537
 Alpha virt. eigenvalues --    1.64008   1.64057   1.64371   1.64843   1.66083
 Alpha virt. eigenvalues --    1.66155   1.66383   1.66888   1.67105   1.68009
 Alpha virt. eigenvalues --    1.68422   1.68904   1.68954   1.69114   1.69322
 Alpha virt. eigenvalues --    1.70426   1.70768   1.70811   1.71238   1.71495
 Alpha virt. eigenvalues --    1.72112   1.72832   1.73097   1.73422   1.73783
 Alpha virt. eigenvalues --    1.74323   1.74638   1.75108   1.75198   1.75860
 Alpha virt. eigenvalues --    1.76055   1.76238   1.76445   1.77088   1.77119
 Alpha virt. eigenvalues --    1.77580   1.77748   1.78289   1.78670   1.79160
 Alpha virt. eigenvalues --    1.79344   1.79442   1.79725   1.79806   1.80207
 Alpha virt. eigenvalues --    1.80650   1.81191   1.81549   1.81890   1.82007
 Alpha virt. eigenvalues --    1.82136   1.82343   1.82647   1.82931   1.83187
 Alpha virt. eigenvalues --    1.83403   1.83675   1.83844   1.84141   1.84282
 Alpha virt. eigenvalues --    1.84909   1.84991   1.85154   1.85374   1.85617
 Alpha virt. eigenvalues --    1.85801   1.85979   1.86233   1.86318   1.86612
 Alpha virt. eigenvalues --    1.87146   1.87231   1.87589   1.87907   1.88170
 Alpha virt. eigenvalues --    1.88337   1.88403   1.89146   1.89372   1.89509
 Alpha virt. eigenvalues --    1.89878   1.90070   1.90409   1.90894   1.90944
 Alpha virt. eigenvalues --    1.91217   1.91371   1.91444   1.91747   1.91917
 Alpha virt. eigenvalues --    1.92211   1.92222   1.92467   1.92788   1.93325
 Alpha virt. eigenvalues --    1.93510   1.93717   1.93857   1.94780   1.95368
 Alpha virt. eigenvalues --    1.95473   1.95545   1.95657   1.96085   1.96278
 Alpha virt. eigenvalues --    1.96433   1.96897   1.97387   1.97574   1.97971
 Alpha virt. eigenvalues --    1.98259   1.98675   1.98904   1.99357   1.99584
 Alpha virt. eigenvalues --    2.00037   2.00505   2.00659   2.00932   2.01253
 Alpha virt. eigenvalues --    2.01926   2.02094   2.02394   2.02486   2.02596
 Alpha virt. eigenvalues --    2.03251   2.03445   2.04084   2.04311   2.04543
 Alpha virt. eigenvalues --    2.04856   2.04969   2.05048   2.05770   2.06200
 Alpha virt. eigenvalues --    2.06242   2.06373   2.06571   2.06926   2.07110
 Alpha virt. eigenvalues --    2.07361   2.07883   2.08011   2.08192   2.08645
 Alpha virt. eigenvalues --    2.09148   2.09241   2.09273   2.09358   2.09843
 Alpha virt. eigenvalues --    2.10169   2.10591   2.10862   2.11123   2.11528
 Alpha virt. eigenvalues --    2.11865   2.12280   2.12556   2.12879   2.13112
 Alpha virt. eigenvalues --    2.13389   2.13889   2.14027   2.14367   2.14979
 Alpha virt. eigenvalues --    2.15447   2.15624   2.16083   2.16389   2.16652
 Alpha virt. eigenvalues --    2.16853   2.17227   2.17686   2.18157   2.18383
 Alpha virt. eigenvalues --    2.18831   2.18937   2.19372   2.19568   2.20274
 Alpha virt. eigenvalues --    2.20984   2.21166   2.21589   2.21873   2.22208
 Alpha virt. eigenvalues --    2.22360   2.22698   2.23082   2.23439   2.23475
 Alpha virt. eigenvalues --    2.23793   2.24240   2.24671   2.24919   2.24978
 Alpha virt. eigenvalues --    2.25627   2.25700   2.26104   2.26441   2.26734
 Alpha virt. eigenvalues --    2.27218   2.27352   2.27441   2.28022   2.28530
 Alpha virt. eigenvalues --    2.28705   2.29030   2.29801   2.29919   2.30157
 Alpha virt. eigenvalues --    2.30529   2.30629   2.30802   2.30988   2.31819
 Alpha virt. eigenvalues --    2.32259   2.32369   2.32933   2.33158   2.33372
 Alpha virt. eigenvalues --    2.33462   2.33688   2.33886   2.34339   2.34793
 Alpha virt. eigenvalues --    2.35708   2.35840   2.36363   2.36599   2.36707
 Alpha virt. eigenvalues --    2.36977   2.37273   2.37378   2.37706   2.37796
 Alpha virt. eigenvalues --    2.37827   2.38023   2.38759   2.39011   2.39317
 Alpha virt. eigenvalues --    2.39952   2.40273   2.40398   2.40588   2.41140
 Alpha virt. eigenvalues --    2.41299   2.41397   2.42037   2.42279   2.42379
 Alpha virt. eigenvalues --    2.42825   2.42948   2.43116   2.43143   2.43308
 Alpha virt. eigenvalues --    2.43868   2.44402   2.44509   2.44700   2.45617
 Alpha virt. eigenvalues --    2.45974   2.46312   2.46630   2.46762   2.47036
 Alpha virt. eigenvalues --    2.47684   2.47711   2.47990   2.48545   2.48858
 Alpha virt. eigenvalues --    2.49038   2.49356   2.49937   2.50205   2.51530
 Alpha virt. eigenvalues --    2.51880   2.52060   2.52118   2.52647   2.53176
 Alpha virt. eigenvalues --    2.53319   2.53951   2.54044   2.54173   2.54716
 Alpha virt. eigenvalues --    2.55151   2.56540   2.57052   2.57567   2.57788
 Alpha virt. eigenvalues --    2.57998   2.58260   2.58741   2.59052   2.59131
 Alpha virt. eigenvalues --    2.59953   2.59980   2.60165   2.60541   2.61163
 Alpha virt. eigenvalues --    2.61311   2.61785   2.62146   2.62464   2.62530
 Alpha virt. eigenvalues --    2.62942   2.63702   2.63870   2.63987   2.64225
 Alpha virt. eigenvalues --    2.64652   2.65368   2.65546   2.65658   2.66299
 Alpha virt. eigenvalues --    2.66643   2.66751   2.66814   2.67377   2.67593
 Alpha virt. eigenvalues --    2.68105   2.68483   2.69084   2.69567   2.69840
 Alpha virt. eigenvalues --    2.69948   2.70066   2.70546   2.70618   2.71047
 Alpha virt. eigenvalues --    2.71532   2.72124   2.72199   2.72240   2.72648
 Alpha virt. eigenvalues --    2.73068   2.73306   2.73339   2.73621   2.74236
 Alpha virt. eigenvalues --    2.75307   2.75484   2.75518   2.75753   2.75956
 Alpha virt. eigenvalues --    2.76315   2.76762   2.77255   2.77508   2.77571
 Alpha virt. eigenvalues --    2.77743   2.78027   2.78406   2.78603   2.79089
 Alpha virt. eigenvalues --    2.79149   2.79669   2.80092   2.80431   2.80469
 Alpha virt. eigenvalues --    2.80971   2.81404   2.82074   2.82371   2.82731
 Alpha virt. eigenvalues --    2.83042   2.83061   2.83352   2.83763   2.83803
 Alpha virt. eigenvalues --    2.84472   2.84561   2.84886   2.85266   2.85737
 Alpha virt. eigenvalues --    2.86260   2.86439   2.86848   2.87019   2.87434
 Alpha virt. eigenvalues --    2.87838   2.88086   2.88248   2.88603   2.88961
 Alpha virt. eigenvalues --    2.89857   2.90012   2.90381   2.90685   2.91387
 Alpha virt. eigenvalues --    2.91766   2.92060   2.93003   2.93199   2.93494
 Alpha virt. eigenvalues --    2.94100   2.94566   2.94617   2.95881   2.96447
 Alpha virt. eigenvalues --    2.96551   2.97177   2.97337   2.98111   2.98703
 Alpha virt. eigenvalues --    2.98966   3.00109   3.00155   3.00934   3.01531
 Alpha virt. eigenvalues --    3.01964   3.02629   3.02756   3.03305   3.03788
 Alpha virt. eigenvalues --    3.04585   3.05338   3.05860   3.06124   3.07175
 Alpha virt. eigenvalues --    3.07970   3.09858   3.09991   3.10943   3.11412
 Alpha virt. eigenvalues --    3.11498   3.12686   3.12874   3.13705   3.13987
 Alpha virt. eigenvalues --    3.14142   3.14256   3.14935   3.15162   3.15227
 Alpha virt. eigenvalues --    3.16092   3.16688   3.17838   3.18484   3.19218
 Alpha virt. eigenvalues --    3.19995   3.21096   3.21451   3.21840   3.22134
 Alpha virt. eigenvalues --    3.23754   3.23861   3.24471   3.24883   3.26988
 Alpha virt. eigenvalues --    3.28624   3.28746   3.29806   3.30776   3.31955
 Alpha virt. eigenvalues --    3.32786   3.33297   3.33333   3.33421   3.34741
 Alpha virt. eigenvalues --    3.35093   3.35974   3.36074   3.36919   3.37249
 Alpha virt. eigenvalues --    3.37764   3.38248   3.39626   3.40094   3.40294
 Alpha virt. eigenvalues --    3.40942   3.41537   3.42357   3.43843   3.43960
 Alpha virt. eigenvalues --    3.44517   3.44784   3.44912   3.45150   3.46294
 Alpha virt. eigenvalues --    3.46496   3.47082   3.47634   3.49220   3.49357
 Alpha virt. eigenvalues --    3.51167   3.51716   3.52513   3.52530   3.54853
 Alpha virt. eigenvalues --    3.55514   3.56853   3.57149   3.57604   3.58340
 Alpha virt. eigenvalues --    3.58693   3.62374   3.62378   3.62604   3.62730
 Alpha virt. eigenvalues --    3.63247   3.76461   3.88958   3.93871   4.00595
 Alpha virt. eigenvalues --    4.01696   4.02308   4.02921   4.05256   4.09032
 Alpha virt. eigenvalues --    4.16373   4.16739   4.17087   4.17266   4.18108
 Alpha virt. eigenvalues --    4.20118   4.21316   4.22707   4.22913   4.24645
 Alpha virt. eigenvalues --    4.25447   4.27984   4.28078   4.28625   4.29914
 Alpha virt. eigenvalues --    4.31450   4.33809   4.34084   4.35107   4.35445
 Alpha virt. eigenvalues --    4.36890   4.38052   4.39958   4.41602   4.43010
 Alpha virt. eigenvalues --    4.43910   4.45928   4.46854   4.48209   4.48657
 Alpha virt. eigenvalues --    4.49283   4.50125   4.51288   4.51561   4.52371
 Alpha virt. eigenvalues --    4.53139   4.55886   4.56257   4.57508   4.58197
 Alpha virt. eigenvalues --    4.59213   4.61249   4.63833   4.65768   4.65917
 Alpha virt. eigenvalues --    4.66398   4.68621   4.68679   4.71257   4.72290
 Alpha virt. eigenvalues --    4.74008   4.75889   4.77309   4.79562   4.80305
 Alpha virt. eigenvalues --    4.81765   4.83475   4.85221   4.85606   4.92995
          Condensed to atoms (all electrons):
 Mulliken charges:
               1
     1  Mg   0.837914
     2  C    0.035912
     3  C   -0.172540
     4  C   -0.163445
     5  C   -0.151284
     6  N   -0.640206
     7  C    0.320129
     8  C   -0.179546
     9  C   -0.143755
    10  C    0.352906
    11  C   -0.317351
    12  C   -0.172688
    13  C   -0.243165
    14  C    0.591795
    15  O   -0.496653
    16  O   -0.436815
    17  N   -0.757785
    18  C    0.318077
    19  C    0.080913
    20  C   -0.044590
    21  C    0.318639
    22  C   -0.426055
    23  C    0.252512
    24  O   -0.346192
    25  N   -0.683324
    26  C    0.288527
    27  C    0.042966
    28  C   -0.013916
    29  C    0.310908
    30  C    0.219448
    31  C   -0.226009
    32  C   -0.309330
    33  N   -0.689982
    34  C    0.276766
    35  C    0.054841
    36  C    0.008536
    37  C    0.254607
    38  C   -0.410698
    39  C    0.387020
    40  O   -0.476730
    41  C   -0.304613
    42  C    0.590903
    43  O   -0.385766
    44  O   -0.426130
    45  C   -0.093065
    46  C   -0.037075
    47  C   -0.096794
    48  C    0.110511
    49  C   -0.395945
    50  C   -0.213767
    51  C   -0.181924
    52  C   -0.155651
    53  C   -0.053281
    54  C   -0.304596
    55  C   -0.151602
    56  C   -0.182080
    57  C   -0.173581
    58  C   -0.081484
    59  C   -0.297540
    60  C   -0.150380
    61  C   -0.170959
    62  C   -0.176773
    63  C   -0.028975
    64  C   -0.319364
    65  C   -0.292194
    66  H    0.086815
    67  H    0.148510
    68  H    0.088018
    69  H    0.113361
    70  H    0.113931
    71  H    0.120024
    72  H    0.101813
    73  H    0.137022
    74  H    0.117638
    75  H    0.137071
    76  H    0.125563
    77  H    0.079147
    78  H    0.133737
    79  H    0.129119
    80  H    0.142684
    81  H    0.003420
    82  H    0.082044
    83  H    0.115941
    84  H    0.089108
    85  H    0.124658
    86  H    0.124160
    87  H    0.132638
    88  H    0.153317
    89  H    0.109428
    90  H    0.157122
    91  H    0.123399
    92  H    0.159436
    93  H    0.076082
    94  H    0.162848
    95  H    0.107997
    96  H    0.107762
    97  H    0.109869
    98  H    0.111755
    99  H    0.105331
   100  H    0.094698
   101  H    0.041786
   102  H    0.094437
   103  H    0.081989
   104  H    0.086734
   105  H    0.104138
   106  H    0.098992
   107  H    0.110336
   108  H    0.056940
   109  H    0.088842
   110  H    0.078237
   111  H    0.044075
   112  H    0.085515
   113  H    0.078216
   114  H    0.099499
   115  H    0.112974
   116  H    0.090071
   117  H    0.096786
   118  H    0.104443
   119  H    0.078301
   120  H    0.099641
   121  H    0.085178
   122  H    0.077172
   123  H    0.081514
   124  H    0.080071
   125  H    0.107314
   126  H    0.108734
   127  H    0.083000
   128  H    0.086593
   129  H    0.088994
   130  H    0.120736
   131  H    0.132648
   132  H    0.106186
   133  O   -0.415142
   134  H    0.021351
 Sum of Mulliken charges =   0.00000
 Mulliken charges with hydrogens summed into heavy atoms:
               1
     1  Mg   0.837914
     2  C    0.035912
     3  C   -0.085724
     4  C   -0.014935
     5  C   -0.063266
     6  N   -0.640206
     7  C    0.320129
     8  C   -0.066185
     9  C   -0.029824
    10  C    0.352906
    11  C    0.041508
    12  C    0.082021
    13  C   -0.038455
    14  C    0.591795
    15  O   -0.496653
    16  O   -0.436815
    17  N   -0.757785
    18  C    0.318077
    19  C    0.080913
    20  C   -0.044590
    21  C    0.318639
    22  C   -0.020516
    23  C    0.255932
    24  O   -0.346192
    25  N   -0.683324
    26  C    0.288527
    27  C    0.042966
    28  C   -0.013916
    29  C    0.310908
    30  C    0.240799
    31  C   -0.028024
    32  C    0.028597
    33  N   -0.689982
    34  C    0.276766
    35  C    0.054841
    36  C    0.008536
    37  C    0.254607
    38  C   -0.015315
    39  C    0.387020
    40  O   -0.476730
    41  C   -0.147491
    42  C    0.590903
    43  O   -0.385766
    44  O   -0.426130
    45  C    0.266504
    46  C    0.245760
    47  C   -0.020712
    48  C    0.110511
    49  C   -0.017338
    50  C    0.007857
    51  C    0.018105
    52  C   -0.019428
    53  C    0.028708
    54  C   -0.014732
    55  C    0.015674
    56  C   -0.015000
    57  C   -0.043991
    58  C   -0.003268
    59  C    0.005004
    60  C    0.050849
    61  C    0.006982
    62  C   -0.014424
    63  C    0.052539
    64  C   -0.023245
    65  C   -0.033608
   133  O   -0.415142
 Electronic spatial extent (au):  <R**2>=         147286.1505
 Charge=              0.0000 electrons
 Dipole moment (field-independent basis, Debye):
    X=              4.5910    Y=             -6.2707    Z=              0.6624  Tot=              7.7998
 Quadrupole moment (field-independent basis, Debye-Ang):
   XX=           -397.3419   YY=           -451.0685   ZZ=           -387.6232
   XY=              7.7611   XZ=              7.8549   YZ=            -29.7514
 Traceless Quadrupole moment (field-independent basis, Debye-Ang):
   XX=             14.6693   YY=            -39.0573   ZZ=             24.3880
   XY=              7.7611   XZ=              7.8549   YZ=            -29.7514
 Octapole moment (field-independent basis, Debye-Ang**2):
  XXX=           -260.8139  YYY=           -638.5837  ZZZ=             -8.1887  XYY=            303.8070
  XXY=           -323.3491  XXZ=           -238.0287  XZZ=            -62.0436  YZZ=              7.6959
  YYZ=            -55.4549  XYZ=            134.4311
 Hexadecapole moment (field-independent basis, Debye-Ang**3):
 XXXX=        -166952.9918 YYYY=         -32284.9599 ZZZZ=          -8999.6728 XXXY=          -2078.0916
 XXXZ=            539.7541 YYYX=           2304.4439 YYYZ=          -1173.8199 ZZZX=            302.7703
 ZZZY=           -227.0247 XXYY=         -35450.8256 XXZZ=         -27847.4042 YYZZ=          -7049.3932
 XXYZ=          -1220.8770 YYXZ=            -41.5978 ZZXY=            -87.1490
 N-N= 9.088648850674D+03 E-N=-2.526007613582D+04  KE= 3.014891058377D+03

 Test job not archived.
 1\1\GINC-PEDRO-RYZENSSD\SP\RCAM-B3LYP TD-FC\6-31G(d,p)\C54H68Mg1N4O7\P
 ADAWAN\08-Oct-2019\0\\# td=(NStates=1) iop(3/107=0140000000,3/108=0140
 000000) iop(3/107=0140000000,3/108=0140000000) CAM-B3LYP/6-31G(d,p)\\T
 D\\0,1\Mg,0,-5.6842741586,1.1890189296,0.3750201708\C,0,-5.0383139532,
 -2.0190258673,-0.3357866438\C,0,-3.3687883387,1.1697095125,2.857477185
 9\C,0,-6.2655729796,4.5558836115,0.7356859298\C,0,-8.0461855366,1.1239
 610785,-2.3257266666\N,0,-4.4640434888,-0.2782137445,1.1864588129\C,0,
 -4.2689021106,-1.6078519666,0.7242661451\C,0,-3.1748288846,-2.29582078
 07,1.5346390525\C,0,-2.8639105465,-1.2377044401,2.7932861152\C,0,-3.64
 95817582,-0.0701061632,2.2960802666\C,0,-3.5010622142,-1.9061873113,4.
 0921970791\C,0,-1.9307379171,-2.5845324464,0.6915733434\C,0,-0.8590536
 683,-3.3881539033,1.6007639533\C,0,0.3354494123,-3.9251073828,0.646642
 8254\O,0,0.373791233,-3.526392328,-0.5948394993\O,0,1.1129829805,-4.85
 14602908,1.1821242009\N,0,-4.9239609471,2.6029005268,1.4848151681\C,0,
 -3.9553496222,2.4095589719,2.4755127771\C,0,-3.7008906263,3.6619462771
 ,3.1608350279\C,0,-4.5825340091,4.5886773332,2.5978556698\C,0,-5.31373
 07355,3.9888435609,1.5306582177\C,0,-2.7989285178,3.7779848822,4.30253
 41239\C,0,-4.6234050405,6.0360336376,2.9246679036\O,0,-3.9992224095,6.
 6989347237,3.6052044929\N,0,-6.9884004896,2.6469926318,-0.7173043981\C
 ,0,-6.9619683946,3.947065112,-0.3356917723\C,0,-7.9207172119,4.6378248
 393,-1.3060634154\C,0,-8.4416571985,3.6896180919,-2.0195265051\C,0,-7.
 8688006916,2.3535935335,-1.7272664964\C,0,-8.2345257313,6.018973267,-1
 .2630074353\C,0,-9.4871551939,3.7511060489,-3.1407766263\C,0,-8.826871
 6679,3.979239287,-4.5445877055\N,0,-6.414717239,-0.0589110713,-1.08406
 94273\C,0,-7.2849621029,-0.0465855642,-2.1678327059\C,0,-7.4969828149,
 -1.2700421569,-2.8032933539\C,0,-6.5999654802,-2.2041241857,-2.1824974
 596\C,0,-6.0004979733,-1.3883528648,-1.055773442\C,0,-8.3420695817,-1.
 6995797466,-3.9158525047\C,0,-6.0893025574,-3.604929599,-1.960851479\O
 ,0,-6.4151547561,-4.5761925894,-2.6978500307\C,0,-5.0331235659,-3.5085
 12618,-0.8679734181\C,0,-5.2814152691,-4.5977649781,0.2230394549\O,0,-
 5.7074349261,-4.4195678902,1.2451816385\O,0,-5.1009600592,-5.792203104
 4,-0.4172859\C,0,-5.4529986491,-6.9272263137,0.3026878036\C,0,2.424379
 1195,-5.116287889,0.4568936707\C,0,3.3846917793,-4.1215136507,0.912332
 5191\C,0,4.1571648202,-3.2674165626,0.1287252475\C,0,3.6540703043,-3.0
 341766061,-1.2880964784\C,0,5.1874629523,-2.337668035,0.7006819191\C,0
 ,6.5301386186,-2.6867736304,0.1441247384\C,0,7.7328424109,-1.984670112
 8,0.8099748321\C,0,9.0414327518,-2.0589718792,-0.0849952127\C,0,9.6986
 569458,-3.4002099235,0.064219547\C,0,9.9741328489,-0.8530159225,0.4239
 603594\C,0,11.3162547828,-0.8369564907,-0.3259279034\C,0,12.3358912097
 ,0.1871479053,0.272638052\C,0,13.6132807222,0.3942291098,-0.5983495922
 \C,0,14.422360409,-0.8102417542,-0.2760642916\C,0,14.181638102,1.81813
 65859,-0.2531929617\C,0,15.415810862,2.0590378391,-1.058602968\C,0,15.
 8877583955,3.5154040504,-0.7187729703\C,0,17.1203664313,3.9246613816,-
 1.3991809659\C,0,17.1441934014,4.1025858213,-2.8820905291\C,0,17.74947
 8367,5.2035884848,-0.7042713841\H,0,-2.7087863845,1.2583927029,3.71704
 93161\H,0,-6.3253834212,5.6700932115,0.5979795607\H,0,-8.641219321,1.1
 751517767,-3.1994753284\H,0,-3.5240394691,-3.302103327,2.034569199\H,0
 ,-1.7516662526,-1.1143590441,2.779080074\H,0,-2.8333826635,-2.65524210
 51,4.5346134072\H,0,-3.5680834084,-1.1343055483,4.9571318491\H,0,-4.51
 60232781,-2.3132292409,3.8167849011\H,0,-2.1044176074,-3.4906821132,-0
 .0108788225\H,0,-1.3794686466,-1.8086494923,0.1051813594\H,0,-0.440238
 4139,-2.6771376861,2.3740519463\H,0,-1.7389033689,-4.2243492712,2.2357
 02607\H,0,-1.7589845506,3.5952942161,4.170519433\H,0,-2.520289683,4.87
 47771168,4.7598816511\H,0,-3.0660065332,3.2510883029,5.145241501\H,0,-
 5.3418980491,6.6375917417,2.0803401498\H,0,-10.205324515,2.7688840403,
 -3.2512762822\H,0,-10.140041487,4.3917567102,-2.9328862812\H,0,-9.3353
 692978,3.7100489049,-5.5289992105\H,0,-8.3480687729,4.817163657,-4.680
 8377656\H,0,-8.2196322381,3.2913834522,-4.6335074654\H,0,-8.1107776594
 ,-1.2385671144,-4.8803980088\H,0,-8.4670263305,-2.799026963,-4.1645057
 945\H,0,-9.455048754,-1.4209487295,-3.7812224073\H,0,-3.9100927853,-3.
 5934651695,-1.3814730774\H,0,2.6716451083,-6.2747247656,0.525350923\H,
 0,2.1295962862,-5.1184703734,-0.6087363087\H,0,3.9283688193,-3.9921693
 392,1.8573340975\H,0,2.5755950114,-3.0222537803,-1.4408667368\H,0,3.69
 10564436,-1.994584159,-1.571775395\H,0,4.3771702244,-3.5316750238,-2.0
 326247198\H,0,5.0171055796,-1.3530208467,0.1482652176\H,0,5.2506774261
 ,-2.2923535526,1.7373176181\H,0,6.6624654665,-3.7477390734,0.363315653
 3\H,0,6.5853473742,-2.6476369797,-1.0111708033\H,0,7.4407948811,-0.737
 4102953,0.9012088742\H,0,8.2146603762,-2.2324414926,1.8350309755\H,0,8
 .6473406337,-1.953433384,-1.1623944581\H,0,9.1018523506,-4.2380926692,
 -0.456288099\H,0,10.6047635058,-3.6744107958,-0.5685144333\H,0,9.81653
 84014,-3.7924149701,1.1298939524\H,0,9.4783088918,0.0964280532,0.36032
 52069\H,0,10.2698259412,-0.9485531746,1.656296567\H,0,11.9602379549,-1
 .7481221339,-0.5384931571\H,0,11.2884447847,-0.5477964151,-1.442375081
 2\H,0,11.7194019583,1.2157546473,0.1867414637\H,0,12.5038411428,0.0611
 674,1.3376729424\H,0,13.1475654988,0.2638211249,-1.5730135062\H,0,14.6
 208923164,-0.9533883561,0.7507401715\H,0,14.0875691434,-1.6398471636,-
 0.5565519093\H,0,15.3397138279,-0.695872915,-0.8361260156\H,0,13.33970
 32159,2.5610644056,-0.3486447418\H,0,14.4557631885,1.587735188,0.74792
 36197\H,0,16.2611448416,1.2779532568,-0.7089287079\H,0,15.3572305186,2
 .1647647279,-2.1447980107\H,0,15.0825797201,4.1326864763,-1.1299042704
 \H,0,15.8941190458,3.7204180012,0.4453869975\H,0,17.7730771245,3.08528
 20367,-1.0169060785\H,0,16.553542491,5.0679940783,-3.2453488138\H,0,18
 .0570680967,4.2625126445,-3.5596533989\H,0,16.5958042657,3.3416990811,
 -3.3264331965\H,0,17.8781656906,4.9334039934,0.437272893\H,0,18.792516
 8625,5.4219684233,-1.2282149626\H,0,17.0290754773,6.1267370838,-0.7975
 681089\H,0,-4.9001679014,-7.751836283,-0.2483991559\H,0,-6.5276132526,
 -7.1237417556,0.3024500883\H,0,-4.9486470821,-6.9393138076,1.341517020
 1\O,0,-7.8552284181,6.9303830697,-0.5457380022\H,0,-9.1187752613,6.428
 0802237,-2.0572041879\\Version=ES64L-G09RevD.01\State=1-A\HF=-3043.351
 1522\RMSD=6.060e-09\PG=C01 [X(C54H68Mg1N4O7)]\\@


 REALITY IS FOR PEOPLE WHO CAN'T FACE SCIENCE FICTION.
 Job cpu time:       0 days  6 hours 18 minutes  7.1 seconds.
 File lengths (MBytes):  RWF=   2102 Int=      0 D2E=      0 Chk=    163 Scr=      1
 Normal termination of Gaussian 09 at Tue Oct  8 07:55:54 2019.
