 Entering Gaussian System, Link 0=g16
 Input=Geometria-148-.com
 Output=Geometria-148-.log
 Initial command:
 /usr/local/g09/l1.exe "/home/padawan/israel-mol/chlorophyll-b/spectra/emi/Gau-89727.inp" -scrdir="/home/padawan/israel-mol/chlorophyll-b/spectra/emi/"
 Entering Link 1 = /usr/local/g09/l1.exe PID=     89729.
  
 Copyright (c) 1988,1990,1992,1993,1995,1998,2003,2009,2013,
            Gaussian, Inc.  All Rights Reserved.
  
 This is part of the Gaussian(R) 09 program.  It is based on
 the Gaussian(R) 03 system (copyright 2003, Gaussian, Inc.),
 the Gaussian(R) 98 system (copyright 1998, Gaussian, Inc.),
 the Gaussian(R) 94 system (copyright 1995, Gaussian, Inc.),
 the Gaussian 92(TM) system (copyright 1992, Gaussian, Inc.),
 the Gaussian 90(TM) system (copyright 1990, Gaussian, Inc.),
 the Gaussian 88(TM) system (copyright 1988, Gaussian, Inc.),
 the Gaussian 86(TM) system (copyright 1986, Carnegie Mellon
 University), and the Gaussian 82(TM) system (copyright 1983,
 Carnegie Mellon University). Gaussian is a federally registered
 trademark of Gaussian, Inc.
  
 This software contains proprietary and confidential information,
 including trade secrets, belonging to Gaussian, Inc.
  
 This software is provided under written license and may be
 used, copied, transmitted, or stored only in accord with that
 written license.
  
 The following legend is applicable only to US Government
 contracts under FAR:
  
                    RESTRICTED RIGHTS LEGEND
  
 Use, reproduction and disclosure by the US Government is
 subject to restrictions as set forth in subparagraphs (a)
 and (c) of the Commercial Computer Software - Restricted
 Rights clause in FAR 52.227-19.
  
 Gaussian, Inc.
 340 Quinnipiac St., Bldg. 40, Wallingford CT 06492
  
  
 ---------------------------------------------------------------
 Warning -- This program may not be used in any manner that
 competes with the business of Gaussian, Inc. or will provide
 assistance to any competitor of Gaussian, Inc.  The licensee
 of this program is prohibited from giving any competitor of
 Gaussian, Inc. access to this program.  By using this program,
 the user acknowledges that Gaussian, Inc. is engaged in the
 business of creating and licensing software in the field of
 computational chemistry and represents and warrants to the
 licensee that it is not a competitor of Gaussian, Inc. and that
 it will not use this program in any manner prohibited above.
 ---------------------------------------------------------------
  

 Cite this work as:
 Gaussian 09, Revision D.01,
 M. J. Frisch, G. W. Trucks, H. B. Schlegel, G. E. Scuseria, 
 M. A. Robb, J. R. Cheeseman, G. Scalmani, V. Barone, B. Mennucci, 
 G. A. Petersson, H. Nakatsuji, M. Caricato, X. Li, H. P. Hratchian, 
 A. F. Izmaylov, J. Bloino, G. Zheng, J. L. Sonnenberg, M. Hada, 
 M. Ehara, K. Toyota, R. Fukuda, J. Hasegawa, M. Ishida, T. Nakajima, 
 Y. Honda, O. Kitao, H. Nakai, T. Vreven, J. A. Montgomery, Jr., 
 J. E. Peralta, F. Ogliaro, M. Bearpark, J. J. Heyd, E. Brothers, 
 K. N. Kudin, V. N. Staroverov, T. Keith, R. Kobayashi, J. Normand, 
 K. Raghavachari, A. Rendell, J. C. Burant, S. S. Iyengar, J. Tomasi, 
 M. Cossi, N. Rega, J. M. Millam, M. Klene, J. E. Knox, J. B. Cross, 
 V. Bakken, C. Adamo, J. Jaramillo, R. Gomperts, R. E. Stratmann, 
 O. Yazyev, A. J. Austin, R. Cammi, C. Pomelli, J. W. Ochterski, 
 R. L. Martin, K. Morokuma, V. G. Zakrzewski, G. A. Voth, 
 P. Salvador, J. J. Dannenberg, S. Dapprich, A. D. Daniels, 
 O. Farkas, J. B. Foresman, J. V. Ortiz, J. Cioslowski, 
 and D. J. Fox, Gaussian, Inc., Wallingford CT, 2013.
 
 ******************************************
 Gaussian 09:  ES64L-G09RevD.01 24-Apr-2013
                 4-Oct-2019 
 ******************************************
 %nproc=3
 Will use up to    3 processors via shared memory.
 %Mem=2GB
 ----------------------------------------------------------------------
 # td=(NStates=1) iop(3/107=0140000000,3/108=0140000000) iop(3/107=0140
 000000,3/108=0140000000) CAM-B3LYP/6-31G(d,p)
 ----------------------------------------------------------------------
 1/38=1/1;
 2/12=2,17=6,18=5,40=1/2;
 3/5=1,6=6,7=101,11=9,16=1,25=1,30=1,74=-40,107=140000000,108=140000000/1,2,8,3;
 4//1;
 5/5=2,38=5/2;
 8/6=1,10=2,108=1/1;
 9/41=1,42=1,70=2/14;
 6/7=2,8=2,9=2,10=2/1;
 99/5=1,9=1/99;
 --
 TD
 --
 Symbolic Z-matrix:
 Charge =  0 Multiplicity = 1
 12                   -5.67288   1.21273   0.26897 
 6                    -5.09143  -2.09831  -0.42196 
 6                    -3.48382   1.10468   2.82417 
 6                    -6.12047   4.51824   0.63095 
 6                    -7.9354    1.22062  -2.24725 
 7                    -4.33728  -0.36856   1.00509 
 6                    -4.3031   -1.65094   0.67133 
 6                    -3.23888  -2.4054    1.43959 
 6                    -2.92752  -1.3089    2.60749 
 6                    -3.65163  -0.10728   2.16813 
 6                    -3.41982  -1.85446   4.02271 
 6                    -1.9435   -2.64409   0.56507 
 6                    -0.98541  -3.59279   1.55676 
 6                     0.28118  -3.89934   0.68333 
 8                     0.43393  -3.52623  -0.39327 
 8                     1.01906  -4.74836   1.39116 
 7                    -4.96436   2.59117   1.51118 
 6                    -3.96571   2.36307   2.51517 
 6                    -3.64851   3.67469   3.22892 
 6                    -4.50669   4.56776   2.647 
 6                    -5.17367   3.97482   1.50435 
 6                    -2.77343   3.89226   4.35652 
 6                    -4.54791   5.97948   2.82973 
 8                    -3.8465    6.59918   3.66415 
 7                    -6.80771   2.56842  -0.68447 
 6                    -6.85459   3.88199  -0.36551 
 6                    -7.86554   4.62706  -1.18579 
 6                    -8.37457   3.6839   -2.00197 
 6                    -7.74331   2.41044  -1.67671 
 6                    -8.18913   5.93914  -1.22703 
 6                    -9.36259   3.87888  -3.15345 
 6                    -8.72537   3.97222  -4.57106 
 7                    -6.47523  -0.1675   -1.10037 
 6                    -7.32418  -0.07616  -2.05814 
 6                    -7.53834  -1.40973  -2.78073 
 6                    -6.75446  -2.18265  -2.11647 
 6                    -6.01664  -1.44327  -1.11185 
 6                    -8.45563  -1.65627  -3.92848 
 6                    -6.33616  -3.55224  -2.06865 
 8                    -6.70548  -4.57165  -2.60442 
 6                    -5.01586  -3.52006  -0.94602 
 6                    -5.27699  -4.58873   0.04315 
 8                    -5.71311  -4.48263   1.14842 
 8                    -4.91617  -5.82647  -0.47355 
 6                    -5.26729  -6.90259   0.46898 
 6                     2.32335  -5.02729   0.69645 
 6                     3.32966  -4.11064   1.16901 
 6                     3.87074  -3.23905   0.31501 
 6                     3.61738  -3.08643  -1.2471 
 6                     5.0679   -2.32291   0.73107 
 6                     6.46685  -2.60398   0.19861 
 6                     7.62219  -1.80314   0.6194 
 6                     8.92224  -1.89748  -0.17136 
 6                     9.4798   -3.33203  -0.08975 
 6                     9.9626   -0.79288   0.32683 
 6                     11.19473  -0.8416   -0.38543 
 6                     12.12509   0.29976   0.22341 
 6                     13.47738   0.49572  -0.56599 
 6                     14.44025  -0.60198  -0.42722 
 6                     14.09714   1.88547  -0.19918 
 6                     15.39961   2.20736  -0.93944 
 6                     16.08702   3.5417   -0.65287 
 6                     17.4148   3.91363  -1.36499 
 6                     17.26168   4.01552  -2.99545 
 6                     17.94102   5.08013  -0.67161 
 1                    -2.92261   0.89579   3.72145 
 1                    -6.43106   5.56677   0.50232 
 1                    -8.55798   1.10412  -3.18104 
 1                    -3.57305  -3.26224   1.92344 
 1                    -1.87059  -1.24765   2.6262 
 1                    -2.93075  -2.85425   4.28269 
 1                    -2.92423  -1.11407   4.87962 
 1                    -4.48021  -2.02533   4.12487 
 1                    -2.23151  -3.16652  -0.42107 
 1                    -1.25663  -1.80757   0.24427 
 1                    -0.79767  -3.25339   2.54241 
 1                    -1.52374  -4.72679   1.6337 
 1                    -1.82481   3.36147   4.26449 
 1                    -2.64762   5.06251   4.59702 
 1                    -2.99617   3.27696   5.07879 
 1                    -5.09905   6.69249   2.17609 
 1                    -10.09282   3.04712  -2.96225 
 1                    -10.04476   4.678    -2.83262 
 1                    -9.56538   3.9647   -5.37071 
 1                    -7.96618   4.83479  -4.57318 
 1                    -7.96806   3.22743  -4.73831 
 1                    -8.41319  -0.91521  -4.68128 
 1                    -8.46355  -2.67123  -4.29368 
 1                    -9.4623   -1.36898  -3.61399 
 1                    -4.16865  -3.94008  -1.40953 
 1                     2.49088  -6.10664   1.08811 
 1                     2.037    -5.08356  -0.38772 
 1                     3.44279  -3.9272    2.23716 
 1                     2.53956  -3.28205  -1.37062 
 1                     3.88561  -2.01569  -1.37329 
 1                     4.18671  -3.76962  -1.87522 
 1                     4.55964  -1.48491   0.46341 
 1                     5.23841  -2.25112   1.88865 
 1                     6.76368  -3.63615   0.61245 
 1                     6.37624  -2.64483  -0.91324 
 1                     7.35915  -0.79461   0.47145 
 1                     7.90874  -2.0173    1.53195 
 1                     8.86559  -1.75187  -1.47688 
 1                     8.8399   -4.04624  -0.30566 
 1                     10.44071  -3.5047   -0.40725 
 1                     9.79668  -3.62989   1.00989 
 1                     9.53866   0.24247   0.32034 
 1                     10.16827  -1.19035   1.49642 
 1                     11.7983  -1.82854  -0.25085 
 1                     10.91968  -0.79899  -1.58712 
 1                     11.5749   1.27747   0.15492 
 1                     12.35073   0.31052   1.36256 
 1                     13.10326   0.64725  -1.5827 
 1                     14.87811  -0.69966   0.60112 
 1                     13.78506  -1.54495  -0.57793 
 1                     15.19457  -0.60894  -1.2136 
 1                     13.35128   2.75059  -0.33357 
 1                     14.38868   1.82656   0.90206 
 1                     16.1361   1.47156  -0.79703 
 1                     15.16923   2.30512  -2.19362 
 1                     15.28201   4.29032  -0.94094 
 1                     16.1074   3.65263   0.46947 
 1                     18.08147   3.1      -1.38813 
 1                     16.46862   4.72234  -3.07479 
 1                     18.33969   4.21346  -3.48495 
 1                     16.84928   3.05913  -3.44903 
 1                     18.13417   4.92195   0.39646 
 1                     19.07008   5.19043  -1.19598 
 1                     17.33168   6.09566  -0.9499 
 1                    -5.05367  -7.69648  -0.06123 
 1                    -6.33802  -6.81592   0.77391 
 1                    -4.48434  -6.83845   1.3504 
 8                    -7.62261   6.8417   -0.49329 
 1                    -8.87014   6.18331  -1.94198 
 
 Stoichiometry    C54H68MgN4O7
 Framework group  C1[X(C54H68MgN4O7)]
 Deg. of freedom   396
 Full point group                 C1      NOp   1
 Largest Abelian subgroup         C1      NOp   1
 Largest concise Abelian subgroup C1      NOp   1
                         Standard orientation:                         
 ---------------------------------------------------------------------
 Center     Atomic      Atomic             Coordinates (Angstroms)
 Number     Number       Type             X           Y           Z
 ---------------------------------------------------------------------
      1         12           0       -5.667210    1.239876    0.271841
      2          6           0       -5.102252   -2.072255   -0.427515
      3          6           0       -3.479226    1.114246    2.827166
      4          6           0       -6.098264    4.546646    0.642260
      5          6           0       -7.929162    1.265616   -2.244771
      6          7           0       -4.339712   -0.349999    1.004129
      7          6           0       -4.311899   -1.631663    0.667068
      8          6           0       -3.251634   -2.393442    1.433576
      9          6           0       -2.935007   -1.301535    2.604357
     10          6           0       -3.652991   -0.095163    2.167964
     11          6           0       -3.430329   -1.848264    4.018076
     12          6           0       -1.957299   -2.636375    0.558686
     13          6           0       -1.004179   -3.592435    1.548103
     14          6           0        0.261030   -3.903088    0.674118
     15          8           0        0.415859   -3.527972   -0.401484
     16          8           0        0.994496   -4.757621    1.379891
     17          7           0       -4.952027    2.611530    1.517733
     18          6           0       -3.954731    2.375834    2.521316
     19          6           0       -3.631086    3.683993    3.238512
     20          6           0       -4.484655    4.582857    2.658737
     21          6           0       -5.154377    3.996229    1.514432
     22          6           0       -2.755150    3.894256    4.366830
     23          6           0       -4.518824    5.994293    2.845099
     24          8           0       -3.814477    6.608315    3.681247
     25          7           0       -6.795027    2.603705   -0.678311
     26          6           0       -6.835370    3.916661   -0.355975
     27          6           0       -7.842406    4.668917   -1.174515
     28          6           0       -8.356002    3.730426   -1.993224
     29          6           0       -7.731207    2.452979   -1.671130
     30          6           0       -8.159395    5.982699   -1.212433
     31          6           0       -9.342803    3.933336   -3.144375
     32          6           0       -8.704839    4.027130   -4.561623
     33          7           0       -6.476208   -0.132775   -1.101206
     34          6           0       -7.324490   -0.034700   -2.058896
     35          6           0       -7.545201   -1.365307   -2.784963
     36          6           0       -6.765348   -2.143870   -2.122553
     37          6           0       -6.024024   -1.410794   -1.115889
     38          6           0       -8.463492   -1.604276   -3.933519
     39          6           0       -6.353936   -3.515665   -2.078190
     40          8           0       -6.728270   -4.531820   -2.616655
     41          6           0       -5.033720   -3.493010   -0.955234
     42          6           0       -5.300413   -4.562903    0.031130
     43          8           0       -5.736206   -4.457465    1.136589
     44          8           0       -4.945706   -5.801095   -0.488697
     45          6           0       -5.302412   -6.877873    0.450994
     46          6           0        2.297503   -5.041304    0.684709
     47          6           0        3.308306   -4.130944    1.159821
     48          6           0        3.853926   -3.259884    0.308179
     49          6           0        3.601647   -3.101964   -1.253586
     50          6           0        5.055593   -2.350836    0.726825
     51          6           0        6.453221   -2.637553    0.193898
     52          6           0        7.612483   -1.843619    0.616964
     53          6           0        8.912200   -1.942441   -0.173794
     54          6           0        9.462527   -3.379986   -0.095774
     55          6           0        9.957995   -0.844372    0.327442
     56          6           0       11.190008   -0.897439   -0.384716
     57          6           0       12.125963    0.237657    0.227247
     58          6           0       13.479374    0.428858   -0.561392
     59          6           0       14.436698   -0.674018   -0.425278
     60          6           0       14.106035    1.814532   -0.190884
     61          6           0       15.410252    2.131784   -0.930072
     62          6           0       16.104295    3.461906   -0.639927
     63          6           0       17.434065    3.829002   -1.350839
     64          6           0       17.281783    3.935861   -2.981064
     65          6           0       17.966000    4.991049   -0.654354
     66          1           0       -2.919249    0.900221    3.724004
     67          1           0       -6.403565    5.597053    0.516282
     68          1           0       -8.552129    1.154656   -3.178979
     69          1           0       -3.590208   -3.249836    1.915150
     70          1           0       -1.877787   -1.245643    2.623429
     71          1           0       -2.946336   -2.851165    4.275565
     72          1           0       -2.931194   -1.112586    4.876989
     73          1           0       -4.491580   -2.014068    4.119593
     74          1           0       -2.247733   -3.154808   -0.428853
     75          1           0       -1.266170   -1.802491    0.240168
     76          1           0       -0.814942   -3.256516    2.534659
     77          1           0       -1.548218   -4.723907    1.622019
     78          1           0       -1.809194    3.358952    4.273608
     79          1           0       -2.623519    5.063235    4.610368
     80          1           0       -2.981124    3.278226    5.087474
     81          1           0       -5.066252    6.711744    2.193199
     82          1           0      -10.077239    3.104766   -2.955457
     83          1           0      -10.021015    4.735038   -2.821610
     84          1           0       -9.544717    4.025897   -5.361449
     85          1           0       -7.941326    4.885876   -4.561373
     86          1           0       -7.951240    3.278979   -4.730650
     87          1           0       -8.417178   -0.861509   -4.684391
     88          1           0       -8.476431   -2.618247   -4.301333
     89          1           0       -9.468768   -1.312754   -3.618468
     90          1           0       -4.188534   -3.916079   -1.419662
     91          1           0        2.459531   -6.122487    1.073614
     92          1           0        2.011088   -5.093337   -0.399657
     93          1           0        3.422146   -3.950830    2.228466
     94          1           0        2.522888   -3.291847   -1.377808
     95          1           0        3.875275   -2.032257   -1.376956
     96          1           0        4.167669   -3.786379   -1.883357
     97          1           0        4.551599   -1.509615    0.461225
     98          1           0        5.226225   -2.282892    1.884616
     99          1           0        6.744775   -3.672267    0.605129
    100          1           0        6.362623   -2.675081   -0.918072
    101          1           0        7.354535   -0.833397    0.471567
    102          1           0        7.897770   -2.061566    1.529016
    103          1           0        8.856544   -1.793190   -1.478937
    104          1           0        8.819093   -4.090415   -0.313652
    105          1           0       10.422624   -3.556661   -0.413542
    106          1           0        9.777690   -3.682264    1.003151
    107          1           0        9.539264    0.193110    0.323545
    108          1           0       10.161427   -1.245882    1.496041
    109          1           0       11.788587   -1.887745   -0.252571
    110          1           0       10.915410   -0.850354   -1.586339
    111          1           0       11.580701    1.218292    0.161172
    112          1           0       12.351423    0.244349    1.366455
    113          1           0       13.106227    0.584887   -1.577786
    114          1           0       14.873853   -0.776549    0.602883
    115          1           0       13.776808   -1.613290   -0.578547
    116          1           0       15.191127   -0.682741   -1.211537
    117          1           0       13.364560    2.683730   -0.323186
    118          1           0       14.397052    1.751315    0.910251
    119          1           0       16.143012    1.391930   -0.789419
    120          1           0       15.180618    2.233930   -2.184040
    121          1           0       15.303113    4.215305   -0.926214
    122          1           0       16.125010    3.569842    0.482695
    123          1           0       18.096648    3.012100   -1.375959
    124          1           0       16.492307    4.646860   -3.058727
    125          1           0       18.360872    4.129648   -3.469844
    126          1           0       16.864681    2.982731   -3.437180
    127          1           0       18.158144    4.829154    0.413337
    128          1           0       19.095711    5.097028   -1.178231
    129          1           0       17.361820    6.010348   -0.930142
    130          1           0       -5.092679   -7.671453   -0.081227
    131          1           0       -6.372758   -6.786611    0.755940
    132          1           0       -4.519326   -6.819939    1.332716
    133          8           0       -7.588490    6.880516   -0.476260
    134          1           0       -8.839027    6.232129   -1.926876
 ---------------------------------------------------------------------
 Rotational constants (GHZ):      0.0347437      0.0081365      0.0071993
 Standard basis: 6-31G(d,p) (6D, 7F)
 There are  1334 symmetry adapted cartesian basis functions of A   symmetry.
 There are  1334 symmetry adapted basis functions of A   symmetry.
  1334 basis functions,  2348 primitive gaussians,  1334 cartesian basis functions
   244 alpha electrons      244 beta electrons
       nuclear repulsion energy      9137.1826449873 Hartrees.
 NAtoms=  134 NActive=  134 NUniq=  134 SFac= 1.00D+00 NAtFMM=   60 NAOKFM=T Big=T
 Integral buffers will be    131072 words long.
 Raffenetti 1 integral format.
 Two-electron integral symmetry is turned on.
 One-electron integrals computed using PRISM.
 NBasis=  1334 RedAO= T EigKep=  2.15D-04  NBF=  1334
 NBsUse=  1334 1.00D-06 EigRej= -1.00D+00 NBFU=  1334
 ExpMin= 4.21D-02 ExpMax= 1.17D+04 ExpMxC= 1.76D+03 IAcc=2 IRadAn=         4 AccDes= 0.00D+00
 Harris functional with IExCor=20419 and IRadAn=       4 diagonalized for initial guess.
 HarFok:  IExCor=20419 AccDes= 0.00D+00 IRadAn=         4 IDoV= 1 UseB2=F ITyADJ=14
 ICtDFT=  3500011 ScaDFX=  1.000000  1.000000  1.000000  1.000000
 FoFCou: FMM=F IPFlag=           0 FMFlag=      100000 FMFlg1=        2001
         NFxFlg=           0 DoJE=T BraDBF=F KetDBF=T FulRan=T
         wScrn=  0.000000 ICntrl=     500 IOpCl=  0 I1Cent=   200000004 NGrid=           0
         NMat0=    1 NMatS0=      1 NMatT0=    0 NMatD0=    1 NMtDS0=    0 NMtDT0=    0
 Petite list used in FoFCou.
 Requested convergence on RMS density matrix=1.00D-08 within 128 cycles.
 Requested convergence on MAX density matrix=1.00D-06.
 Requested convergence on             energy=1.00D-06.
 No special actions if energy rises.
 SCF Done:  E(RCAM-B3LYP) =  -3043.46231089     A.U. after   16 cycles
            NFock= 16  Conv=0.47D-08     -V/T= 2.0088
 DoSCS=F DFT=T ScalE2(SS,OS)=  1.000000  1.000000
 ExpMin= 4.21D-02 ExpMax= 1.17D+04 ExpMxC= 1.76D+03 IAcc=3 IRadAn=         5 AccDes= 0.00D+00
 HarFok:  IExCor=  205 AccDes= 0.00D+00 IRadAn=         5 IDoV=-2 UseB2=F ITyADJ=14
 ICtDFT= 12500011 ScaDFX=  1.000000  1.000000  1.000000  1.000000
 Range of M.O.s used for correlation:    71  1334
 NBasis=  1334 NAE=   244 NBE=   244 NFC=    70 NFV=     0
 NROrb=   1264 NOA=   174 NOB=   174 NVA=  1090 NVB=  1090
 Would need an additional       2379600800000 words for in-memory AO integral storage.
 Orbital symmetries:
       Occupied  (A) (A) (A) (A) (A) (A) (A) (A) (A) (A) (A) (A)
                 (A) (A) (A) (A) (A) (A) (A) (A) (A) (A) (A) (A)
                 (A) (A) (A) (A) (A) (A) (A) (A) (A) (A) (A) (A)
                 (A) (A) (A) (A) (A) (A) (A) (A) (A) (A) (A) (A)
                 (A) (A) (A) (A) (A) (A) (A) (A) (A) (A) (A) (A)
                 (A) (A) (A) (A) (A) (A) (A) (A) (A) (A) (A) (A)
                 (A) (A) (A) (A) (A) (A) (A) (A) (A) (A) (A) (A)
                 (A) (A) (A) (A) (A) (A) (A) (A) (A) (A) (A) (A)
                 (A) (A) (A) (A) (A) (A) (A) (A) (A) (A) (A) (A)
                 (A) (A) (A) (A) (A) (A) (A) (A) (A) (A) (A) (A)
                 (A) (A) (A) (A) (A) (A) (A) (A) (A) (A) (A) (A)
                 (A) (A) (A) (A) (A) (A) (A) (A) (A) (A) (A) (A)
                 (A) (A) (A) (A) (A) (A) (A) (A) (A) (A) (A) (A)
                 (A) (A) (A) (A) (A) (A) (A) (A) (A) (A) (A) (A)
                 (A) (A) (A) (A) (A) (A) (A) (A) (A) (A) (A) (A)
                 (A) (A) (A) (A) (A) (A) (A) (A) (A) (A) (A) (A)
                 (A) (A) (A) (A) (A) (A) (A) (A) (A) (A) (A) (A)
                 (A) (A) (A) (A) (A) (A) (A) (A) (A) (A) (A) (A)
                 (A) (A) (A) (A) (A) (A) (A) (A) (A) (A) (A) (A)
                 (A) (A) (A) (A) (A) (A) (A) (A) (A) (A) (A) (A)
                 (A) (A) (A) (A)
       Virtual   (A) (A) (A) (A) (A) (A) (A) (A) (A) (A) (A) (A)
                 (A) (A) (A) (A) (A) (A) (A) (A) (A) (A) (A) (A)
                 (A) (A) (A) (A) (A) (A) (A) (A) (A) (A) (A) (A)
                 (A) (A) (A) (A) (A) (A) (A) (A) (A) (A) (A) (A)
                 (A) (A) (A) (A) (A) (A) (A) (A) (A) (A) (A) (A)
                 (A) (A) (A) (A) (A) (A) (A) (A) (A) (A) (A) (A)
                 (A) (A) (A) (A) (A) (A) (A) (A) (A) (A) (A) (A)
                 (A) (A) (A) (A) (A) (A) (A) (A) (A) (A) (A) (A)
                 (A) (A) (A) (A) (A) (A) (A) (A) (A) (A) (A) (A)
                 (A) (A) (A) (A) (A) (A) (A) (A) (A) (A) (A) (A)
                 (A) (A) (A) (A) (A) (A) (A) (A) (A) (A) (A) (A)
                 (A) (A) (A) (A) (A) (A) (A) (A) (A) (A) (A) (A)
                 (A) (A) (A) (A) (A) (A) (A) (A) (A) (A) (A) (A)
                 (A) (A) (A) (A) (A) (A) (A) (A) (A) (A) (A) (A)
                 (A) (A) (A) (A) (A) (A) (A) (A) (A) (A) (A) (A)
                 (A) (A) (A) (A) (A) (A) (A) (A) (A) (A) (A) (A)
                 (A) (A) (A) (A) (A) (A) (A) (A) (A) (A) (A) (A)
                 (A) (A) (A) (A) (A) (A) (A) (A) (A) (A) (A) (A)
                 (A) (A) (A) (A) (A) (A) (A) (A) (A) (A) (A) (A)
                 (A) (A) (A) (A) (A) (A) (A) (A) (A) (A) (A) (A)
                 (A) (A) (A) (A) (A) (A) (A) (A) (A) (A) (A) (A)
                 (A) (A) (A) (A) (A) (A) (A) (A) (A) (A) (A) (A)
                 (A) (A) (A) (A) (A) (A) (A) (A) (A) (A) (A) (A)
                 (A) (A) (A) (A) (A) (A) (A) (A) (A) (A) (A) (A)
                 (A) (A) (A) (A) (A) (A) (A) (A) (A) (A) (A) (A)
                 (A) (A) (A) (A) (A) (A) (A) (A) (A) (A) (A) (A)
                 (A) (A) (A) (A) (A) (A) (A) (A) (A) (A) (A) (A)
                 (A) (A) (A) (A) (A) (A) (A) (A) (A) (A) (A) (A)
                 (A) (A) (A) (A) (A) (A) (A) (A) (A) (A) (A) (A)
                 (A) (A) (A) (A) (A) (A) (A) (A) (A) (A) (A) (A)
                 (A) (A) (A) (A) (A) (A) (A) (A) (A) (A) (A) (A)
                 (A) (A) (A) (A) (A) (A) (A) (A) (A) (A) (A) (A)
                 (A) (A) (A) (A) (A) (A) (A) (A) (A) (A) (A) (A)
                 (A) (A) (A) (A) (A) (A) (A) (A) (A) (A) (A) (A)
                 (A) (A) (A) (A) (A) (A) (A) (A) (A) (A) (A) (A)
                 (A) (A) (A) (A) (A) (A) (A) (A) (A) (A) (A) (A)
                 (A) (A) (A) (A) (A) (A) (A) (A) (A) (A) (A) (A)
                 (A) (A) (A) (A) (A) (A) (A) (A) (A) (A) (A) (A)
                 (A) (A) (A) (A) (A) (A) (A) (A) (A) (A) (A) (A)
                 (A) (A) (A) (A) (A) (A) (A) (A) (A) (A) (A) (A)
                 (A) (A) (A) (A) (A) (A) (A) (A) (A) (A) (A) (A)
                 (A) (A) (A) (A) (A) (A) (A) (A) (A) (A) (A) (A)
                 (A) (A) (A) (A) (A) (A) (A) (A) (A) (A) (A) (A)
                 (A) (A) (A) (A) (A) (A) (A) (A) (A) (A) (A) (A)
                 (A) (A) (A) (A) (A) (A) (A) (A) (A) (A) (A) (A)
                 (A) (A) (A) (A) (A) (A) (A) (A) (A) (A) (A) (A)
                 (A) (A) (A) (A) (A) (A) (A) (A) (A) (A) (A) (A)
                 (A) (A) (A) (A) (A) (A) (A) (A) (A) (A) (A) (A)
                 (A) (A) (A) (A) (A) (A) (A) (A) (A) (A) (A) (A)
                 (A) (A) (A) (A) (A) (A) (A) (A) (A) (A) (A) (A)
                 (A) (A) (A) (A) (A) (A) (A) (A) (A) (A) (A) (A)
                 (A) (A) (A) (A) (A) (A) (A) (A) (A) (A) (A) (A)
                 (A) (A) (A) (A) (A) (A) (A) (A) (A) (A) (A) (A)
                 (A) (A) (A) (A) (A) (A) (A) (A) (A) (A) (A) (A)
                 (A) (A) (A) (A) (A) (A) (A) (A) (A) (A) (A) (A)
                 (A) (A) (A) (A) (A) (A) (A) (A) (A) (A) (A) (A)
                 (A) (A) (A) (A) (A) (A) (A) (A) (A) (A) (A) (A)
                 (A) (A) (A) (A) (A) (A) (A) (A) (A) (A) (A) (A)
                 (A) (A) (A) (A) (A) (A) (A) (A) (A) (A) (A) (A)
                 (A) (A) (A) (A) (A) (A) (A) (A) (A) (A) (A) (A)
                 (A) (A) (A) (A) (A) (A) (A) (A) (A) (A) (A) (A)
                 (A) (A) (A) (A) (A) (A) (A) (A) (A) (A) (A) (A)
                 (A) (A) (A) (A) (A) (A) (A) (A) (A) (A) (A) (A)
                 (A) (A) (A) (A) (A) (A) (A) (A) (A) (A) (A) (A)
                 (A) (A) (A) (A) (A) (A) (A) (A) (A) (A) (A) (A)
                 (A) (A) (A) (A) (A) (A) (A) (A) (A) (A) (A) (A)
                 (A) (A) (A) (A) (A) (A) (A) (A) (A) (A) (A) (A)
                 (A) (A) (A) (A) (A) (A) (A) (A) (A) (A) (A) (A)
                 (A) (A) (A) (A) (A) (A) (A) (A) (A) (A) (A) (A)
                 (A) (A) (A) (A) (A) (A) (A) (A) (A) (A) (A) (A)
                 (A) (A) (A) (A) (A) (A) (A) (A) (A) (A) (A) (A)
                 (A) (A) (A) (A) (A) (A) (A) (A) (A) (A) (A) (A)
                 (A) (A) (A) (A) (A) (A) (A) (A) (A) (A) (A) (A)
                 (A) (A) (A) (A) (A) (A) (A) (A) (A) (A) (A) (A)
                 (A) (A) (A) (A) (A) (A) (A) (A) (A) (A) (A) (A)
                 (A) (A) (A) (A) (A) (A) (A) (A) (A) (A) (A) (A)
                 (A) (A) (A) (A) (A) (A) (A) (A) (A) (A) (A) (A)
                 (A) (A) (A) (A) (A) (A) (A) (A) (A) (A) (A) (A)
                 (A) (A) (A) (A) (A) (A) (A) (A) (A) (A) (A) (A)
                 (A) (A) (A) (A) (A) (A) (A) (A) (A) (A) (A) (A)
                 (A) (A) (A) (A) (A) (A) (A) (A) (A) (A) (A) (A)
                 (A) (A) (A) (A) (A) (A) (A) (A) (A) (A) (A) (A)
                 (A) (A) (A) (A) (A) (A) (A) (A) (A) (A) (A) (A)
                 (A) (A) (A) (A) (A) (A) (A) (A) (A) (A) (A) (A)
                 (A) (A) (A) (A) (A) (A) (A) (A) (A) (A) (A) (A)
                 (A) (A) (A) (A) (A) (A) (A) (A) (A) (A) (A) (A)
                 (A) (A) (A) (A) (A) (A) (A) (A) (A) (A) (A) (A)
                 (A) (A) (A) (A) (A) (A) (A) (A) (A) (A) (A) (A)
                 (A) (A) (A) (A) (A) (A) (A) (A) (A) (A) (A) (A)
                 (A) (A) (A) (A) (A) (A) (A) (A) (A) (A) (A) (A)
                 (A) (A) (A) (A) (A) (A) (A) (A) (A) (A)
     8 initial guesses have been made.
 Convergence on wavefunction:    0.001000000000000
 Iteration     1 Dimension     8 NMult     0 NNew      8
 CISAX will form     8 AO SS matrices at one time.
 Iteration     2 Dimension    12 NMult     8 NNew      4
 Iteration     3 Dimension    16 NMult    12 NNew      4
 Iteration     4 Dimension    20 NMult    16 NNew      4
 Iteration     5 Dimension    24 NMult    20 NNew      4
 Iteration     6 Dimension    28 NMult    24 NNew      4
 Iteration     7 Dimension    32 NMult    28 NNew      4
 ***********************************************************************
 Excited states from <AA,BB:AA,BB> singles matrix:
 ***********************************************************************
 
 Ground to excited state transition densities written to RWF  633
 Ground to excited state transition electric dipole moments (Au):
       state          X           Y           Z        Dip. S.      Osc.
         1        -0.7718     -1.2977     -1.3186      4.0183      0.1934
 Ground to excited state transition velocity dipole moments (Au):
       state          X           Y           Z        Dip. S.      Osc.
         1         0.0555      0.0892      0.0939      0.0199      0.1834
 Ground to excited state transition magnetic dipole moments (Au):
       state          X           Y           Z
         1         0.4084      1.1187     -1.2816
 Ground to excited state transition velocity quadrupole moments (Au):
       state          XX          YY          ZZ          XY          XZ          YZ
         1        -1.1966      0.1042      0.2071     -0.6697     -0.9185      0.3544
 <0|del|b> * <b|rxdel|0> + <0|del|b> * <b|delr+rdel|0>
 Rotatory Strengths (R) in cgs (10**-40 erg-esu-cm/Gauss)
       state          XX          YY          ZZ    R(velocity)    E-M Angle
         1        -7.6972    -74.2286    102.1306      6.7349       89.52
 1/2[<0|r|b>*<b|rxdel|0> + (<0|rxdel|b>*<b|r|0>)*]
 Rotatory Strengths (R) in cgs (10**-40 erg-esu-cm/Gauss)
       state          XX          YY          ZZ     R(length)
         1       222.8899   1026.5602  -1195.0404     18.1365
  1/2[<0|del|b>*<b|r|0> + (<0|r|b>*<b|del|0>)*] (Au)
       state          X           Y           Z        Dip. S.   Osc.(frdel)
         1        -0.0428     -0.1158     -0.1239      0.2825      0.1883

 Excitation energies and oscillator strengths:
 
 Excited State   1:      Singlet-A      1.9642 eV  631.23 nm  f=0.1934  <S**2>=0.000
     243 -> 246       -0.24564
     244 -> 245        0.65482
 This state for optimization and/or second-order correction.
 Total Energy, E(TD-HF/TD-KS) =  -3043.39012871    
 Copying the excited state density for this state as the 1-particle RhoCI density.
 SavETr:  write IOETrn=   770 NScale= 10 NData=  16 NLR=1 NState=    1 LETran=      28.

 **********************************************************************

            Population analysis using the SCF density.

 **********************************************************************

 Orbital symmetries:
       Occupied  (A) (A) (A) (A) (A) (A) (A) (A) (A) (A) (A) (A)
                 (A) (A) (A) (A) (A) (A) (A) (A) (A) (A) (A) (A)
                 (A) (A) (A) (A) (A) (A) (A) (A) (A) (A) (A) (A)
                 (A) (A) (A) (A) (A) (A) (A) (A) (A) (A) (A) (A)
                 (A) (A) (A) (A) (A) (A) (A) (A) (A) (A) (A) (A)
                 (A) (A) (A) (A) (A) (A) (A) (A) (A) (A) (A) (A)
                 (A) (A) (A) (A) (A) (A) (A) (A) (A) (A) (A) (A)
                 (A) (A) (A) (A) (A) (A) (A) (A) (A) (A) (A) (A)
                 (A) (A) (A) (A) (A) (A) (A) (A) (A) (A) (A) (A)
                 (A) (A) (A) (A) (A) (A) (A) (A) (A) (A) (A) (A)
                 (A) (A) (A) (A) (A) (A) (A) (A) (A) (A) (A) (A)
                 (A) (A) (A) (A) (A) (A) (A) (A) (A) (A) (A) (A)
                 (A) (A) (A) (A) (A) (A) (A) (A) (A) (A) (A) (A)
                 (A) (A) (A) (A) (A) (A) (A) (A) (A) (A) (A) (A)
                 (A) (A) (A) (A) (A) (A) (A) (A) (A) (A) (A) (A)
                 (A) (A) (A) (A) (A) (A) (A) (A) (A) (A) (A) (A)
                 (A) (A) (A) (A) (A) (A) (A) (A) (A) (A) (A) (A)
                 (A) (A) (A) (A) (A) (A) (A) (A) (A) (A) (A) (A)
                 (A) (A) (A) (A) (A) (A) (A) (A) (A) (A) (A) (A)
                 (A) (A) (A) (A) (A) (A) (A) (A) (A) (A) (A) (A)
                 (A) (A) (A) (A)
       Virtual   (A) (A) (A) (A) (A) (A) (A) (A) (A) (A) (A) (A)
                 (A) (A) (A) (A) (A) (A) (A) (A) (A) (A) (A) (A)
                 (A) (A) (A) (A) (A) (A) (A) (A) (A) (A) (A) (A)
                 (A) (A) (A) (A) (A) (A) (A) (A) (A) (A) (A) (A)
                 (A) (A) (A) (A) (A) (A) (A) (A) (A) (A) (A) (A)
                 (A) (A) (A) (A) (A) (A) (A) (A) (A) (A) (A) (A)
                 (A) (A) (A) (A) (A) (A) (A) (A) (A) (A) (A) (A)
                 (A) (A) (A) (A) (A) (A) (A) (A) (A) (A) (A) (A)
                 (A) (A) (A) (A) (A) (A) (A) (A) (A) (A) (A) (A)
                 (A) (A) (A) (A) (A) (A) (A) (A) (A) (A) (A) (A)
                 (A) (A) (A) (A) (A) (A) (A) (A) (A) (A) (A) (A)
                 (A) (A) (A) (A) (A) (A) (A) (A) (A) (A) (A) (A)
                 (A) (A) (A) (A) (A) (A) (A) (A) (A) (A) (A) (A)
                 (A) (A) (A) (A) (A) (A) (A) (A) (A) (A) (A) (A)
                 (A) (A) (A) (A) (A) (A) (A) (A) (A) (A) (A) (A)
                 (A) (A) (A) (A) (A) (A) (A) (A) (A) (A) (A) (A)
                 (A) (A) (A) (A) (A) (A) (A) (A) (A) (A) (A) (A)
                 (A) (A) (A) (A) (A) (A) (A) (A) (A) (A) (A) (A)
                 (A) (A) (A) (A) (A) (A) (A) (A) (A) (A) (A) (A)
                 (A) (A) (A) (A) (A) (A) (A) (A) (A) (A) (A) (A)
                 (A) (A) (A) (A) (A) (A) (A) (A) (A) (A) (A) (A)
                 (A) (A) (A) (A) (A) (A) (A) (A) (A) (A) (A) (A)
                 (A) (A) (A) (A) (A) (A) (A) (A) (A) (A) (A) (A)
                 (A) (A) (A) (A) (A) (A) (A) (A) (A) (A) (A) (A)
                 (A) (A) (A) (A) (A) (A) (A) (A) (A) (A) (A) (A)
                 (A) (A) (A) (A) (A) (A) (A) (A) (A) (A) (A) (A)
                 (A) (A) (A) (A) (A) (A) (A) (A) (A) (A) (A) (A)
                 (A) (A) (A) (A) (A) (A) (A) (A) (A) (A) (A) (A)
                 (A) (A) (A) (A) (A) (A) (A) (A) (A) (A) (A) (A)
                 (A) (A) (A) (A) (A) (A) (A) (A) (A) (A) (A) (A)
                 (A) (A) (A) (A) (A) (A) (A) (A) (A) (A) (A) (A)
                 (A) (A) (A) (A) (A) (A) (A) (A) (A) (A) (A) (A)
                 (A) (A) (A) (A) (A) (A) (A) (A) (A) (A) (A) (A)
                 (A) (A) (A) (A) (A) (A) (A) (A) (A) (A) (A) (A)
                 (A) (A) (A) (A) (A) (A) (A) (A) (A) (A) (A) (A)
                 (A) (A) (A) (A) (A) (A) (A) (A) (A) (A) (A) (A)
                 (A) (A) (A) (A) (A) (A) (A) (A) (A) (A) (A) (A)
                 (A) (A) (A) (A) (A) (A) (A) (A) (A) (A) (A) (A)
                 (A) (A) (A) (A) (A) (A) (A) (A) (A) (A) (A) (A)
                 (A) (A) (A) (A) (A) (A) (A) (A) (A) (A) (A) (A)
                 (A) (A) (A) (A) (A) (A) (A) (A) (A) (A) (A) (A)
                 (A) (A) (A) (A) (A) (A) (A) (A) (A) (A) (A) (A)
                 (A) (A) (A) (A) (A) (A) (A) (A) (A) (A) (A) (A)
                 (A) (A) (A) (A) (A) (A) (A) (A) (A) (A) (A) (A)
                 (A) (A) (A) (A) (A) (A) (A) (A) (A) (A) (A) (A)
                 (A) (A) (A) (A) (A) (A) (A) (A) (A) (A) (A) (A)
                 (A) (A) (A) (A) (A) (A) (A) (A) (A) (A) (A) (A)
                 (A) (A) (A) (A) (A) (A) (A) (A) (A) (A) (A) (A)
                 (A) (A) (A) (A) (A) (A) (A) (A) (A) (A) (A) (A)
                 (A) (A) (A) (A) (A) (A) (A) (A) (A) (A) (A) (A)
                 (A) (A) (A) (A) (A) (A) (A) (A) (A) (A) (A) (A)
                 (A) (A) (A) (A) (A) (A) (A) (A) (A) (A) (A) (A)
                 (A) (A) (A) (A) (A) (A) (A) (A) (A) (A) (A) (A)
                 (A) (A) (A) (A) (A) (A) (A) (A) (A) (A) (A) (A)
                 (A) (A) (A) (A) (A) (A) (A) (A) (A) (A) (A) (A)
                 (A) (A) (A) (A) (A) (A) (A) (A) (A) (A) (A) (A)
                 (A) (A) (A) (A) (A) (A) (A) (A) (A) (A) (A) (A)
                 (A) (A) (A) (A) (A) (A) (A) (A) (A) (A) (A) (A)
                 (A) (A) (A) (A) (A) (A) (A) (A) (A) (A) (A) (A)
                 (A) (A) (A) (A) (A) (A) (A) (A) (A) (A) (A) (A)
                 (A) (A) (A) (A) (A) (A) (A) (A) (A) (A) (A) (A)
                 (A) (A) (A) (A) (A) (A) (A) (A) (A) (A) (A) (A)
                 (A) (A) (A) (A) (A) (A) (A) (A) (A) (A) (A) (A)
                 (A) (A) (A) (A) (A) (A) (A) (A) (A) (A) (A) (A)
                 (A) (A) (A) (A) (A) (A) (A) (A) (A) (A) (A) (A)
                 (A) (A) (A) (A) (A) (A) (A) (A) (A) (A) (A) (A)
                 (A) (A) (A) (A) (A) (A) (A) (A) (A) (A) (A) (A)
                 (A) (A) (A) (A) (A) (A) (A) (A) (A) (A) (A) (A)
                 (A) (A) (A) (A) (A) (A) (A) (A) (A) (A) (A) (A)
                 (A) (A) (A) (A) (A) (A) (A) (A) (A) (A) (A) (A)
                 (A) (A) (A) (A) (A) (A) (A) (A) (A) (A) (A) (A)
                 (A) (A) (A) (A) (A) (A) (A) (A) (A) (A) (A) (A)
                 (A) (A) (A) (A) (A) (A) (A) (A) (A) (A) (A) (A)
                 (A) (A) (A) (A) (A) (A) (A) (A) (A) (A) (A) (A)
                 (A) (A) (A) (A) (A) (A) (A) (A) (A) (A) (A) (A)
                 (A) (A) (A) (A) (A) (A) (A) (A) (A) (A) (A) (A)
                 (A) (A) (A) (A) (A) (A) (A) (A) (A) (A) (A) (A)
                 (A) (A) (A) (A) (A) (A) (A) (A) (A) (A) (A) (A)
                 (A) (A) (A) (A) (A) (A) (A) (A) (A) (A) (A) (A)
                 (A) (A) (A) (A) (A) (A) (A) (A) (A) (A) (A) (A)
                 (A) (A) (A) (A) (A) (A) (A) (A) (A) (A) (A) (A)
                 (A) (A) (A) (A) (A) (A) (A) (A) (A) (A) (A) (A)
                 (A) (A) (A) (A) (A) (A) (A) (A) (A) (A) (A) (A)
                 (A) (A) (A) (A) (A) (A) (A) (A) (A) (A) (A) (A)
                 (A) (A) (A) (A) (A) (A) (A) (A) (A) (A) (A) (A)
                 (A) (A) (A) (A) (A) (A) (A) (A) (A) (A) (A) (A)
                 (A) (A) (A) (A) (A) (A) (A) (A) (A) (A) (A) (A)
                 (A) (A) (A) (A) (A) (A) (A) (A) (A) (A) (A) (A)
                 (A) (A) (A) (A) (A) (A) (A) (A) (A) (A) (A) (A)
                 (A) (A) (A) (A) (A) (A) (A) (A) (A) (A) (A) (A)
                 (A) (A) (A) (A) (A) (A) (A) (A) (A) (A)
 The electronic state is 1-A.
 Alpha  occ. eigenvalues --  -46.81916 -19.21695 -19.21186 -19.18690 -19.17952
 Alpha  occ. eigenvalues --  -19.16662 -19.16470 -19.15441 -14.39002 -14.37059
 Alpha  occ. eigenvalues --  -14.36799 -14.36756 -10.34391 -10.33760 -10.32511
 Alpha  occ. eigenvalues --  -10.28928 -10.28896 -10.27981 -10.27211 -10.27086
 Alpha  occ. eigenvalues --  -10.26798 -10.26594 -10.26464 -10.26253 -10.26005
 Alpha  occ. eigenvalues --  -10.25795 -10.25392 -10.25210 -10.24993 -10.24950
 Alpha  occ. eigenvalues --  -10.24931 -10.24812 -10.24529 -10.24156 -10.24091
 Alpha  occ. eigenvalues --  -10.24043 -10.23995 -10.23978 -10.23976 -10.23843
 Alpha  occ. eigenvalues --  -10.23636 -10.23353 -10.22971 -10.22965 -10.22865
 Alpha  occ. eigenvalues --  -10.22569 -10.22316 -10.22313 -10.22307 -10.22282
 Alpha  occ. eigenvalues --  -10.22096 -10.21923 -10.21881 -10.21832 -10.21763
 Alpha  occ. eigenvalues --  -10.21726 -10.21596 -10.21546 -10.21411 -10.21395
 Alpha  occ. eigenvalues --  -10.21288 -10.20847 -10.20755 -10.20683 -10.19341
 Alpha  occ. eigenvalues --  -10.19283  -3.10487  -1.85419  -1.84952  -1.84907
 Alpha  occ. eigenvalues --   -1.15265  -1.12356  -1.08289  -1.07058  -1.03954
 Alpha  occ. eigenvalues --   -1.03716  -1.02959  -1.02745  -1.00466  -1.00032
 Alpha  occ. eigenvalues --   -0.97167  -0.89157  -0.86583  -0.86228  -0.85722
 Alpha  occ. eigenvalues --   -0.85408  -0.84570  -0.84519  -0.83986  -0.83710
 Alpha  occ. eigenvalues --   -0.83414  -0.83222  -0.81422  -0.80312  -0.79592
 Alpha  occ. eigenvalues --   -0.79128  -0.78375  -0.77534  -0.77109  -0.76732
 Alpha  occ. eigenvalues --   -0.76343  -0.75531  -0.74263  -0.72909  -0.72177
 Alpha  occ. eigenvalues --   -0.72096  -0.71079  -0.70478  -0.70223  -0.69950
 Alpha  occ. eigenvalues --   -0.69444  -0.68769  -0.68301  -0.67748  -0.66584
 Alpha  occ. eigenvalues --   -0.66042  -0.65119  -0.64506  -0.62761  -0.62066
 Alpha  occ. eigenvalues --   -0.61523  -0.60664  -0.59423  -0.58775  -0.58246
 Alpha  occ. eigenvalues --   -0.58170  -0.58146  -0.57759  -0.57086  -0.56955
 Alpha  occ. eigenvalues --   -0.56717  -0.55952  -0.55495  -0.54970  -0.54593
 Alpha  occ. eigenvalues --   -0.53770  -0.53457  -0.53183  -0.53008  -0.52851
 Alpha  occ. eigenvalues --   -0.52432  -0.51799  -0.51201  -0.50717  -0.50499
 Alpha  occ. eigenvalues --   -0.50333  -0.49966  -0.49715  -0.49473  -0.49299
 Alpha  occ. eigenvalues --   -0.48874  -0.48806  -0.48583  -0.48052  -0.47822
 Alpha  occ. eigenvalues --   -0.47691  -0.47374  -0.47013  -0.46726  -0.46515
 Alpha  occ. eigenvalues --   -0.46375  -0.46280  -0.46055  -0.45961  -0.45905
 Alpha  occ. eigenvalues --   -0.45743  -0.45464  -0.45224  -0.45052  -0.44678
 Alpha  occ. eigenvalues --   -0.44503  -0.44378  -0.44233  -0.43888  -0.43705
 Alpha  occ. eigenvalues --   -0.43459  -0.43186  -0.43111  -0.43063  -0.42797
 Alpha  occ. eigenvalues --   -0.42641  -0.42376  -0.42253  -0.42128  -0.42025
 Alpha  occ. eigenvalues --   -0.41875  -0.41673  -0.41500  -0.41429  -0.41227
 Alpha  occ. eigenvalues --   -0.41099  -0.41014  -0.40960  -0.40610  -0.40309
 Alpha  occ. eigenvalues --   -0.39953  -0.39718  -0.39677  -0.39328  -0.39234
 Alpha  occ. eigenvalues --   -0.39076  -0.38935  -0.38792  -0.38770  -0.38627
 Alpha  occ. eigenvalues --   -0.38201  -0.38154  -0.37992  -0.37832  -0.37142
 Alpha  occ. eigenvalues --   -0.36904  -0.36438  -0.36205  -0.35585  -0.35307
 Alpha  occ. eigenvalues --   -0.35284  -0.35099  -0.34874  -0.34424  -0.34161
 Alpha  occ. eigenvalues --   -0.34017  -0.33896  -0.33670  -0.33220  -0.32852
 Alpha  occ. eigenvalues --   -0.32588  -0.32579  -0.32477  -0.31858  -0.31735
 Alpha  occ. eigenvalues --   -0.31555  -0.31169  -0.30743  -0.30308  -0.30000
 Alpha  occ. eigenvalues --   -0.29883  -0.29201  -0.27977  -0.27898  -0.27799
 Alpha  occ. eigenvalues --   -0.27556  -0.26270  -0.22930  -0.20464
 Alpha virt. eigenvalues --   -0.07840  -0.06573  -0.02325  -0.01067   0.00407
 Alpha virt. eigenvalues --    0.02948   0.03299   0.03937   0.04097   0.04954
 Alpha virt. eigenvalues --    0.05292   0.06501   0.08048   0.08988   0.09124
 Alpha virt. eigenvalues --    0.09573   0.09655   0.09947   0.10205   0.10404
 Alpha virt. eigenvalues --    0.11360   0.11413   0.11604   0.11759   0.12153
 Alpha virt. eigenvalues --    0.12377   0.12733   0.13024   0.13114   0.13462
 Alpha virt. eigenvalues --    0.13560   0.13640   0.13858   0.14002   0.14043
 Alpha virt. eigenvalues --    0.14100   0.14443   0.14612   0.15114   0.15133
 Alpha virt. eigenvalues --    0.15502   0.15562   0.15628   0.15680   0.16150
 Alpha virt. eigenvalues --    0.16244   0.16292   0.16340   0.16473   0.16653
 Alpha virt. eigenvalues --    0.17100   0.17140   0.17435   0.17452   0.17506
 Alpha virt. eigenvalues --    0.17573   0.17734   0.17827   0.18079   0.18311
 Alpha virt. eigenvalues --    0.18420   0.18466   0.18601   0.18935   0.19072
 Alpha virt. eigenvalues --    0.19115   0.19151   0.19495   0.19571   0.19641
 Alpha virt. eigenvalues --    0.20091   0.20141   0.20351   0.20587   0.21018
 Alpha virt. eigenvalues --    0.21254   0.21371   0.21619   0.21668   0.21764
 Alpha virt. eigenvalues --    0.21834   0.22023   0.22319   0.22344   0.22873
 Alpha virt. eigenvalues --    0.23058   0.23156   0.23445   0.23637   0.23726
 Alpha virt. eigenvalues --    0.23836   0.24155   0.24369   0.24631   0.24756
 Alpha virt. eigenvalues --    0.24817   0.25023   0.25272   0.25506   0.25587
 Alpha virt. eigenvalues --    0.25713   0.25766   0.26098   0.26315   0.26734
 Alpha virt. eigenvalues --    0.26778   0.27119   0.27337   0.27653   0.28062
 Alpha virt. eigenvalues --    0.28149   0.28656   0.29039   0.29092   0.29332
 Alpha virt. eigenvalues --    0.29670   0.29881   0.30111   0.30648   0.30783
 Alpha virt. eigenvalues --    0.31010   0.31438   0.31627   0.31997   0.32023
 Alpha virt. eigenvalues --    0.32918   0.33144   0.33294   0.33544   0.33827
 Alpha virt. eigenvalues --    0.34255   0.34639   0.35484   0.35762   0.36223
 Alpha virt. eigenvalues --    0.36929   0.37213   0.37969   0.38003   0.38242
 Alpha virt. eigenvalues --    0.38575   0.39430   0.39789   0.40192   0.40974
 Alpha virt. eigenvalues --    0.42000   0.42206   0.42297   0.42761   0.43592
 Alpha virt. eigenvalues --    0.44317   0.45118   0.45467   0.46293   0.47037
 Alpha virt. eigenvalues --    0.47470   0.48730   0.49400   0.49429   0.49775
 Alpha virt. eigenvalues --    0.50188   0.50469   0.50993   0.51081   0.51638
 Alpha virt. eigenvalues --    0.51891   0.52210   0.52734   0.52842   0.53077
 Alpha virt. eigenvalues --    0.53126   0.53729   0.53844   0.54148   0.54270
 Alpha virt. eigenvalues --    0.54325   0.54431   0.54691   0.54793   0.55100
 Alpha virt. eigenvalues --    0.55755   0.55898   0.56131   0.56193   0.56407
 Alpha virt. eigenvalues --    0.56493   0.56688   0.56907   0.57559   0.57665
 Alpha virt. eigenvalues --    0.57900   0.58022   0.58213   0.58281   0.58571
 Alpha virt. eigenvalues --    0.59133   0.59328   0.59440   0.59651   0.59928
 Alpha virt. eigenvalues --    0.60115   0.60393   0.60455   0.60677   0.61038
 Alpha virt. eigenvalues --    0.61145   0.61496   0.61825   0.62106   0.62420
 Alpha virt. eigenvalues --    0.62688   0.62726   0.62920   0.63162   0.63283
 Alpha virt. eigenvalues --    0.63555   0.64014   0.64081   0.64400   0.64593
 Alpha virt. eigenvalues --    0.64886   0.65112   0.65315   0.65449   0.66052
 Alpha virt. eigenvalues --    0.66246   0.66604   0.67281   0.67390   0.67574
 Alpha virt. eigenvalues --    0.67914   0.68370   0.68505   0.68631   0.68717
 Alpha virt. eigenvalues --    0.69097   0.69232   0.69653   0.69837   0.70082
 Alpha virt. eigenvalues --    0.70279   0.70606   0.70969   0.71054   0.71551
 Alpha virt. eigenvalues --    0.71623   0.72084   0.72145   0.72450   0.72743
 Alpha virt. eigenvalues --    0.72919   0.72997   0.73621   0.73734   0.74018
 Alpha virt. eigenvalues --    0.74379   0.74537   0.74772   0.75276   0.75522
 Alpha virt. eigenvalues --    0.75558   0.76264   0.76509   0.76657   0.76819
 Alpha virt. eigenvalues --    0.77316   0.77440   0.77638   0.77758   0.77959
 Alpha virt. eigenvalues --    0.78342   0.78670   0.78865   0.79116   0.79263
 Alpha virt. eigenvalues --    0.79335   0.79693   0.79828   0.79914   0.80165
 Alpha virt. eigenvalues --    0.80551   0.80627   0.80792   0.80980   0.81296
 Alpha virt. eigenvalues --    0.81672   0.81881   0.82435   0.82450   0.82640
 Alpha virt. eigenvalues --    0.82940   0.83238   0.83600   0.83693   0.84158
 Alpha virt. eigenvalues --    0.84393   0.84495   0.84687   0.85087   0.85359
 Alpha virt. eigenvalues --    0.85558   0.85713   0.85924   0.86090   0.86213
 Alpha virt. eigenvalues --    0.86314   0.86481   0.86576   0.86976   0.87222
 Alpha virt. eigenvalues --    0.87514   0.87640   0.87844   0.88051   0.88162
 Alpha virt. eigenvalues --    0.88357   0.88425   0.88652   0.88916   0.89054
 Alpha virt. eigenvalues --    0.89275   0.89633   0.89799   0.89982   0.90088
 Alpha virt. eigenvalues --    0.90161   0.90502   0.90696   0.90793   0.90966
 Alpha virt. eigenvalues --    0.91269   0.91411   0.91730   0.91808   0.91885
 Alpha virt. eigenvalues --    0.92206   0.92321   0.92495   0.92641   0.92848
 Alpha virt. eigenvalues --    0.92921   0.93392   0.93569   0.93662   0.93789
 Alpha virt. eigenvalues --    0.93890   0.94158   0.94213   0.94680   0.94912
 Alpha virt. eigenvalues --    0.95426   0.95833   0.96007   0.96152   0.96231
 Alpha virt. eigenvalues --    0.96560   0.96756   0.96882   0.97372   0.97454
 Alpha virt. eigenvalues --    0.97869   0.97941   0.98210   0.98561   0.98668
 Alpha virt. eigenvalues --    0.98983   0.99216   0.99249   0.99530   0.99746
 Alpha virt. eigenvalues --    0.99991   1.00408   1.00594   1.00636   1.00918
 Alpha virt. eigenvalues --    1.01239   1.01414   1.01655   1.01893   1.02561
 Alpha virt. eigenvalues --    1.02764   1.03027   1.03313   1.03655   1.03705
 Alpha virt. eigenvalues --    1.03868   1.04143   1.04435   1.04859   1.05149
 Alpha virt. eigenvalues --    1.05488   1.05789   1.06057   1.06197   1.06644
 Alpha virt. eigenvalues --    1.06898   1.07462   1.07918   1.08247   1.08272
 Alpha virt. eigenvalues --    1.08604   1.09126   1.09495   1.10469   1.10627
 Alpha virt. eigenvalues --    1.11159   1.11372   1.12714   1.12933   1.13039
 Alpha virt. eigenvalues --    1.13649   1.13874   1.14393   1.15105   1.15409
 Alpha virt. eigenvalues --    1.16174   1.17163   1.18226   1.18638   1.19193
 Alpha virt. eigenvalues --    1.19364   1.20054   1.20613   1.21155   1.21400
 Alpha virt. eigenvalues --    1.21837   1.22451   1.23016   1.23343   1.23423
 Alpha virt. eigenvalues --    1.24048   1.24113   1.25153   1.25645   1.25987
 Alpha virt. eigenvalues --    1.27175   1.27458   1.28731   1.29292   1.29318
 Alpha virt. eigenvalues --    1.29504   1.30052   1.30517   1.31000   1.31841
 Alpha virt. eigenvalues --    1.32294   1.32551   1.32793   1.33110   1.33681
 Alpha virt. eigenvalues --    1.33828   1.34375   1.35020   1.35112   1.35758
 Alpha virt. eigenvalues --    1.35830   1.36238   1.37004   1.38014   1.38082
 Alpha virt. eigenvalues --    1.38648   1.38891   1.39430   1.39709   1.40546
 Alpha virt. eigenvalues --    1.41222   1.41709   1.41837   1.42249   1.42741
 Alpha virt. eigenvalues --    1.43283   1.43942   1.44711   1.45068   1.45636
 Alpha virt. eigenvalues --    1.46025   1.46707   1.46865   1.47452   1.47771
 Alpha virt. eigenvalues --    1.48006   1.48387   1.48447   1.50060   1.50095
 Alpha virt. eigenvalues --    1.50598   1.50875   1.51136   1.51654   1.52150
 Alpha virt. eigenvalues --    1.52358   1.52837   1.53016   1.53240   1.53664
 Alpha virt. eigenvalues --    1.54206   1.54443   1.55262   1.56008   1.56197
 Alpha virt. eigenvalues --    1.56443   1.57152   1.57337   1.57629   1.57946
 Alpha virt. eigenvalues --    1.57984   1.58261   1.59073   1.59206   1.59437
 Alpha virt. eigenvalues --    1.60162   1.60295   1.60918   1.61730   1.61797
 Alpha virt. eigenvalues --    1.62246   1.62575   1.62688   1.63546   1.63756
 Alpha virt. eigenvalues --    1.63926   1.64144   1.64912   1.65031   1.65601
 Alpha virt. eigenvalues --    1.66566   1.66942   1.67293   1.68373   1.68449
 Alpha virt. eigenvalues --    1.69235   1.69928   1.70333   1.70394   1.71254
 Alpha virt. eigenvalues --    1.71397   1.72623   1.72896   1.73456   1.73611
 Alpha virt. eigenvalues --    1.73797   1.73923   1.74467   1.74725   1.74966
 Alpha virt. eigenvalues --    1.75435   1.75877   1.76025   1.76228   1.76444
 Alpha virt. eigenvalues --    1.76901   1.77147   1.77542   1.77688   1.78157
 Alpha virt. eigenvalues --    1.78227   1.78704   1.79063   1.79130   1.79680
 Alpha virt. eigenvalues --    1.80110   1.80306   1.80626   1.80927   1.81301
 Alpha virt. eigenvalues --    1.82076   1.82233   1.82429   1.82774   1.82995
 Alpha virt. eigenvalues --    1.83188   1.83476   1.83762   1.84264   1.84409
 Alpha virt. eigenvalues --    1.84458   1.84981   1.85244   1.85500   1.85637
 Alpha virt. eigenvalues --    1.85926   1.86230   1.86360   1.86576   1.86773
 Alpha virt. eigenvalues --    1.86883   1.87627   1.87927   1.88007   1.88235
 Alpha virt. eigenvalues --    1.88642   1.88833   1.89127   1.89330   1.89494
 Alpha virt. eigenvalues --    1.89750   1.89907   1.90079   1.90243   1.91018
 Alpha virt. eigenvalues --    1.91202   1.91293   1.91516   1.91585   1.92034
 Alpha virt. eigenvalues --    1.92327   1.92358   1.92975   1.93077   1.93286
 Alpha virt. eigenvalues --    1.93419   1.93965   1.94427   1.94544   1.94861
 Alpha virt. eigenvalues --    1.95179   1.95372   1.95441   1.95736   1.95860
 Alpha virt. eigenvalues --    1.96009   1.96346   1.96595   1.97184   1.97572
 Alpha virt. eigenvalues --    1.97922   1.98070   1.98356   1.98922   1.99009
 Alpha virt. eigenvalues --    1.99156   1.99457   1.99777   1.99907   2.00171
 Alpha virt. eigenvalues --    2.00514   2.00589   2.00814   2.01605   2.01859
 Alpha virt. eigenvalues --    2.02219   2.03131   2.03284   2.03436   2.03513
 Alpha virt. eigenvalues --    2.03979   2.04307   2.04455   2.04715   2.04816
 Alpha virt. eigenvalues --    2.05042   2.05125   2.05656   2.06015   2.06392
 Alpha virt. eigenvalues --    2.06725   2.06901   2.07124   2.07232   2.07416
 Alpha virt. eigenvalues --    2.07793   2.08115   2.08523   2.08651   2.09316
 Alpha virt. eigenvalues --    2.09620   2.09650   2.10273   2.10374   2.10685
 Alpha virt. eigenvalues --    2.10725   2.10891   2.11410   2.11674   2.11961
 Alpha virt. eigenvalues --    2.12422   2.12566   2.12832   2.13015   2.13530
 Alpha virt. eigenvalues --    2.13834   2.14330   2.14649   2.14750   2.14926
 Alpha virt. eigenvalues --    2.15134   2.15792   2.16218   2.16496   2.17021
 Alpha virt. eigenvalues --    2.17544   2.17681   2.18192   2.18519   2.18632
 Alpha virt. eigenvalues --    2.18806   2.19293   2.20066   2.20152   2.20450
 Alpha virt. eigenvalues --    2.20799   2.20944   2.21329   2.21723   2.22243
 Alpha virt. eigenvalues --    2.22902   2.23464   2.23637   2.23839   2.24257
 Alpha virt. eigenvalues --    2.24350   2.24924   2.25290   2.25545   2.26026
 Alpha virt. eigenvalues --    2.26179   2.26765   2.27017   2.27109   2.27438
 Alpha virt. eigenvalues --    2.27548   2.27930   2.28811   2.29093   2.29400
 Alpha virt. eigenvalues --    2.29566   2.29952   2.29998   2.30389   2.30456
 Alpha virt. eigenvalues --    2.30980   2.31052   2.31518   2.32092   2.32439
 Alpha virt. eigenvalues --    2.32498   2.32819   2.33088   2.33824   2.34279
 Alpha virt. eigenvalues --    2.34717   2.35165   2.35261   2.35442   2.35866
 Alpha virt. eigenvalues --    2.36389   2.36420   2.36684   2.37139   2.37516
 Alpha virt. eigenvalues --    2.37665   2.38586   2.38626   2.38869   2.39139
 Alpha virt. eigenvalues --    2.39186   2.39852   2.40348   2.40422   2.40772
 Alpha virt. eigenvalues --    2.41276   2.41492   2.41571   2.41844   2.42367
 Alpha virt. eigenvalues --    2.42874   2.43097   2.43176   2.43915   2.44318
 Alpha virt. eigenvalues --    2.44574   2.44767   2.45286   2.45324   2.45570
 Alpha virt. eigenvalues --    2.45761   2.46191   2.47174   2.47350   2.47542
 Alpha virt. eigenvalues --    2.47598   2.47934   2.48374   2.48951   2.49284
 Alpha virt. eigenvalues --    2.49460   2.49756   2.50393   2.51189   2.51431
 Alpha virt. eigenvalues --    2.51572   2.52104   2.52423   2.52616   2.52657
 Alpha virt. eigenvalues --    2.53384   2.53406   2.53993   2.54123   2.54582
 Alpha virt. eigenvalues --    2.54977   2.55309   2.55443   2.55679   2.56238
 Alpha virt. eigenvalues --    2.56667   2.56865   2.57472   2.58045   2.58471
 Alpha virt. eigenvalues --    2.59288   2.59646   2.60073   2.60288   2.60657
 Alpha virt. eigenvalues --    2.60821   2.61226   2.62194   2.62719   2.62923
 Alpha virt. eigenvalues --    2.63242   2.63413   2.63481   2.64082   2.64114
 Alpha virt. eigenvalues --    2.64303   2.64956   2.65182   2.65411   2.66170
 Alpha virt. eigenvalues --    2.66237   2.66434   2.66537   2.67059   2.67442
 Alpha virt. eigenvalues --    2.67503   2.67694   2.68185   2.68829   2.68968
 Alpha virt. eigenvalues --    2.69261   2.69746   2.69863   2.70453   2.71285
 Alpha virt. eigenvalues --    2.71727   2.71898   2.72129   2.72520   2.73031
 Alpha virt. eigenvalues --    2.73072   2.73776   2.73891   2.74126   2.74185
 Alpha virt. eigenvalues --    2.74637   2.74890   2.75111   2.75303   2.75959
 Alpha virt. eigenvalues --    2.76025   2.76221   2.76785   2.77421   2.77608
 Alpha virt. eigenvalues --    2.77755   2.77989   2.78308   2.78630   2.79062
 Alpha virt. eigenvalues --    2.79230   2.79754   2.80188   2.80824   2.81144
 Alpha virt. eigenvalues --    2.81541   2.81697   2.81733   2.82012   2.82280
 Alpha virt. eigenvalues --    2.82448   2.82974   2.83218   2.83708   2.84109
 Alpha virt. eigenvalues --    2.84476   2.84736   2.84852   2.85187   2.85741
 Alpha virt. eigenvalues --    2.85832   2.86290   2.86675   2.87049   2.87791
 Alpha virt. eigenvalues --    2.87902   2.88106   2.88277   2.88874   2.89043
 Alpha virt. eigenvalues --    2.89450   2.89942   2.90166   2.90546   2.90852
 Alpha virt. eigenvalues --    2.91277   2.91715   2.92032   2.92182   2.92558
 Alpha virt. eigenvalues --    2.92722   2.93220   2.93434   2.93622   2.93857
 Alpha virt. eigenvalues --    2.94129   2.94946   2.95854   2.96339   2.96671
 Alpha virt. eigenvalues --    2.97798   2.97886   2.98124   2.98659   2.99411
 Alpha virt. eigenvalues --    2.99663   3.00556   3.01169   3.01668   3.02612
 Alpha virt. eigenvalues --    3.02792   3.03236   3.04409   3.04672   3.05154
 Alpha virt. eigenvalues --    3.06379   3.07619   3.07987   3.08544   3.08756
 Alpha virt. eigenvalues --    3.08880   3.09509   3.10442   3.10683   3.11013
 Alpha virt. eigenvalues --    3.11111   3.12472   3.15166   3.15575   3.16081
 Alpha virt. eigenvalues --    3.16502   3.18226   3.18487   3.19004   3.19379
 Alpha virt. eigenvalues --    3.19816   3.20137   3.21055   3.21788   3.23088
 Alpha virt. eigenvalues --    3.23564   3.23994   3.24494   3.25609   3.25655
 Alpha virt. eigenvalues --    3.26329   3.26731   3.27295   3.27499   3.28224
 Alpha virt. eigenvalues --    3.28482   3.28681   3.31832   3.32093   3.33313
 Alpha virt. eigenvalues --    3.33653   3.34202   3.34580   3.35235   3.35520
 Alpha virt. eigenvalues --    3.36343   3.36760   3.39226   3.39442   3.39998
 Alpha virt. eigenvalues --    3.42360   3.43080   3.43117   3.43688   3.44472
 Alpha virt. eigenvalues --    3.44697   3.45510   3.45741   3.45789   3.45953
 Alpha virt. eigenvalues --    3.46138   3.47743   3.48111   3.48427   3.48665
 Alpha virt. eigenvalues --    3.50021   3.50132   3.50769   3.51858   3.52020
 Alpha virt. eigenvalues --    3.53354   3.53690   3.54466   3.55811   3.56562
 Alpha virt. eigenvalues --    3.56762   3.57882   3.58371   3.59331   3.60145
 Alpha virt. eigenvalues --    3.61372   3.62573   3.63359   3.67036   3.67601
 Alpha virt. eigenvalues --    3.69676   3.73002   3.74130   3.75593   3.78661
 Alpha virt. eigenvalues --    3.97863   4.03551   4.03881   4.08438   4.09708
 Alpha virt. eigenvalues --    4.16033   4.17200   4.18905   4.20015   4.20710
 Alpha virt. eigenvalues --    4.21753   4.22377   4.25262   4.26048   4.26244
 Alpha virt. eigenvalues --    4.28070   4.30232   4.31566   4.32425   4.33804
 Alpha virt. eigenvalues --    4.34255   4.35798   4.36472   4.37232   4.37714
 Alpha virt. eigenvalues --    4.39722   4.40658   4.42469   4.42666   4.44266
 Alpha virt. eigenvalues --    4.44442   4.45711   4.47279   4.47625   4.48215
 Alpha virt. eigenvalues --    4.48544   4.52336   4.52459   4.52516   4.54147
 Alpha virt. eigenvalues --    4.55372   4.55593   4.56844   4.57218   4.58264
 Alpha virt. eigenvalues --    4.58718   4.60547   4.63588   4.64729   4.65200
 Alpha virt. eigenvalues --    4.68234   4.69550   4.70579   4.72584   4.74559
 Alpha virt. eigenvalues --    4.75525   4.79248   4.79914   4.80284   4.83162
 Alpha virt. eigenvalues --    4.83606   4.86069   4.87094   4.91274   4.96356
          Condensed to atoms (all electrons):
 Mulliken charges:
               1
     1  Mg   0.839974
     2  C    0.095204
     3  C   -0.184664
     4  C   -0.182986
     5  C   -0.242152
     6  N   -0.625310
     7  C    0.312266
     8  C   -0.139131
     9  C   -0.170203
    10  C    0.358679
    11  C   -0.317728
    12  C   -0.183325
    13  C   -0.275961
    14  C    0.605374
    15  O   -0.429117
    16  O   -0.468637
    17  N   -0.701184
    18  C    0.297021
    19  C    0.076556
    20  C   -0.010975
    21  C    0.296121
    22  C   -0.396089
    23  C    0.219575
    24  O   -0.449491
    25  N   -0.718420
    26  C    0.304168
    27  C    0.057650
    28  C    0.003910
    29  C    0.348153
    30  C    0.208804
    31  C   -0.235936
    32  C   -0.309826
    33  N   -0.680049
    34  C    0.245653
    35  C    0.037826
    36  C    0.079716
    37  C    0.269749
    38  C   -0.390566
    39  C    0.347605
    40  O   -0.431171
    41  C   -0.366553
    42  C    0.622720
    43  O   -0.472209
    44  O   -0.484967
    45  C   -0.066302
    46  C   -0.035187
    47  C   -0.098365
    48  C    0.082893
    49  C   -0.370696
    50  C   -0.214114
    51  C   -0.170741
    52  C   -0.140152
    53  C   -0.053726
    54  C   -0.312515
    55  C   -0.140455
    56  C   -0.156242
    57  C   -0.189833
    58  C   -0.039853
    59  C   -0.304767
    60  C   -0.171075
    61  C   -0.158901
    62  C   -0.171631
    63  C   -0.046320
    64  C   -0.321212
    65  C   -0.276717
    66  H    0.076998
    67  H    0.136684
    68  H    0.065684
    69  H    0.130735
    70  H    0.114580
    71  H    0.106054
    72  H    0.082680
    73  H    0.138741
    74  H    0.114742
    75  H    0.127752
    76  H    0.137457
    77  H    0.107168
    78  H    0.111151
    79  H    0.171990
    80  H    0.137557
    81  H    0.101030
    82  H    0.111915
    83  H    0.112360
    84  H    0.116608
    85  H    0.112598
    86  H    0.127600
    87  H    0.136635
    88  H    0.151270
    89  H    0.134509
    90  H    0.152157
    91  H    0.108377
    92  H    0.136158
    93  H    0.097001
    94  H    0.149451
    95  H    0.107454
    96  H    0.130664
    97  H    0.111123
    98  H    0.067106
    99  H    0.086069
   100  H    0.090311
   101  H    0.093333
   102  H    0.104089
   103  H    0.027228
   104  H    0.120129
   105  H    0.111389
   106  H    0.058986
   107  H    0.096768
   108  H    0.061837
   109  H    0.094692
   110  H    0.074538
   111  H    0.085122
   112  H    0.083646
   113  H    0.089695
   114  H    0.099202
   115  H    0.083539
   116  H    0.114627
   117  H    0.079588
   118  H    0.074534
   119  H    0.099607
   120  H    0.038648
   121  H    0.076455
   122  H    0.077784
   123  H    0.099001
   124  H    0.112958
   125  H    0.090865
   126  H    0.104277
   127  H    0.116034
   128  H    0.057198
   129  H    0.087403
   130  H    0.129976
   131  H    0.138104
   132  H    0.103274
   133  O   -0.471423
   134  H    0.082366
 Sum of Mulliken charges =   0.00000
 Mulliken charges with hydrogens summed into heavy atoms:
               1
     1  Mg   0.839974
     2  C    0.095204
     3  C   -0.107666
     4  C   -0.046301
     5  C   -0.176468
     6  N   -0.625310
     7  C    0.312266
     8  C   -0.008396
     9  C   -0.055623
    10  C    0.358679
    11  C    0.009747
    12  C    0.059169
    13  C   -0.031336
    14  C    0.605374
    15  O   -0.429117
    16  O   -0.468637
    17  N   -0.701184
    18  C    0.297021
    19  C    0.076556
    20  C   -0.010975
    21  C    0.296121
    22  C    0.024608
    23  C    0.320605
    24  O   -0.449491
    25  N   -0.718420
    26  C    0.304168
    27  C    0.057650
    28  C    0.003910
    29  C    0.348153
    30  C    0.291170
    31  C   -0.011660
    32  C    0.046980
    33  N   -0.680049
    34  C    0.245653
    35  C    0.037826
    36  C    0.079716
    37  C    0.269749
    38  C    0.031847
    39  C    0.347605
    40  O   -0.431171
    41  C   -0.214396
    42  C    0.622720
    43  O   -0.472209
    44  O   -0.484967
    45  C    0.305053
    46  C    0.209348
    47  C   -0.001364
    48  C    0.082893
    49  C    0.016873
    50  C   -0.035885
    51  C    0.005638
    52  C    0.057271
    53  C   -0.026499
    54  C   -0.022011
    55  C    0.018150
    56  C    0.012988
    57  C   -0.021065
    58  C    0.049842
    59  C   -0.007400
    60  C   -0.016954
    61  C   -0.020646
    62  C   -0.017392
    63  C    0.052681
    64  C   -0.013112
    65  C   -0.016083
   133  O   -0.471423
 Electronic spatial extent (au):  <R**2>=         146635.3815
 Charge=              0.0000 electrons
 Dipole moment (field-independent basis, Debye):
    X=              1.7066    Y=             -5.9663    Z=             -1.8027  Tot=              6.4621
 Quadrupole moment (field-independent basis, Debye-Ang):
   XX=           -368.8283   YY=           -456.8122   ZZ=           -390.1066
   XY=              1.9388   XZ=             33.6330   YZ=            -34.1015
 Traceless Quadrupole moment (field-independent basis, Debye-Ang):
   XX=             36.4207   YY=            -51.5632   ZZ=             15.1424
   XY=              1.9388   XZ=             33.6330   YZ=            -34.1015
 Octapole moment (field-independent basis, Debye-Ang**2):
  XXX=           -385.9136  YYY=           -628.8876  ZZZ=            -34.8861  XYY=            227.3836
  XXY=           -131.6851  XXZ=           -225.9111  XZZ=           -131.4614  YZZ=            -40.4911
  YYZ=           -104.0273  XYZ=            198.8457
 Hexadecapole moment (field-independent basis, Debye-Ang**3):
 XXXX=        -158910.9257 YYYY=         -32224.5409 ZZZZ=          -9101.9759 XXXY=          -3321.0742
 XXXZ=           3539.9712 YYYX=           2039.6221 YYYZ=          -1349.9650 ZZZX=            695.3044
 ZZZY=           -326.1907 XXYY=         -35063.6908 XXZZ=         -28139.5076 YYZZ=          -7073.8346
 XXYZ=           -937.4547 YYXZ=            578.1548 ZZXY=           -224.9026
 N-N= 9.137182644987D+03 E-N=-2.535930786311D+04  KE= 3.016858728567D+03

 Test job not archived.
 1\1\GINC-PEDRO-RYZENSSD\SP\RCAM-B3LYP TD-FC\6-31G(d,p)\C54H68Mg1N4O7\P
 ADAWAN\04-Oct-2019\0\\# td=(NStates=1) iop(3/107=0140000000,3/108=0140
 000000) iop(3/107=0140000000,3/108=0140000000) CAM-B3LYP/6-31G(d,p)\\T
 D\\0,1\Mg,0,-5.6728830195,1.2127313008,0.2689695658\C,0,-5.0914292647,
 -2.0983137961,-0.4219552606\C,0,-3.4838198419,1.1046830098,2.824173855
 6\C,0,-6.1204684691,4.5182398471,0.6309454557\C,0,-7.9354044584,1.2206
 207445,-2.2472488188\N,0,-4.3372808126,-0.3685627794,1.0050906761\C,0,
 -4.30309553,-1.650936275,0.6713308516\C,0,-3.2388752892,-2.4054017388,
 1.4395895476\C,0,-2.9275169071,-1.3089015599,2.6074875354\C,0,-3.65163
 19632,-0.1072798806,2.1681274713\C,0,-3.4198240904,-1.8544621388,4.022
 7101304\C,0,-1.9434991932,-2.644088402,0.5650706932\C,0,-0.9854063035,
 -3.5927943673,1.5567595529\C,0,0.2811839858,-3.8993448066,0.6833264937
 \O,0,0.4339272466,-3.526232312,-0.3932693423\O,0,1.0190635886,-4.74835
 99808,1.391155104\N,0,-4.9643649875,2.5911693536,1.5111778044\C,0,-3.9
 657106583,2.3630743234,2.5151667425\C,0,-3.6485053877,3.6746875513,3.2
 289218366\C,0,-4.5066864243,4.567755241,2.6470005843\C,0,-5.1736667291
 ,3.9748221587,1.5043455865\C,0,-2.7734259675,3.8922563093,4.3565195225
 \C,0,-4.5479074907,5.979477982,2.8297284096\O,0,-3.846497137,6.5991847
 487,3.6641503875\N,0,-6.8077124208,2.568424775,-0.6844711148\C,0,-6.85
 45876566,3.8819886044,-0.3655147546\C,0,-7.8655416944,4.6270637632,-1.
 1857913882\C,0,-8.3745704898,3.6838975199,-2.0019747499\C,0,-7.7433081
 423,2.410439218,-1.6767114409\C,0,-8.1891311918,5.9391352832,-1.227033
 838\C,0,-9.3625927377,3.8788788262,-3.1534478934\C,0,-8.7253715179,3.9
 72218585,-4.5710603527\N,0,-6.4752332906,-0.1675019304,-1.1003710575\C
 ,0,-7.3241760243,-0.0761585215,-2.0581417368\C,0,-7.5383369503,-1.4097
 261253,-2.7807310977\C,0,-6.7544609298,-2.1826520385,-2.116470857\C,0,
 -6.0166395875,-1.4432683563,-1.1118490496\C,0,-8.4556309378,-1.6562654
 151,-3.9284837678\C,0,-6.3361572428,-3.5522443304,-2.0686522591\O,0,-6
 .705483789,-4.5716521353,-2.6044206878\C,0,-5.0158618397,-3.5200637731
 ,-0.9460212229\C,0,-5.2769948271,-4.588734075,0.0431514661\O,0,-5.7131
 054931,-4.4826341968,1.1484219625\O,0,-4.9161715804,-5.8264665308,-0.4
 735515266\C,0,-5.2672900782,-6.9025938505,0.4689844332\C,0,2.323349016
 5,-5.0272889891,0.6964476261\C,0,3.3296562757,-4.1106425636,1.16900818
 66\C,0,3.8707361773,-3.2390537263,0.3150138764\C,0,3.617376635,-3.0864
 318316,-1.247102379\C,0,5.0679009961,-2.3229065589,0.7310749584\C,0,6.
 4668522899,-2.6039753505,0.1986101869\C,0,7.6221913458,-1.80314196,0.6
 193957742\C,0,8.9222408326,-1.8974757296,-0.1713638496\C,0,9.479795059
 6,-3.3320331058,-0.0897458496\C,0,9.9626016958,-0.7928799089,0.3268306
 465\C,0,11.1947326306,-0.8415969548,-0.385433854\C,0,12.1250901296,0.2
 997591664,0.2234131295\C,0,13.4773771318,0.4957192588,-0.5659863558\C,
 0,14.4402521982,-0.6019809281,-0.4272194071\C,0,14.0971396522,1.885473
 3195,-0.1991775602\C,0,15.3996092418,2.2073626716,-0.9394410518\C,0,16
 .0870183215,3.5416966797,-0.6528663796\C,0,17.4147958743,3.9136302785,
 -1.3649875466\C,0,17.2616751496,4.0155171144,-2.9954518652\C,0,17.9410
 17521,5.0801261386,-0.6716081178\H,0,-2.9226077667,0.8957864422,3.7214
 497562\H,0,-6.4310639893,5.5667728795,0.5023199947\H,0,-8.5579809972,1
 .104124674,-3.1810434852\H,0,-3.5730543706,-3.2622393406,1.9234380859\
 H,0,-1.8705881448,-1.2476523734,2.6262047865\H,0,-2.9307524004,-2.8542
 520061,4.2826882147\H,0,-2.924229023,-1.1140735251,4.8796240983\H,0,-4
 .4802096968,-2.025330451,4.1248657092\H,0,-2.2315103166,-3.166519697,-
 0.4210698416\H,0,-1.2566263623,-1.8075693843,0.2442652678\H,0,-0.79767
 41575,-3.2533853108,2.542408782\H,0,-1.5237418528,-4.7267895153,1.6337
 024069\H,0,-1.8248111332,3.3614708338,4.26448883\H,0,-2.6476224162,5.0
 625058897,4.5970153644\H,0,-2.9961695495,3.2769608902,5.0787948563\H,0
 ,-5.0990537647,6.6924872312,2.1760897248\H,0,-10.0928232648,3.04712186
 41,-2.9622473793\H,0,-10.0447619591,4.677995334,-2.8326162542\H,0,-9.5
 653822991,3.9647043704,-5.3707133819\H,0,-7.9661805841,4.8347854191,-4
 .5731769995\H,0,-7.9680570806,3.2274270566,-4.7383079455\H,0,-8.413187
 9004,-0.9152147792,-4.6812780968\H,0,-8.4635459825,-2.6712341837,-4.29
 36787118\H,0,-9.462299479,-1.368983533,-3.6139856837\H,0,-4.1686486409
 ,-3.940079831,-1.4095258827\H,0,2.4908770315,-6.1066379569,1.088107198
 6\H,0,2.0369970263,-5.0835568821,-0.3877242075\H,0,3.4427902614,-3.927
 2028426,2.2371620803\H,0,2.539561408,-3.2820497599,-1.3706197121\H,0,3
 .8856058986,-2.0156862692,-1.3732855461\H,0,4.1867111785,-3.7696188182
 ,-1.8752189792\H,0,4.559639833,-1.484914036,0.4634067318\H,0,5.2384061
 99,-2.2511194291,1.8886527516\H,0,6.7636755876,-3.6361479143,0.6124505
 668\H,0,6.3762364631,-2.6448266987,-0.9132410103\H,0,7.3591467163,-0.7
 946060149,0.4714458979\H,0,7.9087397842,-2.0172999785,1.5319506675\H,0
 ,8.8655924588,-1.751873228,-1.4768759063\H,0,8.839896155,-4.0462434842
 ,-0.3056630365\H,0,10.4407071001,-3.5047038251,-0.4072483067\H,0,9.796
 6764152,-3.6298887175,1.0098919522\H,0,9.5386649274,0.2424726577,0.320
 3412085\H,0,10.1682657852,-1.190347354,1.4964205794\H,0,11.7983017613,
 -1.8285401757,-0.2508543932\H,0,10.919677908,-0.7989915347,-1.58711955
 57\H,0,11.5748975079,1.2774708189,0.1549182814\H,0,12.3507258313,0.310
 5223355,1.3625554306\H,0,13.1032610684,0.6472494677,-1.5827044752\H,0,
 14.878108038,-0.6996629836,0.601115209\H,0,13.7850588924,-1.5449476737
 ,-0.5779340475\H,0,15.1945693134,-0.6089442221,-1.2136037634\H,0,13.35
 1284374,2.7505933585,-0.3335732346\H,0,14.3886764798,1.8265590704,0.90
 20590332\H,0,16.1361023373,1.4715626178,-0.7970275178\H,0,15.169231718
 7,2.3051187633,-2.1936228932\H,0,15.2820096631,4.2903222399,-0.9409353
 735\H,0,16.1074003739,3.6526312225,0.4694694057\H,0,18.0814679636,3.10
 00035089,-1.3881332012\H,0,16.4686239992,4.7223395129,-3.0747917581\H,
 0,18.3396863585,4.213457739,-3.4849459282\H,0,16.8492796133,3.05913082
 43,-3.4490254557\H,0,18.1341712911,4.9219528483,0.3964588116\H,0,19.07
 00846193,5.190425269,-1.1959817393\H,0,17.3316757374,6.0956639765,-0.9
 499033424\H,0,-5.0536732519,-7.6964807475,-0.061230439\H,0,-6.33802429
 37,-6.8159209735,0.773907234\H,0,-4.4843406515,-6.8384537216,1.3503979
 082\O,0,-7.6226051558,6.8417042018,-0.4932927577\H,0,-8.8701403978,6.1
 833057463,-1.9419826658\\Version=ES64L-G09RevD.01\State=1-A\HF=-3043.4
 623109\RMSD=4.721e-09\PG=C01 [X(C54H68Mg1N4O7)]\\@


 I DO NOT KNOW WHAT I MAY APPEAR TO THE WORLD; BUT TO MYSELF
 I SEEM TO HAVE BEEN ONLY LIKE A BOY PLAYING ON THE SEASHORE,
 AND DIVERTING MYSELF IN NOW AND THEN FINDING A SMOOTHER PEBBLE
 OR A PRETTIER SHELL THAN ORDINARY, WHILST THE GREAT OCEAN OF
 TRUTH LAY ALL UNDISCOVERED BEFORE ME.
                                          -- NEWTON (1642-1726)
 Job cpu time:       0 days  6 hours 33 minutes 22.2 seconds.
 File lengths (MBytes):  RWF=   2102 Int=      0 D2E=      0 Chk=    163 Scr=      1
 Normal termination of Gaussian 09 at Fri Oct  4 17:34:06 2019.
