 Entering Gaussian System, Link 0=g16
 Input=Geometria-346-.com
 Output=Geometria-346-.log
 Initial command:
 /usr/local/g09/l1.exe "/home/padawan/israel-mol/chlorophyll-b/spectra/emi/Gau-9587.inp" -scrdir="/home/padawan/israel-mol/chlorophyll-b/spectra/emi/"
 Entering Link 1 = /usr/local/g09/l1.exe PID=      9589.
  
 Copyright (c) 1988,1990,1992,1993,1995,1998,2003,2009,2013,
            Gaussian, Inc.  All Rights Reserved.
  
 This is part of the Gaussian(R) 09 program.  It is based on
 the Gaussian(R) 03 system (copyright 2003, Gaussian, Inc.),
 the Gaussian(R) 98 system (copyright 1998, Gaussian, Inc.),
 the Gaussian(R) 94 system (copyright 1995, Gaussian, Inc.),
 the Gaussian 92(TM) system (copyright 1992, Gaussian, Inc.),
 the Gaussian 90(TM) system (copyright 1990, Gaussian, Inc.),
 the Gaussian 88(TM) system (copyright 1988, Gaussian, Inc.),
 the Gaussian 86(TM) system (copyright 1986, Carnegie Mellon
 University), and the Gaussian 82(TM) system (copyright 1983,
 Carnegie Mellon University). Gaussian is a federally registered
 trademark of Gaussian, Inc.
  
 This software contains proprietary and confidential information,
 including trade secrets, belonging to Gaussian, Inc.
  
 This software is provided under written license and may be
 used, copied, transmitted, or stored only in accord with that
 written license.
  
 The following legend is applicable only to US Government
 contracts under FAR:
  
                    RESTRICTED RIGHTS LEGEND
  
 Use, reproduction and disclosure by the US Government is
 subject to restrictions as set forth in subparagraphs (a)
 and (c) of the Commercial Computer Software - Restricted
 Rights clause in FAR 52.227-19.
  
 Gaussian, Inc.
 340 Quinnipiac St., Bldg. 40, Wallingford CT 06492
  
  
 ---------------------------------------------------------------
 Warning -- This program may not be used in any manner that
 competes with the business of Gaussian, Inc. or will provide
 assistance to any competitor of Gaussian, Inc.  The licensee
 of this program is prohibited from giving any competitor of
 Gaussian, Inc. access to this program.  By using this program,
 the user acknowledges that Gaussian, Inc. is engaged in the
 business of creating and licensing software in the field of
 computational chemistry and represents and warrants to the
 licensee that it is not a competitor of Gaussian, Inc. and that
 it will not use this program in any manner prohibited above.
 ---------------------------------------------------------------
  

 Cite this work as:
 Gaussian 09, Revision D.01,
 M. J. Frisch, G. W. Trucks, H. B. Schlegel, G. E. Scuseria, 
 M. A. Robb, J. R. Cheeseman, G. Scalmani, V. Barone, B. Mennucci, 
 G. A. Petersson, H. Nakatsuji, M. Caricato, X. Li, H. P. Hratchian, 
 A. F. Izmaylov, J. Bloino, G. Zheng, J. L. Sonnenberg, M. Hada, 
 M. Ehara, K. Toyota, R. Fukuda, J. Hasegawa, M. Ishida, T. Nakajima, 
 Y. Honda, O. Kitao, H. Nakai, T. Vreven, J. A. Montgomery, Jr., 
 J. E. Peralta, F. Ogliaro, M. Bearpark, J. J. Heyd, E. Brothers, 
 K. N. Kudin, V. N. Staroverov, T. Keith, R. Kobayashi, J. Normand, 
 K. Raghavachari, A. Rendell, J. C. Burant, S. S. Iyengar, J. Tomasi, 
 M. Cossi, N. Rega, J. M. Millam, M. Klene, J. E. Knox, J. B. Cross, 
 V. Bakken, C. Adamo, J. Jaramillo, R. Gomperts, R. E. Stratmann, 
 O. Yazyev, A. J. Austin, R. Cammi, C. Pomelli, J. W. Ochterski, 
 R. L. Martin, K. Morokuma, V. G. Zakrzewski, G. A. Voth, 
 P. Salvador, J. J. Dannenberg, S. Dapprich, A. D. Daniels, 
 O. Farkas, J. B. Foresman, J. V. Ortiz, J. Cioslowski, 
 and D. J. Fox, Gaussian, Inc., Wallingford CT, 2013.
 
 ******************************************
 Gaussian 09:  ES64L-G09RevD.01 24-Apr-2013
                 8-Oct-2019 
 ******************************************
 %nproc=3
 Will use up to    3 processors via shared memory.
 %Mem=2GB
 ----------------------------------------------------------------------
 # td=(NStates=1) iop(3/107=0140000000,3/108=0140000000) iop(3/107=0140
 000000,3/108=0140000000) CAM-B3LYP/6-31G(d,p)
 ----------------------------------------------------------------------
 1/38=1/1;
 2/12=2,17=6,18=5,40=1/2;
 3/5=1,6=6,7=101,11=9,16=1,25=1,30=1,74=-40,107=140000000,108=140000000/1,2,8,3;
 4//1;
 5/5=2,38=5/2;
 8/6=1,10=2,108=1/1;
 9/41=1,42=1,70=2/14;
 6/7=2,8=2,9=2,10=2/1;
 99/5=1,9=1/99;
 --
 TD
 --
 Symbolic Z-matrix:
 Charge =  0 Multiplicity = 1
 12                   -5.64313   1.26809   0.21397 
 6                    -5.01254  -2.19059  -0.3758 
 6                    -3.24893   1.14901   2.68588 
 6                    -6.15189   4.49451   0.62058 
 6                    -8.04699   1.18784  -2.36178 
 7                    -4.43162  -0.28132   1.07592 
 6                    -4.31561  -1.62184   0.61474 
 6                    -3.19405  -2.30864   1.37016 
 6                    -2.8999   -1.32851   2.50523 
 6                    -3.53896  -0.0404    2.08077 
 6                    -3.48112  -1.89319   3.87448 
 6                    -1.94559  -2.76445   0.56843 
 6                    -0.94743  -3.57548   1.395 
 6                     0.35231  -3.91238   0.60608 
 8                     0.64544  -3.46733  -0.51448 
 8                     1.1362   -4.74003   1.21909 
 7                    -4.77979   2.56988   1.37092 
 6                    -3.94962   2.40448   2.44812 
 6                    -3.67549   3.65065   3.1268 
 6                    -4.44248   4.60157   2.54654 
 6                    -5.24033   3.90916   1.5367 
 6                    -2.7177    3.82573   4.3056 
 6                    -4.59902   6.01014   2.96906 
 8                    -4.07614   6.53981   3.95949 
 7                    -6.84378   2.60368  -0.77511 
 6                    -6.84956   3.9123   -0.41374 
 6                    -7.79311   4.60295  -1.21191 
 6                    -8.32823   3.65894  -2.14163 
 6                    -7.75627   2.40337  -1.70749 
 6                    -8.34045   6.0072   -1.15576 
 6                    -9.39493   3.92473  -3.17505 
 6                    -8.67808   4.09523  -4.4895 
 7                    -6.42435  -0.11691  -1.06889 
 6                    -7.39081  -0.04427  -2.12312 
 6                    -7.50948  -1.31871  -2.76788 
 6                    -6.70924  -2.20184  -2.0929 
 6                    -6.0104   -1.44047  -1.15367 
 6                    -8.53426  -1.62125  -3.83047 
 6                    -6.2314   -3.5608   -2.01004 
 8                    -6.63368  -4.54132  -2.56774 
 6                    -5.07648  -3.56028  -0.89971 
 6                    -5.37854  -4.61525   0.16051 
 8                    -5.73692  -4.36137   1.28479 
 8                    -5.1752   -5.84633  -0.29678 
 6                    -5.62122  -6.92615   0.58598 
 6                     2.41674  -5.17835   0.6932 
 6                     3.46611  -4.17974   1.0788 
 6                     4.03787  -3.31175   0.19815 
 6                     3.73112  -3.15508  -1.20737 
 6                     5.11151  -2.47601   0.8837 
 6                     6.47162  -2.76127   0.27251 
 6                     7.56269  -1.72714   0.77615 
 6                     8.92508  -1.91016   0.0341 
 6                     9.54753  -3.30203  -0.08335 
 6                     9.97392  -0.9011    0.58838 
 6                     11.23643  -0.72161  -0.25876 
 6                     12.2237   0.3932    0.28705 
 6                     13.41755   0.55654  -0.51711 
 6                     14.25587  -0.75899  -0.46648 
 6                     14.28095   1.9064   -0.10432 
 6                     15.4135   2.11646  -1.09775 
 6                     16.03901   3.54304  -0.64407 
 6                     17.43124   3.91824  -1.49811 
 6                     16.99944   4.10605  -2.9631 
 6                     18.10732   5.15107  -0.84604 
 1                    -2.34806   1.04585   3.2322 
 1                    -6.19193   5.65892   0.49986 
 1                    -8.92885   0.99266  -3.3046 
 1                    -3.79384  -3.39856   1.7982 
 1                    -1.7912   -0.97853   2.85919 
 1                    -2.85332  -2.86487   4.13297 
 1                    -3.12818  -1.20989   4.62146 
 1                    -4.55467  -1.81176   3.75823 
 1                    -2.3509   -3.4      -0.33952 
 1                    -1.38881  -1.90306   0.15257 
 1                    -0.65278  -2.80274   2.13669 
 1                    -1.2041   -4.58834   1.86913 
 1                    -1.67065   3.59281   4.01253 
 1                    -2.81199   4.74613   4.66187 
 1                    -3.0023    3.27822   5.18534 
 1                    -5.49833   6.62575   2.61395 
 1                    -9.89241   3.07613  -3.15073 
 1                    -10.22393   4.57784  -2.72752 
 1                    -9.30331   3.98509  -5.3831 
 1                    -8.08421   4.89829  -4.5253 
 1                    -7.97629   3.31114  -4.77272 
 1                    -8.70434  -0.96495  -4.72426 
 1                    -8.32324  -2.62429  -3.9771 
 1                    -9.50013  -1.55341  -3.48671 
 1                    -4.27216  -3.91473  -1.33054 
 1                     2.47501  -6.23188   1.0252 
 1                     2.37832  -5.15964  -0.45693 
 1                     3.59547  -4.36023   2.05622 
 1                     2.62821  -3.32022  -1.38075 
 1                     3.83473  -2.01371  -1.565 
 1                     4.49162  -3.87504  -1.65425 
 1                     4.88852  -1.3636    0.67275 
 1                     5.03846  -2.56354   1.94001 
 1                     6.76582  -3.93898   0.39327 
 1                     6.36276  -2.69018  -0.93058 
 1                     7.32634  -0.75226   0.70626 
 1                     7.82349  -2.03893   1.87535 
 1                     8.74438  -1.40882  -1.00828 
 1                     8.83135  -4.18866  -0.58223 
 1                     10.62617  -3.30466  -0.5638 
 1                     9.87453  -3.84072   1.00958 
 1                     9.5047    0.1285    0.76877 
 1                     10.54353  -1.25549   1.70536 
 1                     11.66599  -1.67034  -0.1886 
 1                     10.81189  -0.63112  -1.17897 
 1                     11.49016   1.19306   0.23408 
 1                     12.64042   0.02674   1.27571 
 1                     13.0717   0.90069  -1.61401 
 1                     14.59182  -0.99436   0.47916 
 1                     13.52645  -1.52895  -0.95004 
 1                     15.16725  -0.76442  -1.11273 
 1                     13.6116   2.7478   -0.26364 
 1                     14.71058   1.91451   0.88173 
 1                     16.1765   1.5612   -1.21633 
 1                     15.06731   2.29398  -2.08498 
 1                     15.19735   4.4309   -0.75398 
 1                     16.3054   3.54805   0.38377 
 1                     18.05556   2.93491  -1.45549 
 1                     16.11475   4.66234  -2.96999 
 1                     17.96402   4.34643  -3.42612 
 1                     16.64073   3.27331  -3.47236 
 1                     18.42137   4.8903    0.1647 
 1                     18.891    5.49908  -1.28887 
 1                     17.2401   5.97177  -0.87607 
 1                    -5.33901  -7.90199  -0.01878 
 1                    -6.63902  -6.9785    0.80788 
 1                    -5.08729  -6.96811   1.62974 
 8                    -7.90099   6.85842  -0.41974 
 1                    -9.06354   6.32658  -1.87826 
 
 Stoichiometry    C54H68MgN4O7
 Framework group  C1[X(C54H68MgN4O7)]
 Deg. of freedom   396
 Full point group                 C1      NOp   1
 Largest Abelian subgroup         C1      NOp   1
 Largest concise Abelian subgroup C1      NOp   1
                         Standard orientation:                         
 ---------------------------------------------------------------------
 Center     Atomic      Atomic             Coordinates (Angstroms)
 Number     Number       Type             X           Y           Z
 ---------------------------------------------------------------------
      1         12           0       -5.638086    1.283052    0.225347
      2          6           0       -5.018177   -2.172857   -0.391376
      3          6           0       -3.243319    1.137653    2.695298
      4          6           0       -6.136940    4.507757    0.657068
      5          6           0       -8.043147    1.229960   -2.349986
      6          7           0       -4.430939   -0.276622    1.074812
      7          6           0       -4.319152   -1.613883    0.603243
      8          6           0       -3.199391   -2.309880    1.352893
      9          6           0       -2.901855   -1.339441    2.495376
     10          6           0       -3.537176   -0.046167    2.081135
     11          6           0       -3.484257   -1.912916    3.860455
     12          6           0       -1.952616   -2.763249    0.547164
     13          6           0       -0.956603   -3.583652    1.367047
     14          6           0        0.341818   -3.918364    0.575023
     15          8           0        0.635866   -3.465559   -0.542184
     16          8           0        1.123429   -4.753091    1.181307
     17          7           0       -4.770375    2.573254    1.391970
     18          6           0       -3.940304    2.397033    2.467523
     19          6           0       -3.662152    3.637087    3.155699
     20          6           0       -4.426485    4.594775    2.583108
     21          6           0       -5.226809    3.912596    1.568269
     22          6           0       -2.703394    3.800167    4.335435
     23          6           0       -4.578610    6.000508    3.016559
     24          8           0       -4.053755    6.520928    4.010838
     25          7           0       -6.835064    2.629863   -0.752911
     26          6           0       -6.836753    3.935667   -0.381441
     27          6           0       -7.778520    4.635307   -1.173879
     28          6           0       -8.316834    3.700121   -2.110642
     29          6           0       -7.748511    2.439517   -1.686448
     30          6           0       -8.321584    6.040729   -1.106658
     31          6           0       -9.383116    3.977114   -3.141552
     32          6           0       -8.666252    4.155595   -4.454935
     33          7           0       -6.423971   -0.089626   -1.067860
     34          6           0       -7.390610   -0.005925   -2.121110
     35          6           0       -7.513377   -1.274984   -2.775648
     36          6           0       -6.715547   -2.165721   -2.107829
     37          6           0       -6.014056   -1.413737   -1.163032
     38          6           0       -8.539463   -1.566216   -3.840136
     39          6           0       -6.241785   -3.526708   -2.035657
     40          8           0       -6.647237   -4.501676   -2.600752
     41          6           0       -5.086450   -3.538255   -0.925820
     42          6           0       -5.391304   -4.600465    0.126342
     43          8           0       -5.748483   -4.354202    1.252685
     44          8           0       -5.191851   -5.828586   -0.340532
     45          6           0       -5.640797   -6.913839    0.534041
     46          6           0        2.402443   -5.191205    0.651532
     47          6           0        3.454973   -4.198771    1.044414
     48          6           0        4.029024   -3.325736    0.170268
     49          6           0        3.722213   -3.157286   -1.233877
     50          6           0        5.105437   -2.498563    0.861820
     51          6           0        6.464455   -2.783198    0.247896
     52          6           0        7.558828   -1.756292    0.759074
     53          6           0        8.920384   -1.937679    0.015082
     54          6           0        9.538580   -3.330477   -0.113357
     55          6           0        9.972480   -0.936106    0.576718
     56          6           0       11.235200   -0.753895   -0.269515
     57          6           0       12.226044    0.353683    0.284493
     58          6           0       13.420080    0.519622   -0.518862
     59          6           0       14.254442   -0.798777   -0.478732
     60          6           0       14.287708    1.863640   -0.096001
     61          6           0       15.420515    2.077955   -1.088232
     62          6           0       16.050508    3.499086   -0.623798
     63          6           0       17.443537    3.876671   -1.475478
     64          6           0       17.011754    4.077090   -2.938798
     65          6           0       18.123593    5.102383   -0.814172
     66          1           0       -2.342563    1.027560    3.240445
     67          1           0       -6.173505    5.673185    0.545357
     68          1           0       -8.925951    1.044738   -3.293927
     69          1           0       -3.802307   -3.401259    1.772736
     70          1           0       -1.791964   -0.995547    2.851584
     71          1           0       -2.859304   -2.888462    4.111188
     72          1           0       -3.128971   -1.236483    4.612551
     73          1           0       -4.557597   -1.827353    3.745272
     74          1           0       -2.360191   -3.390542   -0.365507
     75          1           0       -1.393393   -1.900356    0.137741
     76          1           0       -0.659336   -2.817555    2.114560
     77          1           0       -1.216151   -4.599358    1.833436
     78          1           0       -1.657158    3.566362    4.040154
     79          1           0       -2.794765    4.718073    4.698838
     80          1           0       -2.989314    3.246741    5.211025
     81          1           0       -5.476191    6.621555    2.666576
     82          1           0       -9.883157    3.129859   -3.123583
     83          1           0      -10.209973    4.629239   -2.688654
     84          1           0       -9.292149    4.054245   -5.349111
     85          1           0       -8.069977    4.957111   -4.484770
     86          1           0       -7.966943    3.371595   -4.744484
     87          1           0       -8.707894   -0.902519   -4.728760
     88          1           0       -8.331534   -2.568724   -3.994586
     89          1           0       -9.504998   -1.498118   -3.495473
     90          1           0       -4.283369   -3.891793   -1.359699
     91          1           0        2.457651   -6.247435    0.975366
     92          1           0        2.363648   -5.163495   -0.498402
     93          1           0        3.584152   -4.387193    2.020364
     94          1           0        2.618746   -3.317756   -1.408087
     95          1           0        3.829140   -2.013503   -1.582729
     96          1           0        4.480368   -3.876066   -1.686608
     97          1           0        4.885737   -1.383889    0.659555
     98          1           0        5.032522   -2.594028    1.917449
     99          1           0        6.755132   -3.962686    0.359440
    100          1           0        6.355348   -2.702488   -0.954565
    101          1           0        7.325407   -0.780189    0.696809
    102          1           0        7.819106   -2.077347    1.855722
    103          1           0        8.740805   -1.427761   -1.023318
    104          1           0        8.819529   -4.211058   -0.618788
    105          1           0       10.617020   -3.332656   -0.594254
    106          1           0        9.864366   -3.878578    0.975246
    107          1           0        9.506441    0.093484    0.765242
    108          1           0       10.541439   -1.300835    1.690703
    109          1           0       11.661919   -1.704430   -0.206854
    110          1           0       10.810588   -0.655017   -1.188826
    111          1           0       11.494904    1.156144    0.237993
    112          1           0       12.642033   -0.021654    1.270123
    113          1           0       13.074854    0.873287   -1.612928
    114          1           0       14.590032   -1.042464    0.464934
    115          1           0       13.522514   -1.562772   -0.967929
    116          1           0       15.165550   -0.801970   -1.125370
    117          1           0       13.620847    2.708270   -0.248548
    118          1           0       14.717734    1.862838    0.889904
    119          1           0       16.181784    1.521325   -1.211406
    120          1           0       15.074491    2.264134   -2.073928
    121          1           0       15.211492    4.390305   -0.726510
    122          1           0       16.317297    3.495356    0.403940
    123          1           0       18.064896    2.891157   -1.440704
    124          1           0       16.128747    4.636093   -2.941039
    125          1           0       17.976881    4.318131   -3.400336
    126          1           0       16.650336    3.249402   -3.454330
    127          1           0       18.437231    4.832862    0.194389
    128          1           0       18.908146    5.451428   -1.254621
    129          1           0       17.258838    5.925903   -0.837515
    130          1           0       -5.361772   -7.885831   -0.078343
    131          1           0       -6.658675   -6.964830    0.755943
    132          1           0       -5.106607   -6.965473    1.577231
    133          8           0       -7.879282    6.884901   -0.364261
    134          1           0       -9.043982    6.367860   -1.826379
 ---------------------------------------------------------------------
 Rotational constants (GHZ):      0.0346055      0.0081120      0.0071678
 Standard basis: 6-31G(d,p) (6D, 7F)
 There are  1334 symmetry adapted cartesian basis functions of A   symmetry.
 There are  1334 symmetry adapted basis functions of A   symmetry.
  1334 basis functions,  2348 primitive gaussians,  1334 cartesian basis functions
   244 alpha electrons      244 beta electrons
       nuclear repulsion energy      9117.6767550768 Hartrees.
 NAtoms=  134 NActive=  134 NUniq=  134 SFac= 1.00D+00 NAtFMM=   60 NAOKFM=T Big=T
 Integral buffers will be    131072 words long.
 Raffenetti 1 integral format.
 Two-electron integral symmetry is turned on.
 One-electron integrals computed using PRISM.
 NBasis=  1334 RedAO= T EigKep=  3.07D-04  NBF=  1334
 NBsUse=  1334 1.00D-06 EigRej= -1.00D+00 NBFU=  1334
 ExpMin= 4.21D-02 ExpMax= 1.17D+04 ExpMxC= 1.76D+03 IAcc=2 IRadAn=         4 AccDes= 0.00D+00
 Harris functional with IExCor=20419 and IRadAn=       4 diagonalized for initial guess.
 HarFok:  IExCor=20419 AccDes= 0.00D+00 IRadAn=         4 IDoV= 1 UseB2=F ITyADJ=14
 ICtDFT=  3500011 ScaDFX=  1.000000  1.000000  1.000000  1.000000
 FoFCou: FMM=F IPFlag=           0 FMFlag=      100000 FMFlg1=        2001
         NFxFlg=           0 DoJE=T BraDBF=F KetDBF=T FulRan=T
         wScrn=  0.000000 ICntrl=     500 IOpCl=  0 I1Cent=   200000004 NGrid=           0
         NMat0=    1 NMatS0=      1 NMatT0=    0 NMatD0=    1 NMtDS0=    0 NMtDT0=    0
 Petite list used in FoFCou.
 Requested convergence on RMS density matrix=1.00D-08 within 128 cycles.
 Requested convergence on MAX density matrix=1.00D-06.
 Requested convergence on             energy=1.00D-06.
 No special actions if energy rises.
 SCF Done:  E(RCAM-B3LYP) =  -3043.44271566     A.U. after   15 cycles
            NFock= 15  Conv=0.81D-08     -V/T= 2.0091
 DoSCS=F DFT=T ScalE2(SS,OS)=  1.000000  1.000000
 ExpMin= 4.21D-02 ExpMax= 1.17D+04 ExpMxC= 1.76D+03 IAcc=3 IRadAn=         5 AccDes= 0.00D+00
 HarFok:  IExCor=  205 AccDes= 0.00D+00 IRadAn=         5 IDoV=-2 UseB2=F ITyADJ=14
 ICtDFT= 12500011 ScaDFX=  1.000000  1.000000  1.000000  1.000000
 Range of M.O.s used for correlation:    71  1334
 NBasis=  1334 NAE=   244 NBE=   244 NFC=    70 NFV=     0
 NROrb=   1264 NOA=   174 NOB=   174 NVA=  1090 NVB=  1090
 Would need an additional       2379600800000 words for in-memory AO integral storage.
 Orbital symmetries:
       Occupied  (A) (A) (A) (A) (A) (A) (A) (A) (A) (A) (A) (A)
                 (A) (A) (A) (A) (A) (A) (A) (A) (A) (A) (A) (A)
                 (A) (A) (A) (A) (A) (A) (A) (A) (A) (A) (A) (A)
                 (A) (A) (A) (A) (A) (A) (A) (A) (A) (A) (A) (A)
                 (A) (A) (A) (A) (A) (A) (A) (A) (A) (A) (A) (A)
                 (A) (A) (A) (A) (A) (A) (A) (A) (A) (A) (A) (A)
                 (A) (A) (A) (A) (A) (A) (A) (A) (A) (A) (A) (A)
                 (A) (A) (A) (A) (A) (A) (A) (A) (A) (A) (A) (A)
                 (A) (A) (A) (A) (A) (A) (A) (A) (A) (A) (A) (A)
                 (A) (A) (A) (A) (A) (A) (A) (A) (A) (A) (A) (A)
                 (A) (A) (A) (A) (A) (A) (A) (A) (A) (A) (A) (A)
                 (A) (A) (A) (A) (A) (A) (A) (A) (A) (A) (A) (A)
                 (A) (A) (A) (A) (A) (A) (A) (A) (A) (A) (A) (A)
                 (A) (A) (A) (A) (A) (A) (A) (A) (A) (A) (A) (A)
                 (A) (A) (A) (A) (A) (A) (A) (A) (A) (A) (A) (A)
                 (A) (A) (A) (A) (A) (A) (A) (A) (A) (A) (A) (A)
                 (A) (A) (A) (A) (A) (A) (A) (A) (A) (A) (A) (A)
                 (A) (A) (A) (A) (A) (A) (A) (A) (A) (A) (A) (A)
                 (A) (A) (A) (A) (A) (A) (A) (A) (A) (A) (A) (A)
                 (A) (A) (A) (A) (A) (A) (A) (A) (A) (A) (A) (A)
                 (A) (A) (A) (A)
       Virtual   (A) (A) (A) (A) (A) (A) (A) (A) (A) (A) (A) (A)
                 (A) (A) (A) (A) (A) (A) (A) (A) (A) (A) (A) (A)
                 (A) (A) (A) (A) (A) (A) (A) (A) (A) (A) (A) (A)
                 (A) (A) (A) (A) (A) (A) (A) (A) (A) (A) (A) (A)
                 (A) (A) (A) (A) (A) (A) (A) (A) (A) (A) (A) (A)
                 (A) (A) (A) (A) (A) (A) (A) (A) (A) (A) (A) (A)
                 (A) (A) (A) (A) (A) (A) (A) (A) (A) (A) (A) (A)
                 (A) (A) (A) (A) (A) (A) (A) (A) (A) (A) (A) (A)
                 (A) (A) (A) (A) (A) (A) (A) (A) (A) (A) (A) (A)
                 (A) (A) (A) (A) (A) (A) (A) (A) (A) (A) (A) (A)
                 (A) (A) (A) (A) (A) (A) (A) (A) (A) (A) (A) (A)
                 (A) (A) (A) (A) (A) (A) (A) (A) (A) (A) (A) (A)
                 (A) (A) (A) (A) (A) (A) (A) (A) (A) (A) (A) (A)
                 (A) (A) (A) (A) (A) (A) (A) (A) (A) (A) (A) (A)
                 (A) (A) (A) (A) (A) (A) (A) (A) (A) (A) (A) (A)
                 (A) (A) (A) (A) (A) (A) (A) (A) (A) (A) (A) (A)
                 (A) (A) (A) (A) (A) (A) (A) (A) (A) (A) (A) (A)
                 (A) (A) (A) (A) (A) (A) (A) (A) (A) (A) (A) (A)
                 (A) (A) (A) (A) (A) (A) (A) (A) (A) (A) (A) (A)
                 (A) (A) (A) (A) (A) (A) (A) (A) (A) (A) (A) (A)
                 (A) (A) (A) (A) (A) (A) (A) (A) (A) (A) (A) (A)
                 (A) (A) (A) (A) (A) (A) (A) (A) (A) (A) (A) (A)
                 (A) (A) (A) (A) (A) (A) (A) (A) (A) (A) (A) (A)
                 (A) (A) (A) (A) (A) (A) (A) (A) (A) (A) (A) (A)
                 (A) (A) (A) (A) (A) (A) (A) (A) (A) (A) (A) (A)
                 (A) (A) (A) (A) (A) (A) (A) (A) (A) (A) (A) (A)
                 (A) (A) (A) (A) (A) (A) (A) (A) (A) (A) (A) (A)
                 (A) (A) (A) (A) (A) (A) (A) (A) (A) (A) (A) (A)
                 (A) (A) (A) (A) (A) (A) (A) (A) (A) (A) (A) (A)
                 (A) (A) (A) (A) (A) (A) (A) (A) (A) (A) (A) (A)
                 (A) (A) (A) (A) (A) (A) (A) (A) (A) (A) (A) (A)
                 (A) (A) (A) (A) (A) (A) (A) (A) (A) (A) (A) (A)
                 (A) (A) (A) (A) (A) (A) (A) (A) (A) (A) (A) (A)
                 (A) (A) (A) (A) (A) (A) (A) (A) (A) (A) (A) (A)
                 (A) (A) (A) (A) (A) (A) (A) (A) (A) (A) (A) (A)
                 (A) (A) (A) (A) (A) (A) (A) (A) (A) (A) (A) (A)
                 (A) (A) (A) (A) (A) (A) (A) (A) (A) (A) (A) (A)
                 (A) (A) (A) (A) (A) (A) (A) (A) (A) (A) (A) (A)
                 (A) (A) (A) (A) (A) (A) (A) (A) (A) (A) (A) (A)
                 (A) (A) (A) (A) (A) (A) (A) (A) (A) (A) (A) (A)
                 (A) (A) (A) (A) (A) (A) (A) (A) (A) (A) (A) (A)
                 (A) (A) (A) (A) (A) (A) (A) (A) (A) (A) (A) (A)
                 (A) (A) (A) (A) (A) (A) (A) (A) (A) (A) (A) (A)
                 (A) (A) (A) (A) (A) (A) (A) (A) (A) (A) (A) (A)
                 (A) (A) (A) (A) (A) (A) (A) (A) (A) (A) (A) (A)
                 (A) (A) (A) (A) (A) (A) (A) (A) (A) (A) (A) (A)
                 (A) (A) (A) (A) (A) (A) (A) (A) (A) (A) (A) (A)
                 (A) (A) (A) (A) (A) (A) (A) (A) (A) (A) (A) (A)
                 (A) (A) (A) (A) (A) (A) (A) (A) (A) (A) (A) (A)
                 (A) (A) (A) (A) (A) (A) (A) (A) (A) (A) (A) (A)
                 (A) (A) (A) (A) (A) (A) (A) (A) (A) (A) (A) (A)
                 (A) (A) (A) (A) (A) (A) (A) (A) (A) (A) (A) (A)
                 (A) (A) (A) (A) (A) (A) (A) (A) (A) (A) (A) (A)
                 (A) (A) (A) (A) (A) (A) (A) (A) (A) (A) (A) (A)
                 (A) (A) (A) (A) (A) (A) (A) (A) (A) (A) (A) (A)
                 (A) (A) (A) (A) (A) (A) (A) (A) (A) (A) (A) (A)
                 (A) (A) (A) (A) (A) (A) (A) (A) (A) (A) (A) (A)
                 (A) (A) (A) (A) (A) (A) (A) (A) (A) (A) (A) (A)
                 (A) (A) (A) (A) (A) (A) (A) (A) (A) (A) (A) (A)
                 (A) (A) (A) (A) (A) (A) (A) (A) (A) (A) (A) (A)
                 (A) (A) (A) (A) (A) (A) (A) (A) (A) (A) (A) (A)
                 (A) (A) (A) (A) (A) (A) (A) (A) (A) (A) (A) (A)
                 (A) (A) (A) (A) (A) (A) (A) (A) (A) (A) (A) (A)
                 (A) (A) (A) (A) (A) (A) (A) (A) (A) (A) (A) (A)
                 (A) (A) (A) (A) (A) (A) (A) (A) (A) (A) (A) (A)
                 (A) (A) (A) (A) (A) (A) (A) (A) (A) (A) (A) (A)
                 (A) (A) (A) (A) (A) (A) (A) (A) (A) (A) (A) (A)
                 (A) (A) (A) (A) (A) (A) (A) (A) (A) (A) (A) (A)
                 (A) (A) (A) (A) (A) (A) (A) (A) (A) (A) (A) (A)
                 (A) (A) (A) (A) (A) (A) (A) (A) (A) (A) (A) (A)
                 (A) (A) (A) (A) (A) (A) (A) (A) (A) (A) (A) (A)
                 (A) (A) (A) (A) (A) (A) (A) (A) (A) (A) (A) (A)
                 (A) (A) (A) (A) (A) (A) (A) (A) (A) (A) (A) (A)
                 (A) (A) (A) (A) (A) (A) (A) (A) (A) (A) (A) (A)
                 (A) (A) (A) (A) (A) (A) (A) (A) (A) (A) (A) (A)
                 (A) (A) (A) (A) (A) (A) (A) (A) (A) (A) (A) (A)
                 (A) (A) (A) (A) (A) (A) (A) (A) (A) (A) (A) (A)
                 (A) (A) (A) (A) (A) (A) (A) (A) (A) (A) (A) (A)
                 (A) (A) (A) (A) (A) (A) (A) (A) (A) (A) (A) (A)
                 (A) (A) (A) (A) (A) (A) (A) (A) (A) (A) (A) (A)
                 (A) (A) (A) (A) (A) (A) (A) (A) (A) (A) (A) (A)
                 (A) (A) (A) (A) (A) (A) (A) (A) (A) (A) (A) (A)
                 (A) (A) (A) (A) (A) (A) (A) (A) (A) (A) (A) (A)
                 (A) (A) (A) (A) (A) (A) (A) (A) (A) (A) (A) (A)
                 (A) (A) (A) (A) (A) (A) (A) (A) (A) (A) (A) (A)
                 (A) (A) (A) (A) (A) (A) (A) (A) (A) (A) (A) (A)
                 (A) (A) (A) (A) (A) (A) (A) (A) (A) (A) (A) (A)
                 (A) (A) (A) (A) (A) (A) (A) (A) (A) (A) (A) (A)
                 (A) (A) (A) (A) (A) (A) (A) (A) (A) (A) (A) (A)
                 (A) (A) (A) (A) (A) (A) (A) (A) (A) (A) (A) (A)
                 (A) (A) (A) (A) (A) (A) (A) (A) (A) (A)
     8 initial guesses have been made.
 Convergence on wavefunction:    0.001000000000000
 Iteration     1 Dimension     8 NMult     0 NNew      8
 CISAX will form     8 AO SS matrices at one time.
 Iteration     2 Dimension    12 NMult     8 NNew      4
 Iteration     3 Dimension    16 NMult    12 NNew      4
 Iteration     4 Dimension    20 NMult    16 NNew      4
 Iteration     5 Dimension    24 NMult    20 NNew      4
 Iteration     6 Dimension    28 NMult    24 NNew      4
 Iteration     7 Dimension    32 NMult    28 NNew      4
 ***********************************************************************
 Excited states from <AA,BB:AA,BB> singles matrix:
 ***********************************************************************
 
 Ground to excited state transition densities written to RWF  633
 Ground to excited state transition electric dipole moments (Au):
       state          X           Y           Z        Dip. S.      Osc.
         1        -0.8458     -1.1391     -1.3188      3.7523      0.1857
 Ground to excited state transition velocity dipole moments (Au):
       state          X           Y           Z        Dip. S.      Osc.
         1         0.0606      0.0815      0.0956      0.0195      0.1748
 Ground to excited state transition magnetic dipole moments (Au):
       state          X           Y           Z
         1         1.3528      1.3744     -2.0882
 Ground to excited state transition velocity quadrupole moments (Au):
       state          XX          YY          ZZ          XY          XZ          YZ
         1        -1.2358      0.0941      0.1968     -0.7384     -0.9232      0.1874
 <0|del|b> * <b|rxdel|0> + <0|del|b> * <b|delr+rdel|0>
 Rotatory Strengths (R) in cgs (10**-40 erg-esu-cm/Gauss)
       state          XX          YY          ZZ    R(velocity)    E-M Angle
         1      -395.7599   -170.0484    511.7619    -18.0155       90.82
 1/2[<0|r|b>*<b|rxdel|0> + (<0|rxdel|b>*<b|r|0>)*]
 Rotatory Strengths (R) in cgs (10**-40 erg-esu-cm/Gauss)
       state          XX          YY          ZZ     R(length)
         1       809.1474   1107.1643  -1947.5522    -10.4135
  1/2[<0|del|b>*<b|r|0> + (<0|r|b>*<b|del|0>)*] (Au)
       state          X           Y           Z        Dip. S.   Osc.(frdel)
         1        -0.0513     -0.0928     -0.1261      0.2702      0.1801

 Excitation energies and oscillator strengths:
 
 Excited State   1:      Singlet-A      2.0197 eV  613.89 nm  f=0.1857  <S**2>=0.000
     243 -> 246       -0.25133
     244 -> 245        0.64439
 This state for optimization and/or second-order correction.
 Total Energy, E(TD-HF/TD-KS) =  -3043.36849456    
 Copying the excited state density for this state as the 1-particle RhoCI density.
 SavETr:  write IOETrn=   770 NScale= 10 NData=  16 NLR=1 NState=    1 LETran=      28.

 **********************************************************************

            Population analysis using the SCF density.

 **********************************************************************

 Orbital symmetries:
       Occupied  (A) (A) (A) (A) (A) (A) (A) (A) (A) (A) (A) (A)
                 (A) (A) (A) (A) (A) (A) (A) (A) (A) (A) (A) (A)
                 (A) (A) (A) (A) (A) (A) (A) (A) (A) (A) (A) (A)
                 (A) (A) (A) (A) (A) (A) (A) (A) (A) (A) (A) (A)
                 (A) (A) (A) (A) (A) (A) (A) (A) (A) (A) (A) (A)
                 (A) (A) (A) (A) (A) (A) (A) (A) (A) (A) (A) (A)
                 (A) (A) (A) (A) (A) (A) (A) (A) (A) (A) (A) (A)
                 (A) (A) (A) (A) (A) (A) (A) (A) (A) (A) (A) (A)
                 (A) (A) (A) (A) (A) (A) (A) (A) (A) (A) (A) (A)
                 (A) (A) (A) (A) (A) (A) (A) (A) (A) (A) (A) (A)
                 (A) (A) (A) (A) (A) (A) (A) (A) (A) (A) (A) (A)
                 (A) (A) (A) (A) (A) (A) (A) (A) (A) (A) (A) (A)
                 (A) (A) (A) (A) (A) (A) (A) (A) (A) (A) (A) (A)
                 (A) (A) (A) (A) (A) (A) (A) (A) (A) (A) (A) (A)
                 (A) (A) (A) (A) (A) (A) (A) (A) (A) (A) (A) (A)
                 (A) (A) (A) (A) (A) (A) (A) (A) (A) (A) (A) (A)
                 (A) (A) (A) (A) (A) (A) (A) (A) (A) (A) (A) (A)
                 (A) (A) (A) (A) (A) (A) (A) (A) (A) (A) (A) (A)
                 (A) (A) (A) (A) (A) (A) (A) (A) (A) (A) (A) (A)
                 (A) (A) (A) (A) (A) (A) (A) (A) (A) (A) (A) (A)
                 (A) (A) (A) (A)
       Virtual   (A) (A) (A) (A) (A) (A) (A) (A) (A) (A) (A) (A)
                 (A) (A) (A) (A) (A) (A) (A) (A) (A) (A) (A) (A)
                 (A) (A) (A) (A) (A) (A) (A) (A) (A) (A) (A) (A)
                 (A) (A) (A) (A) (A) (A) (A) (A) (A) (A) (A) (A)
                 (A) (A) (A) (A) (A) (A) (A) (A) (A) (A) (A) (A)
                 (A) (A) (A) (A) (A) (A) (A) (A) (A) (A) (A) (A)
                 (A) (A) (A) (A) (A) (A) (A) (A) (A) (A) (A) (A)
                 (A) (A) (A) (A) (A) (A) (A) (A) (A) (A) (A) (A)
                 (A) (A) (A) (A) (A) (A) (A) (A) (A) (A) (A) (A)
                 (A) (A) (A) (A) (A) (A) (A) (A) (A) (A) (A) (A)
                 (A) (A) (A) (A) (A) (A) (A) (A) (A) (A) (A) (A)
                 (A) (A) (A) (A) (A) (A) (A) (A) (A) (A) (A) (A)
                 (A) (A) (A) (A) (A) (A) (A) (A) (A) (A) (A) (A)
                 (A) (A) (A) (A) (A) (A) (A) (A) (A) (A) (A) (A)
                 (A) (A) (A) (A) (A) (A) (A) (A) (A) (A) (A) (A)
                 (A) (A) (A) (A) (A) (A) (A) (A) (A) (A) (A) (A)
                 (A) (A) (A) (A) (A) (A) (A) (A) (A) (A) (A) (A)
                 (A) (A) (A) (A) (A) (A) (A) (A) (A) (A) (A) (A)
                 (A) (A) (A) (A) (A) (A) (A) (A) (A) (A) (A) (A)
                 (A) (A) (A) (A) (A) (A) (A) (A) (A) (A) (A) (A)
                 (A) (A) (A) (A) (A) (A) (A) (A) (A) (A) (A) (A)
                 (A) (A) (A) (A) (A) (A) (A) (A) (A) (A) (A) (A)
                 (A) (A) (A) (A) (A) (A) (A) (A) (A) (A) (A) (A)
                 (A) (A) (A) (A) (A) (A) (A) (A) (A) (A) (A) (A)
                 (A) (A) (A) (A) (A) (A) (A) (A) (A) (A) (A) (A)
                 (A) (A) (A) (A) (A) (A) (A) (A) (A) (A) (A) (A)
                 (A) (A) (A) (A) (A) (A) (A) (A) (A) (A) (A) (A)
                 (A) (A) (A) (A) (A) (A) (A) (A) (A) (A) (A) (A)
                 (A) (A) (A) (A) (A) (A) (A) (A) (A) (A) (A) (A)
                 (A) (A) (A) (A) (A) (A) (A) (A) (A) (A) (A) (A)
                 (A) (A) (A) (A) (A) (A) (A) (A) (A) (A) (A) (A)
                 (A) (A) (A) (A) (A) (A) (A) (A) (A) (A) (A) (A)
                 (A) (A) (A) (A) (A) (A) (A) (A) (A) (A) (A) (A)
                 (A) (A) (A) (A) (A) (A) (A) (A) (A) (A) (A) (A)
                 (A) (A) (A) (A) (A) (A) (A) (A) (A) (A) (A) (A)
                 (A) (A) (A) (A) (A) (A) (A) (A) (A) (A) (A) (A)
                 (A) (A) (A) (A) (A) (A) (A) (A) (A) (A) (A) (A)
                 (A) (A) (A) (A) (A) (A) (A) (A) (A) (A) (A) (A)
                 (A) (A) (A) (A) (A) (A) (A) (A) (A) (A) (A) (A)
                 (A) (A) (A) (A) (A) (A) (A) (A) (A) (A) (A) (A)
                 (A) (A) (A) (A) (A) (A) (A) (A) (A) (A) (A) (A)
                 (A) (A) (A) (A) (A) (A) (A) (A) (A) (A) (A) (A)
                 (A) (A) (A) (A) (A) (A) (A) (A) (A) (A) (A) (A)
                 (A) (A) (A) (A) (A) (A) (A) (A) (A) (A) (A) (A)
                 (A) (A) (A) (A) (A) (A) (A) (A) (A) (A) (A) (A)
                 (A) (A) (A) (A) (A) (A) (A) (A) (A) (A) (A) (A)
                 (A) (A) (A) (A) (A) (A) (A) (A) (A) (A) (A) (A)
                 (A) (A) (A) (A) (A) (A) (A) (A) (A) (A) (A) (A)
                 (A) (A) (A) (A) (A) (A) (A) (A) (A) (A) (A) (A)
                 (A) (A) (A) (A) (A) (A) (A) (A) (A) (A) (A) (A)
                 (A) (A) (A) (A) (A) (A) (A) (A) (A) (A) (A) (A)
                 (A) (A) (A) (A) (A) (A) (A) (A) (A) (A) (A) (A)
                 (A) (A) (A) (A) (A) (A) (A) (A) (A) (A) (A) (A)
                 (A) (A) (A) (A) (A) (A) (A) (A) (A) (A) (A) (A)
                 (A) (A) (A) (A) (A) (A) (A) (A) (A) (A) (A) (A)
                 (A) (A) (A) (A) (A) (A) (A) (A) (A) (A) (A) (A)
                 (A) (A) (A) (A) (A) (A) (A) (A) (A) (A) (A) (A)
                 (A) (A) (A) (A) (A) (A) (A) (A) (A) (A) (A) (A)
                 (A) (A) (A) (A) (A) (A) (A) (A) (A) (A) (A) (A)
                 (A) (A) (A) (A) (A) (A) (A) (A) (A) (A) (A) (A)
                 (A) (A) (A) (A) (A) (A) (A) (A) (A) (A) (A) (A)
                 (A) (A) (A) (A) (A) (A) (A) (A) (A) (A) (A) (A)
                 (A) (A) (A) (A) (A) (A) (A) (A) (A) (A) (A) (A)
                 (A) (A) (A) (A) (A) (A) (A) (A) (A) (A) (A) (A)
                 (A) (A) (A) (A) (A) (A) (A) (A) (A) (A) (A) (A)
                 (A) (A) (A) (A) (A) (A) (A) (A) (A) (A) (A) (A)
                 (A) (A) (A) (A) (A) (A) (A) (A) (A) (A) (A) (A)
                 (A) (A) (A) (A) (A) (A) (A) (A) (A) (A) (A) (A)
                 (A) (A) (A) (A) (A) (A) (A) (A) (A) (A) (A) (A)
                 (A) (A) (A) (A) (A) (A) (A) (A) (A) (A) (A) (A)
                 (A) (A) (A) (A) (A) (A) (A) (A) (A) (A) (A) (A)
                 (A) (A) (A) (A) (A) (A) (A) (A) (A) (A) (A) (A)
                 (A) (A) (A) (A) (A) (A) (A) (A) (A) (A) (A) (A)
                 (A) (A) (A) (A) (A) (A) (A) (A) (A) (A) (A) (A)
                 (A) (A) (A) (A) (A) (A) (A) (A) (A) (A) (A) (A)
                 (A) (A) (A) (A) (A) (A) (A) (A) (A) (A) (A) (A)
                 (A) (A) (A) (A) (A) (A) (A) (A) (A) (A) (A) (A)
                 (A) (A) (A) (A) (A) (A) (A) (A) (A) (A) (A) (A)
                 (A) (A) (A) (A) (A) (A) (A) (A) (A) (A) (A) (A)
                 (A) (A) (A) (A) (A) (A) (A) (A) (A) (A) (A) (A)
                 (A) (A) (A) (A) (A) (A) (A) (A) (A) (A) (A) (A)
                 (A) (A) (A) (A) (A) (A) (A) (A) (A) (A) (A) (A)
                 (A) (A) (A) (A) (A) (A) (A) (A) (A) (A) (A) (A)
                 (A) (A) (A) (A) (A) (A) (A) (A) (A) (A) (A) (A)
                 (A) (A) (A) (A) (A) (A) (A) (A) (A) (A) (A) (A)
                 (A) (A) (A) (A) (A) (A) (A) (A) (A) (A) (A) (A)
                 (A) (A) (A) (A) (A) (A) (A) (A) (A) (A) (A) (A)
                 (A) (A) (A) (A) (A) (A) (A) (A) (A) (A) (A) (A)
                 (A) (A) (A) (A) (A) (A) (A) (A) (A) (A) (A) (A)
                 (A) (A) (A) (A) (A) (A) (A) (A) (A) (A) (A) (A)
                 (A) (A) (A) (A) (A) (A) (A) (A) (A) (A)
 The electronic state is 1-A.
 Alpha  occ. eigenvalues --  -46.80548 -19.23595 -19.21988 -19.17641 -19.17305
 Alpha  occ. eigenvalues --  -19.17135 -19.17035 -19.15429 -14.38041 -14.37527
 Alpha  occ. eigenvalues --  -14.36682 -14.36488 -10.35071 -10.34396 -10.31761
 Alpha  occ. eigenvalues --  -10.30950 -10.30198 -10.28831 -10.27468 -10.27364
 Alpha  occ. eigenvalues --  -10.27162 -10.27029 -10.26930 -10.26604 -10.26338
 Alpha  occ. eigenvalues --  -10.26068 -10.26025 -10.25789 -10.25357 -10.24911
 Alpha  occ. eigenvalues --  -10.24563 -10.24454 -10.24416 -10.24223 -10.24142
 Alpha  occ. eigenvalues --  -10.24117 -10.23932 -10.23772 -10.23764 -10.23718
 Alpha  occ. eigenvalues --  -10.23419 -10.23230 -10.23192 -10.23017 -10.22580
 Alpha  occ. eigenvalues --  -10.22566 -10.22518 -10.22490 -10.22306 -10.22282
 Alpha  occ. eigenvalues --  -10.22092 -10.22062 -10.21740 -10.21653 -10.21585
 Alpha  occ. eigenvalues --  -10.21350 -10.21127 -10.20768 -10.20573 -10.20557
 Alpha  occ. eigenvalues --  -10.20504 -10.20201 -10.19824 -10.19005 -10.18829
 Alpha  occ. eigenvalues --  -10.18679  -3.09302  -1.84229  -1.83795  -1.83710
 Alpha  occ. eigenvalues --   -1.14444  -1.13955  -1.08564  -1.07376  -1.05785
 Alpha  occ. eigenvalues --   -1.05267  -1.02483  -1.01238  -0.99379  -0.98775
 Alpha  occ. eigenvalues --   -0.97732  -0.88928  -0.86284  -0.85641  -0.85135
 Alpha  occ. eigenvalues --   -0.84559  -0.84300  -0.84194  -0.83789  -0.83430
 Alpha  occ. eigenvalues --   -0.82811  -0.82033  -0.81079  -0.80311  -0.79450
 Alpha  occ. eigenvalues --   -0.79101  -0.78382  -0.77962  -0.77222  -0.76813
 Alpha  occ. eigenvalues --   -0.75550  -0.74706  -0.73890  -0.73193  -0.72340
 Alpha  occ. eigenvalues --   -0.71982  -0.71181  -0.70306  -0.69831  -0.69775
 Alpha  occ. eigenvalues --   -0.69240  -0.68061  -0.67875  -0.66955  -0.66592
 Alpha  occ. eigenvalues --   -0.65485  -0.64208  -0.64083  -0.62877  -0.62166
 Alpha  occ. eigenvalues --   -0.61082  -0.60557  -0.59754  -0.59219  -0.58409
 Alpha  occ. eigenvalues --   -0.58266  -0.57712  -0.57319  -0.56879  -0.56758
 Alpha  occ. eigenvalues --   -0.56203  -0.56071  -0.55653  -0.55036  -0.54720
 Alpha  occ. eigenvalues --   -0.54147  -0.53406  -0.53101  -0.52588  -0.52031
 Alpha  occ. eigenvalues --   -0.51896  -0.51567  -0.51471  -0.50657  -0.50196
 Alpha  occ. eigenvalues --   -0.49897  -0.49701  -0.49499  -0.49037  -0.48856
 Alpha  occ. eigenvalues --   -0.48611  -0.48443  -0.48355  -0.47859  -0.47824
 Alpha  occ. eigenvalues --   -0.47562  -0.47237  -0.47031  -0.46925  -0.46836
 Alpha  occ. eigenvalues --   -0.46471  -0.46287  -0.46193  -0.46032  -0.45894
 Alpha  occ. eigenvalues --   -0.45690  -0.45381  -0.45250  -0.45206  -0.44844
 Alpha  occ. eigenvalues --   -0.44599  -0.44437  -0.44273  -0.44177  -0.43850
 Alpha  occ. eigenvalues --   -0.43814  -0.43515  -0.43134  -0.42752  -0.42706
 Alpha  occ. eigenvalues --   -0.42469  -0.42363  -0.42154  -0.41983  -0.41865
 Alpha  occ. eigenvalues --   -0.41702  -0.41607  -0.41186  -0.41118  -0.40922
 Alpha  occ. eigenvalues --   -0.40706  -0.40679  -0.40530  -0.40352  -0.40031
 Alpha  occ. eigenvalues --   -0.39884  -0.39700  -0.39417  -0.39342  -0.39129
 Alpha  occ. eigenvalues --   -0.38974  -0.38659  -0.38168  -0.38149  -0.37994
 Alpha  occ. eigenvalues --   -0.37729  -0.37397  -0.37387  -0.37191  -0.36768
 Alpha  occ. eigenvalues --   -0.36352  -0.36275  -0.36176  -0.35743  -0.35595
 Alpha  occ. eigenvalues --   -0.35338  -0.35259  -0.34936  -0.34825  -0.34192
 Alpha  occ. eigenvalues --   -0.33982  -0.33696  -0.33332  -0.33287  -0.33261
 Alpha  occ. eigenvalues --   -0.32994  -0.32272  -0.32065  -0.31696  -0.31176
 Alpha  occ. eigenvalues --   -0.31163  -0.30692  -0.29678  -0.29220  -0.29043
 Alpha  occ. eigenvalues --   -0.28584  -0.28393  -0.28186  -0.27996  -0.27663
 Alpha  occ. eigenvalues --   -0.27470  -0.26824  -0.22926  -0.21885
 Alpha virt. eigenvalues --   -0.08917  -0.06348  -0.01347  -0.01014   0.00864
 Alpha virt. eigenvalues --    0.03349   0.03707   0.04080   0.04484   0.04561
 Alpha virt. eigenvalues --    0.05009   0.05454   0.07113   0.08135   0.08640
 Alpha virt. eigenvalues --    0.09343   0.09454   0.10601   0.10820   0.10907
 Alpha virt. eigenvalues --    0.11313   0.11739   0.11919   0.11930   0.12132
 Alpha virt. eigenvalues --    0.12458   0.12560   0.13025   0.13132   0.13304
 Alpha virt. eigenvalues --    0.13316   0.13453   0.13678   0.13837   0.13934
 Alpha virt. eigenvalues --    0.14091   0.14304   0.14390   0.14800   0.15163
 Alpha virt. eigenvalues --    0.15217   0.15334   0.15450   0.15575   0.15941
 Alpha virt. eigenvalues --    0.16274   0.16644   0.16807   0.16831   0.16942
 Alpha virt. eigenvalues --    0.17246   0.17350   0.17577   0.17771   0.17822
 Alpha virt. eigenvalues --    0.17980   0.18139   0.18218   0.18362   0.18463
 Alpha virt. eigenvalues --    0.18687   0.18829   0.19002   0.19353   0.19513
 Alpha virt. eigenvalues --    0.19608   0.19710   0.19828   0.20081   0.20250
 Alpha virt. eigenvalues --    0.20514   0.20572   0.20818   0.21147   0.21180
 Alpha virt. eigenvalues --    0.21308   0.21490   0.21781   0.21941   0.22292
 Alpha virt. eigenvalues --    0.22379   0.22559   0.22842   0.22972   0.23372
 Alpha virt. eigenvalues --    0.23478   0.23565   0.23886   0.24020   0.24068
 Alpha virt. eigenvalues --    0.24208   0.24757   0.24892   0.25045   0.25128
 Alpha virt. eigenvalues --    0.25413   0.25591   0.25835   0.25986   0.26215
 Alpha virt. eigenvalues --    0.26305   0.26500   0.26655   0.26836   0.26881
 Alpha virt. eigenvalues --    0.27028   0.27451   0.27567   0.27797   0.27973
 Alpha virt. eigenvalues --    0.28242   0.28292   0.28457   0.28835   0.29471
 Alpha virt. eigenvalues --    0.29609   0.29922   0.30205   0.30266   0.30324
 Alpha virt. eigenvalues --    0.30547   0.31098   0.31347   0.31720   0.32172
 Alpha virt. eigenvalues --    0.32241   0.32561   0.32989   0.33394   0.33650
 Alpha virt. eigenvalues --    0.34251   0.34862   0.35240   0.35983   0.36154
 Alpha virt. eigenvalues --    0.36577   0.37285   0.37740   0.38162   0.38408
 Alpha virt. eigenvalues --    0.38427   0.39208   0.39492   0.40401   0.40735
 Alpha virt. eigenvalues --    0.41558   0.42328   0.42942   0.43570   0.43994
 Alpha virt. eigenvalues --    0.44485   0.45638   0.45880   0.46361   0.46945
 Alpha virt. eigenvalues --    0.47876   0.48450   0.48677   0.49249   0.49791
 Alpha virt. eigenvalues --    0.49842   0.50553   0.50797   0.51036   0.51320
 Alpha virt. eigenvalues --    0.51424   0.51715   0.52047   0.52368   0.52531
 Alpha virt. eigenvalues --    0.52835   0.53023   0.53193   0.53610   0.53628
 Alpha virt. eigenvalues --    0.53929   0.54021   0.54451   0.54462   0.54768
 Alpha virt. eigenvalues --    0.55211   0.55460   0.55843   0.55971   0.56224
 Alpha virt. eigenvalues --    0.56273   0.56407   0.56573   0.56831   0.57162
 Alpha virt. eigenvalues --    0.57424   0.57721   0.57801   0.57956   0.58236
 Alpha virt. eigenvalues --    0.58448   0.58853   0.59474   0.59588   0.59910
 Alpha virt. eigenvalues --    0.60096   0.60527   0.60721   0.60924   0.61115
 Alpha virt. eigenvalues --    0.61575   0.61958   0.62025   0.62061   0.62342
 Alpha virt. eigenvalues --    0.62465   0.62678   0.62731   0.62984   0.63496
 Alpha virt. eigenvalues --    0.63773   0.64020   0.64348   0.64870   0.64902
 Alpha virt. eigenvalues --    0.65113   0.65241   0.65554   0.65616   0.65939
 Alpha virt. eigenvalues --    0.66539   0.66729   0.67030   0.67250   0.67615
 Alpha virt. eigenvalues --    0.68164   0.68361   0.68497   0.68805   0.69064
 Alpha virt. eigenvalues --    0.69263   0.69765   0.69816   0.70193   0.70297
 Alpha virt. eigenvalues --    0.70439   0.70537   0.70803   0.70921   0.71082
 Alpha virt. eigenvalues --    0.71192   0.71368   0.71636   0.72072   0.72115
 Alpha virt. eigenvalues --    0.72438   0.72630   0.72959   0.73362   0.73664
 Alpha virt. eigenvalues --    0.73811   0.74053   0.74489   0.74986   0.75236
 Alpha virt. eigenvalues --    0.75783   0.76062   0.76184   0.76243   0.76384
 Alpha virt. eigenvalues --    0.76475   0.77030   0.77307   0.77781   0.77892
 Alpha virt. eigenvalues --    0.78154   0.78286   0.78708   0.78876   0.78963
 Alpha virt. eigenvalues --    0.79149   0.79449   0.79741   0.79940   0.80045
 Alpha virt. eigenvalues --    0.80489   0.80684   0.81092   0.81377   0.81504
 Alpha virt. eigenvalues --    0.81543   0.81822   0.81896   0.82390   0.82429
 Alpha virt. eigenvalues --    0.82831   0.83051   0.83121   0.83270   0.83376
 Alpha virt. eigenvalues --    0.83662   0.83836   0.83988   0.84415   0.84669
 Alpha virt. eigenvalues --    0.84783   0.84806   0.85127   0.85287   0.85328
 Alpha virt. eigenvalues --    0.85577   0.86165   0.86200   0.86560   0.87081
 Alpha virt. eigenvalues --    0.87142   0.87315   0.87371   0.87710   0.87953
 Alpha virt. eigenvalues --    0.87998   0.88598   0.88895   0.88926   0.89003
 Alpha virt. eigenvalues --    0.89062   0.89339   0.89739   0.89815   0.90046
 Alpha virt. eigenvalues --    0.90229   0.90324   0.90647   0.90855   0.90894
 Alpha virt. eigenvalues --    0.91198   0.91756   0.91944   0.92079   0.92351
 Alpha virt. eigenvalues --    0.92636   0.92669   0.92771   0.92914   0.93349
 Alpha virt. eigenvalues --    0.93832   0.93896   0.94283   0.94343   0.94378
 Alpha virt. eigenvalues --    0.94568   0.94716   0.95152   0.95366   0.95449
 Alpha virt. eigenvalues --    0.95847   0.95945   0.96268   0.96576   0.96949
 Alpha virt. eigenvalues --    0.97112   0.97408   0.97529   0.97786   0.97838
 Alpha virt. eigenvalues --    0.98052   0.98398   0.98522   0.98579   0.98715
 Alpha virt. eigenvalues --    0.99224   0.99433   0.99674   1.00170   1.00185
 Alpha virt. eigenvalues --    1.00542   1.00738   1.00862   1.01111   1.01369
 Alpha virt. eigenvalues --    1.01486   1.01858   1.02002   1.02291   1.02748
 Alpha virt. eigenvalues --    1.02997   1.03306   1.03580   1.03816   1.04397
 Alpha virt. eigenvalues --    1.04624   1.04971   1.05167   1.05434   1.05565
 Alpha virt. eigenvalues --    1.05995   1.06305   1.06682   1.06857   1.07191
 Alpha virt. eigenvalues --    1.07341   1.07833   1.08339   1.08744   1.09086
 Alpha virt. eigenvalues --    1.09841   1.09953   1.10129   1.10491   1.10732
 Alpha virt. eigenvalues --    1.11624   1.11923   1.12243   1.12472   1.12950
 Alpha virt. eigenvalues --    1.13675   1.14044   1.14526   1.14734   1.15764
 Alpha virt. eigenvalues --    1.16195   1.17733   1.18353   1.19242   1.19536
 Alpha virt. eigenvalues --    1.20049   1.20310   1.20456   1.20960   1.21580
 Alpha virt. eigenvalues --    1.22008   1.22431   1.23124   1.23255   1.23939
 Alpha virt. eigenvalues --    1.24379   1.24714   1.24863   1.25612   1.25841
 Alpha virt. eigenvalues --    1.26760   1.27224   1.28037   1.28756   1.28770
 Alpha virt. eigenvalues --    1.29448   1.29967   1.30148   1.30359   1.30918
 Alpha virt. eigenvalues --    1.30984   1.32002   1.32401   1.32678   1.33456
 Alpha virt. eigenvalues --    1.33613   1.33834   1.34493   1.34807   1.35660
 Alpha virt. eigenvalues --    1.36210   1.36595   1.36761   1.36956   1.37571
 Alpha virt. eigenvalues --    1.37871   1.38297   1.38993   1.39278   1.39703
 Alpha virt. eigenvalues --    1.40015   1.40496   1.40560   1.41939   1.42447
 Alpha virt. eigenvalues --    1.43439   1.43922   1.44364   1.44652   1.45235
 Alpha virt. eigenvalues --    1.45665   1.46224   1.46818   1.47475   1.47927
 Alpha virt. eigenvalues --    1.48013   1.48598   1.49071   1.49389   1.49694
 Alpha virt. eigenvalues --    1.50068   1.50276   1.51230   1.51577   1.51910
 Alpha virt. eigenvalues --    1.52383   1.52558   1.53354   1.53448   1.53977
 Alpha virt. eigenvalues --    1.54197   1.54485   1.54761   1.55957   1.56672
 Alpha virt. eigenvalues --    1.56865   1.56978   1.58034   1.58408   1.58678
 Alpha virt. eigenvalues --    1.58832   1.59119   1.59637   1.59893   1.59944
 Alpha virt. eigenvalues --    1.60598   1.61118   1.61395   1.61565   1.61741
 Alpha virt. eigenvalues --    1.61910   1.62968   1.63171   1.63350   1.63417
 Alpha virt. eigenvalues --    1.64146   1.64370   1.64490   1.65280   1.65929
 Alpha virt. eigenvalues --    1.66202   1.66789   1.67250   1.67498   1.68385
 Alpha virt. eigenvalues --    1.69080   1.69501   1.69780   1.70090   1.70190
 Alpha virt. eigenvalues --    1.71166   1.71227   1.71484   1.71878   1.72761
 Alpha virt. eigenvalues --    1.73182   1.73492   1.74010   1.74111   1.74346
 Alpha virt. eigenvalues --    1.74979   1.75404   1.75601   1.76199   1.76863
 Alpha virt. eigenvalues --    1.77536   1.77626   1.77743   1.77996   1.78100
 Alpha virt. eigenvalues --    1.78484   1.79049   1.79204   1.79798   1.80328
 Alpha virt. eigenvalues --    1.80431   1.80633   1.80862   1.81518   1.81575
 Alpha virt. eigenvalues --    1.81941   1.82274   1.83056   1.83251   1.83413
 Alpha virt. eigenvalues --    1.83544   1.83859   1.83918   1.84330   1.84634
 Alpha virt. eigenvalues --    1.84741   1.84938   1.85136   1.85323   1.85426
 Alpha virt. eigenvalues --    1.85566   1.86037   1.86142   1.86342   1.86856
 Alpha virt. eigenvalues --    1.86990   1.87059   1.87333   1.87696   1.87782
 Alpha virt. eigenvalues --    1.88148   1.88272   1.88338   1.88496   1.88916
 Alpha virt. eigenvalues --    1.89214   1.89410   1.89807   1.90198   1.90462
 Alpha virt. eigenvalues --    1.90483   1.90654   1.90688   1.91186   1.91595
 Alpha virt. eigenvalues --    1.91733   1.92075   1.92547   1.92658   1.92792
 Alpha virt. eigenvalues --    1.93012   1.93101   1.93319   1.93663   1.94033
 Alpha virt. eigenvalues --    1.94501   1.94686   1.94885   1.95093   1.95199
 Alpha virt. eigenvalues --    1.95283   1.95627   1.95813   1.96054   1.97067
 Alpha virt. eigenvalues --    1.97191   1.97493   1.97617   1.98424   1.98698
 Alpha virt. eigenvalues --    1.98958   1.99090   1.99360   1.99575   1.99983
 Alpha virt. eigenvalues --    2.00437   2.00606   2.01294   2.01321   2.01772
 Alpha virt. eigenvalues --    2.02357   2.02619   2.03140   2.03367   2.03535
 Alpha virt. eigenvalues --    2.03726   2.03917   2.04131   2.04269   2.04550
 Alpha virt. eigenvalues --    2.05130   2.05411   2.05440   2.05486   2.06326
 Alpha virt. eigenvalues --    2.06514   2.06832   2.07017   2.07724   2.08164
 Alpha virt. eigenvalues --    2.08606   2.08839   2.09309   2.09394   2.09775
 Alpha virt. eigenvalues --    2.10022   2.10218   2.10424   2.10640   2.11016
 Alpha virt. eigenvalues --    2.11676   2.11933   2.12002   2.12077   2.12217
 Alpha virt. eigenvalues --    2.12572   2.12988   2.13602   2.13974   2.14016
 Alpha virt. eigenvalues --    2.14178   2.15034   2.15639   2.15841   2.16242
 Alpha virt. eigenvalues --    2.16638   2.17051   2.17651   2.18127   2.18439
 Alpha virt. eigenvalues --    2.18596   2.18971   2.19236   2.19710   2.20136
 Alpha virt. eigenvalues --    2.20403   2.20471   2.20775   2.21026   2.21107
 Alpha virt. eigenvalues --    2.21883   2.22206   2.22619   2.23099   2.23654
 Alpha virt. eigenvalues --    2.23865   2.24650   2.24702   2.24856   2.25387
 Alpha virt. eigenvalues --    2.25820   2.25997   2.26114   2.26183   2.26783
 Alpha virt. eigenvalues --    2.26832   2.27063   2.27472   2.28156   2.28600
 Alpha virt. eigenvalues --    2.28673   2.28911   2.29064   2.29263   2.29625
 Alpha virt. eigenvalues --    2.29720   2.30305   2.30435   2.30715   2.30762
 Alpha virt. eigenvalues --    2.30982   2.31137   2.31418   2.32044   2.32453
 Alpha virt. eigenvalues --    2.32645   2.32981   2.33411   2.33743   2.34049
 Alpha virt. eigenvalues --    2.34441   2.34551   2.34994   2.35471   2.35718
 Alpha virt. eigenvalues --    2.35890   2.36151   2.36569   2.36601   2.37160
 Alpha virt. eigenvalues --    2.37416   2.37636   2.37885   2.38518   2.38640
 Alpha virt. eigenvalues --    2.38861   2.39023   2.39097   2.39588   2.39751
 Alpha virt. eigenvalues --    2.39886   2.40206   2.40583   2.40931   2.41034
 Alpha virt. eigenvalues --    2.41752   2.41954   2.42945   2.43134   2.43530
 Alpha virt. eigenvalues --    2.43581   2.43848   2.44227   2.44312   2.44833
 Alpha virt. eigenvalues --    2.45714   2.45964   2.46689   2.47225   2.47471
 Alpha virt. eigenvalues --    2.47610   2.48152   2.48525   2.48684   2.48974
 Alpha virt. eigenvalues --    2.49172   2.49450   2.49716   2.49762   2.50263
 Alpha virt. eigenvalues --    2.50451   2.50663   2.50784   2.52069   2.52630
 Alpha virt. eigenvalues --    2.53326   2.53500   2.53839   2.54373   2.54603
 Alpha virt. eigenvalues --    2.55255   2.55731   2.56131   2.56328   2.56558
 Alpha virt. eigenvalues --    2.56821   2.57016   2.57498   2.58040   2.58387
 Alpha virt. eigenvalues --    2.58762   2.58783   2.59431   2.59598   2.59806
 Alpha virt. eigenvalues --    2.60158   2.60252   2.61152   2.61548   2.61691
 Alpha virt. eigenvalues --    2.62130   2.62255   2.62302   2.63067   2.63688
 Alpha virt. eigenvalues --    2.63747   2.64046   2.64394   2.65241   2.65348
 Alpha virt. eigenvalues --    2.65546   2.65699   2.66145   2.66866   2.67097
 Alpha virt. eigenvalues --    2.67164   2.67567   2.67688   2.68017   2.68618
 Alpha virt. eigenvalues --    2.68903   2.68995   2.69275   2.69458   2.69682
 Alpha virt. eigenvalues --    2.69886   2.70411   2.70757   2.71120   2.71300
 Alpha virt. eigenvalues --    2.71514   2.71934   2.72716   2.72911   2.73077
 Alpha virt. eigenvalues --    2.73638   2.73980   2.74277   2.74691   2.74763
 Alpha virt. eigenvalues --    2.75027   2.75314   2.76162   2.76420   2.76864
 Alpha virt. eigenvalues --    2.77473   2.77636   2.77791   2.77935   2.78533
 Alpha virt. eigenvalues --    2.78591   2.78800   2.78950   2.79226   2.79608
 Alpha virt. eigenvalues --    2.79961   2.80444   2.80701   2.81036   2.81183
 Alpha virt. eigenvalues --    2.81878   2.82368   2.83262   2.83506   2.84228
 Alpha virt. eigenvalues --    2.84517   2.84610   2.84969   2.85780   2.86112
 Alpha virt. eigenvalues --    2.86702   2.87598   2.87811   2.88613   2.88774
 Alpha virt. eigenvalues --    2.89025   2.89180   2.90449   2.90486   2.90670
 Alpha virt. eigenvalues --    2.90707   2.91134   2.91287   2.91813   2.92351
 Alpha virt. eigenvalues --    2.92629   2.93057   2.93315   2.93468   2.93945
 Alpha virt. eigenvalues --    2.94296   2.94955   2.95061   2.95894   2.96004
 Alpha virt. eigenvalues --    2.96294   2.96372   2.97041   2.97971   2.98452
 Alpha virt. eigenvalues --    2.99272   2.99373   2.99706   2.99915   3.00371
 Alpha virt. eigenvalues --    3.00577   3.00706   3.01028   3.01176   3.01910
 Alpha virt. eigenvalues --    3.01921   3.02129   3.03132   3.03423   3.04583
 Alpha virt. eigenvalues --    3.05685   3.06108   3.07288   3.07341   3.07739
 Alpha virt. eigenvalues --    3.08935   3.09017   3.09599   3.09781   3.10854
 Alpha virt. eigenvalues --    3.12378   3.12832   3.13476   3.14485   3.15061
 Alpha virt. eigenvalues --    3.16434   3.16649   3.17696   3.18525   3.18780
 Alpha virt. eigenvalues --    3.20584   3.20952   3.21677   3.22140   3.22252
 Alpha virt. eigenvalues --    3.23889   3.24282   3.24381   3.26045   3.26406
 Alpha virt. eigenvalues --    3.26796   3.27039   3.27561   3.28222   3.28511
 Alpha virt. eigenvalues --    3.29217   3.30673   3.31549   3.33227   3.33401
 Alpha virt. eigenvalues --    3.33860   3.34849   3.35312   3.35682   3.36160
 Alpha virt. eigenvalues --    3.36306   3.36758   3.37376   3.37639   3.39755
 Alpha virt. eigenvalues --    3.40881   3.41312   3.41330   3.42644   3.42823
 Alpha virt. eigenvalues --    3.43481   3.43993   3.44373   3.44628   3.45180
 Alpha virt. eigenvalues --    3.45716   3.47441   3.47485   3.48335   3.49141
 Alpha virt. eigenvalues --    3.49924   3.49965   3.52182   3.52632   3.52750
 Alpha virt. eigenvalues --    3.54160   3.55770   3.56265   3.56854   3.57000
 Alpha virt. eigenvalues --    3.57811   3.59181   3.61230   3.61439   3.62703
 Alpha virt. eigenvalues --    3.67173   3.67694   3.68124   3.72100   3.73849
 Alpha virt. eigenvalues --    3.74581   3.77114   3.77221   3.80336   3.90945
 Alpha virt. eigenvalues --    3.96487   3.98514   4.02431   4.08174   4.10880
 Alpha virt. eigenvalues --    4.14201   4.15598   4.16069   4.17258   4.21007
 Alpha virt. eigenvalues --    4.21869   4.22497   4.23369   4.23877   4.26418
 Alpha virt. eigenvalues --    4.27098   4.28857   4.29181   4.31929   4.32486
 Alpha virt. eigenvalues --    4.33658   4.35470   4.36088   4.36240   4.37883
 Alpha virt. eigenvalues --    4.38597   4.39208   4.40050   4.41924   4.43141
 Alpha virt. eigenvalues --    4.44166   4.44295   4.46986   4.47523   4.48168
 Alpha virt. eigenvalues --    4.50167   4.50651   4.52116   4.53646   4.54458
 Alpha virt. eigenvalues --    4.55275   4.56212   4.57331   4.57447   4.57776
 Alpha virt. eigenvalues --    4.58148   4.63910   4.64519   4.66010   4.66292
 Alpha virt. eigenvalues --    4.68390   4.68663   4.69241   4.72818   4.73841
 Alpha virt. eigenvalues --    4.75441   4.76485   4.79134   4.80053   4.80800
 Alpha virt. eigenvalues --    4.81586   4.83802   4.84784   4.86703   4.99840
          Condensed to atoms (all electrons):
 Mulliken charges:
               1
     1  Mg   0.822012
     2  C    0.125050
     3  C   -0.192140
     4  C   -0.188554
     5  C   -0.168240
     6  N   -0.657763
     7  C    0.302661
     8  C   -0.154676
     9  C   -0.177843
    10  C    0.379887
    11  C   -0.287445
    12  C   -0.159173
    13  C   -0.253126
    14  C    0.582783
    15  O   -0.498366
    16  O   -0.432406
    17  N   -0.675109
    18  C    0.299102
    19  C    0.023884
    20  C    0.007932
    21  C    0.251787
    22  C   -0.369312
    23  C    0.225016
    24  O   -0.409628
    25  N   -0.702623
    26  C    0.328930
    27  C   -0.053085
    28  C   -0.013806
    29  C    0.302533
    30  C    0.249819
    31  C   -0.216669
    32  C   -0.328709
    33  N   -0.708455
    34  C    0.277046
    35  C   -0.008934
    36  C    0.080887
    37  C    0.248747
    38  C   -0.386426
    39  C    0.344040
    40  O   -0.438959
    41  C   -0.325259
    42  C    0.614920
    43  O   -0.469820
    44  O   -0.430657
    45  C   -0.096044
    46  C   -0.027424
    47  C   -0.102660
    48  C    0.130177
    49  C   -0.386520
    50  C   -0.202656
    51  C   -0.170853
    52  C   -0.151322
    53  C   -0.041129
    54  C   -0.292287
    55  C   -0.165735
    56  C   -0.191003
    57  C   -0.141320
    58  C   -0.049890
    59  C   -0.320850
    60  C   -0.177224
    61  C   -0.164732
    62  C   -0.193756
    63  C   -0.076552
    64  C   -0.300600
    65  C   -0.290913
    66  H    0.082679
    67  H    0.141223
    68  H    0.088150
    69  H    0.104062
    70  H    0.077179
    71  H    0.106349
    72  H    0.107790
    73  H    0.135664
    74  H    0.092213
    75  H    0.128211
    76  H    0.135554
    77  H    0.126113
    78  H    0.119788
    79  H    0.156890
    80  H    0.125263
    81  H    0.091367
    82  H    0.118445
    83  H    0.110797
    84  H    0.103921
    85  H    0.133146
    86  H    0.119150
    87  H    0.119362
    88  H    0.147459
    89  H    0.143224
    90  H    0.157531
    91  H    0.114953
    92  H    0.112422
    93  H    0.084698
    94  H    0.172675
    95  H    0.098097
    96  H    0.124241
    97  H    0.081332
    98  H    0.106665
    99  H    0.080483
   100  H    0.075857
   101  H    0.104457
   102  H    0.088518
   103  H    0.075315
   104  H    0.082362
   105  H    0.103220
   106  H    0.072777
   107  H    0.071077
   108  H    0.033124
   109  H    0.104824
   110  H    0.093905
   111  H    0.091023
   112  H    0.084093
   113  H    0.055093
   114  H    0.114305
   115  H    0.099308
   116  H    0.098427
   117  H    0.095513
   118  H    0.091284
   119  H    0.101997
   120  H    0.094189
   121  H    0.053770
   122  H    0.091295
   123  H    0.066604
   124  H    0.107451
   125  H    0.096402
   126  H    0.106033
   127  H    0.103495
   128  H    0.111297
   129  H    0.084891
   130  H    0.118529
   131  H    0.151066
   132  H    0.121287
   133  O   -0.413511
   134  H    0.077067
 Sum of Mulliken charges =   0.00000
 Mulliken charges with hydrogens summed into heavy atoms:
               1
     1  Mg   0.822012
     2  C    0.125050
     3  C   -0.109461
     4  C   -0.047331
     5  C   -0.080090
     6  N   -0.657763
     7  C    0.302661
     8  C   -0.050615
     9  C   -0.100663
    10  C    0.379887
    11  C    0.062357
    12  C    0.061252
    13  C    0.008541
    14  C    0.582783
    15  O   -0.498366
    16  O   -0.432406
    17  N   -0.675109
    18  C    0.299102
    19  C    0.023884
    20  C    0.007932
    21  C    0.251787
    22  C    0.032629
    23  C    0.316384
    24  O   -0.409628
    25  N   -0.702623
    26  C    0.328930
    27  C   -0.053085
    28  C   -0.013806
    29  C    0.302533
    30  C    0.326886
    31  C    0.012573
    32  C    0.027508
    33  N   -0.708455
    34  C    0.277046
    35  C   -0.008934
    36  C    0.080887
    37  C    0.248747
    38  C    0.023619
    39  C    0.344040
    40  O   -0.438959
    41  C   -0.167727
    42  C    0.614920
    43  O   -0.469820
    44  O   -0.430657
    45  C    0.294839
    46  C    0.199951
    47  C   -0.017961
    48  C    0.130177
    49  C    0.008493
    50  C   -0.014659
    51  C   -0.014513
    52  C    0.041653
    53  C    0.034185
    54  C   -0.033928
    55  C   -0.061534
    56  C    0.007725
    57  C    0.033796
    58  C    0.005202
    59  C   -0.008810
    60  C    0.009573
    61  C    0.031453
    62  C   -0.048691
    63  C   -0.009948
    64  C    0.009287
    65  C    0.008769
   133  O   -0.413511
 Electronic spatial extent (au):  <R**2>=         147142.7935
 Charge=              0.0000 electrons
 Dipole moment (field-independent basis, Debye):
    X=              1.0689    Y=             -4.6724    Z=             -1.3791  Tot=              4.9876
 Quadrupole moment (field-independent basis, Debye-Ang):
   XX=           -360.8097   YY=           -431.9437   ZZ=           -397.2097
   XY=              5.2136   XZ=             25.5107   YZ=            -35.6306
 Traceless Quadrupole moment (field-independent basis, Debye-Ang):
   XX=             35.8447   YY=            -35.2893   ZZ=             -0.5553
   XY=              5.2136   XZ=             25.5107   YZ=            -35.6306
 Octapole moment (field-independent basis, Debye-Ang**2):
  XXX=           -171.2054  YYY=           -596.4625  ZZZ=            -42.7835  XYY=            152.9560
  XXY=            -76.2041  XXZ=           -253.3602  XZZ=            -99.2551  YZZ=            -32.0149
  YYZ=            -68.5542  XYZ=            185.0646
 Hexadecapole moment (field-independent basis, Debye-Ang**3):
 XXXX=        -153082.8326 YYYY=         -31078.8902 ZZZZ=          -9090.1767 XXXY=          -1149.7930
 XXXZ=           2594.5416 YYYX=           2236.9631 YYYZ=          -1487.9083 ZZZX=            563.8241
 ZZZY=           -399.0970 XXYY=         -34055.4089 XXZZ=         -28392.2017 YYZZ=          -7160.4383
 XXYZ=          -1087.2553 YYXZ=            432.2537 ZZXY=           -199.7609
 N-N= 9.117676755077D+03 E-N=-2.532026910020D+04  KE= 3.016128675525D+03

 Test job not archived.
 1\1\GINC-PEDRO-RYZENSSD\SP\RCAM-B3LYP TD-FC\6-31G(d,p)\C54H68Mg1N4O7\P
 ADAWAN\08-Oct-2019\0\\# td=(NStates=1) iop(3/107=0140000000,3/108=0140
 000000) iop(3/107=0140000000,3/108=0140000000) CAM-B3LYP/6-31G(d,p)\\T
 D\\0,1\Mg,0,-5.6431300442,1.2680868364,0.2139740662\C,0,-5.0125413759,
 -2.190593024,-0.3758006452\C,0,-3.2489263525,1.1490074422,2.6858800262
 \C,0,-6.1518916115,4.4945074738,0.6205844196\C,0,-8.0469856166,1.18783
 74661,-2.3617802719\N,0,-4.4316202465,-0.2813240555,1.0759177588\C,0,-
 4.3156067811,-1.6218433657,0.614735192\C,0,-3.1940508068,-2.3086420628
 ,1.3701626049\C,0,-2.8999041458,-1.3285135211,2.5052273093\C,0,-3.5389
 606961,-0.0404031929,2.0807687355\C,0,-3.48112022,-1.8931860112,3.8744
 753069\C,0,-1.9455894022,-2.7644504382,0.5684310292\C,0,-0.9474325062,
 -3.5754826362,1.3950033772\C,0,0.3523110985,-3.9123761097,0.606078769\
 O,0,0.6454383977,-3.4673264214,-0.5144814635\O,0,1.1361953017,-4.74002
 91477,1.2190878973\N,0,-4.7797865297,2.5698772244,1.370923779\C,0,-3.9
 496190491,2.4044784638,2.4481200378\C,0,-3.675488086,3.650645147,3.126
 8016246\C,0,-4.4424800037,4.6015686224,2.5465405383\C,0,-5.2403333957,
 3.9091555921,1.5366988218\C,0,-2.7177003949,3.8257296567,4.3056044309\
 C,0,-4.5990226023,6.0101410483,2.969062343\O,0,-4.0761401013,6.5398088
 111,3.9594899215\N,0,-6.8437760272,2.6036783003,-0.7751101787\C,0,-6.8
 495571535,3.9123016357,-0.4137395771\C,0,-7.7931144516,4.6029513519,-1
 .2119140005\C,0,-8.3282258554,3.6589350236,-2.1416287153\C,0,-7.756269
 4384,2.403368511,-1.7074945193\C,0,-8.3404463233,6.0072020899,-1.15575
 67103\C,0,-9.394925971,3.9247334116,-3.1750500536\C,0,-8.6780767884,4.
 0952308862,-4.4895021969\N,0,-6.4243482021,-0.1169068709,-1.0688879092
 \C,0,-7.390812688,-0.0442653321,-2.1231182344\C,0,-7.509484065,-1.3187
 070234,-2.7678798126\C,0,-6.7092364073,-2.2018439577,-2.0928984997\C,0
 ,-6.0103989634,-1.4404680763,-1.153673232\C,0,-8.5342588006,-1.6212519
 138,-3.8304739668\C,0,-6.2313967668,-3.5607951855,-2.0100363975\O,0,-6
 .6336766083,-4.541319102,-2.5677370194\C,0,-5.0764779013,-3.5602777945
 ,-0.8997065915\C,0,-5.3785449821,-4.6152467263,0.1605132023\O,0,-5.736
 9178744,-4.3613720706,1.2847855989\O,0,-5.1751974829,-5.846328517,-0.2
 967838498\C,0,-5.6212154707,-6.9261462057,0.5859761324\C,0,2.416738355
 4,-5.1783540956,0.693197301\C,0,3.4661099211,-4.1797394732,1.078799165
 7\C,0,4.037872891,-3.311750996,0.1981521902\C,0,3.7311180091,-3.155078
 6963,-1.2073684056\C,0,5.1115053565,-2.4760118694,0.8837002209\C,0,6.4
 71622767,-2.7612710801,0.2725075767\C,0,7.5626853952,-1.7271443602,0.7
 761514497\C,0,8.9250811166,-1.9101569977,0.0340966965\C,0,9.5475318333
 ,-3.3020301055,-0.0833452095\C,0,9.9739228279,-0.901100731,0.588376801
 1\C,0,11.2364268,-0.7216149566,-0.2587611867\C,0,12.2236999906,0.39319
 85104,0.2870494931\C,0,13.4175511492,0.5565353404,-0.5171114683\C,0,14
 .2558737604,-0.7589866287,-0.4664833335\C,0,14.280948033,1.9063954117,
 -0.1043180742\C,0,15.413500631,2.1164635817,-1.0977468824\C,0,16.03901
 35211,3.5430368137,-0.6440654995\C,0,17.4312375185,3.9182407396,-1.498
 1108589\C,0,16.999438926,4.1060461673,-2.9630986299\C,0,18.1073241516,
 5.1510732333,-0.8460355606\H,0,-2.3480603119,1.0458514487,3.2322008313
 \H,0,-6.1919300759,5.6589220944,0.4998597487\H,0,-8.9288480839,0.99266
 35279,-3.3045958405\H,0,-3.7938364488,-3.398562973,1.7981955617\H,0,-1
 .791200206,-0.9785254607,2.8591880848\H,0,-2.8533246577,-2.8648730682,
 4.1329732432\H,0,-3.128179418,-1.209893107,4.6214582817\H,0,-4.5546671
 425,-1.8117590939,3.7582290455\H,0,-2.3509022558,-3.4000030453,-0.3395
 216868\H,0,-1.3888095807,-1.9030589333,0.1525660979\H,0,-0.6527796681,
 -2.8027402463,2.1366882099\H,0,-1.2040998886,-4.5883356699,1.869125949
 3\H,0,-1.6706457167,3.5928139681,4.0125336345\H,0,-2.8119888529,4.7461
 342525,4.6618718501\H,0,-3.0023001625,3.2782210162,5.1853355104\H,0,-5
 .4983336927,6.6257505576,2.6139535112\H,0,-9.8924132238,3.0761347654,-
 3.1507262272\H,0,-10.2239298759,4.577835318,-2.7275157442\H,0,-9.30330
 60915,3.9850864086,-5.3831046211\H,0,-8.0842123872,4.8982917698,-4.525
 302212\H,0,-7.9762879037,3.3111354274,-4.7727213868\H,0,-8.7043370153,
 -0.9649497527,-4.7242623952\H,0,-8.3232419521,-2.6242894892,-3.9770970
 536\H,0,-9.5001332624,-1.5534119758,-3.4867129564\H,0,-4.2721589919,-3
 .9147272957,-1.3305379839\H,0,2.4750054443,-6.2318804811,1.025200908\H
 ,0,2.3783211587,-5.1596444908,-0.4569311282\H,0,3.595465529,-4.3602261
 449,2.0562239865\H,0,2.6282102729,-3.3202235773,-1.3807507252\H,0,3.83
 47308111,-2.0137060712,-1.565004718\H,0,4.4916216696,-3.8750393602,-1.
 654246882\H,0,4.8885227213,-1.3636019048,0.6727476659\H,0,5.038456204,
 -2.5635406713,1.9400078871\H,0,6.7658158016,-3.9389781973,0.3932686486
 \H,0,6.362755115,-2.6901812341,-0.9305827445\H,0,7.3263434359,-0.75226
 17805,0.7062593792\H,0,7.8234912593,-2.0389321417,1.8753450069\H,0,8.7
 443803376,-1.4088189226,-1.0082790466\H,0,8.8313452999,-4.1886577257,-
 0.5822306933\H,0,10.626165646,-3.3046638211,-0.5638039623\H,0,9.874534
 201,-3.8407198006,1.0095819212\H,0,9.5047015311,0.1285012605,0.7687660
 51\H,0,10.5435333119,-1.2554938687,1.7053614734\H,0,11.66598853,-1.670
 3443561,-0.1885981676\H,0,10.8118871289,-0.631124748,-1.1789687406\H,0
 ,11.490159034,1.193062378,0.2340761972\H,0,12.6404248012,0.0267439577,
 1.2757067458\H,0,13.0716979121,0.9006948123,-1.6140076056\H,0,14.59181
 94091,-0.9943624535,0.4791630138\H,0,13.5264530318,-1.5289460735,-0.95
 00412582\H,0,15.1672465812,-0.7644197697,-1.1127336764\H,0,13.61160040
 56,2.7478030795,-0.2636362409\H,0,14.7105786701,1.9145078653,0.881727\
 H,0,16.1764963767,1.5612015817,-1.2163294479\H,0,15.0673115267,2.29397
 76492,-2.0849820291\H,0,15.1973511972,4.4308962973,-0.7539766777\H,0,1
 6.3054001739,3.5480507645,0.3837708359\H,0,18.0555553723,2.9349069992,
 -1.4554899369\H,0,16.1147486117,4.6623435133,-2.969991278\H,0,17.96401
 87918,4.3464310363,-3.4261200456\H,0,16.6407287582,3.2733122424,-3.472
 357789\H,0,18.421370011,4.890299683,0.1646956353\H,0,18.8909967105,5.4
 990761341,-1.2888710282\H,0,17.2400965795,5.9717715873,-0.8760659587\H
 ,0,-5.3390117858,-7.9019912985,-0.0187761936\H,0,-6.6390243937,-6.9784
 972311,0.8078806314\H,0,-5.0872909465,-6.9681066869,1.629735842\O,0,-7
 .9009929946,6.858415873,-0.4197354019\H,0,-9.0635397378,6.3265800737,-
 1.8782562931\\Version=ES64L-G09RevD.01\State=1-A\HF=-3043.4427157\RMSD
 =8.123e-09\PG=C01 [X(C54H68Mg1N4O7)]\\@


 Mondays are the potholes in the road of life.
                                -- Tom Wilson
 Job cpu time:       0 days  6 hours 16 minutes 21.3 seconds.
 File lengths (MBytes):  RWF=   2102 Int=      0 D2E=      0 Chk=    163 Scr=      1
 Normal termination of Gaussian 09 at Tue Oct  8 05:26:22 2019.
