 Entering Gaussian System, Link 0=g16
 Input=Geometria-424-.com
 Output=Geometria-424-.log
 Initial command:
 /usr/local/g09/l1.exe "/home/padawan/israel-mol/chlorophyll-b/spectra/emi/Gau-16772.inp" -scrdir="/home/padawan/israel-mol/chlorophyll-b/spectra/emi/"
 Entering Link 1 = /usr/local/g09/l1.exe PID=     16774.
  
 Copyright (c) 1988,1990,1992,1993,1995,1998,2003,2009,2013,
            Gaussian, Inc.  All Rights Reserved.
  
 This is part of the Gaussian(R) 09 program.  It is based on
 the Gaussian(R) 03 system (copyright 2003, Gaussian, Inc.),
 the Gaussian(R) 98 system (copyright 1998, Gaussian, Inc.),
 the Gaussian(R) 94 system (copyright 1995, Gaussian, Inc.),
 the Gaussian 92(TM) system (copyright 1992, Gaussian, Inc.),
 the Gaussian 90(TM) system (copyright 1990, Gaussian, Inc.),
 the Gaussian 88(TM) system (copyright 1988, Gaussian, Inc.),
 the Gaussian 86(TM) system (copyright 1986, Carnegie Mellon
 University), and the Gaussian 82(TM) system (copyright 1983,
 Carnegie Mellon University). Gaussian is a federally registered
 trademark of Gaussian, Inc.
  
 This software contains proprietary and confidential information,
 including trade secrets, belonging to Gaussian, Inc.
  
 This software is provided under written license and may be
 used, copied, transmitted, or stored only in accord with that
 written license.
  
 The following legend is applicable only to US Government
 contracts under FAR:
  
                    RESTRICTED RIGHTS LEGEND
  
 Use, reproduction and disclosure by the US Government is
 subject to restrictions as set forth in subparagraphs (a)
 and (c) of the Commercial Computer Software - Restricted
 Rights clause in FAR 52.227-19.
  
 Gaussian, Inc.
 340 Quinnipiac St., Bldg. 40, Wallingford CT 06492
  
  
 ---------------------------------------------------------------
 Warning -- This program may not be used in any manner that
 competes with the business of Gaussian, Inc. or will provide
 assistance to any competitor of Gaussian, Inc.  The licensee
 of this program is prohibited from giving any competitor of
 Gaussian, Inc. access to this program.  By using this program,
 the user acknowledges that Gaussian, Inc. is engaged in the
 business of creating and licensing software in the field of
 computational chemistry and represents and warrants to the
 licensee that it is not a competitor of Gaussian, Inc. and that
 it will not use this program in any manner prohibited above.
 ---------------------------------------------------------------
  

 Cite this work as:
 Gaussian 09, Revision D.01,
 M. J. Frisch, G. W. Trucks, H. B. Schlegel, G. E. Scuseria, 
 M. A. Robb, J. R. Cheeseman, G. Scalmani, V. Barone, B. Mennucci, 
 G. A. Petersson, H. Nakatsuji, M. Caricato, X. Li, H. P. Hratchian, 
 A. F. Izmaylov, J. Bloino, G. Zheng, J. L. Sonnenberg, M. Hada, 
 M. Ehara, K. Toyota, R. Fukuda, J. Hasegawa, M. Ishida, T. Nakajima, 
 Y. Honda, O. Kitao, H. Nakai, T. Vreven, J. A. Montgomery, Jr., 
 J. E. Peralta, F. Ogliaro, M. Bearpark, J. J. Heyd, E. Brothers, 
 K. N. Kudin, V. N. Staroverov, T. Keith, R. Kobayashi, J. Normand, 
 K. Raghavachari, A. Rendell, J. C. Burant, S. S. Iyengar, J. Tomasi, 
 M. Cossi, N. Rega, J. M. Millam, M. Klene, J. E. Knox, J. B. Cross, 
 V. Bakken, C. Adamo, J. Jaramillo, R. Gomperts, R. E. Stratmann, 
 O. Yazyev, A. J. Austin, R. Cammi, C. Pomelli, J. W. Ochterski, 
 R. L. Martin, K. Morokuma, V. G. Zakrzewski, G. A. Voth, 
 P. Salvador, J. J. Dannenberg, S. Dapprich, A. D. Daniels, 
 O. Farkas, J. B. Foresman, J. V. Ortiz, J. Cioslowski, 
 and D. J. Fox, Gaussian, Inc., Wallingford CT, 2013.
 
 ******************************************
 Gaussian 09:  ES64L-G09RevD.01 24-Apr-2013
                 8-Oct-2019 
 ******************************************
 %nproc=3
 Will use up to    3 processors via shared memory.
 %Mem=2GB
 ----------------------------------------------------------------------
 # td=(NStates=1) iop(3/107=0140000000,3/108=0140000000) iop(3/107=0140
 000000,3/108=0140000000) CAM-B3LYP/6-31G(d,p)
 ----------------------------------------------------------------------
 1/38=1/1;
 2/12=2,17=6,18=5,40=1/2;
 3/5=1,6=6,7=101,11=9,16=1,25=1,30=1,74=-40,107=140000000,108=140000000/1,2,8,3;
 4//1;
 5/5=2,38=5/2;
 8/6=1,10=2,108=1/1;
 9/41=1,42=1,70=2/14;
 6/7=2,8=2,9=2,10=2/1;
 99/5=1,9=1/99;
 --
 TD
 --
 Symbolic Z-matrix:
 Charge =  0 Multiplicity = 1
 12                   -5.58454   1.31505   0.23474 
 6                    -4.94893  -2.13172  -0.43353 
 6                    -3.33254   1.24071   2.75341 
 6                    -6.20392   4.60628   0.6713 
 6                    -7.96026   1.24471  -2.3604 
 7                    -4.42154  -0.28139   1.14551 
 6                    -4.24679  -1.55512   0.61066 
 6                    -3.26076  -2.44965   1.55066 
 6                    -2.98926  -1.40375   2.57121 
 6                    -3.60089  -0.09563   2.19769 
 6                    -3.42894  -1.84774   3.9911 
 6                    -2.01964  -2.81126   0.70689 
 6                    -1.02087  -3.66953   1.49219 
 6                     0.14371  -3.93602   0.61925 
 8                     0.33902  -3.48557  -0.51349 
 8                     1.03307  -4.84209   1.3441 
 7                    -4.98936   2.5739    1.52366 
 6                    -4.01842   2.41185   2.54668 
 6                    -3.69771   3.64106   3.16461 
 6                    -4.34493   4.66556   2.46437 
 6                    -5.23245   4.00796   1.52845 
 6                    -2.84279   3.8894    4.34756 
 6                    -4.37756   6.10693   2.69401 
 8                    -3.86207   6.68978   3.74529 
 7                    -6.86616   2.67809  -0.67729 
 6                    -6.9132    3.97065  -0.33345 
 6                    -7.78631   4.68063  -1.22117 
 6                    -8.34365   3.73053  -2.09125 
 6                    -7.7589    2.41835  -1.79091 
 6                    -8.28237   6.04792  -1.17283 
 6                    -9.39195   3.86156  -3.08326 
 6                    -8.97116   3.89843  -4.54329 
 7                    -6.32565  -0.14542  -1.17977 
 6                    -7.30029  -0.03187  -2.04331 
 6                    -7.65855  -1.33333  -2.71948 
 6                    -6.65476  -2.13459  -2.19328 
 6                    -5.93986  -1.45691  -1.13212 
 6                    -8.4568   -1.49339  -3.87761 
 6                    -6.2182   -3.5719   -1.95739 
 8                    -6.51218  -4.52169  -2.58908 
 6                    -4.97707  -3.5598   -0.88305 
 6                    -5.23564  -4.68351   0.1982 
 8                    -5.7251   -4.52182   1.2462 
 8                    -4.89299  -5.8781   -0.40989 
 6                    -5.10875  -7.03545   0.42606 
 6                     2.23433  -5.05065   0.68554 
 6                     3.38     -4.15928   1.10591 
 6                     3.97807  -3.2635    0.252 
 6                     3.81839  -3.21881  -1.22763 
 6                     5.11715  -2.43598   0.77028 
 6                     6.49594  -2.82216   0.03015 
 6                     7.65258  -1.84026   0.54714 
 6                     9.05606  -2.14154  -0.0559 
 6                     9.57091  -3.51543   0.23268 
 6                     9.88484  -0.93897   0.54148 
 6                     11.19463  -1.00097  -0.22355 
 6                     12.08398   0.25185   0.20524 
 6                     13.42438   0.55688  -0.71534 
 6                     14.43974  -0.71039  -0.60796 
 6                     14.08185   1.78235  -0.3287 
 6                     15.40767   2.31194  -1.05141 
 6                     15.97549   3.60738  -0.55087 
 6                     17.30233   4.04639  -1.26223 
 6                     17.17261   3.98697  -2.84239 
 6                     17.68744   5.44386  -0.77783 
 1                    -2.53959   1.4075    3.54797 
 1                    -6.38391   5.63519   0.65191 
 1                    -8.78438   1.43416  -3.08545 
 1                    -3.69674  -3.36167   1.85798 
 1                    -1.87963  -1.14689   2.64268 
 1                    -2.80829  -2.70501   4.3662 
 1                    -3.08874  -1.11781   4.60092 
 1                    -4.58005  -1.92545   3.90312 
 1                    -2.35032  -3.1678   -0.25605 
 1                    -1.43316  -1.93262   0.46107 
 1                    -0.75589  -3.00755   2.42369 
 1                    -1.22217  -4.67536   1.87186 
 1                    -1.70966   3.64663   4.2145 
 1                    -2.92113   4.88829   4.83721 
 1                    -3.23613   2.94842   5.18163 
 1                    -5.14796   6.68455   2.06554 
 1                    -10.10352   2.92084  -2.78886 
 1                    -10.00938   4.72005  -2.8874 
 1                    -9.92374   3.71944  -5.19594 
 1                    -8.63943   5.05097  -4.94321 
 1                    -8.05057   3.09551  -4.81795 
 1                    -8.16522  -0.83164  -4.86797 
 1                    -8.33878  -2.54219  -4.17852 
 1                    -9.40598  -1.10744  -3.57166 
 1                    -4.25445  -4.01871  -1.63313 
 1                     2.87799  -6.12303   0.92314 
 1                     2.14444  -5.05247  -0.41963 
 1                     3.61867  -4.4216    2.03903 
 1                     2.73598  -3.39417  -1.61423 
 1                     3.9449   -2.1358   -1.70095 
 1                     4.27906  -3.90431  -1.94908 
 1                     4.93562  -1.45496   0.58383 
 1                     5.2235   -2.61238   1.90641 
 1                     6.90451  -3.81792   0.27336 
 1                     6.5948   -2.85953  -1.14333 
 1                     7.13261  -0.81622   0.36344 
 1                     7.7108   -1.69913   1.67734 
 1                     8.83267  -1.88303  -1.0706 
 1                     8.99917  -4.2634   -0.31212 
 1                     10.53798  -3.64696  -0.18913 
 1                     9.68072  -3.75801   1.20876 
 1                     9.31838  -0.09762   0.3626 
 1                     10.04555  -1.03348   1.66643 
 1                     11.62303  -1.96585  -0.28469 
 1                     11.14014  -0.77909  -1.38718 
 1                     11.73805   1.38023   0.17829 
 1                     12.48478   0.07781   1.21934 
 1                     13.08226   0.60478  -1.75805 
 1                     14.7371  -1.06683   0.42567 
 1                     13.89224  -1.64484  -1.00663 
 1                     15.34809  -0.59517  -1.11151 
 1                     13.27746   2.78527  -0.33996 
 1                     14.33287   1.59262   0.7795 
 1                     16.22334   1.65626  -1.19596 
 1                     14.93396   2.43358  -2.11384 
 1                     15.28369   4.52944  -0.90794 
 1                     16.26708   3.54701   0.59562 
 1                     18.16793   3.27857  -1.1349 
 1                     16.11143   4.52752  -3.07828 
 1                     18.0749   4.58178  -3.17727 
 1                     16.98881   2.89791  -3.06143 
 1                     17.56072   5.43238   0.40421 
 1                     18.70823   5.58596  -1.23977 
 1                     16.9071   6.17491  -0.91977 
 1                    -4.9258   -7.87836  -0.3068 
 1                    -6.1148   -6.94309   0.60848 
 1                    -4.52907  -7.03412   1.31366 
 8                    -7.79949   6.90717  -0.48632 
 1                    -9.29623   6.39975  -1.76744 
 
 Stoichiometry    C54H68MgN4O7
 Framework group  C1[X(C54H68MgN4O7)]
 Deg. of freedom   396
 Full point group                 C1      NOp   1
 Largest Abelian subgroup         C1      NOp   1
 Largest concise Abelian subgroup C1      NOp   1
                         Standard orientation:                         
 ---------------------------------------------------------------------
 Center     Atomic      Atomic             Coordinates (Angstroms)
 Number     Number       Type             X           Y           Z
 ---------------------------------------------------------------------
      1         12           0       -5.582796    1.311333    0.245803
      2          6           0       -4.946319   -2.131711   -0.440599
      3          6           0       -3.329309    1.224816    2.762754
      4          6           0       -6.203104    4.600038    0.699696
      5          6           0       -7.959988    1.253517   -2.348288
      6          7           0       -4.418686   -0.289366    1.147661
      7          6           0       -4.243787   -1.560249    0.606146
      8          6           0       -3.256887   -2.459257    1.540945
      9          6           0       -2.985178   -1.418541    2.566723
     10          6           0       -3.597491   -0.108732    2.200306
     11          6           0       -3.423866   -1.870010    3.984551
     12          6           0       -2.016125   -2.816056    0.694608
     13          6           0       -1.016593   -3.678009    1.474890
     14          6           0        0.147577   -3.939565    0.599911
     15          8           0        0.342065   -3.483206   -0.530604
     16          8           0        1.037689   -4.849039    1.319563
     17          7           0       -4.987316    2.563730    1.540858
     18          6           0       -4.015723    2.396760    2.562468
     19          6           0       -3.695103    3.622888    3.186541
     20          6           0       -4.343099    4.650741    2.491976
     21          6           0       -5.230927    3.997655    1.553185
     22          6           0       -2.839590    3.865425    4.370265
     23          6           0       -4.376117    6.090901    2.729070
     24          8           0       -3.860226    6.668511    3.783038
     25          7           0       -6.865431    2.678587   -0.658439
     26          6           0       -6.912744    3.969340   -0.307910
     27          6           0       -7.786625    4.683574   -1.191454
     28          6           0       -8.344120    3.737775   -2.066100
     29          6           0       -7.758724    2.424274   -1.772871
     30          6           0       -8.283147    6.050412   -1.135768
     31          6           0       -9.393041    3.873533   -3.056812
     32          6           0       -8.973111    3.918092   -4.516872
     33          7           0       -6.324193   -0.142092   -1.175789
     34          6           0       -7.299380   -0.024449   -2.038170
     35          6           0       -7.657557   -1.322528   -2.720842
     36          6           0       -6.653175   -2.126125   -2.199356
     37          6           0       -5.937905   -1.453670   -1.135131
     38          6           0       -8.456423   -1.476903   -3.879314
     39          6           0       -6.215953   -3.564473   -1.971139
     40          8           0       -6.509965   -4.511099   -2.607548
     41          6           0       -4.974207   -3.557464   -0.897472
     42          6           0       -5.231747   -4.686837    0.178117
     43          8           0       -5.720653   -4.530728    1.227225
     44          8           0       -4.889017   -5.878147   -0.436317
     45          6           0       -5.103879   -7.039868    0.393771
     46          6           0        2.238637   -5.053763    0.659238
     47          6           0        3.384230   -4.164152    1.083544
     48          6           0        3.981477   -3.263760    0.233916
     49          6           0        3.820922   -3.211495   -1.245369
     50          6           0        5.120557   -2.438512    0.755801
     51          6           0        6.499056   -2.820366    0.012896
     52          6           0        7.655650   -1.840723    0.534271
     53          6           0        9.058889   -2.138382   -0.071127
     54          6           0        9.574403   -3.513556    0.210063
     55          6           0        9.887581   -0.938612    0.531974
     56          6           0       11.196948   -0.996186   -0.234123
     57          6           0       12.086087    0.254736    0.200609
     58          6           0       13.425849    0.564990   -0.719162
     59          6           0       14.441729   -0.702444   -0.618904
     60          6           0       14.083096    1.788696   -0.326585
     61          6           0       15.408307    2.322490   -1.047321
     62          6           0       15.975947    3.615538   -0.540428
     63          6           0       17.302223    4.058695   -1.250281
     64          6           0       17.171600    4.007381   -2.830651
     65          6           0       17.687107    5.453787   -0.758903
     66          1           0       -2.535954    1.387795    3.557711
     67          1           0       -6.383479    5.628970    0.685724
     68          1           0       -8.784603    1.446399   -3.071879
     69          1           0       -3.692358   -3.373012    1.843809
     70          1           0       -1.875596   -1.161650    2.638868
     71          1           0       -2.802694   -2.728973    4.354864
     72          1           0       -3.083577   -1.143114    4.597931
     73          1           0       -4.575004   -1.947683    3.896843
     74          1           0       -2.347240   -3.167749   -0.269976
     75          1           0       -1.430112   -1.935953    0.452977
     76          1           0       -0.751312   -3.020745    2.409633
     77          1           0       -1.217311   -4.685860    1.849476
     78          1           0       -1.706446    3.623761    4.235304
     79          1           0       -2.918003    4.861750    4.865107
     80          1           0       -3.232107    2.920014    5.199693
     81          1           0       -5.147088    6.671471    2.104027
     82          1           0      -10.104109    2.931050   -2.766857
     83          1           0      -10.010670    4.730779   -2.856170
     84          1           0       -9.926007    3.742123   -5.169884
     85          1           0       -8.642031    5.072796   -4.911039
     86          1           0       -8.052390    3.116937   -4.796201
     87          1           0       -8.165658   -0.809944   -4.866414
     88          1           0       -8.338201   -2.524096   -4.185697
     89          1           0       -9.405567   -1.092880   -3.570831
     90          1           0       -4.251856   -4.012236   -1.650321
     91          1           0        2.882818   -6.127118    0.890935
     92          1           0        2.148105   -5.049917   -0.445868
     93          1           0        3.623532   -4.431200    2.015160
     94          1           0        2.738356   -3.385259   -1.632246
     95          1           0        3.946772   -2.126015   -1.713167
     96          1           0        4.281425   -3.893104   -1.970608
     97          1           0        4.938566   -1.456612    0.574519
     98          1           0        5.227639   -2.620729    1.890950
     99          1           0        6.908131   -3.817217    0.250723
    100          1           0        6.597252   -2.851647   -1.160825
    101          1           0        7.135204   -0.815941    0.356153
    102          1           0        7.714471   -1.705406    1.665147
    103          1           0        8.834812   -1.874719   -1.084344
    104          1           0        9.002615   -4.258907   -0.338258
    105          1           0       10.541268   -3.642553   -0.212972
    106          1           0        9.684867   -3.761128    1.184820
    107          1           0        9.320712   -0.096554    0.357757
    108          1           0       10.048977   -1.038862    1.656324
    109          1           0       11.625662   -1.960583   -0.300487
    110          1           0       11.141700   -0.768323   -1.396563
    111          1           0       11.739742    1.383111    0.179680
    112          1           0       12.487541    0.075608    1.213566
    113          1           0       13.083104    0.618144   -1.761414
    114          1           0       14.739819   -1.064101    0.412696
    115          1           0       13.894333   -1.635020   -1.022072
    116          1           0       15.349747   -0.584298   -1.122384
    117          1           0       13.278337    2.791362   -0.332209
    118          1           0       14.334830    1.593336    0.780474
    119          1           0       16.224131    1.667860   -1.195719
    120          1           0       14.933936    2.449435   -2.108838
    121          1           0       15.283610    4.539169   -0.892342
    122          1           0       16.268223    3.549358    0.605565
    123          1           0       18.168166    3.290542   -1.127415
    124          1           0       16.110090    4.548750   -3.063141
    125          1           0       18.073484    4.604239   -3.162978
    126          1           0       16.988073    2.919399   -3.055200
    127          1           0       17.561078    5.436165    0.423134
    128          1           0       18.707573    5.598642   -1.220691
    129          1           0       16.906421    6.185274   -0.896620
    130          1           0       -4.921046   -7.878921   -0.343538
    131          1           0       -6.109854   -6.948823    0.577247
    132          1           0       -4.523676   -7.042912    1.281035
    133          8           0       -7.800182    6.906290   -0.445118
    134          1           0       -9.297482    6.404937   -1.727966
 ---------------------------------------------------------------------
 Rotational constants (GHZ):      0.0339693      0.0081738      0.0071884
 Standard basis: 6-31G(d,p) (6D, 7F)
 There are  1334 symmetry adapted cartesian basis functions of A   symmetry.
 There are  1334 symmetry adapted basis functions of A   symmetry.
  1334 basis functions,  2348 primitive gaussians,  1334 cartesian basis functions
   244 alpha electrons      244 beta electrons
       nuclear repulsion energy      9095.6821857415 Hartrees.
 NAtoms=  134 NActive=  134 NUniq=  134 SFac= 1.00D+00 NAtFMM=   60 NAOKFM=T Big=T
 Integral buffers will be    131072 words long.
 Raffenetti 1 integral format.
 Two-electron integral symmetry is turned on.
 One-electron integrals computed using PRISM.
 NBasis=  1334 RedAO= T EigKep=  3.82D-04  NBF=  1334
 NBsUse=  1334 1.00D-06 EigRej= -1.00D+00 NBFU=  1334
 ExpMin= 4.21D-02 ExpMax= 1.17D+04 ExpMxC= 1.76D+03 IAcc=2 IRadAn=         4 AccDes= 0.00D+00
 Harris functional with IExCor=20419 and IRadAn=       4 diagonalized for initial guess.
 HarFok:  IExCor=20419 AccDes= 0.00D+00 IRadAn=         4 IDoV= 1 UseB2=F ITyADJ=14
 ICtDFT=  3500011 ScaDFX=  1.000000  1.000000  1.000000  1.000000
 FoFCou: FMM=F IPFlag=           0 FMFlag=      100000 FMFlg1=        2001
         NFxFlg=           0 DoJE=T BraDBF=F KetDBF=T FulRan=T
         wScrn=  0.000000 ICntrl=     500 IOpCl=  0 I1Cent=   200000004 NGrid=           0
         NMat0=    1 NMatS0=      1 NMatT0=    0 NMatD0=    1 NMtDS0=    0 NMtDT0=    0
 Petite list used in FoFCou.
 Requested convergence on RMS density matrix=1.00D-08 within 128 cycles.
 Requested convergence on MAX density matrix=1.00D-06.
 Requested convergence on             energy=1.00D-06.
 No special actions if energy rises.
 SCF Done:  E(RCAM-B3LYP) =  -3043.43740817     A.U. after   16 cycles
            NFock= 16  Conv=0.55D-08     -V/T= 2.0097
 DoSCS=F DFT=T ScalE2(SS,OS)=  1.000000  1.000000
 ExpMin= 4.21D-02 ExpMax= 1.17D+04 ExpMxC= 1.76D+03 IAcc=3 IRadAn=         5 AccDes= 0.00D+00
 HarFok:  IExCor=  205 AccDes= 0.00D+00 IRadAn=         5 IDoV=-2 UseB2=F ITyADJ=14
 ICtDFT= 12500011 ScaDFX=  1.000000  1.000000  1.000000  1.000000
 Range of M.O.s used for correlation:    71  1334
 NBasis=  1334 NAE=   244 NBE=   244 NFC=    70 NFV=     0
 NROrb=   1264 NOA=   174 NOB=   174 NVA=  1090 NVB=  1090
 Would need an additional       2379600800000 words for in-memory AO integral storage.
 Orbital symmetries:
       Occupied  (A) (A) (A) (A) (A) (A) (A) (A) (A) (A) (A) (A)
                 (A) (A) (A) (A) (A) (A) (A) (A) (A) (A) (A) (A)
                 (A) (A) (A) (A) (A) (A) (A) (A) (A) (A) (A) (A)
                 (A) (A) (A) (A) (A) (A) (A) (A) (A) (A) (A) (A)
                 (A) (A) (A) (A) (A) (A) (A) (A) (A) (A) (A) (A)
                 (A) (A) (A) (A) (A) (A) (A) (A) (A) (A) (A) (A)
                 (A) (A) (A) (A) (A) (A) (A) (A) (A) (A) (A) (A)
                 (A) (A) (A) (A) (A) (A) (A) (A) (A) (A) (A) (A)
                 (A) (A) (A) (A) (A) (A) (A) (A) (A) (A) (A) (A)
                 (A) (A) (A) (A) (A) (A) (A) (A) (A) (A) (A) (A)
                 (A) (A) (A) (A) (A) (A) (A) (A) (A) (A) (A) (A)
                 (A) (A) (A) (A) (A) (A) (A) (A) (A) (A) (A) (A)
                 (A) (A) (A) (A) (A) (A) (A) (A) (A) (A) (A) (A)
                 (A) (A) (A) (A) (A) (A) (A) (A) (A) (A) (A) (A)
                 (A) (A) (A) (A) (A) (A) (A) (A) (A) (A) (A) (A)
                 (A) (A) (A) (A) (A) (A) (A) (A) (A) (A) (A) (A)
                 (A) (A) (A) (A) (A) (A) (A) (A) (A) (A) (A) (A)
                 (A) (A) (A) (A) (A) (A) (A) (A) (A) (A) (A) (A)
                 (A) (A) (A) (A) (A) (A) (A) (A) (A) (A) (A) (A)
                 (A) (A) (A) (A) (A) (A) (A) (A) (A) (A) (A) (A)
                 (A) (A) (A) (A)
       Virtual   (A) (A) (A) (A) (A) (A) (A) (A) (A) (A) (A) (A)
                 (A) (A) (A) (A) (A) (A) (A) (A) (A) (A) (A) (A)
                 (A) (A) (A) (A) (A) (A) (A) (A) (A) (A) (A) (A)
                 (A) (A) (A) (A) (A) (A) (A) (A) (A) (A) (A) (A)
                 (A) (A) (A) (A) (A) (A) (A) (A) (A) (A) (A) (A)
                 (A) (A) (A) (A) (A) (A) (A) (A) (A) (A) (A) (A)
                 (A) (A) (A) (A) (A) (A) (A) (A) (A) (A) (A) (A)
                 (A) (A) (A) (A) (A) (A) (A) (A) (A) (A) (A) (A)
                 (A) (A) (A) (A) (A) (A) (A) (A) (A) (A) (A) (A)
                 (A) (A) (A) (A) (A) (A) (A) (A) (A) (A) (A) (A)
                 (A) (A) (A) (A) (A) (A) (A) (A) (A) (A) (A) (A)
                 (A) (A) (A) (A) (A) (A) (A) (A) (A) (A) (A) (A)
                 (A) (A) (A) (A) (A) (A) (A) (A) (A) (A) (A) (A)
                 (A) (A) (A) (A) (A) (A) (A) (A) (A) (A) (A) (A)
                 (A) (A) (A) (A) (A) (A) (A) (A) (A) (A) (A) (A)
                 (A) (A) (A) (A) (A) (A) (A) (A) (A) (A) (A) (A)
                 (A) (A) (A) (A) (A) (A) (A) (A) (A) (A) (A) (A)
                 (A) (A) (A) (A) (A) (A) (A) (A) (A) (A) (A) (A)
                 (A) (A) (A) (A) (A) (A) (A) (A) (A) (A) (A) (A)
                 (A) (A) (A) (A) (A) (A) (A) (A) (A) (A) (A) (A)
                 (A) (A) (A) (A) (A) (A) (A) (A) (A) (A) (A) (A)
                 (A) (A) (A) (A) (A) (A) (A) (A) (A) (A) (A) (A)
                 (A) (A) (A) (A) (A) (A) (A) (A) (A) (A) (A) (A)
                 (A) (A) (A) (A) (A) (A) (A) (A) (A) (A) (A) (A)
                 (A) (A) (A) (A) (A) (A) (A) (A) (A) (A) (A) (A)
                 (A) (A) (A) (A) (A) (A) (A) (A) (A) (A) (A) (A)
                 (A) (A) (A) (A) (A) (A) (A) (A) (A) (A) (A) (A)
                 (A) (A) (A) (A) (A) (A) (A) (A) (A) (A) (A) (A)
                 (A) (A) (A) (A) (A) (A) (A) (A) (A) (A) (A) (A)
                 (A) (A) (A) (A) (A) (A) (A) (A) (A) (A) (A) (A)
                 (A) (A) (A) (A) (A) (A) (A) (A) (A) (A) (A) (A)
                 (A) (A) (A) (A) (A) (A) (A) (A) (A) (A) (A) (A)
                 (A) (A) (A) (A) (A) (A) (A) (A) (A) (A) (A) (A)
                 (A) (A) (A) (A) (A) (A) (A) (A) (A) (A) (A) (A)
                 (A) (A) (A) (A) (A) (A) (A) (A) (A) (A) (A) (A)
                 (A) (A) (A) (A) (A) (A) (A) (A) (A) (A) (A) (A)
                 (A) (A) (A) (A) (A) (A) (A) (A) (A) (A) (A) (A)
                 (A) (A) (A) (A) (A) (A) (A) (A) (A) (A) (A) (A)
                 (A) (A) (A) (A) (A) (A) (A) (A) (A) (A) (A) (A)
                 (A) (A) (A) (A) (A) (A) (A) (A) (A) (A) (A) (A)
                 (A) (A) (A) (A) (A) (A) (A) (A) (A) (A) (A) (A)
                 (A) (A) (A) (A) (A) (A) (A) (A) (A) (A) (A) (A)
                 (A) (A) (A) (A) (A) (A) (A) (A) (A) (A) (A) (A)
                 (A) (A) (A) (A) (A) (A) (A) (A) (A) (A) (A) (A)
                 (A) (A) (A) (A) (A) (A) (A) (A) (A) (A) (A) (A)
                 (A) (A) (A) (A) (A) (A) (A) (A) (A) (A) (A) (A)
                 (A) (A) (A) (A) (A) (A) (A) (A) (A) (A) (A) (A)
                 (A) (A) (A) (A) (A) (A) (A) (A) (A) (A) (A) (A)
                 (A) (A) (A) (A) (A) (A) (A) (A) (A) (A) (A) (A)
                 (A) (A) (A) (A) (A) (A) (A) (A) (A) (A) (A) (A)
                 (A) (A) (A) (A) (A) (A) (A) (A) (A) (A) (A) (A)
                 (A) (A) (A) (A) (A) (A) (A) (A) (A) (A) (A) (A)
                 (A) (A) (A) (A) (A) (A) (A) (A) (A) (A) (A) (A)
                 (A) (A) (A) (A) (A) (A) (A) (A) (A) (A) (A) (A)
                 (A) (A) (A) (A) (A) (A) (A) (A) (A) (A) (A) (A)
                 (A) (A) (A) (A) (A) (A) (A) (A) (A) (A) (A) (A)
                 (A) (A) (A) (A) (A) (A) (A) (A) (A) (A) (A) (A)
                 (A) (A) (A) (A) (A) (A) (A) (A) (A) (A) (A) (A)
                 (A) (A) (A) (A) (A) (A) (A) (A) (A) (A) (A) (A)
                 (A) (A) (A) (A) (A) (A) (A) (A) (A) (A) (A) (A)
                 (A) (A) (A) (A) (A) (A) (A) (A) (A) (A) (A) (A)
                 (A) (A) (A) (A) (A) (A) (A) (A) (A) (A) (A) (A)
                 (A) (A) (A) (A) (A) (A) (A) (A) (A) (A) (A) (A)
                 (A) (A) (A) (A) (A) (A) (A) (A) (A) (A) (A) (A)
                 (A) (A) (A) (A) (A) (A) (A) (A) (A) (A) (A) (A)
                 (A) (A) (A) (A) (A) (A) (A) (A) (A) (A) (A) (A)
                 (A) (A) (A) (A) (A) (A) (A) (A) (A) (A) (A) (A)
                 (A) (A) (A) (A) (A) (A) (A) (A) (A) (A) (A) (A)
                 (A) (A) (A) (A) (A) (A) (A) (A) (A) (A) (A) (A)
                 (A) (A) (A) (A) (A) (A) (A) (A) (A) (A) (A) (A)
                 (A) (A) (A) (A) (A) (A) (A) (A) (A) (A) (A) (A)
                 (A) (A) (A) (A) (A) (A) (A) (A) (A) (A) (A) (A)
                 (A) (A) (A) (A) (A) (A) (A) (A) (A) (A) (A) (A)
                 (A) (A) (A) (A) (A) (A) (A) (A) (A) (A) (A) (A)
                 (A) (A) (A) (A) (A) (A) (A) (A) (A) (A) (A) (A)
                 (A) (A) (A) (A) (A) (A) (A) (A) (A) (A) (A) (A)
                 (A) (A) (A) (A) (A) (A) (A) (A) (A) (A) (A) (A)
                 (A) (A) (A) (A) (A) (A) (A) (A) (A) (A) (A) (A)
                 (A) (A) (A) (A) (A) (A) (A) (A) (A) (A) (A) (A)
                 (A) (A) (A) (A) (A) (A) (A) (A) (A) (A) (A) (A)
                 (A) (A) (A) (A) (A) (A) (A) (A) (A) (A) (A) (A)
                 (A) (A) (A) (A) (A) (A) (A) (A) (A) (A) (A) (A)
                 (A) (A) (A) (A) (A) (A) (A) (A) (A) (A) (A) (A)
                 (A) (A) (A) (A) (A) (A) (A) (A) (A) (A) (A) (A)
                 (A) (A) (A) (A) (A) (A) (A) (A) (A) (A) (A) (A)
                 (A) (A) (A) (A) (A) (A) (A) (A) (A) (A) (A) (A)
                 (A) (A) (A) (A) (A) (A) (A) (A) (A) (A) (A) (A)
                 (A) (A) (A) (A) (A) (A) (A) (A) (A) (A) (A) (A)
                 (A) (A) (A) (A) (A) (A) (A) (A) (A) (A) (A) (A)
                 (A) (A) (A) (A) (A) (A) (A) (A) (A) (A) (A) (A)
                 (A) (A) (A) (A) (A) (A) (A) (A) (A) (A)
     8 initial guesses have been made.
 Convergence on wavefunction:    0.001000000000000
 Iteration     1 Dimension     8 NMult     0 NNew      8
 CISAX will form     8 AO SS matrices at one time.
 Iteration     2 Dimension    12 NMult     8 NNew      4
 Iteration     3 Dimension    16 NMult    12 NNew      4
 Iteration     4 Dimension    20 NMult    16 NNew      4
 Iteration     5 Dimension    24 NMult    20 NNew      4
 Iteration     6 Dimension    28 NMult    24 NNew      4
 Iteration     7 Dimension    32 NMult    28 NNew      4
 ***********************************************************************
 Excited states from <AA,BB:AA,BB> singles matrix:
 ***********************************************************************
 
 Ground to excited state transition densities written to RWF  633
 Ground to excited state transition electric dipole moments (Au):
       state          X           Y           Z        Dip. S.      Osc.
         1        -0.6973     -1.5121     -1.3408      4.5705      0.2139
 Ground to excited state transition velocity dipole moments (Au):
       state          X           Y           Z        Dip. S.      Osc.
         1         0.0468      0.1024      0.0925      0.0212      0.2017
 Ground to excited state transition magnetic dipole moments (Au):
       state          X           Y           Z
         1         0.4613      1.0929     -1.4926
 Ground to excited state transition velocity quadrupole moments (Au):
       state          XX          YY          ZZ          XY          XZ          YZ
         1        -0.9806      0.2465      0.2039     -0.9225     -0.8803      0.2468
 <0|del|b> * <b|rxdel|0> + <0|del|b> * <b|delr+rdel|0>
 Rotatory Strengths (R) in cgs (10**-40 erg-esu-cm/Gauss)
       state          XX          YY          ZZ    R(velocity)    E-M Angle
         1      -107.6692    -98.6325    160.2588    -15.3476       90.94
 1/2[<0|r|b>*<b|rxdel|0> + (<0|rxdel|b>*<b|r|0>)*]
 Rotatory Strengths (R) in cgs (10**-40 erg-esu-cm/Gauss)
       state          XX          YY          ZZ     R(length)
         1       227.4950   1168.6885  -1415.1913     -6.3359
  1/2[<0|del|b>*<b|r|0> + (<0|r|b>*<b|del|0>)*] (Au)
       state          X           Y           Z        Dip. S.   Osc.(frdel)
         1        -0.0327     -0.1549     -0.1241      0.3116      0.2077

 Excitation energies and oscillator strengths:
 
 Excited State   1:      Singlet-A      1.9104 eV  648.98 nm  f=0.2139  <S**2>=0.000
     243 -> 246        0.24547
     244 -> 245        0.65754
 This state for optimization and/or second-order correction.
 Total Energy, E(TD-HF/TD-KS) =  -3043.36720091    
 Copying the excited state density for this state as the 1-particle RhoCI density.
 SavETr:  write IOETrn=   770 NScale= 10 NData=  16 NLR=1 NState=    1 LETran=      28.

 **********************************************************************

            Population analysis using the SCF density.

 **********************************************************************

 Orbital symmetries:
       Occupied  (A) (A) (A) (A) (A) (A) (A) (A) (A) (A) (A) (A)
                 (A) (A) (A) (A) (A) (A) (A) (A) (A) (A) (A) (A)
                 (A) (A) (A) (A) (A) (A) (A) (A) (A) (A) (A) (A)
                 (A) (A) (A) (A) (A) (A) (A) (A) (A) (A) (A) (A)
                 (A) (A) (A) (A) (A) (A) (A) (A) (A) (A) (A) (A)
                 (A) (A) (A) (A) (A) (A) (A) (A) (A) (A) (A) (A)
                 (A) (A) (A) (A) (A) (A) (A) (A) (A) (A) (A) (A)
                 (A) (A) (A) (A) (A) (A) (A) (A) (A) (A) (A) (A)
                 (A) (A) (A) (A) (A) (A) (A) (A) (A) (A) (A) (A)
                 (A) (A) (A) (A) (A) (A) (A) (A) (A) (A) (A) (A)
                 (A) (A) (A) (A) (A) (A) (A) (A) (A) (A) (A) (A)
                 (A) (A) (A) (A) (A) (A) (A) (A) (A) (A) (A) (A)
                 (A) (A) (A) (A) (A) (A) (A) (A) (A) (A) (A) (A)
                 (A) (A) (A) (A) (A) (A) (A) (A) (A) (A) (A) (A)
                 (A) (A) (A) (A) (A) (A) (A) (A) (A) (A) (A) (A)
                 (A) (A) (A) (A) (A) (A) (A) (A) (A) (A) (A) (A)
                 (A) (A) (A) (A) (A) (A) (A) (A) (A) (A) (A) (A)
                 (A) (A) (A) (A) (A) (A) (A) (A) (A) (A) (A) (A)
                 (A) (A) (A) (A) (A) (A) (A) (A) (A) (A) (A) (A)
                 (A) (A) (A) (A) (A) (A) (A) (A) (A) (A) (A) (A)
                 (A) (A) (A) (A)
       Virtual   (A) (A) (A) (A) (A) (A) (A) (A) (A) (A) (A) (A)
                 (A) (A) (A) (A) (A) (A) (A) (A) (A) (A) (A) (A)
                 (A) (A) (A) (A) (A) (A) (A) (A) (A) (A) (A) (A)
                 (A) (A) (A) (A) (A) (A) (A) (A) (A) (A) (A) (A)
                 (A) (A) (A) (A) (A) (A) (A) (A) (A) (A) (A) (A)
                 (A) (A) (A) (A) (A) (A) (A) (A) (A) (A) (A) (A)
                 (A) (A) (A) (A) (A) (A) (A) (A) (A) (A) (A) (A)
                 (A) (A) (A) (A) (A) (A) (A) (A) (A) (A) (A) (A)
                 (A) (A) (A) (A) (A) (A) (A) (A) (A) (A) (A) (A)
                 (A) (A) (A) (A) (A) (A) (A) (A) (A) (A) (A) (A)
                 (A) (A) (A) (A) (A) (A) (A) (A) (A) (A) (A) (A)
                 (A) (A) (A) (A) (A) (A) (A) (A) (A) (A) (A) (A)
                 (A) (A) (A) (A) (A) (A) (A) (A) (A) (A) (A) (A)
                 (A) (A) (A) (A) (A) (A) (A) (A) (A) (A) (A) (A)
                 (A) (A) (A) (A) (A) (A) (A) (A) (A) (A) (A) (A)
                 (A) (A) (A) (A) (A) (A) (A) (A) (A) (A) (A) (A)
                 (A) (A) (A) (A) (A) (A) (A) (A) (A) (A) (A) (A)
                 (A) (A) (A) (A) (A) (A) (A) (A) (A) (A) (A) (A)
                 (A) (A) (A) (A) (A) (A) (A) (A) (A) (A) (A) (A)
                 (A) (A) (A) (A) (A) (A) (A) (A) (A) (A) (A) (A)
                 (A) (A) (A) (A) (A) (A) (A) (A) (A) (A) (A) (A)
                 (A) (A) (A) (A) (A) (A) (A) (A) (A) (A) (A) (A)
                 (A) (A) (A) (A) (A) (A) (A) (A) (A) (A) (A) (A)
                 (A) (A) (A) (A) (A) (A) (A) (A) (A) (A) (A) (A)
                 (A) (A) (A) (A) (A) (A) (A) (A) (A) (A) (A) (A)
                 (A) (A) (A) (A) (A) (A) (A) (A) (A) (A) (A) (A)
                 (A) (A) (A) (A) (A) (A) (A) (A) (A) (A) (A) (A)
                 (A) (A) (A) (A) (A) (A) (A) (A) (A) (A) (A) (A)
                 (A) (A) (A) (A) (A) (A) (A) (A) (A) (A) (A) (A)
                 (A) (A) (A) (A) (A) (A) (A) (A) (A) (A) (A) (A)
                 (A) (A) (A) (A) (A) (A) (A) (A) (A) (A) (A) (A)
                 (A) (A) (A) (A) (A) (A) (A) (A) (A) (A) (A) (A)
                 (A) (A) (A) (A) (A) (A) (A) (A) (A) (A) (A) (A)
                 (A) (A) (A) (A) (A) (A) (A) (A) (A) (A) (A) (A)
                 (A) (A) (A) (A) (A) (A) (A) (A) (A) (A) (A) (A)
                 (A) (A) (A) (A) (A) (A) (A) (A) (A) (A) (A) (A)
                 (A) (A) (A) (A) (A) (A) (A) (A) (A) (A) (A) (A)
                 (A) (A) (A) (A) (A) (A) (A) (A) (A) (A) (A) (A)
                 (A) (A) (A) (A) (A) (A) (A) (A) (A) (A) (A) (A)
                 (A) (A) (A) (A) (A) (A) (A) (A) (A) (A) (A) (A)
                 (A) (A) (A) (A) (A) (A) (A) (A) (A) (A) (A) (A)
                 (A) (A) (A) (A) (A) (A) (A) (A) (A) (A) (A) (A)
                 (A) (A) (A) (A) (A) (A) (A) (A) (A) (A) (A) (A)
                 (A) (A) (A) (A) (A) (A) (A) (A) (A) (A) (A) (A)
                 (A) (A) (A) (A) (A) (A) (A) (A) (A) (A) (A) (A)
                 (A) (A) (A) (A) (A) (A) (A) (A) (A) (A) (A) (A)
                 (A) (A) (A) (A) (A) (A) (A) (A) (A) (A) (A) (A)
                 (A) (A) (A) (A) (A) (A) (A) (A) (A) (A) (A) (A)
                 (A) (A) (A) (A) (A) (A) (A) (A) (A) (A) (A) (A)
                 (A) (A) (A) (A) (A) (A) (A) (A) (A) (A) (A) (A)
                 (A) (A) (A) (A) (A) (A) (A) (A) (A) (A) (A) (A)
                 (A) (A) (A) (A) (A) (A) (A) (A) (A) (A) (A) (A)
                 (A) (A) (A) (A) (A) (A) (A) (A) (A) (A) (A) (A)
                 (A) (A) (A) (A) (A) (A) (A) (A) (A) (A) (A) (A)
                 (A) (A) (A) (A) (A) (A) (A) (A) (A) (A) (A) (A)
                 (A) (A) (A) (A) (A) (A) (A) (A) (A) (A) (A) (A)
                 (A) (A) (A) (A) (A) (A) (A) (A) (A) (A) (A) (A)
                 (A) (A) (A) (A) (A) (A) (A) (A) (A) (A) (A) (A)
                 (A) (A) (A) (A) (A) (A) (A) (A) (A) (A) (A) (A)
                 (A) (A) (A) (A) (A) (A) (A) (A) (A) (A) (A) (A)
                 (A) (A) (A) (A) (A) (A) (A) (A) (A) (A) (A) (A)
                 (A) (A) (A) (A) (A) (A) (A) (A) (A) (A) (A) (A)
                 (A) (A) (A) (A) (A) (A) (A) (A) (A) (A) (A) (A)
                 (A) (A) (A) (A) (A) (A) (A) (A) (A) (A) (A) (A)
                 (A) (A) (A) (A) (A) (A) (A) (A) (A) (A) (A) (A)
                 (A) (A) (A) (A) (A) (A) (A) (A) (A) (A) (A) (A)
                 (A) (A) (A) (A) (A) (A) (A) (A) (A) (A) (A) (A)
                 (A) (A) (A) (A) (A) (A) (A) (A) (A) (A) (A) (A)
                 (A) (A) (A) (A) (A) (A) (A) (A) (A) (A) (A) (A)
                 (A) (A) (A) (A) (A) (A) (A) (A) (A) (A) (A) (A)
                 (A) (A) (A) (A) (A) (A) (A) (A) (A) (A) (A) (A)
                 (A) (A) (A) (A) (A) (A) (A) (A) (A) (A) (A) (A)
                 (A) (A) (A) (A) (A) (A) (A) (A) (A) (A) (A) (A)
                 (A) (A) (A) (A) (A) (A) (A) (A) (A) (A) (A) (A)
                 (A) (A) (A) (A) (A) (A) (A) (A) (A) (A) (A) (A)
                 (A) (A) (A) (A) (A) (A) (A) (A) (A) (A) (A) (A)
                 (A) (A) (A) (A) (A) (A) (A) (A) (A) (A) (A) (A)
                 (A) (A) (A) (A) (A) (A) (A) (A) (A) (A) (A) (A)
                 (A) (A) (A) (A) (A) (A) (A) (A) (A) (A) (A) (A)
                 (A) (A) (A) (A) (A) (A) (A) (A) (A) (A) (A) (A)
                 (A) (A) (A) (A) (A) (A) (A) (A) (A) (A) (A) (A)
                 (A) (A) (A) (A) (A) (A) (A) (A) (A) (A) (A) (A)
                 (A) (A) (A) (A) (A) (A) (A) (A) (A) (A) (A) (A)
                 (A) (A) (A) (A) (A) (A) (A) (A) (A) (A) (A) (A)
                 (A) (A) (A) (A) (A) (A) (A) (A) (A) (A) (A) (A)
                 (A) (A) (A) (A) (A) (A) (A) (A) (A) (A) (A) (A)
                 (A) (A) (A) (A) (A) (A) (A) (A) (A) (A) (A) (A)
                 (A) (A) (A) (A) (A) (A) (A) (A) (A) (A) (A) (A)
                 (A) (A) (A) (A) (A) (A) (A) (A) (A) (A) (A) (A)
                 (A) (A) (A) (A) (A) (A) (A) (A) (A) (A) (A) (A)
                 (A) (A) (A) (A) (A) (A) (A) (A) (A) (A)
 The electronic state is 1-A.
 Alpha  occ. eigenvalues --  -46.81479 -19.22520 -19.22341 -19.19468 -19.18869
 Alpha  occ. eigenvalues --  -19.17472 -19.17444 -19.17328 -14.40111 -14.37006
 Alpha  occ. eigenvalues --  -14.36950 -14.36426 -10.36478 -10.35753 -10.31651
 Alpha  occ. eigenvalues --  -10.31409 -10.31387 -10.29070 -10.27813 -10.27691
 Alpha  occ. eigenvalues --  -10.27487 -10.26908 -10.26888 -10.26810 -10.26332
 Alpha  occ. eigenvalues --  -10.26197 -10.25845 -10.25656 -10.25352 -10.25286
 Alpha  occ. eigenvalues --  -10.25172 -10.25096 -10.24706 -10.24700 -10.24665
 Alpha  occ. eigenvalues --  -10.24647 -10.24515 -10.24482 -10.24425 -10.23987
 Alpha  occ. eigenvalues --  -10.23831 -10.23288 -10.23041 -10.23034 -10.22932
 Alpha  occ. eigenvalues --  -10.22721 -10.22617 -10.22558 -10.22526 -10.22323
 Alpha  occ. eigenvalues --  -10.22069 -10.22004 -10.21968 -10.21955 -10.21929
 Alpha  occ. eigenvalues --  -10.21816 -10.21663 -10.21619 -10.21492 -10.21345
 Alpha  occ. eigenvalues --  -10.21259 -10.21145 -10.20570 -10.20538 -10.20375
 Alpha  occ. eigenvalues --  -10.19509  -3.10107  -1.85032  -1.84575  -1.84531
 Alpha  occ. eigenvalues --   -1.14416  -1.11815  -1.09368  -1.08278  -1.07039
 Alpha  occ. eigenvalues --   -1.05559  -1.02121  -1.01020  -1.00092  -0.98791
 Alpha  occ. eigenvalues --   -0.97464  -0.88583  -0.86774  -0.86400  -0.85262
 Alpha  occ. eigenvalues --   -0.84467  -0.84341  -0.84082  -0.83953  -0.83562
 Alpha  occ. eigenvalues --   -0.83408  -0.82597  -0.82100  -0.79911  -0.78911
 Alpha  occ. eigenvalues --   -0.78551  -0.77924  -0.77674  -0.77177  -0.75761
 Alpha  occ. eigenvalues --   -0.75262  -0.74898  -0.73900  -0.73222  -0.71805
 Alpha  occ. eigenvalues --   -0.71542  -0.69957  -0.69932  -0.69555  -0.69511
 Alpha  occ. eigenvalues --   -0.69082  -0.68774  -0.67107  -0.66084  -0.65667
 Alpha  occ. eigenvalues --   -0.65592  -0.64169  -0.63810  -0.62406  -0.61926
 Alpha  occ. eigenvalues --   -0.61709  -0.61040  -0.60455  -0.59239  -0.59139
 Alpha  occ. eigenvalues --   -0.58748  -0.57609  -0.57276  -0.57160  -0.56945
 Alpha  occ. eigenvalues --   -0.56254  -0.55713  -0.55303  -0.54898  -0.54649
 Alpha  occ. eigenvalues --   -0.54037  -0.53418  -0.53066  -0.52670  -0.52635
 Alpha  occ. eigenvalues --   -0.52111  -0.51721  -0.51186  -0.50815  -0.50492
 Alpha  occ. eigenvalues --   -0.50111  -0.49896  -0.49577  -0.49341  -0.49196
 Alpha  occ. eigenvalues --   -0.49118  -0.48962  -0.48213  -0.47795  -0.47764
 Alpha  occ. eigenvalues --   -0.47681  -0.47284  -0.47116  -0.46777  -0.46720
 Alpha  occ. eigenvalues --   -0.46485  -0.46231  -0.46076  -0.45680  -0.45613
 Alpha  occ. eigenvalues --   -0.45494  -0.45335  -0.45189  -0.45009  -0.44815
 Alpha  occ. eigenvalues --   -0.44545  -0.44339  -0.44158  -0.43743  -0.43695
 Alpha  occ. eigenvalues --   -0.43582  -0.43475  -0.43218  -0.43192  -0.43008
 Alpha  occ. eigenvalues --   -0.42807  -0.42660  -0.42561  -0.42384  -0.42301
 Alpha  occ. eigenvalues --   -0.41854  -0.41727  -0.41490  -0.41286  -0.41079
 Alpha  occ. eigenvalues --   -0.40999  -0.40767  -0.40645  -0.40018  -0.39814
 Alpha  occ. eigenvalues --   -0.39758  -0.39610  -0.39393  -0.39372  -0.39150
 Alpha  occ. eigenvalues --   -0.39043  -0.38838  -0.38602  -0.38397  -0.38180
 Alpha  occ. eigenvalues --   -0.37802  -0.37774  -0.37437  -0.37384  -0.36856
 Alpha  occ. eigenvalues --   -0.36493  -0.36361  -0.36199  -0.36049  -0.35715
 Alpha  occ. eigenvalues --   -0.35384  -0.35208  -0.35128  -0.35050  -0.34293
 Alpha  occ. eigenvalues --   -0.34061  -0.33963  -0.33535  -0.33328  -0.33143
 Alpha  occ. eigenvalues --   -0.32486  -0.32395  -0.32207  -0.31907  -0.31678
 Alpha  occ. eigenvalues --   -0.31503  -0.31437  -0.31057  -0.30178  -0.28654
 Alpha  occ. eigenvalues --   -0.28593  -0.28185  -0.27976  -0.27933  -0.27534
 Alpha  occ. eigenvalues --   -0.27293  -0.25566  -0.23228  -0.21397
 Alpha virt. eigenvalues --   -0.09090  -0.06744  -0.02731  -0.01272   0.00589
 Alpha virt. eigenvalues --    0.01052   0.02977   0.03406   0.03644   0.03806
 Alpha virt. eigenvalues --    0.04301   0.05252   0.07293   0.08008   0.09133
 Alpha virt. eigenvalues --    0.09352   0.09370   0.09738   0.09999   0.10536
 Alpha virt. eigenvalues --    0.10809   0.10925   0.11022   0.11287   0.11674
 Alpha virt. eigenvalues --    0.11946   0.12206   0.12260   0.12501   0.12648
 Alpha virt. eigenvalues --    0.12918   0.13205   0.13381   0.13573   0.13589
 Alpha virt. eigenvalues --    0.13868   0.13918   0.14301   0.14448   0.14729
 Alpha virt. eigenvalues --    0.14854   0.14961   0.15060   0.15141   0.15483
 Alpha virt. eigenvalues --    0.15673   0.15740   0.16093   0.16282   0.16557
 Alpha virt. eigenvalues --    0.16811   0.16861   0.16939   0.17258   0.17272
 Alpha virt. eigenvalues --    0.17476   0.17586   0.17707   0.17979   0.18026
 Alpha virt. eigenvalues --    0.18269   0.18402   0.18572   0.18894   0.18990
 Alpha virt. eigenvalues --    0.19107   0.19274   0.19433   0.19517   0.19764
 Alpha virt. eigenvalues --    0.19830   0.20006   0.20077   0.20374   0.20547
 Alpha virt. eigenvalues --    0.20726   0.21187   0.21291   0.21366   0.21662
 Alpha virt. eigenvalues --    0.21725   0.21811   0.22133   0.22244   0.22331
 Alpha virt. eigenvalues --    0.22956   0.23135   0.23348   0.23444   0.23474
 Alpha virt. eigenvalues --    0.23955   0.24101   0.24186   0.24527   0.24558
 Alpha virt. eigenvalues --    0.24796   0.24928   0.25184   0.25333   0.25416
 Alpha virt. eigenvalues --    0.25632   0.25734   0.25963   0.26274   0.26391
 Alpha virt. eigenvalues --    0.26748   0.26894   0.27217   0.27694   0.27774
 Alpha virt. eigenvalues --    0.27964   0.28078   0.28616   0.28977   0.29054
 Alpha virt. eigenvalues --    0.29330   0.29422   0.29678   0.29819   0.30149
 Alpha virt. eigenvalues --    0.30327   0.30497   0.31430   0.31740   0.32027
 Alpha virt. eigenvalues --    0.32587   0.32645   0.33252   0.33333   0.33946
 Alpha virt. eigenvalues --    0.33983   0.34272   0.34456   0.35344   0.35706
 Alpha virt. eigenvalues --    0.35966   0.36601   0.37033   0.37539   0.38048
 Alpha virt. eigenvalues --    0.38109   0.38601   0.38949   0.39790   0.40009
 Alpha virt. eigenvalues --    0.40235   0.40942   0.41726   0.42491   0.42612
 Alpha virt. eigenvalues --    0.43908   0.44213   0.44897   0.45794   0.46889
 Alpha virt. eigenvalues --    0.47205   0.47310   0.48419   0.49283   0.49557
 Alpha virt. eigenvalues --    0.49661   0.50370   0.50671   0.50800   0.51592
 Alpha virt. eigenvalues --    0.51728   0.52180   0.52281   0.52544   0.53209
 Alpha virt. eigenvalues --    0.53359   0.53452   0.53756   0.53933   0.54036
 Alpha virt. eigenvalues --    0.54380   0.54586   0.54754   0.55018   0.55095
 Alpha virt. eigenvalues --    0.55481   0.55499   0.55698   0.55779   0.55937
 Alpha virt. eigenvalues --    0.56414   0.56573   0.56780   0.56845   0.57025
 Alpha virt. eigenvalues --    0.57421   0.57558   0.57823   0.57962   0.58271
 Alpha virt. eigenvalues --    0.58427   0.58603   0.58686   0.58916   0.59095
 Alpha virt. eigenvalues --    0.59609   0.60197   0.60242   0.60587   0.60897
 Alpha virt. eigenvalues --    0.61032   0.61507   0.61640   0.62143   0.62288
 Alpha virt. eigenvalues --    0.62479   0.62631   0.63023   0.63243   0.63331
 Alpha virt. eigenvalues --    0.63690   0.63777   0.64130   0.64620   0.64773
 Alpha virt. eigenvalues --    0.64899   0.65211   0.65598   0.66007   0.66143
 Alpha virt. eigenvalues --    0.66212   0.66560   0.66746   0.66907   0.67096
 Alpha virt. eigenvalues --    0.67344   0.67928   0.68104   0.68238   0.68469
 Alpha virt. eigenvalues --    0.68726   0.68876   0.69019   0.69227   0.69648
 Alpha virt. eigenvalues --    0.69921   0.70282   0.70627   0.70989   0.71400
 Alpha virt. eigenvalues --    0.71579   0.71731   0.71917   0.72359   0.72384
 Alpha virt. eigenvalues --    0.72744   0.72890   0.73033   0.73266   0.73668
 Alpha virt. eigenvalues --    0.73897   0.74154   0.74494   0.74749   0.74942
 Alpha virt. eigenvalues --    0.75245   0.75568   0.75650   0.76081   0.76299
 Alpha virt. eigenvalues --    0.76565   0.76611   0.77024   0.77312   0.77496
 Alpha virt. eigenvalues --    0.77901   0.78142   0.78176   0.78247   0.78417
 Alpha virt. eigenvalues --    0.78537   0.78695   0.78987   0.79404   0.79468
 Alpha virt. eigenvalues --    0.79484   0.79886   0.80035   0.80540   0.80700
 Alpha virt. eigenvalues --    0.80907   0.81278   0.81378   0.81685   0.81783
 Alpha virt. eigenvalues --    0.81935   0.82213   0.82411   0.83047   0.83178
 Alpha virt. eigenvalues --    0.83389   0.83458   0.83683   0.83833   0.84054
 Alpha virt. eigenvalues --    0.84215   0.84786   0.84932   0.85396   0.85675
 Alpha virt. eigenvalues --    0.85860   0.86006   0.86173   0.86209   0.86343
 Alpha virt. eigenvalues --    0.86471   0.86702   0.86788   0.87046   0.87153
 Alpha virt. eigenvalues --    0.87280   0.87606   0.87839   0.87865   0.88075
 Alpha virt. eigenvalues --    0.88223   0.88231   0.88981   0.89149   0.89243
 Alpha virt. eigenvalues --    0.89547   0.89653   0.89756   0.89816   0.90165
 Alpha virt. eigenvalues --    0.90413   0.90769   0.91087   0.91716   0.91746
 Alpha virt. eigenvalues --    0.91804   0.92386   0.92416   0.92575   0.92686
 Alpha virt. eigenvalues --    0.92869   0.93100   0.93198   0.93235   0.93595
 Alpha virt. eigenvalues --    0.93877   0.94087   0.94235   0.94340   0.94617
 Alpha virt. eigenvalues --    0.94796   0.94888   0.95401   0.95469   0.95596
 Alpha virt. eigenvalues --    0.95912   0.95944   0.96143   0.96344   0.96867
 Alpha virt. eigenvalues --    0.97201   0.97211   0.97402   0.97572   0.97682
 Alpha virt. eigenvalues --    0.98009   0.98093   0.98452   0.98582   0.98710
 Alpha virt. eigenvalues --    0.99250   0.99664   0.99873   0.99932   1.00094
 Alpha virt. eigenvalues --    1.00196   1.00729   1.00905   1.01225   1.01392
 Alpha virt. eigenvalues --    1.01740   1.02048   1.02198   1.02590   1.02660
 Alpha virt. eigenvalues --    1.03241   1.03361   1.03898   1.03980   1.04406
 Alpha virt. eigenvalues --    1.04574   1.04799   1.05297   1.05726   1.06681
 Alpha virt. eigenvalues --    1.06755   1.07113   1.07384   1.07539   1.07949
 Alpha virt. eigenvalues --    1.08408   1.09169   1.09769   1.10318   1.10526
 Alpha virt. eigenvalues --    1.10754   1.11112   1.11709   1.12046   1.12615
 Alpha virt. eigenvalues --    1.13316   1.13655   1.14087   1.15216   1.15429
 Alpha virt. eigenvalues --    1.16014   1.16635   1.17104   1.17837   1.18508
 Alpha virt. eigenvalues --    1.18891   1.19309   1.19912   1.20071   1.20427
 Alpha virt. eigenvalues --    1.20780   1.20885   1.21805   1.22108   1.22760
 Alpha virt. eigenvalues --    1.23146   1.23340   1.23623   1.24347   1.25323
 Alpha virt. eigenvalues --    1.26139   1.26485   1.27156   1.27311   1.27892
 Alpha virt. eigenvalues --    1.28323   1.29393   1.29876   1.30102   1.30274
 Alpha virt. eigenvalues --    1.30676   1.31062   1.31659   1.31761   1.32795
 Alpha virt. eigenvalues --    1.32865   1.33136   1.33836   1.34351   1.34903
 Alpha virt. eigenvalues --    1.35200   1.35452   1.36614   1.36751   1.37163
 Alpha virt. eigenvalues --    1.37851   1.38232   1.38478   1.39745   1.40051
 Alpha virt. eigenvalues --    1.40390   1.40708   1.41371   1.41624   1.42038
 Alpha virt. eigenvalues --    1.42490   1.42990   1.43380   1.43829   1.44770
 Alpha virt. eigenvalues --    1.44814   1.45285   1.45766   1.46022   1.46122
 Alpha virt. eigenvalues --    1.47295   1.47974   1.48428   1.48936   1.49275
 Alpha virt. eigenvalues --    1.49876   1.50054   1.50816   1.50907   1.51174
 Alpha virt. eigenvalues --    1.51561   1.51640   1.52066   1.52164   1.52737
 Alpha virt. eigenvalues --    1.53097   1.53671   1.54379   1.54763   1.55463
 Alpha virt. eigenvalues --    1.55719   1.56107   1.56576   1.57054   1.57228
 Alpha virt. eigenvalues --    1.57670   1.58455   1.58598   1.59341   1.59755
 Alpha virt. eigenvalues --    1.59894   1.60182   1.60761   1.61102   1.61133
 Alpha virt. eigenvalues --    1.62044   1.62304   1.62630   1.62976   1.63164
 Alpha virt. eigenvalues --    1.63600   1.63671   1.64563   1.64733   1.65080
 Alpha virt. eigenvalues --    1.65731   1.66028   1.66341   1.66745   1.66916
 Alpha virt. eigenvalues --    1.67740   1.68701   1.69166   1.69881   1.69999
 Alpha virt. eigenvalues --    1.70580   1.70695   1.71536   1.71784   1.72460
 Alpha virt. eigenvalues --    1.73054   1.73323   1.73381   1.73922   1.74081
 Alpha virt. eigenvalues --    1.74336   1.74616   1.75127   1.75237   1.75412
 Alpha virt. eigenvalues --    1.75931   1.76348   1.76497   1.76718   1.77424
 Alpha virt. eigenvalues --    1.77935   1.78258   1.78419   1.79044   1.79132
 Alpha virt. eigenvalues --    1.79431   1.79633   1.79789   1.80531   1.80757
 Alpha virt. eigenvalues --    1.80877   1.81304   1.81399   1.81823   1.81912
 Alpha virt. eigenvalues --    1.82457   1.82578   1.82924   1.83075   1.83358
 Alpha virt. eigenvalues --    1.83521   1.83799   1.84130   1.84230   1.84416
 Alpha virt. eigenvalues --    1.84604   1.84942   1.85134   1.85315   1.85625
 Alpha virt. eigenvalues --    1.85870   1.86098   1.86314   1.86543   1.87016
 Alpha virt. eigenvalues --    1.87325   1.87554   1.87720   1.87872   1.88188
 Alpha virt. eigenvalues --    1.88421   1.88680   1.89112   1.89432   1.89555
 Alpha virt. eigenvalues --    1.90113   1.90440   1.90520   1.90640   1.91118
 Alpha virt. eigenvalues --    1.91571   1.91935   1.92107   1.92227   1.92863
 Alpha virt. eigenvalues --    1.92926   1.93114   1.93203   1.93512   1.93578
 Alpha virt. eigenvalues --    1.94076   1.94337   1.94574   1.95083   1.95413
 Alpha virt. eigenvalues --    1.95698   1.95811   1.96084   1.96300   1.96581
 Alpha virt. eigenvalues --    1.96708   1.96804   1.96942   1.97627   1.97956
 Alpha virt. eigenvalues --    1.98150   1.98198   1.98358   1.98641   1.99345
 Alpha virt. eigenvalues --    1.99552   1.99932   2.00330   2.00751   2.00876
 Alpha virt. eigenvalues --    2.00993   2.01538   2.01989   2.02413   2.02779
 Alpha virt. eigenvalues --    2.03125   2.03306   2.03437   2.04027   2.04422
 Alpha virt. eigenvalues --    2.04644   2.04925   2.05194   2.05427   2.05697
 Alpha virt. eigenvalues --    2.05820   2.06264   2.06473   2.06506   2.06741
 Alpha virt. eigenvalues --    2.07100   2.07477   2.07716   2.07815   2.08288
 Alpha virt. eigenvalues --    2.08654   2.08794   2.08917   2.09140   2.09430
 Alpha virt. eigenvalues --    2.09499   2.09963   2.10444   2.10981   2.11089
 Alpha virt. eigenvalues --    2.11511   2.11787   2.12473   2.12627   2.13269
 Alpha virt. eigenvalues --    2.13526   2.13880   2.14205   2.14288   2.14602
 Alpha virt. eigenvalues --    2.15030   2.15201   2.15228   2.15562   2.16108
 Alpha virt. eigenvalues --    2.16172   2.16615   2.17529   2.17791   2.17959
 Alpha virt. eigenvalues --    2.18471   2.18658   2.19051   2.19163   2.19809
 Alpha virt. eigenvalues --    2.20391   2.21007   2.21225   2.21482   2.21614
 Alpha virt. eigenvalues --    2.21973   2.22199   2.22267   2.23240   2.23372
 Alpha virt. eigenvalues --    2.23419   2.23727   2.24189   2.24248   2.24756
 Alpha virt. eigenvalues --    2.24810   2.25024   2.25687   2.26001   2.26020
 Alpha virt. eigenvalues --    2.26362   2.26421   2.26805   2.27118   2.27522
 Alpha virt. eigenvalues --    2.27949   2.28188   2.28729   2.28832   2.29282
 Alpha virt. eigenvalues --    2.29747   2.30032   2.30176   2.30275   2.30545
 Alpha virt. eigenvalues --    2.31032   2.31705   2.31985   2.32222   2.32566
 Alpha virt. eigenvalues --    2.32582   2.32957   2.33474   2.33883   2.34168
 Alpha virt. eigenvalues --    2.34572   2.34928   2.35246   2.35326   2.35997
 Alpha virt. eigenvalues --    2.36040   2.36555   2.36991   2.37263   2.37780
 Alpha virt. eigenvalues --    2.38373   2.38635   2.39163   2.39360   2.39738
 Alpha virt. eigenvalues --    2.40027   2.40246   2.40311   2.40868   2.41098
 Alpha virt. eigenvalues --    2.41613   2.41748   2.42083   2.42168   2.42726
 Alpha virt. eigenvalues --    2.42888   2.43421   2.43905   2.43962   2.44398
 Alpha virt. eigenvalues --    2.44541   2.44979   2.45470   2.45583   2.45885
 Alpha virt. eigenvalues --    2.46657   2.46777   2.46895   2.47400   2.47669
 Alpha virt. eigenvalues --    2.48313   2.48486   2.48918   2.49762   2.49927
 Alpha virt. eigenvalues --    2.49957   2.50038   2.50426   2.51170   2.51657
 Alpha virt. eigenvalues --    2.51884   2.51910   2.52320   2.52698   2.52914
 Alpha virt. eigenvalues --    2.53786   2.54257   2.54648   2.55628   2.55732
 Alpha virt. eigenvalues --    2.55899   2.56337   2.56581   2.57003   2.57437
 Alpha virt. eigenvalues --    2.57488   2.57974   2.58492   2.58821   2.59354
 Alpha virt. eigenvalues --    2.59585   2.59750   2.60070   2.60556   2.60948
 Alpha virt. eigenvalues --    2.60968   2.61285   2.61393   2.61727   2.62557
 Alpha virt. eigenvalues --    2.62835   2.63092   2.63455   2.63499   2.63943
 Alpha virt. eigenvalues --    2.64244   2.64465   2.64786   2.65022   2.65559
 Alpha virt. eigenvalues --    2.65845   2.66074   2.66572   2.66720   2.66883
 Alpha virt. eigenvalues --    2.67271   2.67309   2.67768   2.68286   2.68358
 Alpha virt. eigenvalues --    2.68607   2.68687   2.69036   2.69552   2.70237
 Alpha virt. eigenvalues --    2.70358   2.70615   2.70661   2.70908   2.71205
 Alpha virt. eigenvalues --    2.71711   2.72734   2.72925   2.73133   2.73366
 Alpha virt. eigenvalues --    2.73500   2.73752   2.74228   2.74595   2.74859
 Alpha virt. eigenvalues --    2.75149   2.75833   2.75902   2.76514   2.76633
 Alpha virt. eigenvalues --    2.77099   2.77656   2.78116   2.78410   2.78949
 Alpha virt. eigenvalues --    2.79277   2.79769   2.80030   2.80282   2.80745
 Alpha virt. eigenvalues --    2.80813   2.81484   2.81589   2.81922   2.82112
 Alpha virt. eigenvalues --    2.82468   2.82845   2.83621   2.83788   2.84254
 Alpha virt. eigenvalues --    2.84534   2.84765   2.85005   2.85191   2.86311
 Alpha virt. eigenvalues --    2.86572   2.87127   2.87595   2.88028   2.88386
 Alpha virt. eigenvalues --    2.88552   2.88890   2.89061   2.89123   2.89330
 Alpha virt. eigenvalues --    2.89493   2.89701   2.90294   2.91117   2.91627
 Alpha virt. eigenvalues --    2.91761   2.92068   2.92366   2.92845   2.92961
 Alpha virt. eigenvalues --    2.93301   2.93485   2.94530   2.94691   2.95136
 Alpha virt. eigenvalues --    2.95417   2.95476   2.96335   2.96418   2.97032
 Alpha virt. eigenvalues --    2.97122   2.97636   2.98091   2.98253   2.98638
 Alpha virt. eigenvalues --    2.99412   3.00311   3.01028   3.01254   3.01535
 Alpha virt. eigenvalues --    3.02357   3.03077   3.04116   3.04396   3.05755
 Alpha virt. eigenvalues --    3.06586   3.07490   3.08564   3.08800   3.10225
 Alpha virt. eigenvalues --    3.10317   3.10768   3.11190   3.11314   3.11486
 Alpha virt. eigenvalues --    3.13159   3.14474   3.14534   3.14981   3.15501
 Alpha virt. eigenvalues --    3.18533   3.18922   3.20036   3.20106   3.20423
 Alpha virt. eigenvalues --    3.20909   3.22221   3.22356   3.22543   3.23494
 Alpha virt. eigenvalues --    3.23773   3.24193   3.24768   3.25561   3.25952
 Alpha virt. eigenvalues --    3.26968   3.27117   3.29660   3.30223   3.30252
 Alpha virt. eigenvalues --    3.30561   3.31504   3.32762   3.33061   3.33125
 Alpha virt. eigenvalues --    3.33960   3.34683   3.34970   3.35510   3.36360
 Alpha virt. eigenvalues --    3.38034   3.38046   3.38829   3.39408   3.40149
 Alpha virt. eigenvalues --    3.40373   3.40731   3.42931   3.43306   3.44116
 Alpha virt. eigenvalues --    3.45084   3.45510   3.46059   3.46839   3.46935
 Alpha virt. eigenvalues --    3.47556   3.48300   3.48934   3.50002   3.51083
 Alpha virt. eigenvalues --    3.51401   3.51560   3.52763   3.53077   3.53748
 Alpha virt. eigenvalues --    3.54484   3.55085   3.55908   3.57388   3.57628
 Alpha virt. eigenvalues --    3.58423   3.59748   3.60672   3.61898   3.64878
 Alpha virt. eigenvalues --    3.65435   3.65923   3.66510   3.68425   3.77278
 Alpha virt. eigenvalues --    3.92365   4.00036   4.03695   4.05677   4.07172
 Alpha virt. eigenvalues --    4.13848   4.16124   4.16811   4.17486   4.18556
 Alpha virt. eigenvalues --    4.20168   4.21300   4.23063   4.24329   4.25721
 Alpha virt. eigenvalues --    4.25982   4.29130   4.29284   4.29692   4.31352
 Alpha virt. eigenvalues --    4.32215   4.32714   4.33536   4.33999   4.35439
 Alpha virt. eigenvalues --    4.37203   4.38643   4.39059   4.41848   4.42892
 Alpha virt. eigenvalues --    4.43183   4.45077   4.46120   4.46846   4.48151
 Alpha virt. eigenvalues --    4.48496   4.48905   4.51173   4.53246   4.53965
 Alpha virt. eigenvalues --    4.55464   4.55847   4.56318   4.56681   4.58081
 Alpha virt. eigenvalues --    4.61184   4.62504   4.63373   4.64138   4.65065
 Alpha virt. eigenvalues --    4.66895   4.68431   4.68845   4.70990   4.72758
 Alpha virt. eigenvalues --    4.74854   4.76665   4.80264   4.81008   4.82389
 Alpha virt. eigenvalues --    4.82871   4.83724   4.83776   4.88001   4.96016
          Condensed to atoms (all electrons):
 Mulliken charges:
               1
     1  Mg   0.844449
     2  C    0.135827
     3  C   -0.205002
     4  C   -0.165793
     5  C   -0.171132
     6  N   -0.610974
     7  C    0.228169
     8  C   -0.110659
     9  C   -0.184176
    10  C    0.352983
    11  C   -0.294530
    12  C   -0.182067
    13  C   -0.271833
    14  C    0.625312
    15  O   -0.447336
    16  O   -0.479495
    17  N   -0.749203
    18  C    0.345021
    19  C    0.069207
    20  C    0.021831
    21  C    0.266495
    22  C   -0.381140
    23  C    0.212647
    24  O   -0.445953
    25  N   -0.743644
    26  C    0.360491
    27  C   -0.025840
    28  C    0.059311
    29  C    0.306546
    30  C    0.232144
    31  C   -0.258714
    32  C   -0.287437
    33  N   -0.673220
    34  C    0.280880
    35  C    0.026175
    36  C   -0.036070
    37  C    0.252825
    38  C   -0.363542
    39  C    0.359849
    40  O   -0.415738
    41  C   -0.339149
    42  C    0.611319
    43  O   -0.435130
    44  O   -0.465883
    45  C   -0.088503
    46  C    0.012662
    47  C   -0.125054
    48  C    0.147204
    49  C   -0.394517
    50  C   -0.220088
    51  C   -0.189488
    52  C   -0.188559
    53  C   -0.061050
    54  C   -0.317344
    55  C   -0.157471
    56  C   -0.184745
    57  C   -0.175303
    58  C   -0.060986
    59  C   -0.325244
    60  C   -0.145421
    61  C   -0.180913
    62  C   -0.140885
    63  C   -0.071051
    64  C   -0.286026
    65  C   -0.293506
    66  H    0.087509
    67  H    0.116843
    68  H    0.084800
    69  H    0.127765
    70  H    0.097354
    71  H    0.106584
    72  H    0.119226
    73  H    0.123473
    74  H    0.123951
    75  H    0.124271
    76  H    0.136891
    77  H    0.144916
    78  H    0.122173
    79  H    0.174675
    80  H    0.073890
    81  H    0.107599
    82  H    0.099481
    83  H    0.120546
    84  H    0.111117
    85  H    0.095010
    86  H    0.098930
    87  H    0.108725
    88  H    0.146263
    89  H    0.130219
    90  H    0.167175
    91  H    0.066403
    92  H    0.113622
    93  H    0.088206
    94  H    0.126145
    95  H    0.090704
    96  H    0.130701
    97  H    0.113686
    98  H    0.092511
    99  H    0.098243
   100  H    0.083528
   101  H    0.070881
   102  H    0.073663
   103  H    0.098260
   104  H    0.106112
   105  H    0.104482
   106  H    0.119731
   107  H    0.109660
   108  H    0.087481
   109  H    0.108261
   110  H    0.074030
   111  H    0.081486
   112  H    0.090315
   113  H    0.079999
   114  H    0.093258
   115  H    0.085793
   116  H    0.110237
   117  H    0.045195
   118  H    0.077236
   119  H    0.102140
   120  H    0.082598
   121  H    0.072018
   122  H    0.082607
   123  H    0.071276
   124  H    0.072453
   125  H    0.098768
   126  H    0.107499
   127  H    0.081010
   128  H    0.099131
   129  H    0.111796
   130  H    0.129055
   131  H    0.142716
   132  H    0.129547
   133  O   -0.403293
   134  H    0.049930
 Sum of Mulliken charges =   0.00000
 Mulliken charges with hydrogens summed into heavy atoms:
               1
     1  Mg   0.844449
     2  C    0.135827
     3  C   -0.117493
     4  C   -0.048950
     5  C   -0.086332
     6  N   -0.610974
     7  C    0.228169
     8  C    0.017106
     9  C   -0.086823
    10  C    0.352983
    11  C    0.054753
    12  C    0.066155
    13  C    0.009974
    14  C    0.625312
    15  O   -0.447336
    16  O   -0.479495
    17  N   -0.749203
    18  C    0.345021
    19  C    0.069207
    20  C    0.021831
    21  C    0.266495
    22  C   -0.010402
    23  C    0.320246
    24  O   -0.445953
    25  N   -0.743644
    26  C    0.360491
    27  C   -0.025840
    28  C    0.059311
    29  C    0.306546
    30  C    0.282074
    31  C   -0.038686
    32  C    0.017620
    33  N   -0.673220
    34  C    0.280880
    35  C    0.026175
    36  C   -0.036070
    37  C    0.252825
    38  C    0.021665
    39  C    0.359849
    40  O   -0.415738
    41  C   -0.171974
    42  C    0.611319
    43  O   -0.435130
    44  O   -0.465883
    45  C    0.312815
    46  C    0.192686
    47  C   -0.036848
    48  C    0.147204
    49  C   -0.046967
    50  C   -0.013890
    51  C   -0.007718
    52  C   -0.044014
    53  C    0.037210
    54  C    0.012981
    55  C    0.039670
    56  C   -0.002453
    57  C   -0.003503
    58  C    0.019013
    59  C   -0.035956
    60  C   -0.022990
    61  C    0.003824
    62  C    0.013740
    63  C    0.000226
    64  C   -0.007306
    65  C   -0.001570
   133  O   -0.403293
 Electronic spatial extent (au):  <R**2>=         146782.2719
 Charge=              0.0000 electrons
 Dipole moment (field-independent basis, Debye):
    X=              0.8218    Y=             -5.0515    Z=             -1.1093  Tot=              5.2368
 Quadrupole moment (field-independent basis, Debye-Ang):
   XX=           -379.3933   YY=           -440.5292   ZZ=           -398.1373
   XY=             -0.5872   XZ=             23.9622   YZ=            -35.5840
 Traceless Quadrupole moment (field-independent basis, Debye-Ang):
   XX=             26.6267   YY=            -34.5093   ZZ=              7.8826
   XY=             -0.5872   XZ=             23.9622   YZ=            -35.5840
 Octapole moment (field-independent basis, Debye-Ang**2):
  XXX=           -323.0382  YYY=           -590.9663  ZZZ=            -21.1294  XYY=            187.3247
  XXY=            -86.0202  XXZ=           -245.9886  XZZ=            -94.7344  YZZ=            -57.5865
  YYZ=           -109.7962  XYZ=            202.4721
 Hexadecapole moment (field-independent basis, Debye-Ang**3):
 XXXX=        -158894.1243 YYYY=         -32536.1630 ZZZZ=          -9288.8993 XXXY=          -2760.8831
 XXXZ=           2206.3602 YYYX=           2175.7043 YYYZ=          -1454.6532 ZZZX=            661.7170
 ZZZY=           -351.3797 XXYY=         -33817.2473 XXZZ=         -28818.6477 YYZZ=          -7271.8215
 XXYZ=          -1348.1248 YYXZ=            525.9652 ZZXY=           -327.5152
 N-N= 9.095682185742D+03 E-N=-2.527394255668D+04  KE= 3.014329749827D+03

 Test job not archived.
 1\1\GINC-PEDRO-RYZENSSD\SP\RCAM-B3LYP TD-FC\6-31G(d,p)\C54H68Mg1N4O7\P
 ADAWAN\08-Oct-2019\0\\# td=(NStates=1) iop(3/107=0140000000,3/108=0140
 000000) iop(3/107=0140000000,3/108=0140000000) CAM-B3LYP/6-31G(d,p)\\T
 D\\0,1\Mg,0,-5.5845441856,1.3150515329,0.2347361424\C,0,-4.9489250143,
 -2.1317171364,-0.4335264177\C,0,-3.3325447144,1.2407066122,2.753406778
 9\C,0,-6.203916814,4.606278651,0.6712994911\C,0,-7.9602569437,1.244713
 1537,-2.3604001339\N,0,-4.4215392384,-0.2813940625,1.1455147185\C,0,-4
 .2467898994,-1.5551166931,0.610664785\C,0,-3.2607574774,-2.4496461632,
 1.5506606547\C,0,-2.9892630817,-1.4037510448,2.571213908\C,0,-3.600886
 8887,-0.0956287155,2.1976904276\C,0,-3.4289350015,-1.8477414667,3.9910
 969691\C,0,-2.019636807,-2.8112551187,0.7068948756\C,0,-1.0208698499,-
 3.6695320411,1.4921930962\C,0,0.1437102384,-3.9360184739,0.6192500861\
 O,0,0.3390177557,-3.4855682456,-0.5134913645\O,0,1.0330749897,-4.84208
 93537,1.3441003985\N,0,-4.9893574867,2.5738976265,1.5236590525\C,0,-4.
 0184159288,2.4118492009,2.5466798938\C,0,-3.6977103082,3.6410641889,3.
 1646054049\C,0,-4.3449302487,4.665555021,2.4643723214\C,0,-5.232452607
 7,4.007955472,1.5284479967\C,0,-2.8427929042,3.8893960233,4.3475586264
 \C,0,-4.377560456,6.1069307273,2.6940148383\O,0,-3.8620686942,6.689783
 8086,3.7452885014\N,0,-6.8661582654,2.6780857411,-0.6772903967\C,0,-6.
 9132035182,3.9706474702,-0.3334515483\C,0,-7.7863137716,4.6806291197,-
 1.2211749266\C,0,-8.3436473975,3.7305321833,-2.0912536778\C,0,-7.75889
 97015,2.4183500091,-1.7909128611\C,0,-8.2823705158,6.0479161613,-1.172
 8284174\C,0,-9.391945673,3.861557094,-3.0832608747\C,0,-8.9711560963,3
 .8984312062,-4.5432875755\N,0,-6.3256483321,-0.1454197222,-1.179768997
 3\C,0,-7.3002936361,-0.031874093,-2.0433102536\C,0,-7.6585489715,-1.33
 33284855,-2.7194849731\C,0,-6.6547609598,-2.134587232,-2.1932785378\C,
 0,-5.9398619097,-1.4569097205,-1.1321210768\C,0,-8.4568010548,-1.49338
 91275,-3.8776086803\C,0,-6.2181954466,-3.5718962956,-1.957391133\O,0,-
 6.512184459,-4.5216871388,-2.5890791536\C,0,-4.9770679603,-3.559797746
 5,-0.8830549263\C,0,-5.2356406917,-4.683513553,0.1981969707\O,0,-5.725
 0966923,-4.5218181152,1.2462017405\O,0,-4.8929892621,-5.8781016943,-0.
 4098851599\C,0,-5.1087542246,-7.0354471358,0.4260601408\C,0,2.23433011
 46,-5.0506513253,0.685536535\C,0,3.3800013102,-4.159277427,1.105911877
 \C,0,3.9780669104,-3.2634961705,0.2519975748\C,0,3.818386736,-3.218805
 0689,-1.2276304318\C,0,5.1171459206,-2.435977866,0.7702788788\C,0,6.49
 59351982,-2.8221571687,0.0301533412\C,0,7.6525843851,-1.8402556714,0.5
 471385485\C,0,9.0560642149,-2.141540136,-0.0559023034\C,0,9.5709141715
 ,-3.5154314456,0.2326763926\C,0,9.88484392,-0.9389745184,0.5414821116\
 C,0,11.1946326206,-1.0009728924,-0.2235476654\C,0,12.0839760182,0.2518
 543759,0.2052413123\C,0,13.4243818323,0.5568753744,-0.7153412913\C,0,1
 4.4397421472,-0.7103917692,-0.6079574809\C,0,14.081848123,1.7823530075
 ,-0.3287005125\C,0,15.4076700479,2.3119431296,-1.0514122489\C,0,15.975
 4871684,3.6073832483,-0.5508661796\C,0,17.3023346282,4.0463935549,-1.2
 622272705\C,0,17.1726062427,3.9869742601,-2.8423865587\C,0,17.68744216
 34,5.4438625123,-0.7778287399\H,0,-2.5395894648,1.4074976134,3.5479724
 084\H,0,-6.3839092738,5.6351897212,0.6519149542\H,0,-8.7843836375,1.43
 41576773,-3.0854539263\H,0,-3.6967367389,-3.3616692836,1.8579815403\H,
 0,-1.8796290489,-1.1468922974,2.6426764336\H,0,-2.8082901542,-2.705007
 0816,4.3661965656\H,0,-3.0887354736,-1.1178138991,4.6009162275\H,0,-4.
 5800496808,-1.925450463,3.903123535\H,0,-2.3503221978,-3.167799825,-0.
 2560533399\H,0,-1.4331640161,-1.9326218896,0.461066948\H,0,-0.75588997
 91,-3.0075507274,2.4236869098\H,0,-1.2221716958,-4.6753643727,1.871856
 2223\H,0,-1.7096596181,3.6466293496,4.2145038315\H,0,-2.921129767,4.88
 82884679,4.8372093838\H,0,-3.2361335459,2.9484180359,5.1816251393\H,0,
 -5.1479586552,6.6845464371,2.0655386697\H,0,-10.1035243349,2.920839235
 8,-2.7888600406\H,0,-10.0093784207,4.7200495395,-2.8874017328\H,0,-9.9
 237381347,3.719439844,-5.1959359042\H,0,-8.6394279088,5.0509670373,-4.
 9432140032\H,0,-8.0505653314,3.0955138653,-4.8179459093\H,0,-8.1652231
 039,-0.8316364213,-4.8679667657\H,0,-8.3387835063,-2.5421912794,-4.178
 5171956\H,0,-9.4059838475,-1.1074373783,-3.5716614512\H,0,-4.254447220
 7,-4.0187076938,-1.6331282429\H,0,2.8779857424,-6.1230295961,0.9231407
 02\H,0,2.1444377704,-5.0524737738,-0.4196273978\H,0,3.6186678492,-4.42
 16022825,2.0390322673\H,0,2.73598105,-3.394170972,-1.6142340735\H,0,3.
 9449018282,-2.1357982804,-1.7009483123\H,0,4.2790604134,-3.9043122875,
 -1.9490763649\H,0,4.9356174307,-1.4549610407,0.583828774\H,0,5.2235047
 089,-2.6123755548,1.9064145278\H,0,6.904509671,-3.8179160911,0.2733566
 574\H,0,6.5947983193,-2.8595281688,-1.1433340196\H,0,7.132614063,-0.81
 62181761,0.3634350968\H,0,7.7107999902,-1.6991281613,1.6773352059\H,0,
 8.8326691665,-1.8830263433,-1.0705952782\H,0,8.9991720826,-4.263395199
 4,-0.3121236826\H,0,10.5379768271,-3.6469580505,-0.1891264945\H,0,9.68
 07248201,-3.7580115298,1.2087618392\H,0,9.3183828992,-0.0976213517,0.3
 625954339\H,0,10.045553514,-1.0334816675,1.6664275801\H,0,11.623034234
 5,-1.9658539071,-0.2846877766\H,0,11.1401399542,-0.7790895445,-1.38717
 95617\H,0,11.7380538235,1.3802310949,0.1782906187\H,0,12.4847792366,0.
 0778090642,1.2193411092\H,0,13.0822589682,0.6047752203,-1.75805201\H,0
 ,14.7371039376,-1.0668297003,0.4256676643\H,0,13.8922396105,-1.6448376
 627,-1.0066269168\H,0,15.348094666,-0.595172845,-1.1115135544\H,0,13.2
 774569913,2.7852668259,-0.3399638737\H,0,14.3328708993,1.5926156761,0.
 779496777\H,0,16.2233410612,1.6562610876,-1.1959574107\H,0,14.93395819
 13,2.4335816096,-2.1138449154\H,0,15.2836898311,4.5294361513,-0.907942
 0742\H,0,16.2670763415,3.5470106605,0.595622021\H,0,18.1679266095,3.27
 85713656,-1.1348978777\H,0,16.1114282796,4.5275200309,-3.0782821071\H,
 0,18.0748998799,4.5817845717,-3.1772651601\H,0,16.9888135667,2.8979147
 027,-3.0614266959\H,0,17.5607239464,5.4323838914,0.4042095867\H,0,18.7
 082284336,5.585964823,-1.2397661177\H,0,16.9071032801,6.1749119013,-0.
 9197703291\H,0,-4.9258004646,-7.8783589353,-0.3068049965\H,0,-6.114801
 9715,-6.9430936908,0.6084806914\H,0,-4.5290651239,-7.0341232885,1.3136
 642348\O,0,-7.7994928446,6.9071707485,-0.4863220606\H,0,-9.2962330071,
 6.3997473904,-1.767435211\\Version=ES64L-G09RevD.01\State=1-A\HF=-3043
 .4374082\RMSD=5.529e-09\PG=C01 [X(C54H68Mg1N4O7)]\\@


 THE CAUTIOUS SELDOM ERR...CONFUCIUS                   
 Job cpu time:       0 days  6 hours 34 minutes 12.0 seconds.
 File lengths (MBytes):  RWF=   2102 Int=      0 D2E=      0 Chk=    163 Scr=      1
 Normal termination of Gaussian 09 at Tue Oct  8 21:21:59 2019.
