 Entering Gaussian System, Link 0=g16
 Input=Geometria-247-.com
 Output=Geometria-247-.log
 Initial command:
 /usr/local/g09/l1.exe "/home/padawan/israel-mol/chlorophyll-b/spectra/emi/Gau-2178.inp" -scrdir="/home/padawan/israel-mol/chlorophyll-b/spectra/emi/"
 Entering Link 1 = /usr/local/g09/l1.exe PID=      2347.
  
 Copyright (c) 1988,1990,1992,1993,1995,1998,2003,2009,2013,
            Gaussian, Inc.  All Rights Reserved.
  
 This is part of the Gaussian(R) 09 program.  It is based on
 the Gaussian(R) 03 system (copyright 2003, Gaussian, Inc.),
 the Gaussian(R) 98 system (copyright 1998, Gaussian, Inc.),
 the Gaussian(R) 94 system (copyright 1995, Gaussian, Inc.),
 the Gaussian 92(TM) system (copyright 1992, Gaussian, Inc.),
 the Gaussian 90(TM) system (copyright 1990, Gaussian, Inc.),
 the Gaussian 88(TM) system (copyright 1988, Gaussian, Inc.),
 the Gaussian 86(TM) system (copyright 1986, Carnegie Mellon
 University), and the Gaussian 82(TM) system (copyright 1983,
 Carnegie Mellon University). Gaussian is a federally registered
 trademark of Gaussian, Inc.
  
 This software contains proprietary and confidential information,
 including trade secrets, belonging to Gaussian, Inc.
  
 This software is provided under written license and may be
 used, copied, transmitted, or stored only in accord with that
 written license.
  
 The following legend is applicable only to US Government
 contracts under FAR:
  
                    RESTRICTED RIGHTS LEGEND
  
 Use, reproduction and disclosure by the US Government is
 subject to restrictions as set forth in subparagraphs (a)
 and (c) of the Commercial Computer Software - Restricted
 Rights clause in FAR 52.227-19.
  
 Gaussian, Inc.
 340 Quinnipiac St., Bldg. 40, Wallingford CT 06492
  
  
 ---------------------------------------------------------------
 Warning -- This program may not be used in any manner that
 competes with the business of Gaussian, Inc. or will provide
 assistance to any competitor of Gaussian, Inc.  The licensee
 of this program is prohibited from giving any competitor of
 Gaussian, Inc. access to this program.  By using this program,
 the user acknowledges that Gaussian, Inc. is engaged in the
 business of creating and licensing software in the field of
 computational chemistry and represents and warrants to the
 licensee that it is not a competitor of Gaussian, Inc. and that
 it will not use this program in any manner prohibited above.
 ---------------------------------------------------------------
  

 Cite this work as:
 Gaussian 09, Revision D.01,
 M. J. Frisch, G. W. Trucks, H. B. Schlegel, G. E. Scuseria, 
 M. A. Robb, J. R. Cheeseman, G. Scalmani, V. Barone, B. Mennucci, 
 G. A. Petersson, H. Nakatsuji, M. Caricato, X. Li, H. P. Hratchian, 
 A. F. Izmaylov, J. Bloino, G. Zheng, J. L. Sonnenberg, M. Hada, 
 M. Ehara, K. Toyota, R. Fukuda, J. Hasegawa, M. Ishida, T. Nakajima, 
 Y. Honda, O. Kitao, H. Nakai, T. Vreven, J. A. Montgomery, Jr., 
 J. E. Peralta, F. Ogliaro, M. Bearpark, J. J. Heyd, E. Brothers, 
 K. N. Kudin, V. N. Staroverov, T. Keith, R. Kobayashi, J. Normand, 
 K. Raghavachari, A. Rendell, J. C. Burant, S. S. Iyengar, J. Tomasi, 
 M. Cossi, N. Rega, J. M. Millam, M. Klene, J. E. Knox, J. B. Cross, 
 V. Bakken, C. Adamo, J. Jaramillo, R. Gomperts, R. E. Stratmann, 
 O. Yazyev, A. J. Austin, R. Cammi, C. Pomelli, J. W. Ochterski, 
 R. L. Martin, K. Morokuma, V. G. Zakrzewski, G. A. Voth, 
 P. Salvador, J. J. Dannenberg, S. Dapprich, A. D. Daniels, 
 O. Farkas, J. B. Foresman, J. V. Ortiz, J. Cioslowski, 
 and D. J. Fox, Gaussian, Inc., Wallingford CT, 2013.
 
 ******************************************
 Gaussian 09:  ES64L-G09RevD.01 24-Apr-2013
                 7-Oct-2019 
 ******************************************
 %nproc=3
 Will use up to    3 processors via shared memory.
 %Mem=2GB
 ----------------------------------------------------------------------
 # td=(NStates=1) iop(3/107=0140000000,3/108=0140000000) iop(3/107=0140
 000000,3/108=0140000000) CAM-B3LYP/6-31G(d,p)
 ----------------------------------------------------------------------
 1/38=1/1;
 2/12=2,17=6,18=5,40=1/2;
 3/5=1,6=6,7=101,11=9,16=1,25=1,30=1,74=-40,107=140000000,108=140000000/1,2,8,3;
 4//1;
 5/5=2,38=5/2;
 8/6=1,10=2,108=1/1;
 9/41=1,42=1,70=2/14;
 6/7=2,8=2,9=2,10=2/1;
 99/5=1,9=1/99;
 --
 TD
 --
 Symbolic Z-matrix:
 Charge =  0 Multiplicity = 1
 12                   -5.71312   1.21019   0.20061 
 6                    -5.12995  -2.05408  -0.36822 
 6                    -3.31516   1.08912   2.71092 
 6                    -6.15639   4.57493   0.68543 
 6                    -8.00929   1.2575   -2.35216 
 7                    -4.35779  -0.29785   1.03429 
 6                    -4.23374  -1.60823   0.58829 
 6                    -3.24511  -2.30354   1.51286 
 6                    -2.8941   -1.34499   2.64703 
 6                    -3.47202  -0.08794   2.12155 
 6                    -3.30065  -1.86408   4.00278 
 6                    -1.99051  -2.75596   0.65506 
 6                    -0.9984   -3.64063   1.46245 
 6                     0.26133  -3.89106   0.54004 
 8                     0.41381  -3.45298  -0.57301 
 8                     1.09637  -4.7179    1.20576 
 7                    -4.9593    2.50543   1.50898 
 6                    -3.97494   2.37926   2.45602 
 6                    -3.71798   3.72234   3.16767 
 6                    -4.49056   4.57314   2.4913 
 6                    -5.29942   3.85103   1.53296 
 6                    -2.72937   3.93418   4.27075 
 6                    -4.51364   5.97184   2.6706 
 8                    -4.04719   6.64855   3.67035 
 7                    -6.98058   2.66887  -0.64704 
 6                    -7.05038   4.01984  -0.24913 
 6                    -8.00699   4.60406  -1.16771 
 6                    -8.46746   3.72674  -2.06424 
 6                    -7.72268   2.46094  -1.74363 
 6                    -8.30675   6.05789  -1.15435 
 6                    -9.46954   3.86971  -3.12157 
 6                    -8.76779   3.91588  -4.54958 
 7                    -6.44132  -0.13151  -1.12318 
 6                    -7.42641   0.04511  -2.04023 
 6                    -7.65027  -1.33363  -2.67252 
 6                    -6.78042  -2.23508  -1.97715 
 6                    -6.06826  -1.4585   -1.05934 
 6                    -8.51645  -1.70644  -3.9218 
 6                    -6.36313  -3.63843  -1.92164 
 8                    -6.73885  -4.54971  -2.50535 
 6                    -5.13168  -3.55799  -0.83225 
 6                    -5.23107  -4.58848   0.18383 
 8                    -5.78572  -4.46532   1.30801 
 8                    -4.98203  -5.79655  -0.33805 
 6                    -5.44193  -6.95779   0.46192 
 6                     2.31889  -5.1216    0.46589 
 6                     3.54029  -4.09537   0.90758 
 6                     4.13903  -3.28468   0.02628 
 6                     3.77111  -3.1687   -1.41741 
 6                     5.16041  -2.39843   0.7 
 6                     6.6211   -2.74365   0.1401 
 6                     7.62649  -1.67353   0.5663 
 6                     8.99098  -1.94721  -0.06502 
 6                     9.58027  -3.33528   0.21102 
 6                     10.04828  -0.8853    0.43557 
 6                     11.37776  -0.82139  -0.26454 
 6                     12.21103   0.36142   0.1151 
 6                     13.56871   0.48035  -0.54754 
 6                     14.58061  -0.72882  -0.24596 
 6                     14.23302   1.82253  -0.18546 
 6                     15.55451   2.17577  -0.94045 
 6                     16.05394   3.47023  -0.66522 
 6                     17.32619   3.88603  -1.31363 
 6                     17.26761   4.03816  -2.83741 
 6                     17.86295   5.18667  -0.71194 
 1                    -2.56994   1.28047   3.54567 
 1                    -6.32993   5.61352   0.83206 
 1                    -8.7924    1.26136  -3.18898 
 1                    -3.8316   -3.1243    1.93185 
 1                    -1.69813  -1.2471    2.67891 
 1                    -2.60593  -2.7771    4.21019 
 1                    -3.27347  -1.16817   4.87002 
 1                    -4.29719  -2.17072   3.7784 
 1                    -2.12999  -3.32172  -0.16781 
 1                    -1.55994  -1.87212   0.2739 
 1                    -0.64397  -3.16747   2.50518 
 1                    -1.52655  -4.68732   1.67711 
 1                    -1.64592   3.60026   4.04423 
 1                    -2.86886   5.09859   4.22768 
 1                    -2.7534    3.31114   5.19984 
 1                    -4.90465   6.71582   1.92017 
 1                    -10.12961   3.04578  -3.12333 
 1                    -9.92611   4.61988  -2.96778 
 1                    -9.37741   4.17352  -5.48253 
 1                    -8.14921   4.75389  -4.66909 
 1                    -8.05796   2.99759  -4.65974 
 1                    -8.45561  -1.13123  -4.85927 
 1                    -8.2748   -2.81444  -4.06334 
 1                    -9.67723  -1.86132  -3.42475 
 1                    -4.14636  -3.67255  -1.24989 
 1                     2.33197  -6.19584   0.93258 
 1                     2.25162  -4.92444  -0.54316 
 1                     3.89465  -3.87028   1.89474 
 1                     2.75956  -3.5775   -1.42261 
 1                     3.66502  -2.02622  -1.62974 
 1                     4.49925  -3.83791  -2.34585 
 1                     4.9294   -1.3376    0.35506 
 1                     5.33963  -2.51615   1.7654 
 1                     6.6368   -3.68112   0.53947 
 1                     6.59395  -2.78607  -0.96319 
 1                     7.40112  -0.73312   0.38902 
 1                     7.67829  -1.68237   1.69257 
 1                     8.81101  -1.79784  -1.22694 
 1                     8.8448   -4.15999   0.14113 
 1                     10.54942  -3.51647  -0.25815 
 1                     9.65343  -3.46974   1.27106 
 1                     9.44478   0.08049   0.09561 
 1                     10.09276  -1.07972   1.46087 
 1                     11.97634  -1.66035  -0.1555 
 1                     11.05732  -0.50903  -1.35397 
 1                     11.7717   1.2591   -0.04781 
 1                     12.43885   0.23068   1.39797 
 1                     13.16365   0.31379  -1.5371 
 1                     14.97477  -0.72889   0.91641 
 1                     13.99547  -1.67072  -0.34482 
 1                     15.53665  -0.69026  -0.78983 
 1                     13.66006   2.6549   -0.49139 
 1                     14.44742   1.63032   0.87781 
 1                     16.19138   1.51927  -0.5382 
 1                     15.37487   2.04989  -1.95776 
 1                     15.36747   4.32789  -0.81429 
 1                     16.26981   3.53513   0.50124 
 1                     18.0838   3.14596  -1.05366 
 1                     16.59166   4.61246  -3.2478 
 1                     18.20702   4.31895  -3.15268 
 1                     16.91648   3.0561   -3.47145 
 1                     18.10475   5.16479   0.33045 
 1                     18.67789   5.5177   -1.15245 
 1                     16.89611   5.90243  -0.64174 
 1                    -5.44428  -7.76504  -0.24612 
 1                    -6.44664  -6.78516   0.69935 
 1                    -4.81278  -6.78468   1.26255 
 8                    -7.71726   6.78391  -0.38512 
 1                    -9.06272   6.49301  -1.87476 
 
 Stoichiometry    C54H68MgN4O7
 Framework group  C1[X(C54H68MgN4O7)]
 Deg. of freedom   396
 Full point group                 C1      NOp   1
 Largest Abelian subgroup         C1      NOp   1
 Largest concise Abelian subgroup C1      NOp   1
                         Standard orientation:                         
 ---------------------------------------------------------------------
 Center     Atomic      Atomic             Coordinates (Angstroms)
 Number     Number       Type             X           Y           Z
 ---------------------------------------------------------------------
      1         12           0       -5.713390    1.218284    0.210326
      2          6           0       -5.136152   -2.047080   -0.358271
      3          6           0       -3.311135    1.094584    2.716392
      4          6           0       -6.150739    4.583870    0.694619
      5          6           0       -8.014053    1.268059   -2.338355
      6          7           0       -4.358845   -0.291465    1.042172
      7          6           0       -4.237559   -1.602209    0.596463
      8          6           0       -3.248320   -2.298646    1.519530
      9          6           0       -2.893850   -1.340178    2.652700
     10          6           0       -3.470819   -0.082467    2.127764
     11          6           0       -3.298753   -1.858137    4.009375
     12          6           0       -1.995946   -2.753283    0.659668
     13          6           0       -1.003718   -3.639130    1.465630
     14          6           0        0.253982   -3.891818    0.541069
     15          8           0        0.405122   -3.454401   -0.572423
     16          8           0        1.088966   -4.719647    1.205613
     17          7           0       -4.955292    2.512897    1.516834
     18          6           0       -3.969428    2.385610    2.462165
     19          6           0       -3.709178    3.728585    3.172824
     20          6           0       -4.481689    4.580277    2.497503
     21          6           0       -5.293341    3.859015    1.540897
     22          6           0       -2.718278    3.939365    4.274057
     23          6           0       -4.502345    5.979081    2.676304
     24          8           0       -4.033084    6.655479    3.674952
     25          7           0       -6.980172    2.678543   -0.635627
     26          6           0       -7.047227    4.029769   -0.238128
     27          6           0       -8.004598    4.615069   -1.155221
     28          6           0       -8.467993    3.738094   -2.050584
     29          6           0       -7.724540    2.471303   -1.730808
     30          6           0       -8.302155    6.069349   -1.141891
     31          6           0       -9.471750    3.882157   -3.106180
     32          6           0       -8.772479    3.926721   -4.535454
     33          7           0       -6.445975   -0.122833   -1.111641
     34          6           0       -7.432433    0.054914   -2.026994
     35          6           0       -7.659498   -1.323735   -2.658344
     36          6           0       -6.789767   -2.226221   -1.964174
     37          6           0       -6.074802   -1.450359   -1.047949
     38          6           0       -8.528469   -1.695729   -3.905930
     39          6           0       -6.374485   -3.630181   -1.908862
     40          8           0       -6.752615   -4.541118   -2.491546
     41          6           0       -5.140973   -3.551164   -0.821709
     42          6           0       -5.240091   -4.581115    0.194946
     43          8           0       -5.792546   -4.456683    1.320070
     44          8           0       -4.993799   -5.789761   -0.326900
     45          6           0       -5.454012   -6.949992    0.474347
     46          6           0        2.309550   -5.125474    0.463724
     47          6           0        3.533278   -4.100913    0.902826
     48          6           0        4.131665   -3.291464    0.020132
     49          6           0        3.761337   -3.175494   -1.422937
     50          6           0        5.155576   -2.406495    0.691685
     51          6           0        6.614740   -2.754124    0.129312
     52          6           0        7.622502   -1.685352    0.553291
     53          6           0        8.985443   -1.961331   -0.080364
     54          6           0        9.573136   -3.350181    0.195173
     55          6           0       10.045235   -0.900816    0.417924
     56          6           0       11.373556   -0.839183   -0.284590
     57          6           0       12.209278    0.342520    0.093101
     58          6           0       13.565946    0.459153   -0.572018
     59          6           0       14.576565   -0.751422   -0.271772
     60          6           0       14.232926    1.800472   -0.211643
     61          6           0       15.553595    2.151433   -0.969138
     62          6           0       16.055452    3.445248   -0.695304
     63          6           0       17.327166    3.858880   -1.346155
     64          6           0       17.266088    4.010508   -2.869881
     65          6           0       17.866958    5.158944   -0.745935
     66          1           0       -2.564136    1.285141    3.549733
     67          1           0       -6.322456    5.622779    0.841155
     68          1           0       -8.798654    1.272768   -3.173780
     69          1           0       -3.835298   -3.118354    1.939891
     70          1           0       -1.697676   -1.244081    2.682402
     71          1           0       -2.605034   -2.772121    4.215902
     72          1           0       -3.268977   -1.161927    4.876297
     73          1           0       -4.296151   -2.163367    3.786899
     74          1           0       -2.137744   -3.319148   -0.162734
     75          1           0       -1.564723   -1.870236    0.277392
     76          1           0       -0.646714   -3.166096    2.507534
     77          1           0       -1.533061   -4.684938    1.681640
     78          1           0       -1.635740    3.603732    4.045727
     79          1           0       -2.856098    5.103965    4.230778
     80          1           0       -2.741577    3.316726    5.203428
     81          1           0       -4.893578    6.723359    1.926285
     82          1           0      -10.133053    3.059223   -3.106437
     83          1           0       -9.926912    4.633074   -2.951863
     84          1           0       -9.383386    4.184908   -5.467420
     85          1           0       -8.152857    4.763748   -4.656396
     86          1           0       -8.064228    3.007323   -4.646526
     87          1           0       -8.468447   -1.120972   -4.843725
     88          1           0       -8.288739   -2.804144   -4.047461
     89          1           0       -9.688594   -1.848673   -3.406738
     90          1           0       -4.156568   -3.667374   -1.241065
     91          1           0        2.321853   -6.199549    0.930807
     92          1           0        2.240772   -4.928608   -0.545285
     93          1           0        3.889739   -3.875969    1.889258
     94          1           0        2.749167   -3.582773   -1.426174
     95          1           0        3.656587   -2.032935   -1.635526
     96          1           0        4.486809   -3.846154   -2.352412
     97          1           0        4.925541   -1.345448    0.346738
     98          1           0        5.336520   -2.524063    1.756808
     99          1           0        6.629750   -3.691465    0.529019
    100          1           0        6.585553   -2.796934   -0.973911
    101          1           0        7.398228   -0.744674    0.376044
    102          1           0        7.676298   -1.693830    1.679467
    103          1           0        8.803620   -1.812139   -1.242016
    104          1           0        8.836305   -4.173812    0.126918
    105          1           0       10.541175   -3.533002   -0.275666
    106          1           0        9.647997   -3.484338    1.255127
    107          1           0        9.442575    0.065744    0.078663
    108          1           0       10.091254   -1.094901    1.443215
    109          1           0       11.971067   -1.678999   -0.176295
    110          1           0       11.051638   -0.526763   -1.373562
    111          1           0       11.771006    1.240800   -0.069378
    112          1           0       12.439201    0.211945    1.375610
    113          1           0       13.158867    0.292816   -1.560783
    114          1           0       14.972804   -0.751625    0.889890
    115          1           0       13.989837   -1.692476   -0.369216
    116          1           0       15.531695   -0.714510   -0.817365
    117          1           0       13.660664    2.633591   -0.516877
    118          1           0       14.448937    1.608355    0.851309
    119          1           0       16.190189    1.494131   -0.567771
    120          1           0       15.371944    2.025432   -1.986074
    121          1           0       15.370009    4.303878   -0.843487
    122          1           0       16.273506    3.510276    0.470743
    123          1           0       18.084127    3.117773   -1.087248
    124          1           0       16.590270    4.585663   -3.279290
    125          1           0       18.205361    4.289761   -3.186947
    126          1           0       16.912349    3.028732   -3.502910
    127          1           0       18.110587    5.137106    0.296034
    128          1           0       18.681601    5.488578   -1.188026
    129          1           0       16.901325    5.876192   -0.674287
    130          1           0       -5.458847   -7.757511   -0.233374
    131          1           0       -6.458033   -6.775758    0.713502
    132          1           0       -4.823178   -6.777517    1.273779
    133          8           0       -7.710201    6.794782   -0.374005
    134          1           0       -9.058754    6.505325   -1.861117
 ---------------------------------------------------------------------
 Rotational constants (GHZ):      0.0348345      0.0080580      0.0071186
 Standard basis: 6-31G(d,p) (6D, 7F)
 There are  1334 symmetry adapted cartesian basis functions of A   symmetry.
 There are  1334 symmetry adapted basis functions of A   symmetry.
  1334 basis functions,  2348 primitive gaussians,  1334 cartesian basis functions
   244 alpha electrons      244 beta electrons
       nuclear repulsion energy      9112.5293940846 Hartrees.
 NAtoms=  134 NActive=  134 NUniq=  134 SFac= 1.00D+00 NAtFMM=   60 NAOKFM=T Big=T
 Integral buffers will be    131072 words long.
 Raffenetti 1 integral format.
 Two-electron integral symmetry is turned on.
 One-electron integrals computed using PRISM.
 NBasis=  1334 RedAO= T EigKep=  2.99D-04  NBF=  1334
 NBsUse=  1334 1.00D-06 EigRej= -1.00D+00 NBFU=  1334
 ExpMin= 4.21D-02 ExpMax= 1.17D+04 ExpMxC= 1.76D+03 IAcc=2 IRadAn=         4 AccDes= 0.00D+00
 Harris functional with IExCor=20419 and IRadAn=       4 diagonalized for initial guess.
 HarFok:  IExCor=20419 AccDes= 0.00D+00 IRadAn=         4 IDoV= 1 UseB2=F ITyADJ=14
 ICtDFT=  3500011 ScaDFX=  1.000000  1.000000  1.000000  1.000000
 FoFCou: FMM=F IPFlag=           0 FMFlag=      100000 FMFlg1=        2001
         NFxFlg=           0 DoJE=T BraDBF=F KetDBF=T FulRan=T
         wScrn=  0.000000 ICntrl=     500 IOpCl=  0 I1Cent=   200000004 NGrid=           0
         NMat0=    1 NMatS0=      1 NMatT0=    0 NMatD0=    1 NMtDS0=    0 NMtDT0=    0
 Petite list used in FoFCou.
 Requested convergence on RMS density matrix=1.00D-08 within 128 cycles.
 Requested convergence on MAX density matrix=1.00D-06.
 Requested convergence on             energy=1.00D-06.
 No special actions if energy rises.
 EnCoef did     1 forward-backward iterations
 SCF Done:  E(RCAM-B3LYP) =  -3043.41835249     A.U. after   16 cycles
            NFock= 16  Conv=0.44D-08     -V/T= 2.0087
 DoSCS=F DFT=T ScalE2(SS,OS)=  1.000000  1.000000
 ExpMin= 4.21D-02 ExpMax= 1.17D+04 ExpMxC= 1.76D+03 IAcc=3 IRadAn=         5 AccDes= 0.00D+00
 HarFok:  IExCor=  205 AccDes= 0.00D+00 IRadAn=         5 IDoV=-2 UseB2=F ITyADJ=14
 ICtDFT= 12500011 ScaDFX=  1.000000  1.000000  1.000000  1.000000
 Range of M.O.s used for correlation:    71  1334
 NBasis=  1334 NAE=   244 NBE=   244 NFC=    70 NFV=     0
 NROrb=   1264 NOA=   174 NOB=   174 NVA=  1090 NVB=  1090
 Would need an additional       2379600800000 words for in-memory AO integral storage.
 Orbital symmetries:
       Occupied  (A) (A) (A) (A) (A) (A) (A) (A) (A) (A) (A) (A)
                 (A) (A) (A) (A) (A) (A) (A) (A) (A) (A) (A) (A)
                 (A) (A) (A) (A) (A) (A) (A) (A) (A) (A) (A) (A)
                 (A) (A) (A) (A) (A) (A) (A) (A) (A) (A) (A) (A)
                 (A) (A) (A) (A) (A) (A) (A) (A) (A) (A) (A) (A)
                 (A) (A) (A) (A) (A) (A) (A) (A) (A) (A) (A) (A)
                 (A) (A) (A) (A) (A) (A) (A) (A) (A) (A) (A) (A)
                 (A) (A) (A) (A) (A) (A) (A) (A) (A) (A) (A) (A)
                 (A) (A) (A) (A) (A) (A) (A) (A) (A) (A) (A) (A)
                 (A) (A) (A) (A) (A) (A) (A) (A) (A) (A) (A) (A)
                 (A) (A) (A) (A) (A) (A) (A) (A) (A) (A) (A) (A)
                 (A) (A) (A) (A) (A) (A) (A) (A) (A) (A) (A) (A)
                 (A) (A) (A) (A) (A) (A) (A) (A) (A) (A) (A) (A)
                 (A) (A) (A) (A) (A) (A) (A) (A) (A) (A) (A) (A)
                 (A) (A) (A) (A) (A) (A) (A) (A) (A) (A) (A) (A)
                 (A) (A) (A) (A) (A) (A) (A) (A) (A) (A) (A) (A)
                 (A) (A) (A) (A) (A) (A) (A) (A) (A) (A) (A) (A)
                 (A) (A) (A) (A) (A) (A) (A) (A) (A) (A) (A) (A)
                 (A) (A) (A) (A) (A) (A) (A) (A) (A) (A) (A) (A)
                 (A) (A) (A) (A) (A) (A) (A) (A) (A) (A) (A) (A)
                 (A) (A) (A) (A)
       Virtual   (A) (A) (A) (A) (A) (A) (A) (A) (A) (A) (A) (A)
                 (A) (A) (A) (A) (A) (A) (A) (A) (A) (A) (A) (A)
                 (A) (A) (A) (A) (A) (A) (A) (A) (A) (A) (A) (A)
                 (A) (A) (A) (A) (A) (A) (A) (A) (A) (A) (A) (A)
                 (A) (A) (A) (A) (A) (A) (A) (A) (A) (A) (A) (A)
                 (A) (A) (A) (A) (A) (A) (A) (A) (A) (A) (A) (A)
                 (A) (A) (A) (A) (A) (A) (A) (A) (A) (A) (A) (A)
                 (A) (A) (A) (A) (A) (A) (A) (A) (A) (A) (A) (A)
                 (A) (A) (A) (A) (A) (A) (A) (A) (A) (A) (A) (A)
                 (A) (A) (A) (A) (A) (A) (A) (A) (A) (A) (A) (A)
                 (A) (A) (A) (A) (A) (A) (A) (A) (A) (A) (A) (A)
                 (A) (A) (A) (A) (A) (A) (A) (A) (A) (A) (A) (A)
                 (A) (A) (A) (A) (A) (A) (A) (A) (A) (A) (A) (A)
                 (A) (A) (A) (A) (A) (A) (A) (A) (A) (A) (A) (A)
                 (A) (A) (A) (A) (A) (A) (A) (A) (A) (A) (A) (A)
                 (A) (A) (A) (A) (A) (A) (A) (A) (A) (A) (A) (A)
                 (A) (A) (A) (A) (A) (A) (A) (A) (A) (A) (A) (A)
                 (A) (A) (A) (A) (A) (A) (A) (A) (A) (A) (A) (A)
                 (A) (A) (A) (A) (A) (A) (A) (A) (A) (A) (A) (A)
                 (A) (A) (A) (A) (A) (A) (A) (A) (A) (A) (A) (A)
                 (A) (A) (A) (A) (A) (A) (A) (A) (A) (A) (A) (A)
                 (A) (A) (A) (A) (A) (A) (A) (A) (A) (A) (A) (A)
                 (A) (A) (A) (A) (A) (A) (A) (A) (A) (A) (A) (A)
                 (A) (A) (A) (A) (A) (A) (A) (A) (A) (A) (A) (A)
                 (A) (A) (A) (A) (A) (A) (A) (A) (A) (A) (A) (A)
                 (A) (A) (A) (A) (A) (A) (A) (A) (A) (A) (A) (A)
                 (A) (A) (A) (A) (A) (A) (A) (A) (A) (A) (A) (A)
                 (A) (A) (A) (A) (A) (A) (A) (A) (A) (A) (A) (A)
                 (A) (A) (A) (A) (A) (A) (A) (A) (A) (A) (A) (A)
                 (A) (A) (A) (A) (A) (A) (A) (A) (A) (A) (A) (A)
                 (A) (A) (A) (A) (A) (A) (A) (A) (A) (A) (A) (A)
                 (A) (A) (A) (A) (A) (A) (A) (A) (A) (A) (A) (A)
                 (A) (A) (A) (A) (A) (A) (A) (A) (A) (A) (A) (A)
                 (A) (A) (A) (A) (A) (A) (A) (A) (A) (A) (A) (A)
                 (A) (A) (A) (A) (A) (A) (A) (A) (A) (A) (A) (A)
                 (A) (A) (A) (A) (A) (A) (A) (A) (A) (A) (A) (A)
                 (A) (A) (A) (A) (A) (A) (A) (A) (A) (A) (A) (A)
                 (A) (A) (A) (A) (A) (A) (A) (A) (A) (A) (A) (A)
                 (A) (A) (A) (A) (A) (A) (A) (A) (A) (A) (A) (A)
                 (A) (A) (A) (A) (A) (A) (A) (A) (A) (A) (A) (A)
                 (A) (A) (A) (A) (A) (A) (A) (A) (A) (A) (A) (A)
                 (A) (A) (A) (A) (A) (A) (A) (A) (A) (A) (A) (A)
                 (A) (A) (A) (A) (A) (A) (A) (A) (A) (A) (A) (A)
                 (A) (A) (A) (A) (A) (A) (A) (A) (A) (A) (A) (A)
                 (A) (A) (A) (A) (A) (A) (A) (A) (A) (A) (A) (A)
                 (A) (A) (A) (A) (A) (A) (A) (A) (A) (A) (A) (A)
                 (A) (A) (A) (A) (A) (A) (A) (A) (A) (A) (A) (A)
                 (A) (A) (A) (A) (A) (A) (A) (A) (A) (A) (A) (A)
                 (A) (A) (A) (A) (A) (A) (A) (A) (A) (A) (A) (A)
                 (A) (A) (A) (A) (A) (A) (A) (A) (A) (A) (A) (A)
                 (A) (A) (A) (A) (A) (A) (A) (A) (A) (A) (A) (A)
                 (A) (A) (A) (A) (A) (A) (A) (A) (A) (A) (A) (A)
                 (A) (A) (A) (A) (A) (A) (A) (A) (A) (A) (A) (A)
                 (A) (A) (A) (A) (A) (A) (A) (A) (A) (A) (A) (A)
                 (A) (A) (A) (A) (A) (A) (A) (A) (A) (A) (A) (A)
                 (A) (A) (A) (A) (A) (A) (A) (A) (A) (A) (A) (A)
                 (A) (A) (A) (A) (A) (A) (A) (A) (A) (A) (A) (A)
                 (A) (A) (A) (A) (A) (A) (A) (A) (A) (A) (A) (A)
                 (A) (A) (A) (A) (A) (A) (A) (A) (A) (A) (A) (A)
                 (A) (A) (A) (A) (A) (A) (A) (A) (A) (A) (A) (A)
                 (A) (A) (A) (A) (A) (A) (A) (A) (A) (A) (A) (A)
                 (A) (A) (A) (A) (A) (A) (A) (A) (A) (A) (A) (A)
                 (A) (A) (A) (A) (A) (A) (A) (A) (A) (A) (A) (A)
                 (A) (A) (A) (A) (A) (A) (A) (A) (A) (A) (A) (A)
                 (A) (A) (A) (A) (A) (A) (A) (A) (A) (A) (A) (A)
                 (A) (A) (A) (A) (A) (A) (A) (A) (A) (A) (A) (A)
                 (A) (A) (A) (A) (A) (A) (A) (A) (A) (A) (A) (A)
                 (A) (A) (A) (A) (A) (A) (A) (A) (A) (A) (A) (A)
                 (A) (A) (A) (A) (A) (A) (A) (A) (A) (A) (A) (A)
                 (A) (A) (A) (A) (A) (A) (A) (A) (A) (A) (A) (A)
                 (A) (A) (A) (A) (A) (A) (A) (A) (A) (A) (A) (A)
                 (A) (A) (A) (A) (A) (A) (A) (A) (A) (A) (A) (A)
                 (A) (A) (A) (A) (A) (A) (A) (A) (A) (A) (A) (A)
                 (A) (A) (A) (A) (A) (A) (A) (A) (A) (A) (A) (A)
                 (A) (A) (A) (A) (A) (A) (A) (A) (A) (A) (A) (A)
                 (A) (A) (A) (A) (A) (A) (A) (A) (A) (A) (A) (A)
                 (A) (A) (A) (A) (A) (A) (A) (A) (A) (A) (A) (A)
                 (A) (A) (A) (A) (A) (A) (A) (A) (A) (A) (A) (A)
                 (A) (A) (A) (A) (A) (A) (A) (A) (A) (A) (A) (A)
                 (A) (A) (A) (A) (A) (A) (A) (A) (A) (A) (A) (A)
                 (A) (A) (A) (A) (A) (A) (A) (A) (A) (A) (A) (A)
                 (A) (A) (A) (A) (A) (A) (A) (A) (A) (A) (A) (A)
                 (A) (A) (A) (A) (A) (A) (A) (A) (A) (A) (A) (A)
                 (A) (A) (A) (A) (A) (A) (A) (A) (A) (A) (A) (A)
                 (A) (A) (A) (A) (A) (A) (A) (A) (A) (A) (A) (A)
                 (A) (A) (A) (A) (A) (A) (A) (A) (A) (A) (A) (A)
                 (A) (A) (A) (A) (A) (A) (A) (A) (A) (A) (A) (A)
                 (A) (A) (A) (A) (A) (A) (A) (A) (A) (A) (A) (A)
                 (A) (A) (A) (A) (A) (A) (A) (A) (A) (A) (A) (A)
                 (A) (A) (A) (A) (A) (A) (A) (A) (A) (A) (A) (A)
                 (A) (A) (A) (A) (A) (A) (A) (A) (A) (A)
     8 initial guesses have been made.
 Convergence on wavefunction:    0.001000000000000
 Iteration     1 Dimension     8 NMult     0 NNew      8
 CISAX will form     8 AO SS matrices at one time.
 Iteration     2 Dimension    12 NMult     8 NNew      4
 Iteration     3 Dimension    16 NMult    12 NNew      4
 Iteration     4 Dimension    20 NMult    16 NNew      4
 Iteration     5 Dimension    24 NMult    20 NNew      4
 Iteration     6 Dimension    28 NMult    24 NNew      4
 Iteration     7 Dimension    32 NMult    28 NNew      4
 ***********************************************************************
 Excited states from <AA,BB:AA,BB> singles matrix:
 ***********************************************************************
 
 Ground to excited state transition densities written to RWF  633
 Ground to excited state transition electric dipole moments (Au):
       state          X           Y           Z        Dip. S.      Osc.
         1        -0.5480     -1.7200     -1.1489      4.5787      0.2212
 Ground to excited state transition velocity dipole moments (Au):
       state          X           Y           Z        Dip. S.      Osc.
         1         0.0396      0.1198      0.0819      0.0226      0.2081
 Ground to excited state transition magnetic dipole moments (Au):
       state          X           Y           Z
         1         0.9087      1.1127     -2.0970
 Ground to excited state transition velocity quadrupole moments (Au):
       state          XX          YY          ZZ          XY          XZ          YZ
         1        -0.8796      0.3106      0.2209     -1.1132     -0.7643      0.2927
 <0|del|b> * <b|rxdel|0> + <0|del|b> * <b|delr+rdel|0>
 Rotatory Strengths (R) in cgs (10**-40 erg-esu-cm/Gauss)
       state          XX          YY          ZZ    R(velocity)    E-M Angle
         1      -185.1564   -161.0356    322.6107     -7.8604       90.36
 1/2[<0|r|b>*<b|rxdel|0> + (<0|rxdel|b>*<b|r|0>)*]
 Rotatory Strengths (R) in cgs (10**-40 erg-esu-cm/Gauss)
       state          XX          YY          ZZ     R(length)
         1       352.1438   1353.4657  -1703.6999      0.6365
  1/2[<0|del|b>*<b|r|0> + (<0|r|b>*<b|del|0>)*] (Au)
       state          X           Y           Z        Dip. S.   Osc.(frdel)
         1        -0.0217     -0.2060     -0.0940      0.3218      0.2145

 Excitation energies and oscillator strengths:
 
 Excited State   1:      Singlet-A      1.9716 eV  628.84 nm  f=0.2212  <S**2>=0.000
     243 -> 246        0.24914
     244 -> 245        0.65584
 This state for optimization and/or second-order correction.
 Total Energy, E(TD-HF/TD-KS) =  -3043.34589584    
 Copying the excited state density for this state as the 1-particle RhoCI density.
 SavETr:  write IOETrn=   770 NScale= 10 NData=  16 NLR=1 NState=    1 LETran=      28.

 **********************************************************************

            Population analysis using the SCF density.

 **********************************************************************

 Orbital symmetries:
       Occupied  (A) (A) (A) (A) (A) (A) (A) (A) (A) (A) (A) (A)
                 (A) (A) (A) (A) (A) (A) (A) (A) (A) (A) (A) (A)
                 (A) (A) (A) (A) (A) (A) (A) (A) (A) (A) (A) (A)
                 (A) (A) (A) (A) (A) (A) (A) (A) (A) (A) (A) (A)
                 (A) (A) (A) (A) (A) (A) (A) (A) (A) (A) (A) (A)
                 (A) (A) (A) (A) (A) (A) (A) (A) (A) (A) (A) (A)
                 (A) (A) (A) (A) (A) (A) (A) (A) (A) (A) (A) (A)
                 (A) (A) (A) (A) (A) (A) (A) (A) (A) (A) (A) (A)
                 (A) (A) (A) (A) (A) (A) (A) (A) (A) (A) (A) (A)
                 (A) (A) (A) (A) (A) (A) (A) (A) (A) (A) (A) (A)
                 (A) (A) (A) (A) (A) (A) (A) (A) (A) (A) (A) (A)
                 (A) (A) (A) (A) (A) (A) (A) (A) (A) (A) (A) (A)
                 (A) (A) (A) (A) (A) (A) (A) (A) (A) (A) (A) (A)
                 (A) (A) (A) (A) (A) (A) (A) (A) (A) (A) (A) (A)
                 (A) (A) (A) (A) (A) (A) (A) (A) (A) (A) (A) (A)
                 (A) (A) (A) (A) (A) (A) (A) (A) (A) (A) (A) (A)
                 (A) (A) (A) (A) (A) (A) (A) (A) (A) (A) (A) (A)
                 (A) (A) (A) (A) (A) (A) (A) (A) (A) (A) (A) (A)
                 (A) (A) (A) (A) (A) (A) (A) (A) (A) (A) (A) (A)
                 (A) (A) (A) (A) (A) (A) (A) (A) (A) (A) (A) (A)
                 (A) (A) (A) (A)
       Virtual   (A) (A) (A) (A) (A) (A) (A) (A) (A) (A) (A) (A)
                 (A) (A) (A) (A) (A) (A) (A) (A) (A) (A) (A) (A)
                 (A) (A) (A) (A) (A) (A) (A) (A) (A) (A) (A) (A)
                 (A) (A) (A) (A) (A) (A) (A) (A) (A) (A) (A) (A)
                 (A) (A) (A) (A) (A) (A) (A) (A) (A) (A) (A) (A)
                 (A) (A) (A) (A) (A) (A) (A) (A) (A) (A) (A) (A)
                 (A) (A) (A) (A) (A) (A) (A) (A) (A) (A) (A) (A)
                 (A) (A) (A) (A) (A) (A) (A) (A) (A) (A) (A) (A)
                 (A) (A) (A) (A) (A) (A) (A) (A) (A) (A) (A) (A)
                 (A) (A) (A) (A) (A) (A) (A) (A) (A) (A) (A) (A)
                 (A) (A) (A) (A) (A) (A) (A) (A) (A) (A) (A) (A)
                 (A) (A) (A) (A) (A) (A) (A) (A) (A) (A) (A) (A)
                 (A) (A) (A) (A) (A) (A) (A) (A) (A) (A) (A) (A)
                 (A) (A) (A) (A) (A) (A) (A) (A) (A) (A) (A) (A)
                 (A) (A) (A) (A) (A) (A) (A) (A) (A) (A) (A) (A)
                 (A) (A) (A) (A) (A) (A) (A) (A) (A) (A) (A) (A)
                 (A) (A) (A) (A) (A) (A) (A) (A) (A) (A) (A) (A)
                 (A) (A) (A) (A) (A) (A) (A) (A) (A) (A) (A) (A)
                 (A) (A) (A) (A) (A) (A) (A) (A) (A) (A) (A) (A)
                 (A) (A) (A) (A) (A) (A) (A) (A) (A) (A) (A) (A)
                 (A) (A) (A) (A) (A) (A) (A) (A) (A) (A) (A) (A)
                 (A) (A) (A) (A) (A) (A) (A) (A) (A) (A) (A) (A)
                 (A) (A) (A) (A) (A) (A) (A) (A) (A) (A) (A) (A)
                 (A) (A) (A) (A) (A) (A) (A) (A) (A) (A) (A) (A)
                 (A) (A) (A) (A) (A) (A) (A) (A) (A) (A) (A) (A)
                 (A) (A) (A) (A) (A) (A) (A) (A) (A) (A) (A) (A)
                 (A) (A) (A) (A) (A) (A) (A) (A) (A) (A) (A) (A)
                 (A) (A) (A) (A) (A) (A) (A) (A) (A) (A) (A) (A)
                 (A) (A) (A) (A) (A) (A) (A) (A) (A) (A) (A) (A)
                 (A) (A) (A) (A) (A) (A) (A) (A) (A) (A) (A) (A)
                 (A) (A) (A) (A) (A) (A) (A) (A) (A) (A) (A) (A)
                 (A) (A) (A) (A) (A) (A) (A) (A) (A) (A) (A) (A)
                 (A) (A) (A) (A) (A) (A) (A) (A) (A) (A) (A) (A)
                 (A) (A) (A) (A) (A) (A) (A) (A) (A) (A) (A) (A)
                 (A) (A) (A) (A) (A) (A) (A) (A) (A) (A) (A) (A)
                 (A) (A) (A) (A) (A) (A) (A) (A) (A) (A) (A) (A)
                 (A) (A) (A) (A) (A) (A) (A) (A) (A) (A) (A) (A)
                 (A) (A) (A) (A) (A) (A) (A) (A) (A) (A) (A) (A)
                 (A) (A) (A) (A) (A) (A) (A) (A) (A) (A) (A) (A)
                 (A) (A) (A) (A) (A) (A) (A) (A) (A) (A) (A) (A)
                 (A) (A) (A) (A) (A) (A) (A) (A) (A) (A) (A) (A)
                 (A) (A) (A) (A) (A) (A) (A) (A) (A) (A) (A) (A)
                 (A) (A) (A) (A) (A) (A) (A) (A) (A) (A) (A) (A)
                 (A) (A) (A) (A) (A) (A) (A) (A) (A) (A) (A) (A)
                 (A) (A) (A) (A) (A) (A) (A) (A) (A) (A) (A) (A)
                 (A) (A) (A) (A) (A) (A) (A) (A) (A) (A) (A) (A)
                 (A) (A) (A) (A) (A) (A) (A) (A) (A) (A) (A) (A)
                 (A) (A) (A) (A) (A) (A) (A) (A) (A) (A) (A) (A)
                 (A) (A) (A) (A) (A) (A) (A) (A) (A) (A) (A) (A)
                 (A) (A) (A) (A) (A) (A) (A) (A) (A) (A) (A) (A)
                 (A) (A) (A) (A) (A) (A) (A) (A) (A) (A) (A) (A)
                 (A) (A) (A) (A) (A) (A) (A) (A) (A) (A) (A) (A)
                 (A) (A) (A) (A) (A) (A) (A) (A) (A) (A) (A) (A)
                 (A) (A) (A) (A) (A) (A) (A) (A) (A) (A) (A) (A)
                 (A) (A) (A) (A) (A) (A) (A) (A) (A) (A) (A) (A)
                 (A) (A) (A) (A) (A) (A) (A) (A) (A) (A) (A) (A)
                 (A) (A) (A) (A) (A) (A) (A) (A) (A) (A) (A) (A)
                 (A) (A) (A) (A) (A) (A) (A) (A) (A) (A) (A) (A)
                 (A) (A) (A) (A) (A) (A) (A) (A) (A) (A) (A) (A)
                 (A) (A) (A) (A) (A) (A) (A) (A) (A) (A) (A) (A)
                 (A) (A) (A) (A) (A) (A) (A) (A) (A) (A) (A) (A)
                 (A) (A) (A) (A) (A) (A) (A) (A) (A) (A) (A) (A)
                 (A) (A) (A) (A) (A) (A) (A) (A) (A) (A) (A) (A)
                 (A) (A) (A) (A) (A) (A) (A) (A) (A) (A) (A) (A)
                 (A) (A) (A) (A) (A) (A) (A) (A) (A) (A) (A) (A)
                 (A) (A) (A) (A) (A) (A) (A) (A) (A) (A) (A) (A)
                 (A) (A) (A) (A) (A) (A) (A) (A) (A) (A) (A) (A)
                 (A) (A) (A) (A) (A) (A) (A) (A) (A) (A) (A) (A)
                 (A) (A) (A) (A) (A) (A) (A) (A) (A) (A) (A) (A)
                 (A) (A) (A) (A) (A) (A) (A) (A) (A) (A) (A) (A)
                 (A) (A) (A) (A) (A) (A) (A) (A) (A) (A) (A) (A)
                 (A) (A) (A) (A) (A) (A) (A) (A) (A) (A) (A) (A)
                 (A) (A) (A) (A) (A) (A) (A) (A) (A) (A) (A) (A)
                 (A) (A) (A) (A) (A) (A) (A) (A) (A) (A) (A) (A)
                 (A) (A) (A) (A) (A) (A) (A) (A) (A) (A) (A) (A)
                 (A) (A) (A) (A) (A) (A) (A) (A) (A) (A) (A) (A)
                 (A) (A) (A) (A) (A) (A) (A) (A) (A) (A) (A) (A)
                 (A) (A) (A) (A) (A) (A) (A) (A) (A) (A) (A) (A)
                 (A) (A) (A) (A) (A) (A) (A) (A) (A) (A) (A) (A)
                 (A) (A) (A) (A) (A) (A) (A) (A) (A) (A) (A) (A)
                 (A) (A) (A) (A) (A) (A) (A) (A) (A) (A) (A) (A)
                 (A) (A) (A) (A) (A) (A) (A) (A) (A) (A) (A) (A)
                 (A) (A) (A) (A) (A) (A) (A) (A) (A) (A) (A) (A)
                 (A) (A) (A) (A) (A) (A) (A) (A) (A) (A) (A) (A)
                 (A) (A) (A) (A) (A) (A) (A) (A) (A) (A) (A) (A)
                 (A) (A) (A) (A) (A) (A) (A) (A) (A) (A) (A) (A)
                 (A) (A) (A) (A) (A) (A) (A) (A) (A) (A) (A) (A)
                 (A) (A) (A) (A) (A) (A) (A) (A) (A) (A) (A) (A)
                 (A) (A) (A) (A) (A) (A) (A) (A) (A) (A) (A) (A)
                 (A) (A) (A) (A) (A) (A) (A) (A) (A) (A) (A) (A)
                 (A) (A) (A) (A) (A) (A) (A) (A) (A) (A)
 The electronic state is 1-A.
 Alpha  occ. eigenvalues --  -46.81169 -19.22600 -19.22135 -19.18990 -19.18137
 Alpha  occ. eigenvalues --  -19.17501 -19.16396 -19.16173 -14.38445 -14.37677
 Alpha  occ. eigenvalues --  -14.36635 -14.36096 -10.35477 -10.34502 -10.32477
 Alpha  occ. eigenvalues --  -10.30827 -10.30023 -10.29204 -10.27461 -10.27164
 Alpha  occ. eigenvalues --  -10.26883 -10.26724 -10.26531 -10.26384 -10.26345
 Alpha  occ. eigenvalues --  -10.25933 -10.25858 -10.25816 -10.25274 -10.25038
 Alpha  occ. eigenvalues --  -10.24845 -10.24469 -10.24386 -10.24241 -10.24072
 Alpha  occ. eigenvalues --  -10.23919 -10.23750 -10.23208 -10.23199 -10.23082
 Alpha  occ. eigenvalues --  -10.22916 -10.22840 -10.22661 -10.22660 -10.22606
 Alpha  occ. eigenvalues --  -10.22535 -10.22455 -10.22241 -10.22183 -10.22001
 Alpha  occ. eigenvalues --  -10.21989 -10.21852 -10.21722 -10.21472 -10.21019
 Alpha  occ. eigenvalues --  -10.20998 -10.20983 -10.20957 -10.20653 -10.20280
 Alpha  occ. eigenvalues --  -10.20095 -10.20028 -10.19735 -10.19422 -10.19197
 Alpha  occ. eigenvalues --  -10.18082  -3.09727  -1.84672  -1.84197  -1.84133
 Alpha  occ. eigenvalues --   -1.13267  -1.12890  -1.12203  -1.07762  -1.05483
 Alpha  occ. eigenvalues --   -1.02607  -1.02131  -0.99974  -0.99220  -0.98778
 Alpha  occ. eigenvalues --   -0.97824  -0.89184  -0.86496  -0.86220  -0.85956
 Alpha  occ. eigenvalues --   -0.85333  -0.85122  -0.84705  -0.83903  -0.83737
 Alpha  occ. eigenvalues --   -0.83587  -0.81703  -0.81303  -0.80674  -0.80243
 Alpha  occ. eigenvalues --   -0.79164  -0.78576  -0.77997  -0.76911  -0.76312
 Alpha  occ. eigenvalues --   -0.75341  -0.74646  -0.73593  -0.73042  -0.72071
 Alpha  occ. eigenvalues --   -0.71846  -0.71511  -0.70624  -0.70029  -0.69783
 Alpha  occ. eigenvalues --   -0.69528  -0.68439  -0.68194  -0.67143  -0.66432
 Alpha  occ. eigenvalues --   -0.66274  -0.65120  -0.64716  -0.62893  -0.62570
 Alpha  occ. eigenvalues --   -0.61549  -0.61050  -0.60479  -0.59486  -0.58873
 Alpha  occ. eigenvalues --   -0.58834  -0.58242  -0.58205  -0.57424  -0.56605
 Alpha  occ. eigenvalues --   -0.56147  -0.55560  -0.55238  -0.54830  -0.54471
 Alpha  occ. eigenvalues --   -0.54441  -0.53732  -0.52717  -0.52611  -0.52536
 Alpha  occ. eigenvalues --   -0.52341  -0.52298  -0.51953  -0.51844  -0.51540
 Alpha  occ. eigenvalues --   -0.50848  -0.50392  -0.50148  -0.49917  -0.49787
 Alpha  occ. eigenvalues --   -0.49218  -0.48486  -0.48187  -0.48110  -0.47990
 Alpha  occ. eigenvalues --   -0.47790  -0.47284  -0.47255  -0.47098  -0.46995
 Alpha  occ. eigenvalues --   -0.46856  -0.46575  -0.46442  -0.46083  -0.45915
 Alpha  occ. eigenvalues --   -0.45684  -0.45445  -0.45414  -0.44892  -0.44729
 Alpha  occ. eigenvalues --   -0.44523  -0.44260  -0.44113  -0.43983  -0.43863
 Alpha  occ. eigenvalues --   -0.43611  -0.43353  -0.43141  -0.42943  -0.42711
 Alpha  occ. eigenvalues --   -0.42510  -0.42395  -0.42100  -0.41876  -0.41783
 Alpha  occ. eigenvalues --   -0.41676  -0.41397  -0.41234  -0.40746  -0.40633
 Alpha  occ. eigenvalues --   -0.40530  -0.40377  -0.40231  -0.40116  -0.40053
 Alpha  occ. eigenvalues --   -0.39867  -0.39663  -0.39516  -0.39326  -0.39105
 Alpha  occ. eigenvalues --   -0.39003  -0.38817  -0.38668  -0.38613  -0.38468
 Alpha  occ. eigenvalues --   -0.38081  -0.38011  -0.37981  -0.37664  -0.37228
 Alpha  occ. eigenvalues --   -0.36917  -0.36825  -0.36683  -0.36286  -0.36225
 Alpha  occ. eigenvalues --   -0.36126  -0.35165  -0.35128  -0.34535  -0.34474
 Alpha  occ. eigenvalues --   -0.34268  -0.33829  -0.33657  -0.33382  -0.33034
 Alpha  occ. eigenvalues --   -0.32756  -0.32273  -0.31873  -0.31699  -0.31326
 Alpha  occ. eigenvalues --   -0.31177  -0.31130  -0.30684  -0.30314  -0.29887
 Alpha  occ. eigenvalues --   -0.29033  -0.28674  -0.28278  -0.28273  -0.27732
 Alpha  occ. eigenvalues --   -0.27298  -0.26707  -0.22916  -0.20907
 Alpha virt. eigenvalues --   -0.08191  -0.06001  -0.01903  -0.01119   0.00600
 Alpha virt. eigenvalues --    0.02313   0.02916   0.03573   0.04049   0.04281
 Alpha virt. eigenvalues --    0.04726   0.05661   0.08112   0.08513   0.09149
 Alpha virt. eigenvalues --    0.09360   0.10193   0.10254   0.10518   0.10798
 Alpha virt. eigenvalues --    0.11182   0.11434   0.11775   0.11855   0.12113
 Alpha virt. eigenvalues --    0.12327   0.12746   0.12874   0.13131   0.13210
 Alpha virt. eigenvalues --    0.13492   0.13725   0.13781   0.13927   0.14260
 Alpha virt. eigenvalues --    0.14296   0.14525   0.14822   0.15020   0.15061
 Alpha virt. eigenvalues --    0.15317   0.15688   0.15810   0.15930   0.15973
 Alpha virt. eigenvalues --    0.16293   0.16387   0.16428   0.16727   0.16835
 Alpha virt. eigenvalues --    0.17217   0.17449   0.17540   0.17912   0.18070
 Alpha virt. eigenvalues --    0.18289   0.18335   0.18538   0.18595   0.18925
 Alpha virt. eigenvalues --    0.18932   0.19187   0.19348   0.19511   0.19589
 Alpha virt. eigenvalues --    0.19643   0.19873   0.20023   0.20094   0.20390
 Alpha virt. eigenvalues --    0.20501   0.20707   0.20966   0.21140   0.21200
 Alpha virt. eigenvalues --    0.21322   0.21502   0.21610   0.21662   0.22172
 Alpha virt. eigenvalues --    0.22381   0.22559   0.22721   0.22883   0.23039
 Alpha virt. eigenvalues --    0.23161   0.23364   0.23586   0.23700   0.23738
 Alpha virt. eigenvalues --    0.23981   0.24746   0.24856   0.24887   0.24965
 Alpha virt. eigenvalues --    0.25251   0.25385   0.25642   0.25715   0.25784
 Alpha virt. eigenvalues --    0.26465   0.26994   0.27121   0.27356   0.27481
 Alpha virt. eigenvalues --    0.27496   0.27926   0.28044   0.28104   0.28236
 Alpha virt. eigenvalues --    0.28324   0.28522   0.28701   0.29019   0.29111
 Alpha virt. eigenvalues --    0.29466   0.29603   0.29764   0.30181   0.30465
 Alpha virt. eigenvalues --    0.30779   0.31599   0.31887   0.32030   0.32324
 Alpha virt. eigenvalues --    0.32750   0.33186   0.33229   0.33906   0.34448
 Alpha virt. eigenvalues --    0.34537   0.34730   0.34965   0.36034   0.36323
 Alpha virt. eigenvalues --    0.36831   0.37209   0.37459   0.38499   0.39087
 Alpha virt. eigenvalues --    0.39122   0.39672   0.39996   0.40390   0.40530
 Alpha virt. eigenvalues --    0.40912   0.42110   0.42554   0.42776   0.43330
 Alpha virt. eigenvalues --    0.43878   0.44793   0.45846   0.46490   0.47193
 Alpha virt. eigenvalues --    0.47916   0.48518   0.48843   0.49223   0.49337
 Alpha virt. eigenvalues --    0.50188   0.50312   0.50613   0.51343   0.51534
 Alpha virt. eigenvalues --    0.51553   0.51870   0.52029   0.52270   0.52516
 Alpha virt. eigenvalues --    0.52591   0.53158   0.53299   0.53564   0.53937
 Alpha virt. eigenvalues --    0.54280   0.54364   0.54642   0.54799   0.55350
 Alpha virt. eigenvalues --    0.55435   0.55576   0.55736   0.55976   0.56361
 Alpha virt. eigenvalues --    0.56402   0.56463   0.56776   0.56893   0.56951
 Alpha virt. eigenvalues --    0.57429   0.57628   0.57973   0.58174   0.58470
 Alpha virt. eigenvalues --    0.58607   0.58884   0.59092   0.59241   0.59804
 Alpha virt. eigenvalues --    0.60111   0.60426   0.60769   0.60816   0.61094
 Alpha virt. eigenvalues --    0.61167   0.61693   0.61766   0.62526   0.62622
 Alpha virt. eigenvalues --    0.62858   0.62938   0.63014   0.63261   0.63465
 Alpha virt. eigenvalues --    0.63929   0.64035   0.64327   0.64516   0.64889
 Alpha virt. eigenvalues --    0.65087   0.65448   0.65670   0.65908   0.66089
 Alpha virt. eigenvalues --    0.66521   0.66601   0.67002   0.67307   0.67572
 Alpha virt. eigenvalues --    0.67712   0.68262   0.68362   0.68509   0.68634
 Alpha virt. eigenvalues --    0.68764   0.68983   0.69379   0.69868   0.70038
 Alpha virt. eigenvalues --    0.70258   0.70346   0.70556   0.70858   0.71163
 Alpha virt. eigenvalues --    0.71599   0.71711   0.72037   0.72250   0.72433
 Alpha virt. eigenvalues --    0.72822   0.73119   0.73368   0.73690   0.74109
 Alpha virt. eigenvalues --    0.74331   0.74495   0.75009   0.75437   0.75461
 Alpha virt. eigenvalues --    0.75513   0.75755   0.76073   0.76446   0.76535
 Alpha virt. eigenvalues --    0.76771   0.76956   0.77252   0.77370   0.77911
 Alpha virt. eigenvalues --    0.78150   0.78642   0.78819   0.79246   0.79436
 Alpha virt. eigenvalues --    0.79553   0.79810   0.79968   0.80292   0.80344
 Alpha virt. eigenvalues --    0.80661   0.80888   0.81579   0.81795   0.81847
 Alpha virt. eigenvalues --    0.82087   0.82180   0.82387   0.82541   0.82752
 Alpha virt. eigenvalues --    0.82943   0.83129   0.83324   0.83443   0.83616
 Alpha virt. eigenvalues --    0.83687   0.84088   0.84253   0.84667   0.84737
 Alpha virt. eigenvalues --    0.85074   0.85423   0.85616   0.85814   0.85913
 Alpha virt. eigenvalues --    0.86028   0.86508   0.86750   0.86879   0.86947
 Alpha virt. eigenvalues --    0.87102   0.87208   0.87332   0.87435   0.87593
 Alpha virt. eigenvalues --    0.87798   0.87915   0.88444   0.88555   0.89071
 Alpha virt. eigenvalues --    0.89129   0.89212   0.89289   0.89688   0.89970
 Alpha virt. eigenvalues --    0.90097   0.90221   0.90479   0.90626   0.91083
 Alpha virt. eigenvalues --    0.91401   0.91797   0.91893   0.92037   0.92402
 Alpha virt. eigenvalues --    0.92754   0.92972   0.93475   0.93582   0.93961
 Alpha virt. eigenvalues --    0.94083   0.94276   0.94545   0.94585   0.94880
 Alpha virt. eigenvalues --    0.95072   0.95311   0.95549   0.95661   0.95947
 Alpha virt. eigenvalues --    0.96344   0.96473   0.96698   0.96916   0.97319
 Alpha virt. eigenvalues --    0.97558   0.97829   0.97845   0.98231   0.98559
 Alpha virt. eigenvalues --    0.98633   0.98704   0.99142   0.99391   0.99583
 Alpha virt. eigenvalues --    0.99793   1.00006   1.00157   1.00411   1.00512
 Alpha virt. eigenvalues --    1.00608   1.00941   1.01497   1.01530   1.01655
 Alpha virt. eigenvalues --    1.01912   1.02148   1.02390   1.02612   1.02706
 Alpha virt. eigenvalues --    1.03243   1.03821   1.03927   1.04054   1.04352
 Alpha virt. eigenvalues --    1.04393   1.04777   1.05216   1.05425   1.05728
 Alpha virt. eigenvalues --    1.06217   1.06481   1.06825   1.07121   1.07393
 Alpha virt. eigenvalues --    1.07979   1.08222   1.08351   1.08767   1.08882
 Alpha virt. eigenvalues --    1.09868   1.09913   1.10177   1.10705   1.11235
 Alpha virt. eigenvalues --    1.11383   1.11751   1.12195   1.12657   1.12980
 Alpha virt. eigenvalues --    1.13477   1.13814   1.14655   1.15469   1.16255
 Alpha virt. eigenvalues --    1.16677   1.17243   1.18092   1.18710   1.19246
 Alpha virt. eigenvalues --    1.19581   1.20296   1.20712   1.20973   1.21360
 Alpha virt. eigenvalues --    1.21522   1.21801   1.22198   1.23663   1.23890
 Alpha virt. eigenvalues --    1.24730   1.25552   1.25898   1.27167   1.27431
 Alpha virt. eigenvalues --    1.28029   1.28920   1.29414   1.29684   1.30177
 Alpha virt. eigenvalues --    1.30667   1.31115   1.31340   1.31575   1.32095
 Alpha virt. eigenvalues --    1.32463   1.32699   1.33177   1.33738   1.34326
 Alpha virt. eigenvalues --    1.34978   1.35443   1.35477   1.35612   1.36146
 Alpha virt. eigenvalues --    1.36628   1.37344   1.37870   1.37980   1.38373
 Alpha virt. eigenvalues --    1.38842   1.39185   1.40039   1.40743   1.40934
 Alpha virt. eigenvalues --    1.41078   1.41109   1.41342   1.41711   1.42636
 Alpha virt. eigenvalues --    1.42741   1.43401   1.44157   1.45013   1.45475
 Alpha virt. eigenvalues --    1.45861   1.46353   1.46670   1.47077   1.47495
 Alpha virt. eigenvalues --    1.48033   1.48562   1.48822   1.49338   1.49472
 Alpha virt. eigenvalues --    1.49724   1.50627   1.50712   1.50785   1.51247
 Alpha virt. eigenvalues --    1.51945   1.52326   1.52787   1.53426   1.53901
 Alpha virt. eigenvalues --    1.54030   1.54605   1.55303   1.55673   1.56053
 Alpha virt. eigenvalues --    1.57120   1.57365   1.57990   1.58259   1.58654
 Alpha virt. eigenvalues --    1.58722   1.58910   1.59637   1.59796   1.59894
 Alpha virt. eigenvalues --    1.60191   1.61256   1.61400   1.61831   1.62039
 Alpha virt. eigenvalues --    1.62761   1.63115   1.63369   1.63574   1.63996
 Alpha virt. eigenvalues --    1.64767   1.64858   1.65167   1.65660   1.66033
 Alpha virt. eigenvalues --    1.66723   1.66884   1.67000   1.67387   1.68426
 Alpha virt. eigenvalues --    1.68691   1.68925   1.69376   1.69659   1.69899
 Alpha virt. eigenvalues --    1.70217   1.70882   1.71214   1.71274   1.71781
 Alpha virt. eigenvalues --    1.72361   1.72843   1.72958   1.73504   1.73880
 Alpha virt. eigenvalues --    1.74094   1.74660   1.75074   1.75379   1.75434
 Alpha virt. eigenvalues --    1.75833   1.76491   1.76906   1.77334   1.78458
 Alpha virt. eigenvalues --    1.78909   1.79037   1.79446   1.79709   1.79765
 Alpha virt. eigenvalues --    1.80334   1.80423   1.80703   1.81165   1.81571
 Alpha virt. eigenvalues --    1.81936   1.82096   1.82320   1.82494   1.83092
 Alpha virt. eigenvalues --    1.83194   1.83388   1.83721   1.84137   1.84342
 Alpha virt. eigenvalues --    1.84488   1.84837   1.85099   1.85207   1.86045
 Alpha virt. eigenvalues --    1.86173   1.86609   1.86685   1.87309   1.87547
 Alpha virt. eigenvalues --    1.87722   1.87806   1.87868   1.88406   1.88555
 Alpha virt. eigenvalues --    1.88890   1.88941   1.89173   1.89681   1.90022
 Alpha virt. eigenvalues --    1.90136   1.90394   1.90632   1.90777   1.91087
 Alpha virt. eigenvalues --    1.91211   1.91745   1.91815   1.92226   1.92296
 Alpha virt. eigenvalues --    1.92372   1.92823   1.92880   1.93046   1.93859
 Alpha virt. eigenvalues --    1.93892   1.94224   1.94273   1.94758   1.94969
 Alpha virt. eigenvalues --    1.95324   1.95505   1.95535   1.95817   1.96327
 Alpha virt. eigenvalues --    1.96783   1.96987   1.97166   1.97560   1.97726
 Alpha virt. eigenvalues --    1.98051   1.98301   1.98799   1.99218   1.99456
 Alpha virt. eigenvalues --    1.99608   1.99995   2.00282   2.00493   2.01207
 Alpha virt. eigenvalues --    2.01304   2.01365   2.02030   2.02255   2.02322
 Alpha virt. eigenvalues --    2.02501   2.02804   2.03137   2.03495   2.03552
 Alpha virt. eigenvalues --    2.04099   2.04180   2.04319   2.04621   2.05088
 Alpha virt. eigenvalues --    2.05521   2.05634   2.06275   2.06402   2.06727
 Alpha virt. eigenvalues --    2.06886   2.07366   2.07884   2.08242   2.08465
 Alpha virt. eigenvalues --    2.08756   2.09251   2.09429   2.09675   2.09896
 Alpha virt. eigenvalues --    2.10583   2.11054   2.11152   2.11287   2.11737
 Alpha virt. eigenvalues --    2.11977   2.12070   2.12176   2.12374   2.13290
 Alpha virt. eigenvalues --    2.13407   2.13855   2.14116   2.14614   2.14933
 Alpha virt. eigenvalues --    2.15041   2.15551   2.15805   2.16076   2.16257
 Alpha virt. eigenvalues --    2.16325   2.16722   2.17266   2.18019   2.18189
 Alpha virt. eigenvalues --    2.18381   2.19061   2.19258   2.19454   2.20078
 Alpha virt. eigenvalues --    2.20510   2.20672   2.20996   2.21111   2.21330
 Alpha virt. eigenvalues --    2.21357   2.22246   2.22612   2.22937   2.23251
 Alpha virt. eigenvalues --    2.23971   2.23992   2.24376   2.24877   2.25006
 Alpha virt. eigenvalues --    2.25663   2.25872   2.26019   2.26561   2.26755
 Alpha virt. eigenvalues --    2.27412   2.27519   2.27741   2.27930   2.28034
 Alpha virt. eigenvalues --    2.29073   2.29132   2.29765   2.29827   2.30078
 Alpha virt. eigenvalues --    2.30379   2.30858   2.31087   2.31517   2.31829
 Alpha virt. eigenvalues --    2.32181   2.32438   2.32928   2.33026   2.33136
 Alpha virt. eigenvalues --    2.33647   2.34303   2.34721   2.34811   2.35043
 Alpha virt. eigenvalues --    2.35289   2.35517   2.35758   2.36429   2.36579
 Alpha virt. eigenvalues --    2.36818   2.36827   2.37518   2.37944   2.38119
 Alpha virt. eigenvalues --    2.38338   2.38489   2.38578   2.38869   2.39244
 Alpha virt. eigenvalues --    2.39884   2.40368   2.40595   2.40643   2.40772
 Alpha virt. eigenvalues --    2.40895   2.41190   2.42042   2.42275   2.42818
 Alpha virt. eigenvalues --    2.43070   2.43172   2.43352   2.43704   2.43718
 Alpha virt. eigenvalues --    2.44137   2.44390   2.45037   2.45136   2.45418
 Alpha virt. eigenvalues --    2.45719   2.45998   2.46649   2.47037   2.47689
 Alpha virt. eigenvalues --    2.47942   2.48164   2.48416   2.48604   2.48898
 Alpha virt. eigenvalues --    2.49088   2.49350   2.49633   2.50908   2.50934
 Alpha virt. eigenvalues --    2.51260   2.51678   2.51773   2.52789   2.53242
 Alpha virt. eigenvalues --    2.53775   2.54183   2.54334   2.54567   2.55078
 Alpha virt. eigenvalues --    2.55379   2.55415   2.55958   2.56225   2.56639
 Alpha virt. eigenvalues --    2.57087   2.57736   2.57878   2.57999   2.58361
 Alpha virt. eigenvalues --    2.58614   2.59341   2.59531   2.59844   2.60207
 Alpha virt. eigenvalues --    2.60378   2.60462   2.60954   2.61296   2.61553
 Alpha virt. eigenvalues --    2.61723   2.62225   2.63133   2.63389   2.63599
 Alpha virt. eigenvalues --    2.64092   2.64260   2.64885   2.65032   2.65392
 Alpha virt. eigenvalues --    2.65565   2.65984   2.66125   2.66740   2.66971
 Alpha virt. eigenvalues --    2.67591   2.68219   2.68939   2.69324   2.69468
 Alpha virt. eigenvalues --    2.69657   2.70036   2.70697   2.70843   2.70948
 Alpha virt. eigenvalues --    2.71565   2.71933   2.72439   2.72804   2.73201
 Alpha virt. eigenvalues --    2.73267   2.73820   2.74524   2.74740   2.74968
 Alpha virt. eigenvalues --    2.75168   2.75480   2.75861   2.75951   2.76202
 Alpha virt. eigenvalues --    2.76590   2.76719   2.76882   2.77071   2.77768
 Alpha virt. eigenvalues --    2.78428   2.78863   2.79383   2.79546   2.79967
 Alpha virt. eigenvalues --    2.80123   2.80182   2.80333   2.80892   2.81058
 Alpha virt. eigenvalues --    2.81448   2.81834   2.82099   2.82209   2.82628
 Alpha virt. eigenvalues --    2.83062   2.83533   2.83729   2.84282   2.84724
 Alpha virt. eigenvalues --    2.85693   2.85983   2.86519   2.86811   2.87099
 Alpha virt. eigenvalues --    2.87720   2.87825   2.88202   2.88526   2.88548
 Alpha virt. eigenvalues --    2.89047   2.89338   2.90083   2.90167   2.90815
 Alpha virt. eigenvalues --    2.91103   2.91403   2.91673   2.91917   2.92216
 Alpha virt. eigenvalues --    2.92450   2.93068   2.93882   2.94678   2.94804
 Alpha virt. eigenvalues --    2.94867   2.95080   2.95507   2.96153   2.96937
 Alpha virt. eigenvalues --    2.97209   2.97906   2.98169   2.98855   2.98931
 Alpha virt. eigenvalues --    2.99320   2.99748   3.00430   3.00752   3.01098
 Alpha virt. eigenvalues --    3.01999   3.02036   3.02218   3.02622   3.03517
 Alpha virt. eigenvalues --    3.03842   3.04397   3.04925   3.05151   3.05496
 Alpha virt. eigenvalues --    3.05555   3.06951   3.06957   3.07965   3.08110
 Alpha virt. eigenvalues --    3.08234   3.09062   3.09224   3.10025   3.11622
 Alpha virt. eigenvalues --    3.11733   3.11924   3.12843   3.13122   3.15256
 Alpha virt. eigenvalues --    3.16479   3.16884   3.18070   3.19220   3.19681
 Alpha virt. eigenvalues --    3.20542   3.21699   3.22098   3.23250   3.23815
 Alpha virt. eigenvalues --    3.24602   3.24739   3.25916   3.26426   3.27731
 Alpha virt. eigenvalues --    3.28133   3.29193   3.29972   3.30129   3.30579
 Alpha virt. eigenvalues --    3.30635   3.31052   3.32176   3.32957   3.33269
 Alpha virt. eigenvalues --    3.34692   3.35712   3.35864   3.37700   3.38181
 Alpha virt. eigenvalues --    3.38643   3.40462   3.40631   3.40836   3.42327
 Alpha virt. eigenvalues --    3.43111   3.44608   3.44893   3.45676   3.46795
 Alpha virt. eigenvalues --    3.46866   3.47223   3.47867   3.48821   3.48944
 Alpha virt. eigenvalues --    3.49192   3.49676   3.50391   3.50880   3.51563
 Alpha virt. eigenvalues --    3.51938   3.52607   3.52774   3.55077   3.55485
 Alpha virt. eigenvalues --    3.56005   3.56973   3.57769   3.57959   3.58548
 Alpha virt. eigenvalues --    3.59667   3.60350   3.62078   3.62389   3.62656
 Alpha virt. eigenvalues --    3.63273   3.64834   3.67054   3.70216   3.72591
 Alpha virt. eigenvalues --    3.72740   3.75392   3.76839   3.79574   3.98616
 Alpha virt. eigenvalues --    3.99698   4.01224   4.03775   4.09626   4.13802
 Alpha virt. eigenvalues --    4.15090   4.16380   4.17476   4.17622   4.19814
 Alpha virt. eigenvalues --    4.19971   4.21115   4.24549   4.24932   4.25943
 Alpha virt. eigenvalues --    4.27129   4.27790   4.30377   4.30681   4.31744
 Alpha virt. eigenvalues --    4.33434   4.34245   4.34904   4.36112   4.36609
 Alpha virt. eigenvalues --    4.38234   4.39513   4.40835   4.42435   4.42970
 Alpha virt. eigenvalues --    4.44473   4.45682   4.46927   4.47314   4.49817
 Alpha virt. eigenvalues --    4.49924   4.51053   4.52533   4.53677   4.54110
 Alpha virt. eigenvalues --    4.54647   4.55965   4.57558   4.57753   4.58388
 Alpha virt. eigenvalues --    4.59298   4.60894   4.62407   4.65663   4.66859
 Alpha virt. eigenvalues --    4.68471   4.69567   4.70840   4.72237   4.72847
 Alpha virt. eigenvalues --    4.76569   4.78452   4.80298   4.81143   4.83435
 Alpha virt. eigenvalues --    4.84737   4.87142   4.87485   4.91300   5.00145
          Condensed to atoms (all electrons):
 Mulliken charges:
               1
     1  Mg   0.824084
     2  C    0.072175
     3  C   -0.194683
     4  C   -0.146701
     5  C   -0.177451
     6  N   -0.626815
     7  C    0.313293
     8  C   -0.187993
     9  C   -0.130885
    10  C    0.361699
    11  C   -0.297846
    12  C   -0.166065
    13  C   -0.272427
    14  C    0.604622
    15  O   -0.460687
    16  O   -0.459617
    17  N   -0.698942
    18  C    0.251720
    19  C    0.062487
    20  C    0.037042
    21  C    0.317041
    22  C   -0.401121
    23  C    0.183502
    24  O   -0.456127
    25  N   -0.692611
    26  C    0.271580
    27  C   -0.059170
    28  C    0.025629
    29  C    0.309192
    30  C    0.248947
    31  C   -0.183152
    32  C   -0.336831
    33  N   -0.760359
    34  C    0.326087
    35  C   -0.031104
    36  C    0.032768
    37  C    0.302617
    38  C   -0.380919
    39  C    0.385038
    40  O   -0.385709
    41  C   -0.330566
    42  C    0.594036
    43  O   -0.514822
    44  O   -0.463352
    45  C   -0.076809
    46  C   -0.009061
    47  C   -0.130067
    48  C    0.148963
    49  C   -0.354607
    50  C   -0.252348
    51  C   -0.178869
    52  C   -0.151407
    53  C   -0.062585
    54  C   -0.320519
    55  C   -0.152689
    56  C   -0.166014
    57  C   -0.132539
    58  C   -0.057321
    59  C   -0.319887
    60  C   -0.172164
    61  C   -0.159457
    62  C   -0.158925
    63  C   -0.051210
    64  C   -0.301705
    65  C   -0.299220
    66  H    0.075878
    67  H    0.133657
    68  H    0.097500
    69  H    0.132450
    70  H    0.089349
    71  H    0.102489
    72  H    0.115709
    73  H    0.134565
    74  H    0.123220
    75  H    0.128677
    76  H    0.117882
    77  H    0.122284
    78  H    0.109459
    79  H    0.164342
    80  H    0.129506
    81  H    0.103707
    82  H    0.122113
    83  H    0.090911
    84  H    0.101355
    85  H    0.124456
    86  H    0.106396
    87  H    0.139040
    88  H    0.147834
    89  H    0.104523
    90  H    0.155766
    91  H    0.122711
    92  H    0.136826
    93  H    0.080972
    94  H    0.145636
    95  H    0.112451
    96  H    0.078235
    97  H    0.086513
    98  H    0.104137
    99  H    0.109978
   100  H    0.096372
   101  H    0.101683
   102  H    0.072653
   103  H    0.058733
   104  H    0.095252
   105  H    0.108680
   106  H    0.098717
   107  H    0.064416
   108  H    0.097100
   109  H    0.101971
   110  H    0.074006
   111  H    0.098584
   112  H    0.017081
   113  H    0.079163
   114  H    0.068959
   115  H    0.099018
   116  H    0.115605
   117  H    0.088619
   118  H    0.095350
   119  H    0.100253
   120  H    0.095797
   121  H    0.074433
   122  H    0.059428
   123  H    0.083076
   124  H    0.117575
   125  H    0.107354
   126  H    0.062342
   127  H    0.102880
   128  H    0.104754
   129  H    0.072510
   130  H    0.137658
   131  H    0.147064
   132  H    0.143210
   133  O   -0.409869
   134  H    0.069885
 Sum of Mulliken charges =   0.00000
 Mulliken charges with hydrogens summed into heavy atoms:
               1
     1  Mg   0.824084
     2  C    0.072175
     3  C   -0.118805
     4  C   -0.013045
     5  C   -0.079950
     6  N   -0.626815
     7  C    0.313293
     8  C   -0.055544
     9  C   -0.041536
    10  C    0.361699
    11  C    0.054917
    12  C    0.085831
    13  C   -0.032261
    14  C    0.604622
    15  O   -0.460687
    16  O   -0.459617
    17  N   -0.698942
    18  C    0.251720
    19  C    0.062487
    20  C    0.037042
    21  C    0.317041
    22  C    0.002187
    23  C    0.287209
    24  O   -0.456127
    25  N   -0.692611
    26  C    0.271580
    27  C   -0.059170
    28  C    0.025629
    29  C    0.309192
    30  C    0.318833
    31  C    0.029872
    32  C   -0.004625
    33  N   -0.760359
    34  C    0.326087
    35  C   -0.031104
    36  C    0.032768
    37  C    0.302617
    38  C    0.010478
    39  C    0.385038
    40  O   -0.385709
    41  C   -0.174800
    42  C    0.594036
    43  O   -0.514822
    44  O   -0.463352
    45  C    0.351123
    46  C    0.250475
    47  C   -0.049095
    48  C    0.148963
    49  C   -0.018285
    50  C   -0.061698
    51  C    0.027481
    52  C    0.022929
    53  C   -0.003852
    54  C   -0.017870
    55  C    0.008826
    56  C    0.009963
    57  C   -0.016875
    58  C    0.021842
    59  C   -0.036305
    60  C    0.011806
    61  C    0.036592
    62  C   -0.025063
    63  C    0.031865
    64  C   -0.014433
    65  C   -0.019076
   133  O   -0.409869
 Electronic spatial extent (au):  <R**2>=         147915.6738
 Charge=              0.0000 electrons
 Dipole moment (field-independent basis, Debye):
    X=              1.3281    Y=             -5.5616    Z=             -2.8275  Tot=              6.3789
 Quadrupole moment (field-independent basis, Debye-Ang):
   XX=           -371.1566   YY=           -430.5676   ZZ=           -396.0953
   XY=              8.6843   XZ=             30.6197   YZ=            -39.1727
 Traceless Quadrupole moment (field-independent basis, Debye-Ang):
   XX=             28.1166   YY=            -31.2944   ZZ=              3.1778
   XY=              8.6843   XZ=             30.6197   YZ=            -39.1727
 Octapole moment (field-independent basis, Debye-Ang**2):
  XXX=           -221.5701  YYY=           -591.4380  ZZZ=            -56.3477  XYY=            127.9245
  XXY=             56.6312  XXZ=           -315.8228  XZZ=            -77.1482  YZZ=            -47.0108
  YYZ=           -158.5469  XYZ=            168.6022
 Hexadecapole moment (field-independent basis, Debye-Ang**3):
 XXXX=        -156996.5058 YYYY=         -31017.6221 ZZZZ=          -8867.0674 XXXY=           -145.9070
 XXXZ=           2278.1256 YYYX=           2146.8320 YYYZ=          -1657.2731 ZZZX=            575.7261
 ZZZY=           -520.8996 XXYY=         -33187.4127 XXZZ=         -28573.5078 YYZZ=          -7092.7406
 XXYZ=          -1616.9260 YYXZ=            830.0893 ZZXY=            -75.2676
 N-N= 9.112529394085D+03 E-N=-2.531034292546D+04  KE= 3.017235995374D+03

 Test job not archived.
 1\1\GINC-PEDRO-RYZENSSD\SP\RCAM-B3LYP TD-FC\6-31G(d,p)\C54H68Mg1N4O7\P
 ADAWAN\07-Oct-2019\0\\# td=(NStates=1) iop(3/107=0140000000,3/108=0140
 000000) iop(3/107=0140000000,3/108=0140000000) CAM-B3LYP/6-31G(d,p)\\T
 D\\0,1\Mg,0,-5.7131170429,1.2101910468,0.2006127301\C,0,-5.1299531171,
 -2.0540793726,-0.3682198871\C,0,-3.3151629762,1.0891214536,2.710922530
 5\C,0,-6.1563920615,4.5749255157,0.6854309043\C,0,-8.0092918472,1.2575
 044328,-2.3521593098\N,0,-4.3577928638,-0.2978457077,1.0342935964\C,0,
 -4.2337385943,-1.6082320046,0.5882925478\C,0,-3.2451059123,-2.30354155
 28,1.5128568743\C,0,-2.8941035658,-1.3449851682,2.6470314897\C,0,-3.47
 20240024,-0.0879379464,2.1215528139\C,0,-3.3006521732,-1.8640831009,4.
 0027781372\C,0,-1.9905138947,-2.7559595892,0.6550596921\C,0,-0.9983976
 027,-3.6406291508,1.4624501219\C,0,0.2613320006,-3.8910639785,0.540042
 1653\O,0,0.4138052344,-3.4529849873,-0.5730073161\O,0,1.0963713193,-4.
 7178969345,1.2057565642\N,0,-4.9593044814,2.5054307798,1.5089775844\C,
 0,-3.9749415814,2.3792559416,2.4560208279\C,0,-3.7179823354,3.72234231
 67,3.167665711\C,0,-4.4905648122,4.5731357791,2.4912950137\C,0,-5.2994
 193043,3.8510297795,1.5329584477\C,0,-2.7293715621,3.9341805018,4.2707
 509456\C,0,-4.5136440644,5.9718372179,2.670602497\O,0,-4.047187206,6.6
 485496852,3.6703510076\N,0,-6.9805797076,2.66887482,-0.6470373714\C,0,
 -7.0503772355,4.0198423897,-0.2491331164\C,0,-8.0069858388,4.604061462
 9,-1.1677095801\C,0,-8.4674597788,3.7267418043,-2.0642409765\C,0,-7.72
 26760791,2.4609442685,-1.7436281326\C,0,-8.306752954,6.0578871584,-1.1
 543465693\C,0,-9.4695434327,3.8697079091,-3.1215747061\C,0,-8.76778575
 93,3.9158829514,-4.5495782045\N,0,-6.4413198993,-0.131508331,-1.123183
 3387\C,0,-7.4264062473,0.0451136058,-2.0402299456\C,0,-7.6502681434,-1
 .3336285156,-2.6725202766\C,0,-6.7804235261,-2.235077281,-1.9771469246
 \C,0,-6.06826475,-1.4584998795,-1.0593437991\C,0,-8.5164470194,-1.7064
 404326,-3.9218030997\C,0,-6.3631299401,-3.6384329493,-1.9216375577\O,0
 ,-6.7388471253,-4.5497099411,-2.5053507808\C,0,-5.1316834218,-3.557987
 5655,-0.8322498458\C,0,-5.2310702346,-4.58848405,0.1838255336\O,0,-5.7
 857227549,-4.4653224656,1.3080079211\O,0,-4.982028166,-5.7965535395,-0
 .3380479762\C,0,-5.441927542,-6.95778937,0.4619237272\C,0,2.3188885705
 ,-5.12159842,0.4658945708\C,0,3.5402873388,-4.0953710364,0.907582044\C
 ,0,4.139033007,-3.2846782887,0.0262750025\C,0,3.7711120085,-3.16870005
 84,-1.4174094097\C,0,5.160410247,-2.3984341116,0.7000018511\C,0,6.6210
 977145,-2.7436493179,0.1401043363\C,0,7.6264917759,-1.6735289987,0.566
 3004646\C,0,8.9909777063,-1.9472107031,-0.0650232155\C,0,9.5802651066,
 -3.3352834308,0.2110242274\C,0,10.0482802636,-0.8852991508,0.435571520
 6\C,0,11.3777609334,-0.8213949346,-0.2645417648\C,0,12.2110287235,0.36
 1415332,0.1151022984\C,0,13.5687062647,0.4803477217,-0.5475445117\C,0,
 14.5806062336,-0.7288236124,-0.2459612813\C,0,14.2330232405,1.82252702
 49,-0.185456188\C,0,15.5545147324,2.1757695123,-0.9404511528\C,0,16.05
 39350132,3.470229533,-0.6652176148\C,0,17.3261870134,3.8860275183,-1.3
 13632411\C,0,17.2676057427,4.0381593786,-2.8374060606\C,0,17.862949714
 2,5.1866667927,-0.7119421512\H,0,-2.5699425002,1.2804749111,3.54567217
 84\H,0,-6.3299338763,5.613517554,0.832062969\H,0,-8.7924044395,1.26136
 03975,-3.1889842793\H,0,-3.8316002252,-3.1242955463,1.931848927\H,0,-1
 .6981308991,-1.2471023184,2.678910057\H,0,-2.6059299182,-2.7771042913,
 4.210190965\H,0,-3.2734739475,-1.1681689346,4.8700231382\H,0,-4.297191
 3949,-2.1707249905,3.7784010627\H,0,-2.1299901646,-3.3217152165,-0.167
 8145161\H,0,-1.5599366934,-1.872115839,0.2738982311\H,0,-0.643968787,-
 3.167466719,2.5051750586\H,0,-1.5265521338,-4.6873155679,1.6771067474\
 H,0,-1.6459232444,3.6002647132,4.0442268038\H,0,-2.8688645405,5.098589
 498,4.2276784307\H,0,-2.753395272,3.3111443085,5.1998369605\H,0,-4.904
 6543247,6.7158195645,1.9201741332\H,0,-10.1296069432,3.0457817301,-3.1
 233334879\H,0,-9.9261100939,4.6198795225,-2.9677797706\H,0,-9.37741350
 23,4.1735152515,-5.4825345641\H,0,-8.1492088869,4.7538873293,-4.669086
 5905\H,0,-8.0579560705,2.9975940733,-4.6597400887\H,0,-8.4556121428,-1
 .1312263803,-4.8592658956\H,0,-8.2747971076,-2.8144385042,-4.063335677
 5\H,0,-9.6772309722,-1.8613227669,-3.4247467598\H,0,-4.1463564116,-3.6
 725530783,-1.2498899191\H,0,2.3319711409,-6.1958368768,0.9325816461\H,
 0,2.2516184884,-4.9244409705,-0.5431597511\H,0,3.8946454469,-3.8702771
 5,1.8947378379\H,0,2.7595634082,-3.5774993048,-1.4226149116\H,0,3.6650
 238404,-2.0262173223,-1.6297411916\H,0,4.4992524326,-3.8379056469,-2.3
 458460419\H,0,4.9293968087,-1.3375993045,0.3550558967\H,0,5.339626321,
 -2.5161459318,1.7654004263\H,0,6.6368029003,-3.6811224117,0.539473269\
 H,0,6.5939482343,-2.7860708231,-0.9631860048\H,0,7.4011209137,-0.73311
 98663,0.3890176551\H,0,7.6782867389,-1.6823664851,1.6925667291\H,0,8.8
 110070003,-1.7978378245,-1.2269409128\H,0,8.8447966451,-4.1599948594,0
 .141131643\H,0,10.5494179712,-3.5164650012,-0.2581533972\H,0,9.6534320
 908,-3.4697427029,1.2710580688\H,0,9.4447755385,0.080486459,0.09560873
 53\H,0,10.0927582344,-1.0797162909,1.460867024\H,0,11.9763395651,-1.66
 0353357,-0.1555048583\H,0,11.0573216724,-0.5090325388,-1.3539662403\H,
 0,11.7716971878,1.2590989817,-0.0478119916\H,0,12.4388546442,0.2306843
 517,1.397968972\H,0,13.163647107,0.3137861214,-1.5370999148\H,0,14.974
 767704,-0.7288859059,0.9164067382\H,0,13.9954699335,-1.6707202509,-0.3
 448207362\H,0,15.5366535219,-0.6902623539,-0.7898313861\H,0,13.6600552
 511,2.6549037896,-0.4913890162\H,0,14.4474223544,1.6303194464,0.877806
 608\H,0,16.1913778649,1.5192673882,-0.5382016352\H,0,15.3748722827,2.0
 498932407,-1.9577593068\H,0,15.3674682089,4.3278859963,-0.8142927093\H
 ,0,16.2698066146,3.5351294723,0.5012425831\H,0,18.0837981966,3.1459581
 043,-1.0536597539\H,0,16.5916563024,4.6124585248,-3.2477990588\H,0,18.
 2070230922,4.318948288,-3.1526827019\H,0,16.9164763329,3.0561005213,-3
 .471447698\H,0,18.1047483488,5.1647871317,0.3304522109\H,0,18.67788539
 93,5.5176979963,-1.1524473858\H,0,16.896112181,5.9024346536,-0.6417425
 264\H,0,-5.4442823128,-7.7650376032,-0.2461189279\H,0,-6.4466351548,-6
 .7851578972,0.6993497783\H,0,-4.8127834957,-6.784678344,1.2625491233\O
 ,0,-7.7172646218,6.7839084222,-0.3851219406\H,0,-9.0627196558,6.493006
 7164,-1.8747559431\\Version=ES64L-G09RevD.01\State=1-A\HF=-3043.418352
 5\RMSD=4.361e-09\PG=C01 [X(C54H68Mg1N4O7)]\\@


 THERE ONCE WAS A GIRL NAMED IRENE,
 WHO LIVED ON DISTILLED KEROSENE,
      BUT SHE STARTED ABSORBIN'
      A NEW HYDROCARBON,
 AND SINCE THEN HAS NEVER BENZENE.
 Job cpu time:       0 days  6 hours 12 minutes  6.8 seconds.
 File lengths (MBytes):  RWF=   2102 Int=      0 D2E=      0 Chk=    163 Scr=      1
 Normal termination of Gaussian 09 at Mon Oct  7 08:46:34 2019.
