 Entering Gaussian System, Link 0=g16
 Input=Geometria-323-.com
 Output=Geometria-323-.log
 Initial command:
 /usr/local/g09/l1.exe "/home/padawan/israel-mol/chlorophyll-b/spectra/emi/Gau-7671.inp" -scrdir="/home/padawan/israel-mol/chlorophyll-b/spectra/emi/"
 Entering Link 1 = /usr/local/g09/l1.exe PID=      7673.
  
 Copyright (c) 1988,1990,1992,1993,1995,1998,2003,2009,2013,
            Gaussian, Inc.  All Rights Reserved.
  
 This is part of the Gaussian(R) 09 program.  It is based on
 the Gaussian(R) 03 system (copyright 2003, Gaussian, Inc.),
 the Gaussian(R) 98 system (copyright 1998, Gaussian, Inc.),
 the Gaussian(R) 94 system (copyright 1995, Gaussian, Inc.),
 the Gaussian 92(TM) system (copyright 1992, Gaussian, Inc.),
 the Gaussian 90(TM) system (copyright 1990, Gaussian, Inc.),
 the Gaussian 88(TM) system (copyright 1988, Gaussian, Inc.),
 the Gaussian 86(TM) system (copyright 1986, Carnegie Mellon
 University), and the Gaussian 82(TM) system (copyright 1983,
 Carnegie Mellon University). Gaussian is a federally registered
 trademark of Gaussian, Inc.
  
 This software contains proprietary and confidential information,
 including trade secrets, belonging to Gaussian, Inc.
  
 This software is provided under written license and may be
 used, copied, transmitted, or stored only in accord with that
 written license.
  
 The following legend is applicable only to US Government
 contracts under FAR:
  
                    RESTRICTED RIGHTS LEGEND
  
 Use, reproduction and disclosure by the US Government is
 subject to restrictions as set forth in subparagraphs (a)
 and (c) of the Commercial Computer Software - Restricted
 Rights clause in FAR 52.227-19.
  
 Gaussian, Inc.
 340 Quinnipiac St., Bldg. 40, Wallingford CT 06492
  
  
 ---------------------------------------------------------------
 Warning -- This program may not be used in any manner that
 competes with the business of Gaussian, Inc. or will provide
 assistance to any competitor of Gaussian, Inc.  The licensee
 of this program is prohibited from giving any competitor of
 Gaussian, Inc. access to this program.  By using this program,
 the user acknowledges that Gaussian, Inc. is engaged in the
 business of creating and licensing software in the field of
 computational chemistry and represents and warrants to the
 licensee that it is not a competitor of Gaussian, Inc. and that
 it will not use this program in any manner prohibited above.
 ---------------------------------------------------------------
  

 Cite this work as:
 Gaussian 09, Revision D.01,
 M. J. Frisch, G. W. Trucks, H. B. Schlegel, G. E. Scuseria, 
 M. A. Robb, J. R. Cheeseman, G. Scalmani, V. Barone, B. Mennucci, 
 G. A. Petersson, H. Nakatsuji, M. Caricato, X. Li, H. P. Hratchian, 
 A. F. Izmaylov, J. Bloino, G. Zheng, J. L. Sonnenberg, M. Hada, 
 M. Ehara, K. Toyota, R. Fukuda, J. Hasegawa, M. Ishida, T. Nakajima, 
 Y. Honda, O. Kitao, H. Nakai, T. Vreven, J. A. Montgomery, Jr., 
 J. E. Peralta, F. Ogliaro, M. Bearpark, J. J. Heyd, E. Brothers, 
 K. N. Kudin, V. N. Staroverov, T. Keith, R. Kobayashi, J. Normand, 
 K. Raghavachari, A. Rendell, J. C. Burant, S. S. Iyengar, J. Tomasi, 
 M. Cossi, N. Rega, J. M. Millam, M. Klene, J. E. Knox, J. B. Cross, 
 V. Bakken, C. Adamo, J. Jaramillo, R. Gomperts, R. E. Stratmann, 
 O. Yazyev, A. J. Austin, R. Cammi, C. Pomelli, J. W. Ochterski, 
 R. L. Martin, K. Morokuma, V. G. Zakrzewski, G. A. Voth, 
 P. Salvador, J. J. Dannenberg, S. Dapprich, A. D. Daniels, 
 O. Farkas, J. B. Foresman, J. V. Ortiz, J. Cioslowski, 
 and D. J. Fox, Gaussian, Inc., Wallingford CT, 2013.
 
 ******************************************
 Gaussian 09:  ES64L-G09RevD.01 24-Apr-2013
                 7-Oct-2019 
 ******************************************
 %nproc=3
 Will use up to    3 processors via shared memory.
 %Mem=2GB
 ----------------------------------------------------------------------
 # td=(NStates=1) iop(3/107=0140000000,3/108=0140000000) iop(3/107=0140
 000000,3/108=0140000000) CAM-B3LYP/6-31G(d,p)
 ----------------------------------------------------------------------
 1/38=1/1;
 2/12=2,17=6,18=5,40=1/2;
 3/5=1,6=6,7=101,11=9,16=1,25=1,30=1,74=-40,107=140000000,108=140000000/1,2,8,3;
 4//1;
 5/5=2,38=5/2;
 8/6=1,10=2,108=1/1;
 9/41=1,42=1,70=2/14;
 6/7=2,8=2,9=2,10=2/1;
 99/5=1,9=1/99;
 --
 TD
 --
 Symbolic Z-matrix:
 Charge =  0 Multiplicity = 1
 12                   -5.64364   1.22603   0.21771 
 6                    -5.04485  -2.12158  -0.35876 
 6                    -3.61551   1.13056   2.87885 
 6                    -6.23477   4.55753   0.69652 
 6                    -8.10671   1.16752  -2.25587 
 7                    -4.4471   -0.3656    1.16339 
 6                    -4.31538  -1.67503   0.77955 
 6                    -3.34828  -2.33805   1.56159 
 6                    -2.97382  -1.34381   2.66522 
 6                    -3.74427  -0.05408   2.20295 
 6                    -3.44355  -1.83869   4.07779 
 6                    -1.98942  -2.69419   0.67028 
 6                    -0.87719  -3.48271   1.43617 
 6                     0.38774  -3.80648   0.70165 
 8                     0.55435  -3.40323  -0.44336 
 8                     1.10496  -4.73072   1.27603 
 7                    -5.07821   2.57077   1.51073 
 6                    -4.20398   2.3616    2.60971 
 6                    -3.85026   3.65706   3.23684 
 6                    -4.62179   4.61629   2.63453 
 6                    -5.34678   3.90273   1.55844 
 6                    -2.78331   3.77662   4.35812 
 6                    -4.78052   6.00979   2.87002 
 8                    -4.12994   6.55295   3.85436 
 7                    -7.01518   2.65474  -0.6184 
 6                    -6.88141   3.976    -0.31166 
 6                    -7.88152   4.57072  -1.33134 
 6                    -8.45239   3.64593  -2.13403 
 6                    -7.79477   2.34739  -1.71667 
 6                    -8.24848   6.10204  -1.32163 
 6                    -9.23944   3.83141  -3.31057 
 6                    -8.45198   3.94172  -4.70372 
 7                    -6.4223   -0.143    -1.00334 
 6                    -7.51091  -0.05543  -1.93726 
 6                    -7.62446  -1.34162  -2.71636 
 6                    -6.65543  -2.20584  -2.15054 
 6                    -5.91938  -1.36596  -1.10622 
 6                    -8.62394  -1.56499  -3.82414 
 6                    -6.1576   -3.52156  -2.11629 
 8                    -6.50698  -4.47292  -2.69971 
 6                    -4.99939  -3.53497  -0.95189 
 6                    -5.23949  -4.6983    0.13073 
 8                    -5.8497   -4.5044    1.18992 
 8                    -4.91794  -5.92012  -0.32376 
 6                    -5.20374  -7.05312   0.57357 
 6                     2.2718   -5.01649   0.5181 
 6                     3.51311  -4.09435   0.90213 
 6                     4.05208  -3.18227   0.16765 
 6                     3.67701  -3.1102   -1.41672 
 6                     5.07285  -2.21937   0.61142 
 6                     6.46372  -2.57285   0.00707 
 6                     7.61644  -1.77544   0.60745 
 6                     8.97222  -1.96695  -0.04822 
 6                     9.51849  -3.3571    0.23355 
 6                     9.97382  -0.81813   0.39903 
 6                     11.30754  -0.77578  -0.28996 
 6                     12.28645   0.36011   0.0922 
 6                     13.54348   0.53618  -0.68336 
 6                     14.51176  -0.73724  -0.51523 
 6                     14.3206   1.7551   -0.16809 
 6                     15.48851   2.1804   -1.07169 
 6                     16.15231   3.53359  -0.70578 
 6                     17.4478   3.76755  -1.31525 
 6                     17.40254   3.90633  -2.79289 
 6                     18.19064   4.9392   -0.77383 
 1                    -2.96151   0.99853   3.74249 
 1                    -6.40475   5.82819   0.51743 
 1                    -8.91953   1.25207  -3.04697 
 1                    -3.72618  -3.22543   1.98534 
 1                    -1.85714  -1.08638   2.71416 
 1                    -2.77207  -2.54599   4.38872 
 1                    -3.32212  -0.9666    4.6564 
 1                    -4.4644   -2.21556   4.11995 
 1                    -2.3961   -3.09606  -0.31554 
 1                    -1.67168  -1.66905   0.43081 
 1                    -0.59701  -3.05692   2.41146 
 1                    -1.22924  -4.44856   1.79541 
 1                    -1.96048   3.38492   3.67941 
 1                    -2.40637   4.80873   4.62871 
 1                    -3.21099   3.01612   5.04428 
 1                    -5.50221   6.60014   2.30551 
 1                    -9.81336   2.92104  -3.47603 
 1                    -10.23831   4.54179  -3.28247 
 1                    -9.02676   4.08088  -5.50682 
 1                    -7.82349   4.92002  -4.62192 
 1                    -7.81235   3.16967  -4.91791 
 1                    -8.59851  -0.88503  -4.64182 
 1                    -8.43788  -2.63343  -4.11839 
 1                    -9.66752  -1.38266  -3.37617 
 1                    -4.04354  -3.70216  -1.30036 
 1                     2.51919  -6.10082   0.98358 
 1                     2.19088  -5.00678  -0.49398 
 1                     3.7241   -4.03319   2.0743 
 1                     2.77147  -3.45785  -1.81165 
 1                     3.93672  -2.09351  -1.70247 
 1                     4.64487  -3.61585  -1.89457 
 1                     4.71872  -1.26513   0.25546 
 1                     4.99879  -2.52815   1.69875 
 1                     6.80821  -3.52961   0.25056 
 1                     6.25618  -2.50392  -1.12755 
 1                     7.43308  -0.88492   0.44874 
 1                     7.65935  -1.74612   1.71595 
 1                     8.82252  -1.86737  -1.13632 
 1                     8.77445  -4.05066  -0.30418 
 1                     10.49105  -3.4841   -0.0112 
 1                     9.54272  -3.52411   1.23797 
 1                     9.56512   0.11377   0.14848 
 1                     10.20533  -0.80215   1.40141 
 1                     11.91167  -1.66512  -0.04331 
 1                     11.27015  -0.97279  -1.23876 
 1                     11.70882   1.38814  -0.11505 
 1                     12.51035   0.27739   1.30667 
 1                     13.35422   0.7181   -1.75949 
 1                     14.8881  -0.62515   0.54737 
 1                     13.86014  -1.5732   -0.65891 
 1                     15.44811  -0.74661  -1.24737 
 1                     13.51466   2.51354  -0.13201 
 1                     14.74233   1.66181   0.96199 
 1                     16.46809   1.41389  -0.8226 
 1                     15.46854   2.12581  -2.25342 
 1                     15.38249   4.2612   -1.12694 
 1                     16.16516   3.89239   0.35919 
 1                     17.99444   2.85451  -1.2825 
 1                     16.37381   4.59543  -3.08153 
 1                     18.40664   4.61009  -3.14332 
 1                     17.27678   2.8974   -3.42995 
 1                     18.51946   4.75858   0.30109 
 1                     19.13865   5.20249  -1.23169 
 1                     17.73807   5.95166  -0.9851 
 1                    -4.53564  -7.9775    0.1539 
 1                    -6.22397  -7.36534   0.69648 
 1                    -4.66728  -6.87802   1.66899 
 8                    -7.86717   6.92182  -0.49587 
 1                    -9.111     6.48989  -1.93077 
 
 Stoichiometry    C54H68MgN4O7
 Framework group  C1[X(C54H68MgN4O7)]
 Deg. of freedom   396
 Full point group                 C1      NOp   1
 Largest Abelian subgroup         C1      NOp   1
 Largest concise Abelian subgroup C1      NOp   1
                         Standard orientation:                         
 ---------------------------------------------------------------------
 Center     Atomic      Atomic             Coordinates (Angstroms)
 Number     Number       Type             X           Y           Z
 ---------------------------------------------------------------------
      1         12           0       -5.649738    1.221531    0.209316
      2          6           0       -5.048169   -2.123352   -0.379939
      3          6           0       -3.629174    1.115195    2.875788
      4          6           0       -6.243367    4.550733    0.700859
      5          6           0       -8.105726    1.172920   -2.271514
      6          7           0       -4.455357   -0.373792    1.151496
      7          6           0       -4.322092   -1.681500    0.762371
      8          6           0       -3.356999   -2.347579    1.544288
      9          6           0       -2.986032   -1.358006    2.653279
     10          6           0       -3.755600   -0.066549    2.194401
     11          6           0       -3.459613   -1.859160    4.062339
     12          6           0       -1.995489   -2.699416    0.655324
     13          6           0       -0.885170   -3.490881    1.420958
     14          6           0        0.381960   -3.811042    0.688655
     15          8           0        0.551691   -3.402786   -0.454121
     16          8           0        1.097852   -4.737528    1.261075
     17          7           0       -5.088452    2.560838    1.509749
     18          6           0       -4.217296    2.347204    2.610301
     19          6           0       -3.865798    3.640043    3.244048
     20          6           0       -4.635937    4.601624    2.643696
     21          6           0       -5.357619    3.892498    1.562464
     22          6           0       -2.802092    3.755105    4.368872
     23          6           0       -4.795817    5.994039    2.884768
     24          8           0       -4.148226    6.533143    3.873300
     25          7           0       -7.019379    2.653399   -0.624516
     26          6           0       -6.886932    3.973357   -0.311672
     27          6           0       -7.884336    4.572159   -1.331612
     28          6           0       -8.452595    3.650673   -2.139927
     29          6           0       -7.795729    2.350553   -1.726318
     30          6           0       -8.251839    6.103306   -1.316324
     31          6           0       -9.236352    3.840989   -3.317898
     32          6           0       -8.444965    3.957584   -4.708306
     33          7           0       -6.424444   -0.142455   -1.019873
     34          6           0       -7.510423   -0.051195   -1.956505
     35          6           0       -7.621303   -1.334038   -2.741494
     36          6           0       -6.653601   -2.200387   -2.176660
     37          6           0       -5.920817   -1.364793   -1.126611
     38          6           0       -8.617546   -1.552933   -3.853076
     39          6           0       -6.155420   -3.516076   -2.146681
     40          8           0       -6.502815   -4.465016   -2.735213
     41          6           0       -5.000531   -3.534143   -0.979055
     42          6           0       -5.243321   -4.702231    0.097829
     43          8           0       -5.856612   -4.513123    1.156100
     44          8           0       -4.920060   -5.921966   -0.361026
     45          6           0       -5.208033   -7.058939    0.530571
     46          6           0        2.266947   -5.019628    0.505243
     47          6           0        3.506843   -4.098755    0.896804
     48          6           0        4.047594   -3.183322    0.167819
     49          6           0        3.677016   -3.104519   -1.417286
     50          6           0        5.066763   -2.222016    0.618669
     51          6           0        6.459471   -2.572423    0.016762
     52          6           0        7.610202   -1.777239    0.623879
     53          6           0        8.967906   -1.965465   -0.028750
     54          6           0        9.513848   -3.356636    0.248552
     55          6           0        9.967841   -0.818264    0.426326
     56          6           0       11.303507   -0.772489   -0.258669
     57          6           0       12.280928    0.362053    0.131202
     58          6           0       13.540112    0.541902   -0.639997
     59          6           0       14.508338   -0.731924   -0.474622
     60          6           0       14.315342    1.758831   -0.117244
     61          6           0       15.485674    2.188425   -1.015658
     62          6           0       16.147973    3.540231   -0.641997
     63          6           0       17.445110    3.777255   -1.246751
     64          6           0       17.404016    3.922420   -2.723898
     65          6           0       18.186007    4.946799   -0.698140
     66          1           0       -2.977593    0.979641    3.740712
     67          1           0       -6.413271    5.822096    0.526789
     68          1           0       -8.916312    1.260632   -3.064557
     69          1           0       -3.735806   -3.236911    1.963114
     70          1           0       -1.869579   -1.100424    2.706519
     71          1           0       -2.788781   -2.567580    4.372120
     72          1           0       -3.340133   -0.989543    4.645071
     73          1           0       -4.480452   -2.236544    4.099954
     74          1           0       -2.399212   -3.097145   -0.333384
     75          1           0       -1.677411   -1.673136    0.421206
     76          1           0       -0.607926   -3.069220    2.398876
     77          1           0       -1.237920   -4.458392    1.775007
     78          1           0       -1.977204    3.366618    3.690822
     79          1           0       -2.426278    4.786153    4.645002
     80          1           0       -3.231471    2.991499    5.050511
     81          1           0       -5.516099    6.586589    2.320764
     82          1           0       -9.809482    2.931151   -3.488931
     83          1           0      -10.235541    4.550910   -3.289569
     84          1           0       -9.017494    4.100032   -5.512425
     85          1           0       -7.817036    4.935735   -4.620475
     86          1           0       -7.804460    3.186685   -4.924004
     87          1           0       -8.590016   -0.869435   -4.667729
     88          1           0       -8.430289   -2.620031   -4.151417
     89          1           0       -9.662464   -1.372897   -3.407298
     90          1           0       -4.043630   -3.699509   -1.325521
     91          1           0        2.513375   -6.105882    0.966723
     92          1           0        2.188909   -5.005562   -0.507017
     93          1           0        3.714463   -4.042607    2.069819
     94          1           0        2.772727   -3.450746   -1.816304
     95          1           0        3.937192   -2.086515   -1.697887
     96          1           0        4.646402   -3.607775   -1.894560
     97          1           0        4.713318   -1.266365    0.265829
     98          1           0        4.989709   -2.535528    1.704437
     99          1           0        6.803590   -3.530111    0.257091
    100          1           0        6.255146   -2.498648   -1.118140
    101          1           0        7.426994   -0.886097    0.468504
    102          1           0        7.649945   -1.752711    1.732608
    103          1           0        8.821277   -1.861224   -1.116831
    104          1           0        8.771581   -4.048113   -0.294296
    105          1           0       10.487148   -3.482261    0.006035
    106          1           0        9.535273   -3.527990    1.252313
    107          1           0        9.559534    0.114581    0.178656
    108          1           0       10.196484   -0.806546    1.429425
    109          1           0       11.907234   -1.662694   -0.014150
    110          1           0       11.268889   -0.965398   -1.208416
    111          1           0       11.703545    1.390787   -0.073239
    112          1           0       12.501398    0.274150    1.345936
    113          1           0       13.353851    0.728413   -1.715869
    114          1           0       14.881609   -0.624305    0.589521
    115          1           0       13.857413   -1.567464   -0.623783
    116          1           0       15.446781   -0.737808   -1.204121
    117          1           0       13.509042    2.516842   -0.080178
    118          1           0       14.733880    1.660788    1.013619
    119          1           0       16.464799    1.421162   -0.767093
    120          1           0       15.469096    2.138949   -2.197661
    121          1           0       15.379104    4.269409   -1.062198
    122          1           0       16.157656    3.894418    0.424549
    123          1           0       17.991966    2.864265   -1.216396
    124          1           0       16.375883    4.612426   -3.012485
    125          1           0       18.408875    4.628023   -3.068411
    126          1           0       17.280420    2.916227   -3.365679
    127          1           0       18.511820    4.761627    0.376919
    128          1           0       19.135227    5.212377   -1.152147
    129          1           0       17.733689    5.960014   -0.906312
    130          1           0       -4.538421   -7.981272    0.108806
    131          1           0       -6.228501   -7.372021    0.649212
    132          1           0       -4.674753   -6.888408    1.628260
    133          8           0       -7.873167    6.919627   -0.485937
    134          1           0       -9.112758    6.493502   -1.926235
 ---------------------------------------------------------------------
 Rotational constants (GHZ):      0.0346665      0.0080103      0.0071109
 Standard basis: 6-31G(d,p) (6D, 7F)
 There are  1334 symmetry adapted cartesian basis functions of A   symmetry.
 There are  1334 symmetry adapted basis functions of A   symmetry.
  1334 basis functions,  2348 primitive gaussians,  1334 cartesian basis functions
   244 alpha electrons      244 beta electrons
       nuclear repulsion energy      9096.3364916102 Hartrees.
 NAtoms=  134 NActive=  134 NUniq=  134 SFac= 1.00D+00 NAtFMM=   60 NAOKFM=T Big=T
 Integral buffers will be    131072 words long.
 Raffenetti 1 integral format.
 Two-electron integral symmetry is turned on.
 One-electron integrals computed using PRISM.
 NBasis=  1334 RedAO= T EigKep=  3.63D-04  NBF=  1334
 NBsUse=  1334 1.00D-06 EigRej= -1.00D+00 NBFU=  1334
 ExpMin= 4.21D-02 ExpMax= 1.17D+04 ExpMxC= 1.76D+03 IAcc=2 IRadAn=         4 AccDes= 0.00D+00
 Harris functional with IExCor=20419 and IRadAn=       4 diagonalized for initial guess.
 HarFok:  IExCor=20419 AccDes= 0.00D+00 IRadAn=         4 IDoV= 1 UseB2=F ITyADJ=14
 ICtDFT=  3500011 ScaDFX=  1.000000  1.000000  1.000000  1.000000
 FoFCou: FMM=F IPFlag=           0 FMFlag=      100000 FMFlg1=        2001
         NFxFlg=           0 DoJE=T BraDBF=F KetDBF=T FulRan=T
         wScrn=  0.000000 ICntrl=     500 IOpCl=  0 I1Cent=   200000004 NGrid=           0
         NMat0=    1 NMatS0=      1 NMatT0=    0 NMatD0=    1 NMtDS0=    0 NMtDT0=    0
 Petite list used in FoFCou.
 Requested convergence on RMS density matrix=1.00D-08 within 128 cycles.
 Requested convergence on MAX density matrix=1.00D-06.
 Requested convergence on             energy=1.00D-06.
 No special actions if energy rises.
 SCF Done:  E(RCAM-B3LYP) =  -3043.42911216     A.U. after   16 cycles
            NFock= 16  Conv=0.46D-08     -V/T= 2.0091
 DoSCS=F DFT=T ScalE2(SS,OS)=  1.000000  1.000000
 ExpMin= 4.21D-02 ExpMax= 1.17D+04 ExpMxC= 1.76D+03 IAcc=3 IRadAn=         5 AccDes= 0.00D+00
 HarFok:  IExCor=  205 AccDes= 0.00D+00 IRadAn=         5 IDoV=-2 UseB2=F ITyADJ=14
 ICtDFT= 12500011 ScaDFX=  1.000000  1.000000  1.000000  1.000000
 Range of M.O.s used for correlation:    71  1334
 NBasis=  1334 NAE=   244 NBE=   244 NFC=    70 NFV=     0
 NROrb=   1264 NOA=   174 NOB=   174 NVA=  1090 NVB=  1090
 Would need an additional       2379600800000 words for in-memory AO integral storage.
 Orbital symmetries:
       Occupied  (A) (A) (A) (A) (A) (A) (A) (A) (A) (A) (A) (A)
                 (A) (A) (A) (A) (A) (A) (A) (A) (A) (A) (A) (A)
                 (A) (A) (A) (A) (A) (A) (A) (A) (A) (A) (A) (A)
                 (A) (A) (A) (A) (A) (A) (A) (A) (A) (A) (A) (A)
                 (A) (A) (A) (A) (A) (A) (A) (A) (A) (A) (A) (A)
                 (A) (A) (A) (A) (A) (A) (A) (A) (A) (A) (A) (A)
                 (A) (A) (A) (A) (A) (A) (A) (A) (A) (A) (A) (A)
                 (A) (A) (A) (A) (A) (A) (A) (A) (A) (A) (A) (A)
                 (A) (A) (A) (A) (A) (A) (A) (A) (A) (A) (A) (A)
                 (A) (A) (A) (A) (A) (A) (A) (A) (A) (A) (A) (A)
                 (A) (A) (A) (A) (A) (A) (A) (A) (A) (A) (A) (A)
                 (A) (A) (A) (A) (A) (A) (A) (A) (A) (A) (A) (A)
                 (A) (A) (A) (A) (A) (A) (A) (A) (A) (A) (A) (A)
                 (A) (A) (A) (A) (A) (A) (A) (A) (A) (A) (A) (A)
                 (A) (A) (A) (A) (A) (A) (A) (A) (A) (A) (A) (A)
                 (A) (A) (A) (A) (A) (A) (A) (A) (A) (A) (A) (A)
                 (A) (A) (A) (A) (A) (A) (A) (A) (A) (A) (A) (A)
                 (A) (A) (A) (A) (A) (A) (A) (A) (A) (A) (A) (A)
                 (A) (A) (A) (A) (A) (A) (A) (A) (A) (A) (A) (A)
                 (A) (A) (A) (A) (A) (A) (A) (A) (A) (A) (A) (A)
                 (A) (A) (A) (A)
       Virtual   (A) (A) (A) (A) (A) (A) (A) (A) (A) (A) (A) (A)
                 (A) (A) (A) (A) (A) (A) (A) (A) (A) (A) (A) (A)
                 (A) (A) (A) (A) (A) (A) (A) (A) (A) (A) (A) (A)
                 (A) (A) (A) (A) (A) (A) (A) (A) (A) (A) (A) (A)
                 (A) (A) (A) (A) (A) (A) (A) (A) (A) (A) (A) (A)
                 (A) (A) (A) (A) (A) (A) (A) (A) (A) (A) (A) (A)
                 (A) (A) (A) (A) (A) (A) (A) (A) (A) (A) (A) (A)
                 (A) (A) (A) (A) (A) (A) (A) (A) (A) (A) (A) (A)
                 (A) (A) (A) (A) (A) (A) (A) (A) (A) (A) (A) (A)
                 (A) (A) (A) (A) (A) (A) (A) (A) (A) (A) (A) (A)
                 (A) (A) (A) (A) (A) (A) (A) (A) (A) (A) (A) (A)
                 (A) (A) (A) (A) (A) (A) (A) (A) (A) (A) (A) (A)
                 (A) (A) (A) (A) (A) (A) (A) (A) (A) (A) (A) (A)
                 (A) (A) (A) (A) (A) (A) (A) (A) (A) (A) (A) (A)
                 (A) (A) (A) (A) (A) (A) (A) (A) (A) (A) (A) (A)
                 (A) (A) (A) (A) (A) (A) (A) (A) (A) (A) (A) (A)
                 (A) (A) (A) (A) (A) (A) (A) (A) (A) (A) (A) (A)
                 (A) (A) (A) (A) (A) (A) (A) (A) (A) (A) (A) (A)
                 (A) (A) (A) (A) (A) (A) (A) (A) (A) (A) (A) (A)
                 (A) (A) (A) (A) (A) (A) (A) (A) (A) (A) (A) (A)
                 (A) (A) (A) (A) (A) (A) (A) (A) (A) (A) (A) (A)
                 (A) (A) (A) (A) (A) (A) (A) (A) (A) (A) (A) (A)
                 (A) (A) (A) (A) (A) (A) (A) (A) (A) (A) (A) (A)
                 (A) (A) (A) (A) (A) (A) (A) (A) (A) (A) (A) (A)
                 (A) (A) (A) (A) (A) (A) (A) (A) (A) (A) (A) (A)
                 (A) (A) (A) (A) (A) (A) (A) (A) (A) (A) (A) (A)
                 (A) (A) (A) (A) (A) (A) (A) (A) (A) (A) (A) (A)
                 (A) (A) (A) (A) (A) (A) (A) (A) (A) (A) (A) (A)
                 (A) (A) (A) (A) (A) (A) (A) (A) (A) (A) (A) (A)
                 (A) (A) (A) (A) (A) (A) (A) (A) (A) (A) (A) (A)
                 (A) (A) (A) (A) (A) (A) (A) (A) (A) (A) (A) (A)
                 (A) (A) (A) (A) (A) (A) (A) (A) (A) (A) (A) (A)
                 (A) (A) (A) (A) (A) (A) (A) (A) (A) (A) (A) (A)
                 (A) (A) (A) (A) (A) (A) (A) (A) (A) (A) (A) (A)
                 (A) (A) (A) (A) (A) (A) (A) (A) (A) (A) (A) (A)
                 (A) (A) (A) (A) (A) (A) (A) (A) (A) (A) (A) (A)
                 (A) (A) (A) (A) (A) (A) (A) (A) (A) (A) (A) (A)
                 (A) (A) (A) (A) (A) (A) (A) (A) (A) (A) (A) (A)
                 (A) (A) (A) (A) (A) (A) (A) (A) (A) (A) (A) (A)
                 (A) (A) (A) (A) (A) (A) (A) (A) (A) (A) (A) (A)
                 (A) (A) (A) (A) (A) (A) (A) (A) (A) (A) (A) (A)
                 (A) (A) (A) (A) (A) (A) (A) (A) (A) (A) (A) (A)
                 (A) (A) (A) (A) (A) (A) (A) (A) (A) (A) (A) (A)
                 (A) (A) (A) (A) (A) (A) (A) (A) (A) (A) (A) (A)
                 (A) (A) (A) (A) (A) (A) (A) (A) (A) (A) (A) (A)
                 (A) (A) (A) (A) (A) (A) (A) (A) (A) (A) (A) (A)
                 (A) (A) (A) (A) (A) (A) (A) (A) (A) (A) (A) (A)
                 (A) (A) (A) (A) (A) (A) (A) (A) (A) (A) (A) (A)
                 (A) (A) (A) (A) (A) (A) (A) (A) (A) (A) (A) (A)
                 (A) (A) (A) (A) (A) (A) (A) (A) (A) (A) (A) (A)
                 (A) (A) (A) (A) (A) (A) (A) (A) (A) (A) (A) (A)
                 (A) (A) (A) (A) (A) (A) (A) (A) (A) (A) (A) (A)
                 (A) (A) (A) (A) (A) (A) (A) (A) (A) (A) (A) (A)
                 (A) (A) (A) (A) (A) (A) (A) (A) (A) (A) (A) (A)
                 (A) (A) (A) (A) (A) (A) (A) (A) (A) (A) (A) (A)
                 (A) (A) (A) (A) (A) (A) (A) (A) (A) (A) (A) (A)
                 (A) (A) (A) (A) (A) (A) (A) (A) (A) (A) (A) (A)
                 (A) (A) (A) (A) (A) (A) (A) (A) (A) (A) (A) (A)
                 (A) (A) (A) (A) (A) (A) (A) (A) (A) (A) (A) (A)
                 (A) (A) (A) (A) (A) (A) (A) (A) (A) (A) (A) (A)
                 (A) (A) (A) (A) (A) (A) (A) (A) (A) (A) (A) (A)
                 (A) (A) (A) (A) (A) (A) (A) (A) (A) (A) (A) (A)
                 (A) (A) (A) (A) (A) (A) (A) (A) (A) (A) (A) (A)
                 (A) (A) (A) (A) (A) (A) (A) (A) (A) (A) (A) (A)
                 (A) (A) (A) (A) (A) (A) (A) (A) (A) (A) (A) (A)
                 (A) (A) (A) (A) (A) (A) (A) (A) (A) (A) (A) (A)
                 (A) (A) (A) (A) (A) (A) (A) (A) (A) (A) (A) (A)
                 (A) (A) (A) (A) (A) (A) (A) (A) (A) (A) (A) (A)
                 (A) (A) (A) (A) (A) (A) (A) (A) (A) (A) (A) (A)
                 (A) (A) (A) (A) (A) (A) (A) (A) (A) (A) (A) (A)
                 (A) (A) (A) (A) (A) (A) (A) (A) (A) (A) (A) (A)
                 (A) (A) (A) (A) (A) (A) (A) (A) (A) (A) (A) (A)
                 (A) (A) (A) (A) (A) (A) (A) (A) (A) (A) (A) (A)
                 (A) (A) (A) (A) (A) (A) (A) (A) (A) (A) (A) (A)
                 (A) (A) (A) (A) (A) (A) (A) (A) (A) (A) (A) (A)
                 (A) (A) (A) (A) (A) (A) (A) (A) (A) (A) (A) (A)
                 (A) (A) (A) (A) (A) (A) (A) (A) (A) (A) (A) (A)
                 (A) (A) (A) (A) (A) (A) (A) (A) (A) (A) (A) (A)
                 (A) (A) (A) (A) (A) (A) (A) (A) (A) (A) (A) (A)
                 (A) (A) (A) (A) (A) (A) (A) (A) (A) (A) (A) (A)
                 (A) (A) (A) (A) (A) (A) (A) (A) (A) (A) (A) (A)
                 (A) (A) (A) (A) (A) (A) (A) (A) (A) (A) (A) (A)
                 (A) (A) (A) (A) (A) (A) (A) (A) (A) (A) (A) (A)
                 (A) (A) (A) (A) (A) (A) (A) (A) (A) (A) (A) (A)
                 (A) (A) (A) (A) (A) (A) (A) (A) (A) (A) (A) (A)
                 (A) (A) (A) (A) (A) (A) (A) (A) (A) (A) (A) (A)
                 (A) (A) (A) (A) (A) (A) (A) (A) (A) (A) (A) (A)
                 (A) (A) (A) (A) (A) (A) (A) (A) (A) (A) (A) (A)
                 (A) (A) (A) (A) (A) (A) (A) (A) (A) (A) (A) (A)
                 (A) (A) (A) (A) (A) (A) (A) (A) (A) (A) (A) (A)
                 (A) (A) (A) (A) (A) (A) (A) (A) (A) (A)
     8 initial guesses have been made.
 Convergence on wavefunction:    0.001000000000000
 Iteration     1 Dimension     8 NMult     0 NNew      8
 CISAX will form     8 AO SS matrices at one time.
 Iteration     2 Dimension    12 NMult     8 NNew      4
 Iteration     3 Dimension    16 NMult    12 NNew      4
 Iteration     4 Dimension    20 NMult    16 NNew      4
 Iteration     5 Dimension    24 NMult    20 NNew      4
 Iteration     6 Dimension    28 NMult    24 NNew      4
 Iteration     7 Dimension    32 NMult    28 NNew      4
 ***********************************************************************
 Excited states from <AA,BB:AA,BB> singles matrix:
 ***********************************************************************
 
 Ground to excited state transition densities written to RWF  633
 Ground to excited state transition electric dipole moments (Au):
       state          X           Y           Z        Dip. S.      Osc.
         1         0.8963      1.3216      1.5194      4.8585      0.2377
 Ground to excited state transition velocity dipole moments (Au):
       state          X           Y           Z        Dip. S.      Osc.
         1        -0.0635     -0.0942     -0.1081      0.0246      0.2232
 Ground to excited state transition magnetic dipole moments (Au):
       state          X           Y           Z
         1        -0.7224     -1.3618      1.6762
 Ground to excited state transition velocity quadrupole moments (Au):
       state          XX          YY          ZZ          XY          XZ          YZ
         1         1.3922     -0.1638     -0.2273      0.7694      1.0882     -0.3427
 <0|del|b> * <b|rxdel|0> + <0|del|b> * <b|delr+rdel|0>
 Rotatory Strengths (R) in cgs (10**-40 erg-esu-cm/Gauss)
       state          XX          YY          ZZ    R(velocity)    E-M Angle
         1      -161.9198   -146.1999    240.2368    -22.6276       91.13
 1/2[<0|r|b>*<b|rxdel|0> + (<0|rxdel|b>*<b|r|0>)*]
 Rotatory Strengths (R) in cgs (10**-40 erg-esu-cm/Gauss)
       state          XX          YY          ZZ     R(length)
         1       457.8573   1272.7042  -1800.9767    -23.4718
  1/2[<0|del|b>*<b|r|0> + (<0|r|b>*<b|del|0>)*] (Au)
       state          X           Y           Z        Dip. S.   Osc.(frdel)
         1        -0.0569     -0.1244     -0.1642      0.3456      0.2304

 Excitation energies and oscillator strengths:
 
 Excited State   1:      Singlet-A      1.9974 eV  620.74 nm  f=0.2377  <S**2>=0.000
     243 -> 246        0.24188
     244 -> 245        0.65904
 This state for optimization and/or second-order correction.
 Total Energy, E(TD-HF/TD-KS) =  -3043.35571032    
 Copying the excited state density for this state as the 1-particle RhoCI density.
 SavETr:  write IOETrn=   770 NScale= 10 NData=  16 NLR=1 NState=    1 LETran=      28.

 **********************************************************************

            Population analysis using the SCF density.

 **********************************************************************

 Orbital symmetries:
       Occupied  (A) (A) (A) (A) (A) (A) (A) (A) (A) (A) (A) (A)
                 (A) (A) (A) (A) (A) (A) (A) (A) (A) (A) (A) (A)
                 (A) (A) (A) (A) (A) (A) (A) (A) (A) (A) (A) (A)
                 (A) (A) (A) (A) (A) (A) (A) (A) (A) (A) (A) (A)
                 (A) (A) (A) (A) (A) (A) (A) (A) (A) (A) (A) (A)
                 (A) (A) (A) (A) (A) (A) (A) (A) (A) (A) (A) (A)
                 (A) (A) (A) (A) (A) (A) (A) (A) (A) (A) (A) (A)
                 (A) (A) (A) (A) (A) (A) (A) (A) (A) (A) (A) (A)
                 (A) (A) (A) (A) (A) (A) (A) (A) (A) (A) (A) (A)
                 (A) (A) (A) (A) (A) (A) (A) (A) (A) (A) (A) (A)
                 (A) (A) (A) (A) (A) (A) (A) (A) (A) (A) (A) (A)
                 (A) (A) (A) (A) (A) (A) (A) (A) (A) (A) (A) (A)
                 (A) (A) (A) (A) (A) (A) (A) (A) (A) (A) (A) (A)
                 (A) (A) (A) (A) (A) (A) (A) (A) (A) (A) (A) (A)
                 (A) (A) (A) (A) (A) (A) (A) (A) (A) (A) (A) (A)
                 (A) (A) (A) (A) (A) (A) (A) (A) (A) (A) (A) (A)
                 (A) (A) (A) (A) (A) (A) (A) (A) (A) (A) (A) (A)
                 (A) (A) (A) (A) (A) (A) (A) (A) (A) (A) (A) (A)
                 (A) (A) (A) (A) (A) (A) (A) (A) (A) (A) (A) (A)
                 (A) (A) (A) (A) (A) (A) (A) (A) (A) (A) (A) (A)
                 (A) (A) (A) (A)
       Virtual   (A) (A) (A) (A) (A) (A) (A) (A) (A) (A) (A) (A)
                 (A) (A) (A) (A) (A) (A) (A) (A) (A) (A) (A) (A)
                 (A) (A) (A) (A) (A) (A) (A) (A) (A) (A) (A) (A)
                 (A) (A) (A) (A) (A) (A) (A) (A) (A) (A) (A) (A)
                 (A) (A) (A) (A) (A) (A) (A) (A) (A) (A) (A) (A)
                 (A) (A) (A) (A) (A) (A) (A) (A) (A) (A) (A) (A)
                 (A) (A) (A) (A) (A) (A) (A) (A) (A) (A) (A) (A)
                 (A) (A) (A) (A) (A) (A) (A) (A) (A) (A) (A) (A)
                 (A) (A) (A) (A) (A) (A) (A) (A) (A) (A) (A) (A)
                 (A) (A) (A) (A) (A) (A) (A) (A) (A) (A) (A) (A)
                 (A) (A) (A) (A) (A) (A) (A) (A) (A) (A) (A) (A)
                 (A) (A) (A) (A) (A) (A) (A) (A) (A) (A) (A) (A)
                 (A) (A) (A) (A) (A) (A) (A) (A) (A) (A) (A) (A)
                 (A) (A) (A) (A) (A) (A) (A) (A) (A) (A) (A) (A)
                 (A) (A) (A) (A) (A) (A) (A) (A) (A) (A) (A) (A)
                 (A) (A) (A) (A) (A) (A) (A) (A) (A) (A) (A) (A)
                 (A) (A) (A) (A) (A) (A) (A) (A) (A) (A) (A) (A)
                 (A) (A) (A) (A) (A) (A) (A) (A) (A) (A) (A) (A)
                 (A) (A) (A) (A) (A) (A) (A) (A) (A) (A) (A) (A)
                 (A) (A) (A) (A) (A) (A) (A) (A) (A) (A) (A) (A)
                 (A) (A) (A) (A) (A) (A) (A) (A) (A) (A) (A) (A)
                 (A) (A) (A) (A) (A) (A) (A) (A) (A) (A) (A) (A)
                 (A) (A) (A) (A) (A) (A) (A) (A) (A) (A) (A) (A)
                 (A) (A) (A) (A) (A) (A) (A) (A) (A) (A) (A) (A)
                 (A) (A) (A) (A) (A) (A) (A) (A) (A) (A) (A) (A)
                 (A) (A) (A) (A) (A) (A) (A) (A) (A) (A) (A) (A)
                 (A) (A) (A) (A) (A) (A) (A) (A) (A) (A) (A) (A)
                 (A) (A) (A) (A) (A) (A) (A) (A) (A) (A) (A) (A)
                 (A) (A) (A) (A) (A) (A) (A) (A) (A) (A) (A) (A)
                 (A) (A) (A) (A) (A) (A) (A) (A) (A) (A) (A) (A)
                 (A) (A) (A) (A) (A) (A) (A) (A) (A) (A) (A) (A)
                 (A) (A) (A) (A) (A) (A) (A) (A) (A) (A) (A) (A)
                 (A) (A) (A) (A) (A) (A) (A) (A) (A) (A) (A) (A)
                 (A) (A) (A) (A) (A) (A) (A) (A) (A) (A) (A) (A)
                 (A) (A) (A) (A) (A) (A) (A) (A) (A) (A) (A) (A)
                 (A) (A) (A) (A) (A) (A) (A) (A) (A) (A) (A) (A)
                 (A) (A) (A) (A) (A) (A) (A) (A) (A) (A) (A) (A)
                 (A) (A) (A) (A) (A) (A) (A) (A) (A) (A) (A) (A)
                 (A) (A) (A) (A) (A) (A) (A) (A) (A) (A) (A) (A)
                 (A) (A) (A) (A) (A) (A) (A) (A) (A) (A) (A) (A)
                 (A) (A) (A) (A) (A) (A) (A) (A) (A) (A) (A) (A)
                 (A) (A) (A) (A) (A) (A) (A) (A) (A) (A) (A) (A)
                 (A) (A) (A) (A) (A) (A) (A) (A) (A) (A) (A) (A)
                 (A) (A) (A) (A) (A) (A) (A) (A) (A) (A) (A) (A)
                 (A) (A) (A) (A) (A) (A) (A) (A) (A) (A) (A) (A)
                 (A) (A) (A) (A) (A) (A) (A) (A) (A) (A) (A) (A)
                 (A) (A) (A) (A) (A) (A) (A) (A) (A) (A) (A) (A)
                 (A) (A) (A) (A) (A) (A) (A) (A) (A) (A) (A) (A)
                 (A) (A) (A) (A) (A) (A) (A) (A) (A) (A) (A) (A)
                 (A) (A) (A) (A) (A) (A) (A) (A) (A) (A) (A) (A)
                 (A) (A) (A) (A) (A) (A) (A) (A) (A) (A) (A) (A)
                 (A) (A) (A) (A) (A) (A) (A) (A) (A) (A) (A) (A)
                 (A) (A) (A) (A) (A) (A) (A) (A) (A) (A) (A) (A)
                 (A) (A) (A) (A) (A) (A) (A) (A) (A) (A) (A) (A)
                 (A) (A) (A) (A) (A) (A) (A) (A) (A) (A) (A) (A)
                 (A) (A) (A) (A) (A) (A) (A) (A) (A) (A) (A) (A)
                 (A) (A) (A) (A) (A) (A) (A) (A) (A) (A) (A) (A)
                 (A) (A) (A) (A) (A) (A) (A) (A) (A) (A) (A) (A)
                 (A) (A) (A) (A) (A) (A) (A) (A) (A) (A) (A) (A)
                 (A) (A) (A) (A) (A) (A) (A) (A) (A) (A) (A) (A)
                 (A) (A) (A) (A) (A) (A) (A) (A) (A) (A) (A) (A)
                 (A) (A) (A) (A) (A) (A) (A) (A) (A) (A) (A) (A)
                 (A) (A) (A) (A) (A) (A) (A) (A) (A) (A) (A) (A)
                 (A) (A) (A) (A) (A) (A) (A) (A) (A) (A) (A) (A)
                 (A) (A) (A) (A) (A) (A) (A) (A) (A) (A) (A) (A)
                 (A) (A) (A) (A) (A) (A) (A) (A) (A) (A) (A) (A)
                 (A) (A) (A) (A) (A) (A) (A) (A) (A) (A) (A) (A)
                 (A) (A) (A) (A) (A) (A) (A) (A) (A) (A) (A) (A)
                 (A) (A) (A) (A) (A) (A) (A) (A) (A) (A) (A) (A)
                 (A) (A) (A) (A) (A) (A) (A) (A) (A) (A) (A) (A)
                 (A) (A) (A) (A) (A) (A) (A) (A) (A) (A) (A) (A)
                 (A) (A) (A) (A) (A) (A) (A) (A) (A) (A) (A) (A)
                 (A) (A) (A) (A) (A) (A) (A) (A) (A) (A) (A) (A)
                 (A) (A) (A) (A) (A) (A) (A) (A) (A) (A) (A) (A)
                 (A) (A) (A) (A) (A) (A) (A) (A) (A) (A) (A) (A)
                 (A) (A) (A) (A) (A) (A) (A) (A) (A) (A) (A) (A)
                 (A) (A) (A) (A) (A) (A) (A) (A) (A) (A) (A) (A)
                 (A) (A) (A) (A) (A) (A) (A) (A) (A) (A) (A) (A)
                 (A) (A) (A) (A) (A) (A) (A) (A) (A) (A) (A) (A)
                 (A) (A) (A) (A) (A) (A) (A) (A) (A) (A) (A) (A)
                 (A) (A) (A) (A) (A) (A) (A) (A) (A) (A) (A) (A)
                 (A) (A) (A) (A) (A) (A) (A) (A) (A) (A) (A) (A)
                 (A) (A) (A) (A) (A) (A) (A) (A) (A) (A) (A) (A)
                 (A) (A) (A) (A) (A) (A) (A) (A) (A) (A) (A) (A)
                 (A) (A) (A) (A) (A) (A) (A) (A) (A) (A) (A) (A)
                 (A) (A) (A) (A) (A) (A) (A) (A) (A) (A) (A) (A)
                 (A) (A) (A) (A) (A) (A) (A) (A) (A) (A) (A) (A)
                 (A) (A) (A) (A) (A) (A) (A) (A) (A) (A) (A) (A)
                 (A) (A) (A) (A) (A) (A) (A) (A) (A) (A) (A) (A)
                 (A) (A) (A) (A) (A) (A) (A) (A) (A) (A) (A) (A)
                 (A) (A) (A) (A) (A) (A) (A) (A) (A) (A)
 The electronic state is 1-A.
 Alpha  occ. eigenvalues --  -46.81424 -19.24174 -19.23811 -19.18087 -19.17046
 Alpha  occ. eigenvalues --  -19.16976 -19.16561 -19.15821 -14.38732 -14.37520
 Alpha  occ. eigenvalues --  -14.37230 -14.36305 -10.35651 -10.34982 -10.31390
 Alpha  occ. eigenvalues --  -10.30996 -10.30140 -10.29553 -10.28549 -10.27310
 Alpha  occ. eigenvalues --  -10.27092 -10.26853 -10.26775 -10.26725 -10.26255
 Alpha  occ. eigenvalues --  -10.26211 -10.26047 -10.25979 -10.25230 -10.24879
 Alpha  occ. eigenvalues --  -10.24818 -10.24674 -10.24479 -10.24476 -10.24214
 Alpha  occ. eigenvalues --  -10.24066 -10.24027 -10.23836 -10.23615 -10.23479
 Alpha  occ. eigenvalues --  -10.23477 -10.23444 -10.23369 -10.23198 -10.23046
 Alpha  occ. eigenvalues --  -10.23042 -10.22831 -10.22762 -10.22675 -10.22233
 Alpha  occ. eigenvalues --  -10.22191 -10.21944 -10.21866 -10.21796 -10.21777
 Alpha  occ. eigenvalues --  -10.21762 -10.21716 -10.21154 -10.21037 -10.20681
 Alpha  occ. eigenvalues --  -10.20537 -10.20425 -10.19653 -10.19387 -10.18923
 Alpha  occ. eigenvalues --  -10.18863  -3.10077  -1.85003  -1.84535  -1.84508
 Alpha  occ. eigenvalues --   -1.16422  -1.13071  -1.09630  -1.07143  -1.04801
 Alpha  occ. eigenvalues --   -1.03606  -1.01917  -1.01629  -0.99319  -0.98787
 Alpha  occ. eigenvalues --   -0.97750  -0.87963  -0.86829  -0.86093  -0.85869
 Alpha  occ. eigenvalues --   -0.85490  -0.85256  -0.84344  -0.84043  -0.83552
 Alpha  occ. eigenvalues --   -0.83424  -0.83005  -0.82082  -0.80507  -0.80128
 Alpha  occ. eigenvalues --   -0.78463  -0.77929  -0.77479  -0.76743  -0.76473
 Alpha  occ. eigenvalues --   -0.75630  -0.75434  -0.74531  -0.72598  -0.72297
 Alpha  occ. eigenvalues --   -0.71982  -0.71099  -0.70503  -0.69886  -0.69649
 Alpha  occ. eigenvalues --   -0.69328  -0.69072  -0.67830  -0.67415  -0.66737
 Alpha  occ. eigenvalues --   -0.65840  -0.65494  -0.63674  -0.63614  -0.62724
 Alpha  occ. eigenvalues --   -0.62484  -0.60714  -0.60559  -0.60476  -0.60214
 Alpha  occ. eigenvalues --   -0.59055  -0.58058  -0.57464  -0.57315  -0.56853
 Alpha  occ. eigenvalues --   -0.56616  -0.55665  -0.55050  -0.54561  -0.54460
 Alpha  occ. eigenvalues --   -0.53429  -0.53099  -0.52761  -0.52555  -0.52229
 Alpha  occ. eigenvalues --   -0.52031  -0.51944  -0.51193  -0.50922  -0.50364
 Alpha  occ. eigenvalues --   -0.50119  -0.49875  -0.49592  -0.49394  -0.49207
 Alpha  occ. eigenvalues --   -0.48781  -0.48465  -0.48407  -0.48142  -0.47885
 Alpha  occ. eigenvalues --   -0.47845  -0.47550  -0.47104  -0.46938  -0.46808
 Alpha  occ. eigenvalues --   -0.46721  -0.46534  -0.46416  -0.46244  -0.45978
 Alpha  occ. eigenvalues --   -0.45579  -0.45451  -0.45141  -0.44949  -0.44711
 Alpha  occ. eigenvalues --   -0.44587  -0.44556  -0.44183  -0.44053  -0.43985
 Alpha  occ. eigenvalues --   -0.43790  -0.43640  -0.43254  -0.43081  -0.43032
 Alpha  occ. eigenvalues --   -0.42748  -0.42596  -0.42436  -0.42267  -0.41981
 Alpha  occ. eigenvalues --   -0.41754  -0.41679  -0.41408  -0.41168  -0.41002
 Alpha  occ. eigenvalues --   -0.40933  -0.40505  -0.40413  -0.40196  -0.40003
 Alpha  occ. eigenvalues --   -0.39737  -0.39726  -0.39537  -0.39461  -0.39392
 Alpha  occ. eigenvalues --   -0.39055  -0.38796  -0.38631  -0.38311  -0.38292
 Alpha  occ. eigenvalues --   -0.37975  -0.37827  -0.37518  -0.37349  -0.37066
 Alpha  occ. eigenvalues --   -0.36863  -0.36503  -0.36253  -0.35931  -0.35819
 Alpha  occ. eigenvalues --   -0.35398  -0.35099  -0.35088  -0.35015  -0.34857
 Alpha  occ. eigenvalues --   -0.34612  -0.34385  -0.33688  -0.33671  -0.33168
 Alpha  occ. eigenvalues --   -0.33126  -0.32925  -0.32015  -0.31608  -0.31338
 Alpha  occ. eigenvalues --   -0.30905  -0.30830  -0.30522  -0.30407  -0.29727
 Alpha  occ. eigenvalues --   -0.28714  -0.28122  -0.27925  -0.27895  -0.27809
 Alpha  occ. eigenvalues --   -0.27508  -0.26894  -0.23109  -0.20960
 Alpha virt. eigenvalues --   -0.08341  -0.05767  -0.02252  -0.01061   0.00508
 Alpha virt. eigenvalues --    0.02590   0.02781   0.03641   0.04346   0.05136
 Alpha virt. eigenvalues --    0.05311   0.06220   0.08219   0.08460   0.09493
 Alpha virt. eigenvalues --    0.09516   0.09689   0.09795   0.10563   0.10871
 Alpha virt. eigenvalues --    0.11037   0.11275   0.11465   0.11629   0.11764
 Alpha virt. eigenvalues --    0.11773   0.12008   0.12065   0.12176   0.12205
 Alpha virt. eigenvalues --    0.12550   0.13506   0.13650   0.13707   0.13837
 Alpha virt. eigenvalues --    0.13915   0.13959   0.14029   0.14306   0.14458
 Alpha virt. eigenvalues --    0.14629   0.15118   0.15315   0.15483   0.15815
 Alpha virt. eigenvalues --    0.15871   0.15947   0.16209   0.16600   0.16735
 Alpha virt. eigenvalues --    0.16814   0.17040   0.17241   0.17263   0.17580
 Alpha virt. eigenvalues --    0.17610   0.17877   0.17889   0.18449   0.18772
 Alpha virt. eigenvalues --    0.18865   0.18937   0.19047   0.19274   0.19406
 Alpha virt. eigenvalues --    0.19485   0.19538   0.19650   0.20020   0.20108
 Alpha virt. eigenvalues --    0.20337   0.20436   0.20589   0.20702   0.20843
 Alpha virt. eigenvalues --    0.20917   0.21184   0.21450   0.21626   0.21701
 Alpha virt. eigenvalues --    0.22053   0.22208   0.22300   0.22481   0.22504
 Alpha virt. eigenvalues --    0.22739   0.22829   0.23128   0.23269   0.23439
 Alpha virt. eigenvalues --    0.23777   0.23998   0.24239   0.24380   0.24600
 Alpha virt. eigenvalues --    0.24827   0.25174   0.25231   0.25584   0.25650
 Alpha virt. eigenvalues --    0.25783   0.25987   0.26314   0.26521   0.26847
 Alpha virt. eigenvalues --    0.27376   0.27458   0.27634   0.28016   0.28412
 Alpha virt. eigenvalues --    0.28598   0.28764   0.28908   0.29264   0.29385
 Alpha virt. eigenvalues --    0.29519   0.29938   0.30087   0.30550   0.30668
 Alpha virt. eigenvalues --    0.30851   0.30943   0.31360   0.31914   0.32005
 Alpha virt. eigenvalues --    0.32493   0.32752   0.32944   0.33733   0.34058
 Alpha virt. eigenvalues --    0.34092   0.34802   0.35041   0.35181   0.35750
 Alpha virt. eigenvalues --    0.35784   0.36445   0.37055   0.37249   0.38235
 Alpha virt. eigenvalues --    0.38954   0.39375   0.39548   0.40252   0.40866
 Alpha virt. eigenvalues --    0.41642   0.42116   0.42323   0.43195   0.44419
 Alpha virt. eigenvalues --    0.45054   0.45250   0.45826   0.45960   0.46876
 Alpha virt. eigenvalues --    0.47234   0.47766   0.48113   0.48586   0.49478
 Alpha virt. eigenvalues --    0.50083   0.50398   0.50573   0.50922   0.51327
 Alpha virt. eigenvalues --    0.51765   0.51877   0.52205   0.52446   0.52813
 Alpha virt. eigenvalues --    0.52913   0.52999   0.53469   0.53643   0.54035
 Alpha virt. eigenvalues --    0.54115   0.54304   0.54390   0.54594   0.54801
 Alpha virt. eigenvalues --    0.55018   0.55180   0.55548   0.55715   0.55844
 Alpha virt. eigenvalues --    0.56086   0.56461   0.56612   0.56900   0.57202
 Alpha virt. eigenvalues --    0.57665   0.57852   0.58149   0.58392   0.58613
 Alpha virt. eigenvalues --    0.58748   0.58825   0.59057   0.59223   0.59447
 Alpha virt. eigenvalues --    0.59603   0.60083   0.60379   0.60638   0.61036
 Alpha virt. eigenvalues --    0.61120   0.61256   0.61361   0.61728   0.62084
 Alpha virt. eigenvalues --    0.62191   0.62714   0.62949   0.63099   0.63238
 Alpha virt. eigenvalues --    0.63554   0.63708   0.64203   0.64319   0.64785
 Alpha virt. eigenvalues --    0.65275   0.65458   0.65629   0.66059   0.66327
 Alpha virt. eigenvalues --    0.66584   0.66666   0.66733   0.66895   0.67269
 Alpha virt. eigenvalues --    0.67439   0.67754   0.67997   0.68146   0.68467
 Alpha virt. eigenvalues --    0.68725   0.68932   0.69139   0.69361   0.69736
 Alpha virt. eigenvalues --    0.69991   0.70471   0.70584   0.70664   0.71015
 Alpha virt. eigenvalues --    0.71257   0.71889   0.71981   0.72244   0.72451
 Alpha virt. eigenvalues --    0.72642   0.72814   0.73382   0.73475   0.73765
 Alpha virt. eigenvalues --    0.74288   0.74438   0.74652   0.74797   0.74920
 Alpha virt. eigenvalues --    0.75009   0.75499   0.75655   0.75885   0.76143
 Alpha virt. eigenvalues --    0.76771   0.76950   0.77041   0.77379   0.77747
 Alpha virt. eigenvalues --    0.77935   0.78231   0.78482   0.78674   0.78777
 Alpha virt. eigenvalues --    0.79104   0.79458   0.79541   0.79706   0.79861
 Alpha virt. eigenvalues --    0.80162   0.80343   0.80567   0.80787   0.81393
 Alpha virt. eigenvalues --    0.81549   0.81667   0.81908   0.82371   0.82671
 Alpha virt. eigenvalues --    0.82773   0.83041   0.83138   0.83475   0.83638
 Alpha virt. eigenvalues --    0.83907   0.84257   0.84387   0.84575   0.84708
 Alpha virt. eigenvalues --    0.85164   0.85301   0.85490   0.85677   0.85765
 Alpha virt. eigenvalues --    0.86106   0.86230   0.86863   0.86955   0.87002
 Alpha virt. eigenvalues --    0.87207   0.87426   0.87597   0.87720   0.87915
 Alpha virt. eigenvalues --    0.87955   0.88335   0.88360   0.88557   0.88799
 Alpha virt. eigenvalues --    0.88935   0.89407   0.89462   0.89613   0.90038
 Alpha virt. eigenvalues --    0.90286   0.90618   0.90816   0.90856   0.91489
 Alpha virt. eigenvalues --    0.91529   0.91657   0.91723   0.91929   0.92027
 Alpha virt. eigenvalues --    0.92249   0.92389   0.92459   0.92669   0.92717
 Alpha virt. eigenvalues --    0.93314   0.93650   0.93902   0.94262   0.94293
 Alpha virt. eigenvalues --    0.94608   0.94690   0.94946   0.94991   0.95312
 Alpha virt. eigenvalues --    0.95736   0.95758   0.96063   0.96281   0.96476
 Alpha virt. eigenvalues --    0.96590   0.96655   0.97045   0.97313   0.97410
 Alpha virt. eigenvalues --    0.97591   0.97734   0.97942   0.98529   0.98996
 Alpha virt. eigenvalues --    0.99114   0.99208   0.99313   0.99432   0.99665
 Alpha virt. eigenvalues --    0.99827   1.00088   1.00362   1.00715   1.01001
 Alpha virt. eigenvalues --    1.01276   1.02006   1.02110   1.02314   1.02359
 Alpha virt. eigenvalues --    1.02627   1.02767   1.02877   1.03173   1.03574
 Alpha virt. eigenvalues --    1.03703   1.04220   1.04263   1.04975   1.05227
 Alpha virt. eigenvalues --    1.05644   1.05858   1.05873   1.06425   1.07136
 Alpha virt. eigenvalues --    1.07501   1.07634   1.07853   1.07906   1.08382
 Alpha virt. eigenvalues --    1.08793   1.09047   1.09695   1.10231   1.11323
 Alpha virt. eigenvalues --    1.11642   1.11794   1.12655   1.12809   1.13183
 Alpha virt. eigenvalues --    1.13571   1.13919   1.14363   1.15276   1.15495
 Alpha virt. eigenvalues --    1.15665   1.16255   1.16486   1.17141   1.18013
 Alpha virt. eigenvalues --    1.18996   1.19843   1.20108   1.20266   1.20410
 Alpha virt. eigenvalues --    1.20506   1.21765   1.22022   1.22523   1.23391
 Alpha virt. eigenvalues --    1.23668   1.24110   1.24724   1.25318   1.26355
 Alpha virt. eigenvalues --    1.27106   1.27312   1.27888   1.28210   1.28294
 Alpha virt. eigenvalues --    1.28921   1.29265   1.29624   1.29891   1.30109
 Alpha virt. eigenvalues --    1.30460   1.31104   1.31698   1.31805   1.32748
 Alpha virt. eigenvalues --    1.33220   1.33916   1.34169   1.34658   1.35125
 Alpha virt. eigenvalues --    1.35500   1.36252   1.36670   1.37178   1.37753
 Alpha virt. eigenvalues --    1.37953   1.38167   1.39531   1.39659   1.39933
 Alpha virt. eigenvalues --    1.40592   1.40820   1.41291   1.41708   1.42116
 Alpha virt. eigenvalues --    1.42600   1.43761   1.43979   1.44661   1.44755
 Alpha virt. eigenvalues --    1.45046   1.45508   1.45875   1.46232   1.47213
 Alpha virt. eigenvalues --    1.47965   1.48327   1.48390   1.48841   1.49461
 Alpha virt. eigenvalues --    1.49758   1.49988   1.50204   1.51293   1.51475
 Alpha virt. eigenvalues --    1.51842   1.52515   1.52894   1.53366   1.53474
 Alpha virt. eigenvalues --    1.53641   1.53786   1.54496   1.54808   1.55596
 Alpha virt. eigenvalues --    1.56206   1.56324   1.56671   1.56826   1.57636
 Alpha virt. eigenvalues --    1.58063   1.58363   1.58896   1.59699   1.59781
 Alpha virt. eigenvalues --    1.60202   1.60344   1.60913   1.61479   1.61662
 Alpha virt. eigenvalues --    1.61875   1.62089   1.62298   1.62894   1.63443
 Alpha virt. eigenvalues --    1.63543   1.63653   1.64920   1.65018   1.65265
 Alpha virt. eigenvalues --    1.65512   1.66515   1.66778   1.67074   1.67386
 Alpha virt. eigenvalues --    1.68048   1.68574   1.68667   1.69135   1.69352
 Alpha virt. eigenvalues --    1.69537   1.70061   1.70765   1.71426   1.71591
 Alpha virt. eigenvalues --    1.72086   1.72629   1.72863   1.73204   1.73802
 Alpha virt. eigenvalues --    1.74128   1.74456   1.74556   1.74870   1.75186
 Alpha virt. eigenvalues --    1.75732   1.76260   1.76560   1.76927   1.77528
 Alpha virt. eigenvalues --    1.77994   1.78533   1.78927   1.79054   1.79254
 Alpha virt. eigenvalues --    1.79720   1.80309   1.80524   1.80819   1.81036
 Alpha virt. eigenvalues --    1.81081   1.81937   1.81987   1.82530   1.82701
 Alpha virt. eigenvalues --    1.82842   1.82970   1.83523   1.83710   1.84177
 Alpha virt. eigenvalues --    1.84302   1.84801   1.85129   1.85193   1.85344
 Alpha virt. eigenvalues --    1.85624   1.85863   1.86123   1.86323   1.86375
 Alpha virt. eigenvalues --    1.86560   1.87008   1.87052   1.87344   1.87607
 Alpha virt. eigenvalues --    1.88111   1.88256   1.88376   1.88755   1.88885
 Alpha virt. eigenvalues --    1.89529   1.89686   1.89719   1.90431   1.90505
 Alpha virt. eigenvalues --    1.90829   1.90945   1.91219   1.91381   1.91645
 Alpha virt. eigenvalues --    1.91904   1.92017   1.92329   1.92786   1.92970
 Alpha virt. eigenvalues --    1.93399   1.93535   1.93941   1.94061   1.94380
 Alpha virt. eigenvalues --    1.94929   1.95293   1.95585   1.95771   1.96314
 Alpha virt. eigenvalues --    1.96785   1.96814   1.97060   1.97174   1.97801
 Alpha virt. eigenvalues --    1.98256   1.98589   1.98778   1.99297   1.99343
 Alpha virt. eigenvalues --    1.99682   1.99762   2.00295   2.00427   2.00689
 Alpha virt. eigenvalues --    2.00808   2.00970   2.01328   2.01571   2.01778
 Alpha virt. eigenvalues --    2.01838   2.02171   2.03014   2.03034   2.03263
 Alpha virt. eigenvalues --    2.03373   2.03689   2.03954   2.04335   2.04414
 Alpha virt. eigenvalues --    2.04775   2.05151   2.05884   2.06317   2.06405
 Alpha virt. eigenvalues --    2.06694   2.06863   2.07138   2.07496   2.07513
 Alpha virt. eigenvalues --    2.07643   2.07959   2.08122   2.08304   2.08430
 Alpha virt. eigenvalues --    2.08662   2.09103   2.09264   2.09657   2.10191
 Alpha virt. eigenvalues --    2.10400   2.10705   2.11004   2.11097   2.11335
 Alpha virt. eigenvalues --    2.11433   2.11959   2.12203   2.12334   2.12440
 Alpha virt. eigenvalues --    2.12974   2.13090   2.13418   2.13950   2.14277
 Alpha virt. eigenvalues --    2.14772   2.14816   2.15292   2.15481   2.16271
 Alpha virt. eigenvalues --    2.16544   2.17227   2.17326   2.17982   2.18233
 Alpha virt. eigenvalues --    2.18599   2.18821   2.19364   2.20109   2.20505
 Alpha virt. eigenvalues --    2.20671   2.21379   2.22059   2.22156   2.22515
 Alpha virt. eigenvalues --    2.22540   2.22837   2.23759   2.24146   2.24461
 Alpha virt. eigenvalues --    2.24675   2.25097   2.25249   2.25515   2.26008
 Alpha virt. eigenvalues --    2.26245   2.26607   2.26936   2.27323   2.27549
 Alpha virt. eigenvalues --    2.28115   2.28643   2.28977   2.29184   2.29375
 Alpha virt. eigenvalues --    2.29555   2.29703   2.30078   2.30468   2.30833
 Alpha virt. eigenvalues --    2.30996   2.31054   2.31428   2.31889   2.32034
 Alpha virt. eigenvalues --    2.32416   2.32640   2.33021   2.33681   2.34010
 Alpha virt. eigenvalues --    2.34211   2.34588   2.34627   2.35219   2.35432
 Alpha virt. eigenvalues --    2.35707   2.35897   2.35973   2.36428   2.37010
 Alpha virt. eigenvalues --    2.37234   2.37591   2.38061   2.38117   2.38622
 Alpha virt. eigenvalues --    2.39161   2.39321   2.39779   2.40180   2.40411
 Alpha virt. eigenvalues --    2.40670   2.41310   2.41704   2.41732   2.42419
 Alpha virt. eigenvalues --    2.42958   2.43082   2.43846   2.43875   2.44025
 Alpha virt. eigenvalues --    2.44158   2.44746   2.44941   2.45192   2.45464
 Alpha virt. eigenvalues --    2.45773   2.45878   2.46123   2.46771   2.46876
 Alpha virt. eigenvalues --    2.46969   2.47796   2.48053   2.48110   2.48420
 Alpha virt. eigenvalues --    2.48817   2.49289   2.49838   2.50110   2.50200
 Alpha virt. eigenvalues --    2.50631   2.50827   2.51551   2.52028   2.52546
 Alpha virt. eigenvalues --    2.53220   2.53830   2.54012   2.54511   2.54945
 Alpha virt. eigenvalues --    2.55285   2.56114   2.56247   2.56650   2.56861
 Alpha virt. eigenvalues --    2.57370   2.57715   2.57846   2.58439   2.58623
 Alpha virt. eigenvalues --    2.59103   2.59271   2.59719   2.60036   2.60354
 Alpha virt. eigenvalues --    2.60473   2.60834   2.61179   2.61583   2.61686
 Alpha virt. eigenvalues --    2.61801   2.62178   2.62492   2.62651   2.63186
 Alpha virt. eigenvalues --    2.63434   2.64212   2.64408   2.64675   2.65218
 Alpha virt. eigenvalues --    2.65521   2.65776   2.65893   2.66202   2.66509
 Alpha virt. eigenvalues --    2.66811   2.67069   2.67601   2.67836   2.68533
 Alpha virt. eigenvalues --    2.68614   2.68875   2.69181   2.69796   2.69952
 Alpha virt. eigenvalues --    2.70350   2.70821   2.71037   2.71194   2.71666
 Alpha virt. eigenvalues --    2.72584   2.72645   2.73313   2.73346   2.73730
 Alpha virt. eigenvalues --    2.74243   2.74316   2.74521   2.74641   2.74753
 Alpha virt. eigenvalues --    2.75127   2.75415   2.76272   2.76773   2.77061
 Alpha virt. eigenvalues --    2.77102   2.77459   2.78137   2.78500   2.78693
 Alpha virt. eigenvalues --    2.78916   2.79306   2.79700   2.80352   2.80518
 Alpha virt. eigenvalues --    2.80833   2.81000   2.81195   2.81711   2.82154
 Alpha virt. eigenvalues --    2.82490   2.82844   2.82927   2.83355   2.83854
 Alpha virt. eigenvalues --    2.83946   2.84263   2.84418   2.84923   2.85725
 Alpha virt. eigenvalues --    2.86153   2.86575   2.87073   2.87277   2.87356
 Alpha virt. eigenvalues --    2.87717   2.88290   2.88381   2.88872   2.89475
 Alpha virt. eigenvalues --    2.90021   2.90076   2.90500   2.91223   2.91356
 Alpha virt. eigenvalues --    2.91514   2.91872   2.92062   2.92137   2.92240
 Alpha virt. eigenvalues --    2.92612   2.92943   2.93458   2.93488   2.94032
 Alpha virt. eigenvalues --    2.94374   2.94532   2.95692   2.96342   2.96475
 Alpha virt. eigenvalues --    2.97048   2.98107   2.99250   2.99471   2.99810
 Alpha virt. eigenvalues --    3.00683   3.01052   3.01317   3.02601   3.03092
 Alpha virt. eigenvalues --    3.03351   3.04191   3.04233   3.04420   3.05360
 Alpha virt. eigenvalues --    3.05864   3.06813   3.07089   3.07904   3.08694
 Alpha virt. eigenvalues --    3.09708   3.10404   3.10889   3.11144   3.11240
 Alpha virt. eigenvalues --    3.12300   3.13291   3.13748   3.14242   3.15259
 Alpha virt. eigenvalues --    3.16075   3.16623   3.18120   3.19300   3.19312
 Alpha virt. eigenvalues --    3.19400   3.19545   3.19890   3.21284   3.21645
 Alpha virt. eigenvalues --    3.21806   3.22568   3.23364   3.23873   3.26260
 Alpha virt. eigenvalues --    3.26306   3.27197   3.27488   3.28269   3.28663
 Alpha virt. eigenvalues --    3.28698   3.30596   3.30682   3.31820   3.31997
 Alpha virt. eigenvalues --    3.32726   3.33247   3.34399   3.34967   3.35833
 Alpha virt. eigenvalues --    3.36076   3.36289   3.37116   3.38115   3.38670
 Alpha virt. eigenvalues --    3.39277   3.42015   3.42623   3.43380   3.44398
 Alpha virt. eigenvalues --    3.44666   3.45452   3.46226   3.46382   3.47113
 Alpha virt. eigenvalues --    3.47489   3.47724   3.47789   3.48411   3.48963
 Alpha virt. eigenvalues --    3.49455   3.49531   3.51162   3.51840   3.52624
 Alpha virt. eigenvalues --    3.53112   3.55358   3.56458   3.57093   3.57138
 Alpha virt. eigenvalues --    3.57308   3.57514   3.58306   3.59412   3.59445
 Alpha virt. eigenvalues --    3.59560   3.59627   3.60088   3.62799   3.63274
 Alpha virt. eigenvalues --    3.64386   3.68357   3.70898   3.85203   3.92916
 Alpha virt. eigenvalues --    3.96777   4.00213   4.03659   4.05613   4.07422
 Alpha virt. eigenvalues --    4.12866   4.16430   4.17582   4.19017   4.20246
 Alpha virt. eigenvalues --    4.20727   4.21309   4.22706   4.24044   4.24331
 Alpha virt. eigenvalues --    4.26858   4.28835   4.29356   4.29599   4.32708
 Alpha virt. eigenvalues --    4.33076   4.34587   4.35306   4.36904   4.37456
 Alpha virt. eigenvalues --    4.39949   4.40804   4.41292   4.42580   4.43523
 Alpha virt. eigenvalues --    4.43877   4.45043   4.45253   4.46778   4.48045
 Alpha virt. eigenvalues --    4.49070   4.49569   4.49951   4.51260   4.51885
 Alpha virt. eigenvalues --    4.53383   4.55812   4.56066   4.56558   4.58496
 Alpha virt. eigenvalues --    4.60342   4.62686   4.63622   4.64587   4.65126
 Alpha virt. eigenvalues --    4.67048   4.67882   4.68340   4.69734   4.72986
 Alpha virt. eigenvalues --    4.75376   4.77198   4.78145   4.80569   4.81646
 Alpha virt. eigenvalues --    4.82092   4.83939   4.84920   4.90944   4.99321
          Condensed to atoms (all electrons):
 Mulliken charges:
               1
     1  Mg   0.828436
     2  C    0.083920
     3  C   -0.193008
     4  C   -0.190528
     5  C   -0.164507
     6  N   -0.639668
     7  C    0.327993
     8  C   -0.172791
     9  C   -0.174106
    10  C    0.369811
    11  C   -0.310499
    12  C   -0.170327
    13  C   -0.280852
    14  C    0.607870
    15  O   -0.485786
    16  O   -0.420297
    17  N   -0.720760
    18  C    0.300397
    19  C    0.005573
    20  C    0.033734
    21  C    0.299882
    22  C   -0.342702
    23  C    0.206743
    24  O   -0.462135
    25  N   -0.717346
    26  C    0.341784
    27  C   -0.093000
    28  C    0.079415
    29  C    0.321389
    30  C    0.248107
    31  C   -0.288551
    32  C   -0.306372
    33  N   -0.721249
    34  C    0.241500
    35  C    0.023700
    36  C    0.040085
    37  C    0.285197
    38  C   -0.379988
    39  C    0.342304
    40  O   -0.421440
    41  C   -0.325433
    42  C    0.595349
    43  O   -0.475761
    44  O   -0.428439
    45  C   -0.083793
    46  C    0.009336
    47  C   -0.158845
    48  C    0.150385
    49  C   -0.368265
    50  C   -0.226414
    51  C   -0.182967
    52  C   -0.148441
    53  C   -0.079281
    54  C   -0.302590
    55  C   -0.175341
    56  C   -0.188795
    57  C   -0.155896
    58  C   -0.059780
    59  C   -0.303504
    60  C   -0.151256
    61  C   -0.171987
    62  C   -0.152980
    63  C   -0.011650
    64  C   -0.281942
    65  C   -0.329498
    66  H    0.082397
    67  H    0.147581
    68  H    0.090202
    69  H    0.128877
    70  H    0.099896
    71  H    0.118500
    72  H    0.107735
    73  H    0.131241
    74  H    0.109880
    75  H    0.119860
    76  H    0.130717
    77  H    0.138994
    78  H    0.122946
    79  H    0.164334
    80  H    0.133674
    81  H    0.107755
    82  H    0.110803
    83  H    0.099743
    84  H    0.125264
    85  H    0.099486
    86  H    0.124544
    87  H    0.136394
    88  H    0.146102
    89  H    0.126083
    90  H    0.146925
    91  H    0.092776
    92  H    0.141473
    93  H    0.057260
    94  H    0.147474
    95  H    0.105714
    96  H    0.096626
    97  H    0.114926
    98  H    0.092250
    99  H    0.112909
   100  H    0.082848
   101  H    0.096983
   102  H    0.083387
   103  H    0.079987
   104  H    0.089789
   105  H    0.105242
   106  H    0.107986
   107  H    0.094522
   108  H    0.094942
   109  H    0.084031
   110  H    0.097477
   111  H    0.064359
   112  H    0.062807
   113  H    0.090676
   114  H    0.096855
   115  H    0.102363
   116  H    0.092336
   117  H    0.086581
   118  H    0.080039
   119  H    0.049352
   120  H    0.091867
   121  H    0.078841
   122  H    0.086792
   123  H    0.098680
   124  H    0.058544
   125  H    0.071540
   126  H    0.089465
   127  H    0.093200
   128  H    0.103330
   129  H    0.101983
   130  H    0.113273
   131  H    0.156101
   132  H    0.108937
   133  O   -0.406457
   134  H    0.075861
 Sum of Mulliken charges =   0.00000
 Mulliken charges with hydrogens summed into heavy atoms:
               1
     1  Mg   0.828436
     2  C    0.083920
     3  C   -0.110611
     4  C   -0.042947
     5  C   -0.074306
     6  N   -0.639668
     7  C    0.327993
     8  C   -0.043914
     9  C   -0.074210
    10  C    0.369811
    11  C    0.046976
    12  C    0.059412
    13  C   -0.011141
    14  C    0.607870
    15  O   -0.485786
    16  O   -0.420297
    17  N   -0.720760
    18  C    0.300397
    19  C    0.005573
    20  C    0.033734
    21  C    0.299882
    22  C    0.078252
    23  C    0.314498
    24  O   -0.462135
    25  N   -0.717346
    26  C    0.341784
    27  C   -0.093000
    28  C    0.079415
    29  C    0.321389
    30  C    0.323968
    31  C   -0.078005
    32  C    0.042922
    33  N   -0.721249
    34  C    0.241500
    35  C    0.023700
    36  C    0.040085
    37  C    0.285197
    38  C    0.028591
    39  C    0.342304
    40  O   -0.421440
    41  C   -0.178508
    42  C    0.595349
    43  O   -0.475761
    44  O   -0.428439
    45  C    0.294519
    46  C    0.243585
    47  C   -0.101585
    48  C    0.150385
    49  C   -0.018451
    50  C   -0.019238
    51  C    0.012789
    52  C    0.031930
    53  C    0.000706
    54  C    0.000428
    55  C    0.014123
    56  C   -0.007286
    57  C   -0.028730
    58  C    0.030896
    59  C   -0.011950
    60  C    0.015364
    61  C   -0.030767
    62  C    0.012653
    63  C    0.087030
    64  C   -0.062393
    65  C   -0.030985
   133  O   -0.406457
 Electronic spatial extent (au):  <R**2>=         148528.1626
 Charge=              0.0000 electrons
 Dipole moment (field-independent basis, Debye):
    X=              2.2961    Y=             -4.6210    Z=             -1.7952  Tot=              5.4634
 Quadrupole moment (field-independent basis, Debye-Ang):
   XX=           -387.2772   YY=           -440.0997   ZZ=           -394.2210
   XY=              9.7752   XZ=             32.3237   YZ=            -41.2822
 Traceless Quadrupole moment (field-independent basis, Debye-Ang):
   XX=             19.9221   YY=            -32.9004   ZZ=             12.9783
   XY=              9.7752   XZ=             32.3237   YZ=            -41.2822
 Octapole moment (field-independent basis, Debye-Ang**2):
  XXX=           -254.0732  YYY=           -578.4757  ZZZ=            -48.9672  XYY=            185.9596
  XXY=             38.0443  XXZ=           -270.8621  XZZ=           -115.4787  YZZ=            -55.4445
  YYZ=            -95.8888  XYZ=            238.5187
 Hexadecapole moment (field-independent basis, Debye-Ang**3):
 XXXX=        -162626.4393 YYYY=         -30936.7591 ZZZZ=          -9368.7600 XXXY=             -7.8363
 XXXZ=           3602.9073 YYYX=           2512.3338 YYYZ=          -1675.9821 ZZZX=            831.7523
 ZZZY=           -510.9633 XXYY=         -34260.3338 XXZZ=         -28835.6731 YYZZ=          -7218.5703
 XXYZ=          -1226.7297 YYXZ=            600.9066 ZZXY=           -325.9947
 N-N= 9.096336491610D+03 E-N=-2.527659875591D+04  KE= 3.016024799105D+03

 Test job not archived.
 1\1\GINC-PEDRO-RYZENSSD\SP\RCAM-B3LYP TD-FC\6-31G(d,p)\C54H68Mg1N4O7\P
 ADAWAN\07-Oct-2019\0\\# td=(NStates=1) iop(3/107=0140000000,3/108=0140
 000000) iop(3/107=0140000000,3/108=0140000000) CAM-B3LYP/6-31G(d,p)\\T
 D\\0,1\Mg,0,-5.6436400952,1.226032631,0.2177144402\C,0,-5.0448546073,-
 2.1215761223,-0.358758941\C,0,-3.6155130112,1.1305555971,2.8788493231\
 C,0,-6.2347698993,4.5575337765,0.6965220134\C,0,-8.1067115892,1.167515
 4339,-2.2558696809\N,0,-4.4471017947,-0.3656024833,1.1633865057\C,0,-4
 .3153767581,-1.6750286843,0.7795516737\C,0,-3.3482762293,-2.3380450031
 ,1.5615917478\C,0,-2.9738215376,-1.3438050502,2.6652233089\C,0,-3.7442
 712271,-0.0540845611,2.2029509537\C,0,-3.4435464626,-1.8386905617,4.07
 7785638\C,0,-1.9894237857,-2.6941934125,0.6702812142\C,0,-0.8771854814
 ,-3.4827133592,1.4361674936\C,0,0.3877446419,-3.8064755197,0.701648325
 9\O,0,0.5543492888,-3.4032300118,-0.4433643518\O,0,1.1049621784,-4.730
 7182166,1.2760335919\N,0,-5.0782063716,2.5707673134,1.5107277594\C,0,-
 4.2039844856,2.3616041764,2.6097061964\C,0,-3.8502555628,3.6570557881,
 3.2368426287\C,0,-4.6217879345,4.6162900945,2.6345293371\C,0,-5.346784
 0408,3.90273495,1.558440996\C,0,-2.7833069556,3.7766247462,4.358119682
 5\C,0,-4.7805207521,6.0097910133,2.870022439\O,0,-4.1299354808,6.55295
 01252,3.8543594084\N,0,-7.0151831679,2.6547434068,-0.6184045082\C,0,-6
 .8814103388,3.9759980053,-0.311659369\C,0,-7.8815232925,4.5707181286,-
 1.3313359427\C,0,-8.4523882716,3.6459337235,-2.1340279552\C,0,-7.79477
 32888,2.3473929134,-1.7166654363\C,0,-8.2484771264,6.1020415739,-1.321
 6332979\C,0,-9.2394404224,3.8314140797,-3.310573606\C,0,-8.4519841791,
 3.9417155347,-4.7037236191\N,0,-6.4222979971,-0.1429994801,-1.00334135
 45\C,0,-7.5109146982,-0.0554264482,-1.9372596486\C,0,-7.6244555622,-1.
 3416193146,-2.7163646611\C,0,-6.6554310268,-2.2058443577,-2.1505442643
 \C,0,-5.9193798615,-1.3659606256,-1.1062184865\C,0,-8.6239377685,-1.56
 49862872,-3.8241433337\C,0,-6.157599387,-3.5215612621,-2.1162870226\O,
 0,-6.506983939,-4.4729222623,-2.6997102167\C,0,-4.9993901925,-3.534965
 2632,-0.95189181\C,0,-5.2394910767,-4.6982950311,0.130730224\O,0,-5.84
 96991525,-4.504396373,1.1899161119\O,0,-4.9179417574,-5.9201158957,-0.
 3237565471\C,0,-5.2037437236,-7.053118903,0.5735748923\C,0,2.271803862
 ,-5.016487909,0.5180997913\C,0,3.5131146216,-4.0943509344,0.9021314989
 \C,0,4.0520843121,-3.1822680477,0.1676491399\C,0,3.6770125986,-3.11020
 42088,-1.4167193407\C,0,5.0728514911,-2.2193662048,0.6114229932\C,0,6.
 4637219769,-2.5728522382,0.007071033\C,0,7.6164407708,-1.7754391897,0.
 6074545801\C,0,8.9722158301,-1.9669526773,-0.0482215354\C,0,9.51848892
 9,-3.3570956121,0.2335464796\C,0,9.9738228179,-0.8181324341,0.39902786
 62\C,0,11.3075439117,-0.7757803731,-0.289964307\C,0,12.2864462652,0.36
 0105201,0.0922000082\C,0,13.5434837425,0.5361833052,-0.683358093\C,0,1
 4.5117593489,-0.7372444544,-0.515228208\C,0,14.3206019984,1.7551002822
 ,-0.1680944518\C,0,15.4885081317,2.1803999753,-1.0716942771\C,0,16.152
 3148512,3.5335858686,-0.7057816712\C,0,17.4477991746,3.7675456701,-1.3
 152525731\C,0,17.402539236,3.9063261953,-2.7928916092\C,0,18.190642483
 4,4.9392020462,-0.7738283398\H,0,-2.9615116571,0.9985267163,3.74249186
 04\H,0,-6.404751358,5.8281890211,0.5174315059\H,0,-8.9195271518,1.2520
 694684,-3.0469700779\H,0,-3.7261796832,-3.2254256593,1.9853442765\H,0,
 -1.8571367997,-1.0863762458,2.7141635824\H,0,-2.7720665319,-2.54599118
 ,4.3887188178\H,0,-3.322118812,-0.9665987776,4.6564017761\H,0,-4.46439
 81156,-2.2155594739,4.1199452171\H,0,-2.3960967753,-3.0960626513,-0.31
 55392885\H,0,-1.6716778675,-1.669045532,0.4308139227\H,0,-0.5970140915
 ,-3.0569156639,2.4114556867\H,0,-1.2292424028,-4.4485616925,1.79540857
 76\H,0,-1.9604847006,3.384923179,3.6794103221\H,0,-2.4063682908,4.8087
 305122,4.6287085338\H,0,-3.2109910316,3.0161248066,5.0442814049\H,0,-5
 .5022140807,6.6001379963,2.3055126671\H,0,-9.813355318,2.9210392558,-3
 .4760287575\H,0,-10.238311314,4.5417917137,-3.2824712397\H,0,-9.026758
 4367,4.0808759876,-5.5068169923\H,0,-7.8234863146,4.920023943,-4.62192
 1874\H,0,-7.8123515101,3.169671281,-4.9179059053\H,0,-8.5985064322,-0.
 8850317609,-4.6418241514\H,0,-8.4378834162,-2.6334304033,-4.118391183\
 H,0,-9.6675200011,-1.3826649011,-3.3761719023\H,0,-4.0435361296,-3.702
 1560386,-1.3003649666\H,0,2.5191898628,-6.1008173748,0.9835767456\H,0,
 2.1908824148,-5.0067792043,-0.4939848336\H,0,3.7240983922,-4.033193441
 6,2.0742957937\H,0,2.7714745994,-3.4578473396,-1.8116538155\H,0,3.9367
 210101,-2.093514052,-1.7024684643\H,0,4.6448669941,-3.6158534416,-1.89
 45709144\H,0,4.7187157406,-1.2651320578,0.2554559367\H,0,4.9987922376,
 -2.5281471319,1.6987537617\H,0,6.808210041,-3.5296072602,0.2505643781\
 H,0,6.2561844579,-2.5039226083,-1.1275524414\H,0,7.43308411,-0.8849150
 458,0.4487436277\H,0,7.6593548457,-1.7461228608,1.7159490673\H,0,8.822
 5181514,-1.8673747782,-1.1363218509\H,0,8.7744496104,-4.0506639263,-0.
 3041828885\H,0,10.4910521346,-3.4841017649,-0.0111987018\H,0,9.5427210
 197,-3.5241081394,1.2379747605\H,0,9.5651175727,0.1137697874,0.1484840
 228\H,0,10.2053294915,-0.8021485342,1.4014110784\H,0,11.9116730984,-1.
 6651238341,-0.0433136392\H,0,11.2701529555,-0.9727889144,-1.2387647202
 \H,0,11.7088209002,1.388141886,-0.1150487153\H,0,12.5103517939,0.27738
 90222,1.3066698421\H,0,13.3542161639,0.7180965525,-1.759492154\H,0,14.
 8880990371,-0.6251455319,0.5473698345\H,0,13.8601364001,-1.5732004989,
 -0.6589121453\H,0,15.448114668,-0.7466079885,-1.2473671397\H,0,13.5146
 607117,2.5135396532,-0.1320130786\H,0,14.7423318454,1.6618125958,0.961
 9850258\H,0,16.4680855357,1.4138868502,-0.822600075\H,0,15.4685416497,
 2.1258108325,-2.2534188728\H,0,15.3824897111,4.2611993276,-1.126943974
 4\H,0,16.1651561495,3.8923851979,0.3591883776\H,0,17.9944392607,2.8545
 089594,-1.2825026382\H,0,16.3738145183,4.5954268216,-3.0815324321\H,0,
 18.4066430542,4.6100874019,-3.1433217658\H,0,17.2767823635,2.897404651
 7,-3.4299535486\H,0,18.51945982,4.7585765107,0.3010892746\H,0,19.13865
 14759,5.2024864751,-1.2316853096\H,0,17.7380663764,5.9516595761,-0.985
 0968618\H,0,-4.5356414487,-7.9774988493,0.1539010741\H,0,-6.2239728886
 ,-7.365335915,0.6964794912\H,0,-4.6672789453,-6.878017678,1.6689897674
 \O,0,-7.8671696123,6.9218222136,-0.4958730157\H,0,-9.1110044842,6.4898
 864043,-1.9307715447\\Version=ES64L-G09RevD.01\State=1-A\HF=-3043.4291
 122\RMSD=4.637e-09\PG=C01 [X(C54H68Mg1N4O7)]\\@


 ... A MOLECULAR SYSTEM ... (PASSES) ... FROM ONE STATE OF EQUILIBRIUM 
 TO ANOTHER ... BY MEANS OF ALL POSSIBLE INTERMEDIATE PATHS, 
 BUT THE PATH MOST ECONOMICAL OF ENERGY WILL BE THE MORE OFTEN TRAVELED.

                      -- HENRY EYRING, 1945
 Job cpu time:       0 days  6 hours 18 minutes 53.1 seconds.
 File lengths (MBytes):  RWF=   2102 Int=      0 D2E=      0 Chk=    163 Scr=      1
 Normal termination of Gaussian 09 at Mon Oct  7 23:36:36 2019.
