 Entering Gaussian System, Link 0=g16
 Input=Geometria-134-.com
 Output=Geometria-134-.log
 Initial command:
 /usr/local/g09/l1.exe "/home/padawan/israel-mol/chlorophyll-b/spectra/emi/Gau-88569.inp" -scrdir="/home/padawan/israel-mol/chlorophyll-b/spectra/emi/"
 Entering Link 1 = /usr/local/g09/l1.exe PID=     88571.
  
 Copyright (c) 1988,1990,1992,1993,1995,1998,2003,2009,2013,
            Gaussian, Inc.  All Rights Reserved.
  
 This is part of the Gaussian(R) 09 program.  It is based on
 the Gaussian(R) 03 system (copyright 2003, Gaussian, Inc.),
 the Gaussian(R) 98 system (copyright 1998, Gaussian, Inc.),
 the Gaussian(R) 94 system (copyright 1995, Gaussian, Inc.),
 the Gaussian 92(TM) system (copyright 1992, Gaussian, Inc.),
 the Gaussian 90(TM) system (copyright 1990, Gaussian, Inc.),
 the Gaussian 88(TM) system (copyright 1988, Gaussian, Inc.),
 the Gaussian 86(TM) system (copyright 1986, Carnegie Mellon
 University), and the Gaussian 82(TM) system (copyright 1983,
 Carnegie Mellon University). Gaussian is a federally registered
 trademark of Gaussian, Inc.
  
 This software contains proprietary and confidential information,
 including trade secrets, belonging to Gaussian, Inc.
  
 This software is provided under written license and may be
 used, copied, transmitted, or stored only in accord with that
 written license.
  
 The following legend is applicable only to US Government
 contracts under FAR:
  
                    RESTRICTED RIGHTS LEGEND
  
 Use, reproduction and disclosure by the US Government is
 subject to restrictions as set forth in subparagraphs (a)
 and (c) of the Commercial Computer Software - Restricted
 Rights clause in FAR 52.227-19.
  
 Gaussian, Inc.
 340 Quinnipiac St., Bldg. 40, Wallingford CT 06492
  
  
 ---------------------------------------------------------------
 Warning -- This program may not be used in any manner that
 competes with the business of Gaussian, Inc. or will provide
 assistance to any competitor of Gaussian, Inc.  The licensee
 of this program is prohibited from giving any competitor of
 Gaussian, Inc. access to this program.  By using this program,
 the user acknowledges that Gaussian, Inc. is engaged in the
 business of creating and licensing software in the field of
 computational chemistry and represents and warrants to the
 licensee that it is not a competitor of Gaussian, Inc. and that
 it will not use this program in any manner prohibited above.
 ---------------------------------------------------------------
  

 Cite this work as:
 Gaussian 09, Revision D.01,
 M. J. Frisch, G. W. Trucks, H. B. Schlegel, G. E. Scuseria, 
 M. A. Robb, J. R. Cheeseman, G. Scalmani, V. Barone, B. Mennucci, 
 G. A. Petersson, H. Nakatsuji, M. Caricato, X. Li, H. P. Hratchian, 
 A. F. Izmaylov, J. Bloino, G. Zheng, J. L. Sonnenberg, M. Hada, 
 M. Ehara, K. Toyota, R. Fukuda, J. Hasegawa, M. Ishida, T. Nakajima, 
 Y. Honda, O. Kitao, H. Nakai, T. Vreven, J. A. Montgomery, Jr., 
 J. E. Peralta, F. Ogliaro, M. Bearpark, J. J. Heyd, E. Brothers, 
 K. N. Kudin, V. N. Staroverov, T. Keith, R. Kobayashi, J. Normand, 
 K. Raghavachari, A. Rendell, J. C. Burant, S. S. Iyengar, J. Tomasi, 
 M. Cossi, N. Rega, J. M. Millam, M. Klene, J. E. Knox, J. B. Cross, 
 V. Bakken, C. Adamo, J. Jaramillo, R. Gomperts, R. E. Stratmann, 
 O. Yazyev, A. J. Austin, R. Cammi, C. Pomelli, J. W. Ochterski, 
 R. L. Martin, K. Morokuma, V. G. Zakrzewski, G. A. Voth, 
 P. Salvador, J. J. Dannenberg, S. Dapprich, A. D. Daniels, 
 O. Farkas, J. B. Foresman, J. V. Ortiz, J. Cioslowski, 
 and D. J. Fox, Gaussian, Inc., Wallingford CT, 2013.
 
 ******************************************
 Gaussian 09:  ES64L-G09RevD.01 24-Apr-2013
                 4-Oct-2019 
 ******************************************
 %nproc=3
 Will use up to    3 processors via shared memory.
 %Mem=2GB
 ----------------------------------------------------------------------
 # td=(NStates=1) iop(3/107=0140000000,3/108=0140000000) iop(3/107=0140
 000000,3/108=0140000000) CAM-B3LYP/6-31G(d,p)
 ----------------------------------------------------------------------
 1/38=1/1;
 2/12=2,17=6,18=5,40=1/2;
 3/5=1,6=6,7=101,11=9,16=1,25=1,30=1,74=-40,107=140000000,108=140000000/1,2,8,3;
 4//1;
 5/5=2,38=5/2;
 8/6=1,10=2,108=1/1;
 9/41=1,42=1,70=2/14;
 6/7=2,8=2,9=2,10=2/1;
 99/5=1,9=1/99;
 --
 TD
 --
 Symbolic Z-matrix:
 Charge =  0 Multiplicity = 1
 12                   -5.74179   1.2241    0.16974 
 6                    -5.1061   -2.15566  -0.34382 
 6                    -3.4957    1.10049   2.76268 
 6                    -6.19567   4.50507   0.58663 
 6                    -8.16463   1.1734   -2.2034 
 7                    -4.42733  -0.29908   1.01925 
 6                    -4.23562  -1.62094   0.66893 
 6                    -3.25276  -2.32774   1.43407 
 6                    -2.97564  -1.36055   2.5298 
 6                    -3.57158  -0.02399   2.07465 
 6                    -3.42734  -1.80373   3.97649 
 6                    -2.02489  -2.7591    0.52957 
 6                    -0.98459  -3.47007   1.38715 
 6                     0.26642  -3.82727   0.62129 
 8                     0.55144  -3.47628  -0.61581 
 8                     1.10043  -4.59973   1.28047 
 7                    -4.95793   2.57645   1.508 
 6                    -4.05679   2.40096   2.48007 
 6                    -3.72787   3.61751   3.2288 
 6                    -4.50964   4.58217   2.57639 
 6                    -5.30684   3.88192   1.51742 
 6                    -2.82403   3.59886   4.33429 
 6                    -4.55057   6.0404    2.84662 
 8                    -3.91163   6.49697   3.74236 
 7                    -6.97241   2.56521  -0.63882 
 6                    -6.99741   3.94732  -0.34862 
 6                    -7.95707   4.50605  -1.19144 
 6                    -8.58526   3.59782  -2.08587 
 6                    -7.91283   2.42045  -1.63398 
 6                    -8.28602   6.0576   -1.27296 
 6                    -9.52935   3.73653  -3.13581 
 6                    -8.76853   4.07279  -4.36521 
 7                    -6.44711  -0.1526   -1.09226 
 6                    -7.4271   -0.00576  -2.07925 
 6                    -7.75225  -1.31652  -2.6709 
 6                    -6.77938  -2.17929  -2.08665 
 6                    -6.03636  -1.39053  -1.05981 
 6                    -8.67551  -1.58781  -3.85991 
 6                    -6.25562  -3.57267  -2.11331 
 8                    -6.7066   -4.55824  -2.68828 
 6                    -5.05395  -3.56509  -0.9804 
 6                    -5.3777   -4.64606   0.12892 
 8                    -5.76583  -4.49002   1.28458 
 8                    -5.05046  -5.87484  -0.402 
 6                    -5.51471  -6.94383   0.40975 
 6                     2.35904  -4.88555   0.76103 
 6                     3.43367  -3.84789   1.02459 
 6                     4.10852  -3.07004   0.19952 
 6                     3.71416  -3.07927  -1.30899 
 6                     5.29047  -2.19033   0.64263 
 6                     6.62689  -2.66452   0.08878 
 6                     7.73361  -1.67545   0.66489 
 6                     9.0938   -1.88439  -0.01145 
 6                     9.61282  -3.32366   0.10277 
 6                     10.02282  -0.92528   0.70857 
 6                     11.43835  -0.79541  -0.03491 
 6                     12.45713   0.26292   0.34148 
 6                     13.71363   0.34466  -0.50808 
 6                     14.70539  -0.86213  -0.36197 
 6                     14.44158   1.71829  -0.18684 
 6                     15.5673   1.97468  -0.99824 
 6                     16.15555   3.44345  -0.76308 
 6                     17.39723   3.92348  -1.43406 
 6                     17.15728   4.04271  -2.96477 
 6                     17.84149   5.24592  -0.93066 
 1                    -2.64539   1.0982    3.49374 
 1                    -6.07507   5.65196   0.80929 
 1                    -8.94302   0.92027  -3.09361 
 1                    -3.90023  -3.12755   1.85359 
 1                    -1.78685  -1.19909   2.55688 
 1                    -2.92402  -2.71743   4.27181 
 1                    -3.12667  -1.07623   4.71411 
 1                    -4.54281  -2.0491    4.07015 
 1                    -2.38333  -3.60248  -0.18342 
 1                    -1.51715  -1.7603    0.32174 
 1                    -0.71808  -2.98383   2.24068 
 1                    -1.4722   -4.4127    1.85757 
 1                    -1.64456   3.31661   4.15786 
 1                    -2.87948   4.67592   4.94783 
 1                    -3.34819   2.9074    5.19618 
 1                    -5.06721   6.70944   2.03006 
 1                    -9.97945   2.81765  -2.99914 
 1                    -10.09443   4.67342  -2.71948 
 1                    -9.35995   4.28295  -5.28018 
 1                    -8.0402    5.10547  -4.60049 
 1                    -8.2755    3.10826  -4.59595 
 1                    -8.34593  -1.04525  -4.71948 
 1                    -8.59097  -2.586    -4.18104 
 1                    -9.61632  -1.41965  -3.50202 
 1                    -4.19656  -3.83368  -1.43809 
 1                     2.81737  -5.78386   1.27201 
 1                     2.2703   -4.8316   -0.32042 
 1                     3.69065  -3.90903   2.1072 
 1                     2.59423  -3.09589  -1.38888 
 1                     4.41888  -2.0911   -1.98017 
 1                     4.23236  -4.01637  -1.85785 
 1                     5.16041  -1.2019    0.40567 
 1                     5.25417  -2.0313    1.8305 
 1                     6.84894  -3.69434   0.23507 
 1                     6.63016  -2.44582  -1.03129 
 1                     7.67674  -0.55545   0.43267 
 1                     7.85791  -1.82508   1.76841 
 1                     8.86952  -1.6219   -0.87668 
 1                     8.88507  -4.01691  -0.3559 
 1                     10.48176  -3.7146   -0.38023 
 1                     9.77403  -3.52538   1.24546 
 1                     9.68365   0.04181   0.61373 
 1                     10.07448  -1.37839   1.84326 
 1                     12.1468  -1.71745  -0.09596 
 1                     11.2639  -0.80284  -1.15828 
 1                     11.97715   1.16144   0.34787 
 1                     12.88586   0.291     1.38582 
 1                     13.43287   0.33906  -1.63079 
 1                     15.25472  -0.70711   0.5992 
 1                     14.10983  -1.72319  -0.40486 
 1                     15.62229  -0.92787  -0.86329 
 1                     13.82026   2.39131  -0.62135 
 1                     14.49879   1.68068   0.89102 
 1                     16.60626   1.35309  -0.68317 
 1                     15.34926   1.74973  -1.9295 
 1                     15.27973   4.07181  -1.01534 
 1                     16.373    3.44317   0.42632 
 1                     18.20783   3.23347  -1.42614 
 1                     16.3606   4.76473  -3.36743 
 1                     18.0681   4.26268  -3.63361 
 1                     16.80703   3.09417  -3.12114 
 1                     17.96382   5.2891    0.23512 
 1                     18.90422   5.41503  -1.37412 
 1                     17.09009   6.00373  -1.22406 
 1                    -5.50011  -7.85806  -0.13068 
 1                    -6.59146  -6.73109   0.58265 
 1                    -5.14082  -6.83058   1.3716 
 8                    -7.69135   6.8195   -0.52003 
 1                    -9.17671   6.35956  -1.93102 
 
 Stoichiometry    C54H68MgN4O7
 Framework group  C1[X(C54H68MgN4O7)]
 Deg. of freedom   396
 Full point group                 C1      NOp   1
 Largest Abelian subgroup         C1      NOp   1
 Largest concise Abelian subgroup C1      NOp   1
                         Standard orientation:                         
 ---------------------------------------------------------------------
 Center     Atomic      Atomic             Coordinates (Angstroms)
 Number     Number       Type             X           Y           Z
 ---------------------------------------------------------------------
      1         12           0       -5.744125    1.230170    0.179809
      2          6           0       -5.112995   -2.148115   -0.348871
      3          6           0       -3.495637    1.092751    2.769970
      4          6           0       -6.193656    4.509857    0.611220
      5          6           0       -8.169355    1.192542   -2.191134
      6          7           0       -4.430658   -0.298210    1.021479
      7          6           0       -4.240877   -1.618790    0.665300
      8          6           0       -3.258111   -2.330041    1.426427
      9          6           0       -2.978758   -1.367887    2.526023
     10          6           0       -3.573545   -0.028679    2.077198
     11          6           0       -3.429569   -1.816731    3.971240
     12          6           0       -2.031650   -2.758979    0.518870
     13          6           0       -0.991359   -3.474867    1.372368
     14          6           0        0.258467   -3.830267    0.603744
     15          8           0        0.542687   -3.474313   -0.632122
     16          8           0        1.092197   -4.606543    1.258783
     17          7           0       -4.957333    2.575822    1.523080
     18          6           0       -4.055443    2.395086    2.493502
     19          6           0       -3.724332    3.608022    3.247117
     20          6           0       -4.505579    4.576401    2.599626
     21          6           0       -5.304663    3.881661    1.538444
     22          6           0       -2.819425    3.583544    4.351618
     23          6           0       -4.544496    6.033513    2.876147
     24          8           0       -3.904134    6.485472    3.773203
     25          7           0       -6.973930    2.576208   -0.621770
     26          6           0       -6.996990    3.957080   -0.325625
     27          6           0       -7.956807    4.520574   -1.165090
     28          6           0       -8.586966    3.616939   -2.062787
     29          6           0       -7.915498    2.436840   -1.616612
     30          6           0       -8.283976    6.072847   -1.239624
     31          6           0       -9.531919    3.761287   -3.111182
     32          6           0       -8.771903    4.101904   -4.339883
     33          7           0       -6.452337   -0.140261   -1.087387
     34          6           0       -7.433117    0.011982   -2.072772
     35          6           0       -7.760422   -1.295833   -2.669714
     36          6           0       -6.788019   -2.162269   -2.090131
     37          6           0       -6.043042   -1.378812   -1.060658
     38          6           0       -8.685181   -1.560916   -3.858961
     39          6           0       -6.265952   -3.556141   -2.123285
     40          8           0       -6.718684   -4.538699   -2.702034
     41          6           0       -5.063156   -3.554860   -0.991550
     42          6           0       -5.387120   -4.640194    0.113447
     43          8           0       -5.773922   -4.488656    1.270145
     44          8           0       -5.061867   -5.867077   -0.423067
     45          6           0       -5.526609   -6.938981    0.384551
     46          6           0        2.349953   -4.891644    0.736877
     47          6           0        3.426079   -3.856401    1.003823
     48          6           0        4.101053   -3.075825    0.181429
     49          6           0        3.705194   -3.078115   -1.326717
     50          6           0        5.284495   -2.199444    0.627134
     51          6           0        6.619795   -2.672848    0.069936
     52          6           0        7.728271   -1.687580    0.649190
     53          6           0        9.087539   -1.895247   -0.029383
     54          6           0        9.604945   -3.335611    0.078150
     55          6           0       10.018416   -0.940345    0.693823
     56          6           0       11.433368   -0.808976   -0.050490
     57          6           0       12.453792    0.246508    0.329433
     58          6           0       13.709551    0.330400   -0.521017
     59          6           0       14.700004   -0.878191   -0.381068
     60          6           0       14.439466    1.701761   -0.194603
     61          6           0       15.564686    1.960288   -1.006009
     62          6           0       16.154927    3.427329   -0.765132
     63          6           0       17.396530    3.908754   -1.435281
     64          6           0       17.155218    4.034836   -2.965222
     65          6           0       17.842864    5.228491   -0.926652
     66          1           0       -2.644610    1.086302    3.500172
     67          1           0       -6.071464    5.655639    0.838678
     68          1           0       -8.948926    0.944165   -3.081652
     69          1           0       -3.906127   -3.130862    1.843155
     70          1           0       -1.789747   -1.207966    2.552618
     71          1           0       -2.927052   -2.732291    4.262141
     72          1           0       -3.127296   -1.092765    4.711678
     73          1           0       -4.545231   -2.061173    4.064954
     74          1           0       -2.391800   -3.598866   -0.197370
     75          1           0       -1.522922   -1.759908    0.314830
     76          1           0       -0.723426   -2.992609    2.227708
     77          1           0       -1.479636   -4.418920    1.839224
     78          1           0       -1.640471    3.300643    4.172814
     79          1           0       -2.872975    4.658027    4.969831
     80          1           0       -3.343570    2.889025    5.211051
     81          1           0       -5.061139    6.706663    2.062971
     82          1           0       -9.982989    2.842362   -2.978015
     83          1           0      -10.095463    4.697057   -2.690287
     84          1           0       -9.363976    4.316693   -5.253363
     85          1           0       -8.042569    5.134717   -4.571451
     86          1           0       -8.280259    3.137781   -4.575250
     87          1           0       -8.355794   -1.015066   -4.716526
     88          1           0       -8.602150   -2.557817   -4.184454
     89          1           0       -9.625438   -1.393170   -3.499430
     90          1           0       -4.206546   -3.822509   -1.451229
     91          1           0        2.807705   -5.792677    1.243537
     92          1           0        2.260211   -4.832945   -0.344245
     93          1           0        3.684049   -3.922498    2.085901
     94          1           0        2.585168   -3.093054   -1.405573
     95          1           0        4.410441   -2.087920   -1.994346
     96          1           0        4.221729   -4.013472   -1.880103
     97          1           0        5.155384   -1.209844    0.394550
     98          1           0        5.249549   -2.045464    1.815711
     99          1           0        6.840760   -3.703553    0.211591
    100          1           0        6.622229   -2.449343   -1.049190
    101          1           0        7.672512   -0.566530    0.421835
    102          1           0        7.853479   -1.842094    1.751939
    103          1           0        8.862728   -1.628774   -0.893254
    104          1           0        8.875916   -4.026014   -0.382771
    105          1           0       10.472943   -3.725515   -0.407381
    106          1           0        9.767043   -3.542421    1.219796
    107          1           0        9.680314    0.027554    0.603470
    108          1           0       10.070647   -1.398374    1.826503
    109          1           0       12.140651   -1.731589   -0.116196
    110          1           0       11.257809   -0.811377   -1.173707
    111          1           0       11.974891    1.145569    0.340144
    112          1           0       12.883579    0.269599    1.373452
    113          1           0       13.427683    0.329948   -1.643461
    114          1           0       15.250462   -0.727960    0.580212
    115          1           0       14.103373   -1.738345   -0.427056
    116          1           0       15.616334   -0.942874   -0.883568
    117          1           0       13.818524    2.377382   -0.625612
    118          1           0       14.497685    1.659466    0.883023
    119          1           0       16.603213    1.336112   -0.694635
    120          1           0       15.345464    1.739600   -1.938009
    121          1           0       15.279618    4.057815   -1.013833
    122          1           0       16.373548    3.421688    0.424033
    123          1           0       18.206306    3.217744   -1.431116
    124          1           0       16.359007    4.759533   -3.363995
    125          1           0       18.065637    4.256589   -3.634015
    126          1           0       16.803668    3.087400   -3.125317
    127          1           0       17.966399    5.266519    0.239188
    128          1           0       18.905360    5.398227   -1.370429
    129          1           0       17.092089    5.988453   -1.216052
    130          1           0       -5.513630   -7.850899   -0.159806
    131          1           0       -6.602928   -6.725703    0.559426
    132          1           0       -5.151629   -6.830311    1.346509
    133          8           0       -7.687654    6.830803   -0.484018
    134          1           0       -9.174951    6.378699   -1.895505
 ---------------------------------------------------------------------
 Rotational constants (GHZ):      0.0352412      0.0079710      0.0070803
 Standard basis: 6-31G(d,p) (6D, 7F)
 There are  1334 symmetry adapted cartesian basis functions of A   symmetry.
 There are  1334 symmetry adapted basis functions of A   symmetry.
  1334 basis functions,  2348 primitive gaussians,  1334 cartesian basis functions
   244 alpha electrons      244 beta electrons
       nuclear repulsion energy      9106.4756235717 Hartrees.
 NAtoms=  134 NActive=  134 NUniq=  134 SFac= 1.00D+00 NAtFMM=   60 NAOKFM=T Big=T
 Integral buffers will be    131072 words long.
 Raffenetti 1 integral format.
 Two-electron integral symmetry is turned on.
 One-electron integrals computed using PRISM.
 NBasis=  1334 RedAO= T EigKep=  3.07D-04  NBF=  1334
 NBsUse=  1334 1.00D-06 EigRej= -1.00D+00 NBFU=  1334
 ExpMin= 4.21D-02 ExpMax= 1.17D+04 ExpMxC= 1.76D+03 IAcc=2 IRadAn=         4 AccDes= 0.00D+00
 Harris functional with IExCor=20419 and IRadAn=       4 diagonalized for initial guess.
 HarFok:  IExCor=20419 AccDes= 0.00D+00 IRadAn=         4 IDoV= 1 UseB2=F ITyADJ=14
 ICtDFT=  3500011 ScaDFX=  1.000000  1.000000  1.000000  1.000000
 FoFCou: FMM=F IPFlag=           0 FMFlag=      100000 FMFlg1=        2001
         NFxFlg=           0 DoJE=T BraDBF=F KetDBF=T FulRan=T
         wScrn=  0.000000 ICntrl=     500 IOpCl=  0 I1Cent=   200000004 NGrid=           0
         NMat0=    1 NMatS0=      1 NMatT0=    0 NMatD0=    1 NMtDS0=    0 NMtDT0=    0
 Petite list used in FoFCou.
 Requested convergence on RMS density matrix=1.00D-08 within 128 cycles.
 Requested convergence on MAX density matrix=1.00D-06.
 Requested convergence on             energy=1.00D-06.
 No special actions if energy rises.
 SCF Done:  E(RCAM-B3LYP) =  -3043.40989769     A.U. after   16 cycles
            NFock= 16  Conv=0.35D-08     -V/T= 2.0091
 DoSCS=F DFT=T ScalE2(SS,OS)=  1.000000  1.000000
 ExpMin= 4.21D-02 ExpMax= 1.17D+04 ExpMxC= 1.76D+03 IAcc=3 IRadAn=         5 AccDes= 0.00D+00
 HarFok:  IExCor=  205 AccDes= 0.00D+00 IRadAn=         5 IDoV=-2 UseB2=F ITyADJ=14
 ICtDFT= 12500011 ScaDFX=  1.000000  1.000000  1.000000  1.000000
 Range of M.O.s used for correlation:    71  1334
 NBasis=  1334 NAE=   244 NBE=   244 NFC=    70 NFV=     0
 NROrb=   1264 NOA=   174 NOB=   174 NVA=  1090 NVB=  1090
 Would need an additional       2379600800000 words for in-memory AO integral storage.
 Orbital symmetries:
       Occupied  (A) (A) (A) (A) (A) (A) (A) (A) (A) (A) (A) (A)
                 (A) (A) (A) (A) (A) (A) (A) (A) (A) (A) (A) (A)
                 (A) (A) (A) (A) (A) (A) (A) (A) (A) (A) (A) (A)
                 (A) (A) (A) (A) (A) (A) (A) (A) (A) (A) (A) (A)
                 (A) (A) (A) (A) (A) (A) (A) (A) (A) (A) (A) (A)
                 (A) (A) (A) (A) (A) (A) (A) (A) (A) (A) (A) (A)
                 (A) (A) (A) (A) (A) (A) (A) (A) (A) (A) (A) (A)
                 (A) (A) (A) (A) (A) (A) (A) (A) (A) (A) (A) (A)
                 (A) (A) (A) (A) (A) (A) (A) (A) (A) (A) (A) (A)
                 (A) (A) (A) (A) (A) (A) (A) (A) (A) (A) (A) (A)
                 (A) (A) (A) (A) (A) (A) (A) (A) (A) (A) (A) (A)
                 (A) (A) (A) (A) (A) (A) (A) (A) (A) (A) (A) (A)
                 (A) (A) (A) (A) (A) (A) (A) (A) (A) (A) (A) (A)
                 (A) (A) (A) (A) (A) (A) (A) (A) (A) (A) (A) (A)
                 (A) (A) (A) (A) (A) (A) (A) (A) (A) (A) (A) (A)
                 (A) (A) (A) (A) (A) (A) (A) (A) (A) (A) (A) (A)
                 (A) (A) (A) (A) (A) (A) (A) (A) (A) (A) (A) (A)
                 (A) (A) (A) (A) (A) (A) (A) (A) (A) (A) (A) (A)
                 (A) (A) (A) (A) (A) (A) (A) (A) (A) (A) (A) (A)
                 (A) (A) (A) (A) (A) (A) (A) (A) (A) (A) (A) (A)
                 (A) (A) (A) (A)
       Virtual   (A) (A) (A) (A) (A) (A) (A) (A) (A) (A) (A) (A)
                 (A) (A) (A) (A) (A) (A) (A) (A) (A) (A) (A) (A)
                 (A) (A) (A) (A) (A) (A) (A) (A) (A) (A) (A) (A)
                 (A) (A) (A) (A) (A) (A) (A) (A) (A) (A) (A) (A)
                 (A) (A) (A) (A) (A) (A) (A) (A) (A) (A) (A) (A)
                 (A) (A) (A) (A) (A) (A) (A) (A) (A) (A) (A) (A)
                 (A) (A) (A) (A) (A) (A) (A) (A) (A) (A) (A) (A)
                 (A) (A) (A) (A) (A) (A) (A) (A) (A) (A) (A) (A)
                 (A) (A) (A) (A) (A) (A) (A) (A) (A) (A) (A) (A)
                 (A) (A) (A) (A) (A) (A) (A) (A) (A) (A) (A) (A)
                 (A) (A) (A) (A) (A) (A) (A) (A) (A) (A) (A) (A)
                 (A) (A) (A) (A) (A) (A) (A) (A) (A) (A) (A) (A)
                 (A) (A) (A) (A) (A) (A) (A) (A) (A) (A) (A) (A)
                 (A) (A) (A) (A) (A) (A) (A) (A) (A) (A) (A) (A)
                 (A) (A) (A) (A) (A) (A) (A) (A) (A) (A) (A) (A)
                 (A) (A) (A) (A) (A) (A) (A) (A) (A) (A) (A) (A)
                 (A) (A) (A) (A) (A) (A) (A) (A) (A) (A) (A) (A)
                 (A) (A) (A) (A) (A) (A) (A) (A) (A) (A) (A) (A)
                 (A) (A) (A) (A) (A) (A) (A) (A) (A) (A) (A) (A)
                 (A) (A) (A) (A) (A) (A) (A) (A) (A) (A) (A) (A)
                 (A) (A) (A) (A) (A) (A) (A) (A) (A) (A) (A) (A)
                 (A) (A) (A) (A) (A) (A) (A) (A) (A) (A) (A) (A)
                 (A) (A) (A) (A) (A) (A) (A) (A) (A) (A) (A) (A)
                 (A) (A) (A) (A) (A) (A) (A) (A) (A) (A) (A) (A)
                 (A) (A) (A) (A) (A) (A) (A) (A) (A) (A) (A) (A)
                 (A) (A) (A) (A) (A) (A) (A) (A) (A) (A) (A) (A)
                 (A) (A) (A) (A) (A) (A) (A) (A) (A) (A) (A) (A)
                 (A) (A) (A) (A) (A) (A) (A) (A) (A) (A) (A) (A)
                 (A) (A) (A) (A) (A) (A) (A) (A) (A) (A) (A) (A)
                 (A) (A) (A) (A) (A) (A) (A) (A) (A) (A) (A) (A)
                 (A) (A) (A) (A) (A) (A) (A) (A) (A) (A) (A) (A)
                 (A) (A) (A) (A) (A) (A) (A) (A) (A) (A) (A) (A)
                 (A) (A) (A) (A) (A) (A) (A) (A) (A) (A) (A) (A)
                 (A) (A) (A) (A) (A) (A) (A) (A) (A) (A) (A) (A)
                 (A) (A) (A) (A) (A) (A) (A) (A) (A) (A) (A) (A)
                 (A) (A) (A) (A) (A) (A) (A) (A) (A) (A) (A) (A)
                 (A) (A) (A) (A) (A) (A) (A) (A) (A) (A) (A) (A)
                 (A) (A) (A) (A) (A) (A) (A) (A) (A) (A) (A) (A)
                 (A) (A) (A) (A) (A) (A) (A) (A) (A) (A) (A) (A)
                 (A) (A) (A) (A) (A) (A) (A) (A) (A) (A) (A) (A)
                 (A) (A) (A) (A) (A) (A) (A) (A) (A) (A) (A) (A)
                 (A) (A) (A) (A) (A) (A) (A) (A) (A) (A) (A) (A)
                 (A) (A) (A) (A) (A) (A) (A) (A) (A) (A) (A) (A)
                 (A) (A) (A) (A) (A) (A) (A) (A) (A) (A) (A) (A)
                 (A) (A) (A) (A) (A) (A) (A) (A) (A) (A) (A) (A)
                 (A) (A) (A) (A) (A) (A) (A) (A) (A) (A) (A) (A)
                 (A) (A) (A) (A) (A) (A) (A) (A) (A) (A) (A) (A)
                 (A) (A) (A) (A) (A) (A) (A) (A) (A) (A) (A) (A)
                 (A) (A) (A) (A) (A) (A) (A) (A) (A) (A) (A) (A)
                 (A) (A) (A) (A) (A) (A) (A) (A) (A) (A) (A) (A)
                 (A) (A) (A) (A) (A) (A) (A) (A) (A) (A) (A) (A)
                 (A) (A) (A) (A) (A) (A) (A) (A) (A) (A) (A) (A)
                 (A) (A) (A) (A) (A) (A) (A) (A) (A) (A) (A) (A)
                 (A) (A) (A) (A) (A) (A) (A) (A) (A) (A) (A) (A)
                 (A) (A) (A) (A) (A) (A) (A) (A) (A) (A) (A) (A)
                 (A) (A) (A) (A) (A) (A) (A) (A) (A) (A) (A) (A)
                 (A) (A) (A) (A) (A) (A) (A) (A) (A) (A) (A) (A)
                 (A) (A) (A) (A) (A) (A) (A) (A) (A) (A) (A) (A)
                 (A) (A) (A) (A) (A) (A) (A) (A) (A) (A) (A) (A)
                 (A) (A) (A) (A) (A) (A) (A) (A) (A) (A) (A) (A)
                 (A) (A) (A) (A) (A) (A) (A) (A) (A) (A) (A) (A)
                 (A) (A) (A) (A) (A) (A) (A) (A) (A) (A) (A) (A)
                 (A) (A) (A) (A) (A) (A) (A) (A) (A) (A) (A) (A)
                 (A) (A) (A) (A) (A) (A) (A) (A) (A) (A) (A) (A)
                 (A) (A) (A) (A) (A) (A) (A) (A) (A) (A) (A) (A)
                 (A) (A) (A) (A) (A) (A) (A) (A) (A) (A) (A) (A)
                 (A) (A) (A) (A) (A) (A) (A) (A) (A) (A) (A) (A)
                 (A) (A) (A) (A) (A) (A) (A) (A) (A) (A) (A) (A)
                 (A) (A) (A) (A) (A) (A) (A) (A) (A) (A) (A) (A)
                 (A) (A) (A) (A) (A) (A) (A) (A) (A) (A) (A) (A)
                 (A) (A) (A) (A) (A) (A) (A) (A) (A) (A) (A) (A)
                 (A) (A) (A) (A) (A) (A) (A) (A) (A) (A) (A) (A)
                 (A) (A) (A) (A) (A) (A) (A) (A) (A) (A) (A) (A)
                 (A) (A) (A) (A) (A) (A) (A) (A) (A) (A) (A) (A)
                 (A) (A) (A) (A) (A) (A) (A) (A) (A) (A) (A) (A)
                 (A) (A) (A) (A) (A) (A) (A) (A) (A) (A) (A) (A)
                 (A) (A) (A) (A) (A) (A) (A) (A) (A) (A) (A) (A)
                 (A) (A) (A) (A) (A) (A) (A) (A) (A) (A) (A) (A)
                 (A) (A) (A) (A) (A) (A) (A) (A) (A) (A) (A) (A)
                 (A) (A) (A) (A) (A) (A) (A) (A) (A) (A) (A) (A)
                 (A) (A) (A) (A) (A) (A) (A) (A) (A) (A) (A) (A)
                 (A) (A) (A) (A) (A) (A) (A) (A) (A) (A) (A) (A)
                 (A) (A) (A) (A) (A) (A) (A) (A) (A) (A) (A) (A)
                 (A) (A) (A) (A) (A) (A) (A) (A) (A) (A) (A) (A)
                 (A) (A) (A) (A) (A) (A) (A) (A) (A) (A) (A) (A)
                 (A) (A) (A) (A) (A) (A) (A) (A) (A) (A) (A) (A)
                 (A) (A) (A) (A) (A) (A) (A) (A) (A) (A) (A) (A)
                 (A) (A) (A) (A) (A) (A) (A) (A) (A) (A) (A) (A)
                 (A) (A) (A) (A) (A) (A) (A) (A) (A) (A) (A) (A)
                 (A) (A) (A) (A) (A) (A) (A) (A) (A) (A) (A) (A)
                 (A) (A) (A) (A) (A) (A) (A) (A) (A) (A)
     8 initial guesses have been made.
 Convergence on wavefunction:    0.001000000000000
 Iteration     1 Dimension     8 NMult     0 NNew      8
 CISAX will form     8 AO SS matrices at one time.
 Iteration     2 Dimension    12 NMult     8 NNew      4
 Iteration     3 Dimension    16 NMult    12 NNew      4
 Iteration     4 Dimension    20 NMult    16 NNew      4
 Iteration     5 Dimension    24 NMult    20 NNew      4
 Iteration     6 Dimension    28 NMult    24 NNew      4
 Iteration     7 Dimension    32 NMult    28 NNew      4
 ***********************************************************************
 Excited states from <AA,BB:AA,BB> singles matrix:
 ***********************************************************************
 
 Ground to excited state transition densities written to RWF  633
 Ground to excited state transition electric dipole moments (Au):
       state          X           Y           Z        Dip. S.      Osc.
         1        -0.6774     -1.3852     -1.2644      3.9763      0.2006
 Ground to excited state transition velocity dipole moments (Au):
       state          X           Y           Z        Dip. S.      Osc.
         1         0.0502      0.1003      0.0937      0.0214      0.1881
 Ground to excited state transition magnetic dipole moments (Au):
       state          X           Y           Z
         1         1.2438      1.3933     -2.2359
 Ground to excited state transition velocity quadrupole moments (Au):
       state          XX          YY          ZZ          XY          XZ          YZ
         1        -1.0664      0.1019      0.2735     -0.8059     -0.8639      0.3392
 <0|del|b> * <b|rxdel|0> + <0|del|b> * <b|delr+rdel|0>
 Rotatory Strengths (R) in cgs (10**-40 erg-esu-cm/Gauss)
       state          XX          YY          ZZ    R(velocity)    E-M Angle
         1      -274.6710   -254.5846    460.2415    -23.0047       90.99
 1/2[<0|r|b>*<b|rxdel|0> + (<0|rxdel|b>*<b|r|0>)*]
 Rotatory Strengths (R) in cgs (10**-40 erg-esu-cm/Gauss)
       state          XX          YY          ZZ     R(length)
         1       595.8150   1364.7961  -1999.2545    -12.8811
  1/2[<0|del|b>*<b|r|0> + (<0|r|b>*<b|del|0>)*] (Au)
       state          X           Y           Z        Dip. S.   Osc.(frdel)
         1        -0.0340     -0.1389     -0.1185      0.2914      0.1943

 Excitation energies and oscillator strengths:
 
 Excited State   1:      Singlet-A      2.0595 eV  602.01 nm  f=0.2006  <S**2>=0.000
     243 -> 246        0.26392
     244 -> 245        0.64776
 This state for optimization and/or second-order correction.
 Total Energy, E(TD-HF/TD-KS) =  -3043.33421226    
 Copying the excited state density for this state as the 1-particle RhoCI density.
 SavETr:  write IOETrn=   770 NScale= 10 NData=  16 NLR=1 NState=    1 LETran=      28.

 **********************************************************************

            Population analysis using the SCF density.

 **********************************************************************

 Orbital symmetries:
       Occupied  (A) (A) (A) (A) (A) (A) (A) (A) (A) (A) (A) (A)
                 (A) (A) (A) (A) (A) (A) (A) (A) (A) (A) (A) (A)
                 (A) (A) (A) (A) (A) (A) (A) (A) (A) (A) (A) (A)
                 (A) (A) (A) (A) (A) (A) (A) (A) (A) (A) (A) (A)
                 (A) (A) (A) (A) (A) (A) (A) (A) (A) (A) (A) (A)
                 (A) (A) (A) (A) (A) (A) (A) (A) (A) (A) (A) (A)
                 (A) (A) (A) (A) (A) (A) (A) (A) (A) (A) (A) (A)
                 (A) (A) (A) (A) (A) (A) (A) (A) (A) (A) (A) (A)
                 (A) (A) (A) (A) (A) (A) (A) (A) (A) (A) (A) (A)
                 (A) (A) (A) (A) (A) (A) (A) (A) (A) (A) (A) (A)
                 (A) (A) (A) (A) (A) (A) (A) (A) (A) (A) (A) (A)
                 (A) (A) (A) (A) (A) (A) (A) (A) (A) (A) (A) (A)
                 (A) (A) (A) (A) (A) (A) (A) (A) (A) (A) (A) (A)
                 (A) (A) (A) (A) (A) (A) (A) (A) (A) (A) (A) (A)
                 (A) (A) (A) (A) (A) (A) (A) (A) (A) (A) (A) (A)
                 (A) (A) (A) (A) (A) (A) (A) (A) (A) (A) (A) (A)
                 (A) (A) (A) (A) (A) (A) (A) (A) (A) (A) (A) (A)
                 (A) (A) (A) (A) (A) (A) (A) (A) (A) (A) (A) (A)
                 (A) (A) (A) (A) (A) (A) (A) (A) (A) (A) (A) (A)
                 (A) (A) (A) (A) (A) (A) (A) (A) (A) (A) (A) (A)
                 (A) (A) (A) (A)
       Virtual   (A) (A) (A) (A) (A) (A) (A) (A) (A) (A) (A) (A)
                 (A) (A) (A) (A) (A) (A) (A) (A) (A) (A) (A) (A)
                 (A) (A) (A) (A) (A) (A) (A) (A) (A) (A) (A) (A)
                 (A) (A) (A) (A) (A) (A) (A) (A) (A) (A) (A) (A)
                 (A) (A) (A) (A) (A) (A) (A) (A) (A) (A) (A) (A)
                 (A) (A) (A) (A) (A) (A) (A) (A) (A) (A) (A) (A)
                 (A) (A) (A) (A) (A) (A) (A) (A) (A) (A) (A) (A)
                 (A) (A) (A) (A) (A) (A) (A) (A) (A) (A) (A) (A)
                 (A) (A) (A) (A) (A) (A) (A) (A) (A) (A) (A) (A)
                 (A) (A) (A) (A) (A) (A) (A) (A) (A) (A) (A) (A)
                 (A) (A) (A) (A) (A) (A) (A) (A) (A) (A) (A) (A)
                 (A) (A) (A) (A) (A) (A) (A) (A) (A) (A) (A) (A)
                 (A) (A) (A) (A) (A) (A) (A) (A) (A) (A) (A) (A)
                 (A) (A) (A) (A) (A) (A) (A) (A) (A) (A) (A) (A)
                 (A) (A) (A) (A) (A) (A) (A) (A) (A) (A) (A) (A)
                 (A) (A) (A) (A) (A) (A) (A) (A) (A) (A) (A) (A)
                 (A) (A) (A) (A) (A) (A) (A) (A) (A) (A) (A) (A)
                 (A) (A) (A) (A) (A) (A) (A) (A) (A) (A) (A) (A)
                 (A) (A) (A) (A) (A) (A) (A) (A) (A) (A) (A) (A)
                 (A) (A) (A) (A) (A) (A) (A) (A) (A) (A) (A) (A)
                 (A) (A) (A) (A) (A) (A) (A) (A) (A) (A) (A) (A)
                 (A) (A) (A) (A) (A) (A) (A) (A) (A) (A) (A) (A)
                 (A) (A) (A) (A) (A) (A) (A) (A) (A) (A) (A) (A)
                 (A) (A) (A) (A) (A) (A) (A) (A) (A) (A) (A) (A)
                 (A) (A) (A) (A) (A) (A) (A) (A) (A) (A) (A) (A)
                 (A) (A) (A) (A) (A) (A) (A) (A) (A) (A) (A) (A)
                 (A) (A) (A) (A) (A) (A) (A) (A) (A) (A) (A) (A)
                 (A) (A) (A) (A) (A) (A) (A) (A) (A) (A) (A) (A)
                 (A) (A) (A) (A) (A) (A) (A) (A) (A) (A) (A) (A)
                 (A) (A) (A) (A) (A) (A) (A) (A) (A) (A) (A) (A)
                 (A) (A) (A) (A) (A) (A) (A) (A) (A) (A) (A) (A)
                 (A) (A) (A) (A) (A) (A) (A) (A) (A) (A) (A) (A)
                 (A) (A) (A) (A) (A) (A) (A) (A) (A) (A) (A) (A)
                 (A) (A) (A) (A) (A) (A) (A) (A) (A) (A) (A) (A)
                 (A) (A) (A) (A) (A) (A) (A) (A) (A) (A) (A) (A)
                 (A) (A) (A) (A) (A) (A) (A) (A) (A) (A) (A) (A)
                 (A) (A) (A) (A) (A) (A) (A) (A) (A) (A) (A) (A)
                 (A) (A) (A) (A) (A) (A) (A) (A) (A) (A) (A) (A)
                 (A) (A) (A) (A) (A) (A) (A) (A) (A) (A) (A) (A)
                 (A) (A) (A) (A) (A) (A) (A) (A) (A) (A) (A) (A)
                 (A) (A) (A) (A) (A) (A) (A) (A) (A) (A) (A) (A)
                 (A) (A) (A) (A) (A) (A) (A) (A) (A) (A) (A) (A)
                 (A) (A) (A) (A) (A) (A) (A) (A) (A) (A) (A) (A)
                 (A) (A) (A) (A) (A) (A) (A) (A) (A) (A) (A) (A)
                 (A) (A) (A) (A) (A) (A) (A) (A) (A) (A) (A) (A)
                 (A) (A) (A) (A) (A) (A) (A) (A) (A) (A) (A) (A)
                 (A) (A) (A) (A) (A) (A) (A) (A) (A) (A) (A) (A)
                 (A) (A) (A) (A) (A) (A) (A) (A) (A) (A) (A) (A)
                 (A) (A) (A) (A) (A) (A) (A) (A) (A) (A) (A) (A)
                 (A) (A) (A) (A) (A) (A) (A) (A) (A) (A) (A) (A)
                 (A) (A) (A) (A) (A) (A) (A) (A) (A) (A) (A) (A)
                 (A) (A) (A) (A) (A) (A) (A) (A) (A) (A) (A) (A)
                 (A) (A) (A) (A) (A) (A) (A) (A) (A) (A) (A) (A)
                 (A) (A) (A) (A) (A) (A) (A) (A) (A) (A) (A) (A)
                 (A) (A) (A) (A) (A) (A) (A) (A) (A) (A) (A) (A)
                 (A) (A) (A) (A) (A) (A) (A) (A) (A) (A) (A) (A)
                 (A) (A) (A) (A) (A) (A) (A) (A) (A) (A) (A) (A)
                 (A) (A) (A) (A) (A) (A) (A) (A) (A) (A) (A) (A)
                 (A) (A) (A) (A) (A) (A) (A) (A) (A) (A) (A) (A)
                 (A) (A) (A) (A) (A) (A) (A) (A) (A) (A) (A) (A)
                 (A) (A) (A) (A) (A) (A) (A) (A) (A) (A) (A) (A)
                 (A) (A) (A) (A) (A) (A) (A) (A) (A) (A) (A) (A)
                 (A) (A) (A) (A) (A) (A) (A) (A) (A) (A) (A) (A)
                 (A) (A) (A) (A) (A) (A) (A) (A) (A) (A) (A) (A)
                 (A) (A) (A) (A) (A) (A) (A) (A) (A) (A) (A) (A)
                 (A) (A) (A) (A) (A) (A) (A) (A) (A) (A) (A) (A)
                 (A) (A) (A) (A) (A) (A) (A) (A) (A) (A) (A) (A)
                 (A) (A) (A) (A) (A) (A) (A) (A) (A) (A) (A) (A)
                 (A) (A) (A) (A) (A) (A) (A) (A) (A) (A) (A) (A)
                 (A) (A) (A) (A) (A) (A) (A) (A) (A) (A) (A) (A)
                 (A) (A) (A) (A) (A) (A) (A) (A) (A) (A) (A) (A)
                 (A) (A) (A) (A) (A) (A) (A) (A) (A) (A) (A) (A)
                 (A) (A) (A) (A) (A) (A) (A) (A) (A) (A) (A) (A)
                 (A) (A) (A) (A) (A) (A) (A) (A) (A) (A) (A) (A)
                 (A) (A) (A) (A) (A) (A) (A) (A) (A) (A) (A) (A)
                 (A) (A) (A) (A) (A) (A) (A) (A) (A) (A) (A) (A)
                 (A) (A) (A) (A) (A) (A) (A) (A) (A) (A) (A) (A)
                 (A) (A) (A) (A) (A) (A) (A) (A) (A) (A) (A) (A)
                 (A) (A) (A) (A) (A) (A) (A) (A) (A) (A) (A) (A)
                 (A) (A) (A) (A) (A) (A) (A) (A) (A) (A) (A) (A)
                 (A) (A) (A) (A) (A) (A) (A) (A) (A) (A) (A) (A)
                 (A) (A) (A) (A) (A) (A) (A) (A) (A) (A) (A) (A)
                 (A) (A) (A) (A) (A) (A) (A) (A) (A) (A) (A) (A)
                 (A) (A) (A) (A) (A) (A) (A) (A) (A) (A) (A) (A)
                 (A) (A) (A) (A) (A) (A) (A) (A) (A) (A) (A) (A)
                 (A) (A) (A) (A) (A) (A) (A) (A) (A) (A) (A) (A)
                 (A) (A) (A) (A) (A) (A) (A) (A) (A) (A) (A) (A)
                 (A) (A) (A) (A) (A) (A) (A) (A) (A) (A) (A) (A)
                 (A) (A) (A) (A) (A) (A) (A) (A) (A) (A) (A) (A)
                 (A) (A) (A) (A) (A) (A) (A) (A) (A) (A) (A) (A)
                 (A) (A) (A) (A) (A) (A) (A) (A) (A) (A)
 The electronic state is 1-A.
 Alpha  occ. eigenvalues --  -46.80886 -19.23981 -19.22645 -19.18592 -19.17941
 Alpha  occ. eigenvalues --  -19.17855 -19.17146 -19.16875 -14.38267 -14.36808
 Alpha  occ. eigenvalues --  -14.36575 -14.36205 -10.36443 -10.36007 -10.32336
 Alpha  occ. eigenvalues --  -10.31719 -10.30567 -10.27682 -10.27567 -10.26422
 Alpha  occ. eigenvalues --  -10.26257 -10.26223 -10.26159 -10.26026 -10.26018
 Alpha  occ. eigenvalues --  -10.25985 -10.25932 -10.25624 -10.25595 -10.25260
 Alpha  occ. eigenvalues --  -10.25171 -10.24964 -10.24864 -10.24602 -10.24220
 Alpha  occ. eigenvalues --  -10.24209 -10.24190 -10.24108 -10.24035 -10.23743
 Alpha  occ. eigenvalues --  -10.23731 -10.23551 -10.23355 -10.23196 -10.23137
 Alpha  occ. eigenvalues --  -10.23088 -10.22806 -10.22052 -10.22009 -10.21996
 Alpha  occ. eigenvalues --  -10.21977 -10.21956 -10.21894 -10.21779 -10.21705
 Alpha  occ. eigenvalues --  -10.21626 -10.20866 -10.20841 -10.20809 -10.20534
 Alpha  occ. eigenvalues --  -10.20532 -10.19989 -10.19925 -10.19793 -10.19142
 Alpha  occ. eigenvalues --  -10.19060  -3.09576  -1.84509  -1.84052  -1.83988
 Alpha  occ. eigenvalues --   -1.15430  -1.13301  -1.08246  -1.06825  -1.06651
 Alpha  occ. eigenvalues --   -1.05031  -1.00838  -1.00644  -1.00030  -0.99414
 Alpha  occ. eigenvalues --   -0.98646  -0.87723  -0.87319  -0.86651  -0.86356
 Alpha  occ. eigenvalues --   -0.85930  -0.84732  -0.84321  -0.83804  -0.83539
 Alpha  occ. eigenvalues --   -0.83131  -0.82917  -0.82319  -0.80478  -0.79999
 Alpha  occ. eigenvalues --   -0.79295  -0.78298  -0.77583  -0.76953  -0.76311
 Alpha  occ. eigenvalues --   -0.75188  -0.74911  -0.74140  -0.72776  -0.72041
 Alpha  occ. eigenvalues --   -0.71361  -0.70619  -0.70436  -0.69682  -0.69502
 Alpha  occ. eigenvalues --   -0.69270  -0.68886  -0.67520  -0.66826  -0.66109
 Alpha  occ. eigenvalues --   -0.65418  -0.65242  -0.63739  -0.62967  -0.62306
 Alpha  occ. eigenvalues --   -0.61131  -0.60584  -0.60328  -0.60111  -0.59974
 Alpha  occ. eigenvalues --   -0.58887  -0.58769  -0.58004  -0.57922  -0.56902
 Alpha  occ. eigenvalues --   -0.56107  -0.55599  -0.55210  -0.54958  -0.54750
 Alpha  occ. eigenvalues --   -0.54408  -0.53947  -0.53473  -0.52445  -0.52397
 Alpha  occ. eigenvalues --   -0.52193  -0.51864  -0.51724  -0.51274  -0.51121
 Alpha  occ. eigenvalues --   -0.50797  -0.49830  -0.49597  -0.49470  -0.49257
 Alpha  occ. eigenvalues --   -0.49134  -0.49054  -0.48739  -0.48514  -0.48054
 Alpha  occ. eigenvalues --   -0.47844  -0.47456  -0.47241  -0.47150  -0.46956
 Alpha  occ. eigenvalues --   -0.46801  -0.46552  -0.46094  -0.46054  -0.45467
 Alpha  occ. eigenvalues --   -0.45257  -0.45199  -0.45128  -0.44961  -0.44882
 Alpha  occ. eigenvalues --   -0.44636  -0.44151  -0.44066  -0.43659  -0.43611
 Alpha  occ. eigenvalues --   -0.43216  -0.43204  -0.42980  -0.42673  -0.42481
 Alpha  occ. eigenvalues --   -0.42429  -0.42391  -0.42178  -0.41968  -0.41829
 Alpha  occ. eigenvalues --   -0.41579  -0.41401  -0.41181  -0.41060  -0.40984
 Alpha  occ. eigenvalues --   -0.40939  -0.40751  -0.40448  -0.40238  -0.40058
 Alpha  occ. eigenvalues --   -0.39756  -0.39586  -0.39416  -0.39232  -0.39014
 Alpha  occ. eigenvalues --   -0.38871  -0.38802  -0.38417  -0.38318  -0.37991
 Alpha  occ. eigenvalues --   -0.37871  -0.37362  -0.37217  -0.37175  -0.36827
 Alpha  occ. eigenvalues --   -0.36590  -0.36268  -0.36108  -0.36018  -0.35821
 Alpha  occ. eigenvalues --   -0.35418  -0.35382  -0.35123  -0.34753  -0.34659
 Alpha  occ. eigenvalues --   -0.34503  -0.34046  -0.33715  -0.33186  -0.32928
 Alpha  occ. eigenvalues --   -0.32756  -0.32461  -0.32121  -0.31775  -0.31684
 Alpha  occ. eigenvalues --   -0.31204  -0.30639  -0.30182  -0.29978  -0.29943
 Alpha  occ. eigenvalues --   -0.28609  -0.28057  -0.27906  -0.27695  -0.27485
 Alpha  occ. eigenvalues --   -0.27424  -0.27269  -0.22558  -0.21560
 Alpha virt. eigenvalues --   -0.08423  -0.05950  -0.01559  -0.00529   0.00671
 Alpha virt. eigenvalues --    0.01201   0.02266   0.03652   0.04310   0.04442
 Alpha virt. eigenvalues --    0.05110   0.05614   0.07835   0.08089   0.08477
 Alpha virt. eigenvalues --    0.08987   0.09488   0.10052   0.10176   0.10299
 Alpha virt. eigenvalues --    0.10495   0.10869   0.11154   0.11469   0.11558
 Alpha virt. eigenvalues --    0.12210   0.12361   0.12444   0.12851   0.12980
 Alpha virt. eigenvalues --    0.13146   0.13366   0.13529   0.13795   0.13913
 Alpha virt. eigenvalues --    0.14047   0.14319   0.14464   0.14688   0.14836
 Alpha virt. eigenvalues --    0.15152   0.15177   0.15622   0.15822   0.15886
 Alpha virt. eigenvalues --    0.16214   0.16713   0.16801   0.16887   0.17210
 Alpha virt. eigenvalues --    0.17345   0.17437   0.17533   0.17715   0.17910
 Alpha virt. eigenvalues --    0.17973   0.18172   0.18272   0.18547   0.18837
 Alpha virt. eigenvalues --    0.18931   0.19003   0.19035   0.19134   0.19221
 Alpha virt. eigenvalues --    0.19334   0.19446   0.19800   0.20098   0.20116
 Alpha virt. eigenvalues --    0.20519   0.20643   0.20717   0.20829   0.20896
 Alpha virt. eigenvalues --    0.21165   0.21394   0.21433   0.21859   0.21991
 Alpha virt. eigenvalues --    0.22082   0.22236   0.22445   0.22702   0.22949
 Alpha virt. eigenvalues --    0.23104   0.23212   0.23443   0.23681   0.23866
 Alpha virt. eigenvalues --    0.24185   0.24491   0.24599   0.24875   0.25027
 Alpha virt. eigenvalues --    0.25163   0.25249   0.25440   0.25694   0.25721
 Alpha virt. eigenvalues --    0.26131   0.26349   0.26554   0.26790   0.26995
 Alpha virt. eigenvalues --    0.27125   0.27213   0.27884   0.28096   0.28112
 Alpha virt. eigenvalues --    0.28743   0.28863   0.29076   0.29207   0.29376
 Alpha virt. eigenvalues --    0.29686   0.30060   0.30314   0.30552   0.31021
 Alpha virt. eigenvalues --    0.31235   0.31463   0.31730   0.32117   0.32337
 Alpha virt. eigenvalues --    0.32477   0.32581   0.32762   0.33011   0.33706
 Alpha virt. eigenvalues --    0.33809   0.33933   0.34324   0.35101   0.36076
 Alpha virt. eigenvalues --    0.36596   0.37193   0.37324   0.37568   0.38378
 Alpha virt. eigenvalues --    0.38577   0.39306   0.39371   0.40243   0.40806
 Alpha virt. eigenvalues --    0.40911   0.41471   0.42076   0.42709   0.43637
 Alpha virt. eigenvalues --    0.44235   0.44434   0.45674   0.46088   0.46441
 Alpha virt. eigenvalues --    0.47059   0.47880   0.48473   0.48612   0.49253
 Alpha virt. eigenvalues --    0.49672   0.50011   0.50593   0.51137   0.51359
 Alpha virt. eigenvalues --    0.51531   0.51563   0.51737   0.52486   0.52730
 Alpha virt. eigenvalues --    0.53108   0.53359   0.53499   0.53793   0.54311
 Alpha virt. eigenvalues --    0.54396   0.54761   0.54767   0.54914   0.55030
 Alpha virt. eigenvalues --    0.55371   0.55503   0.55601   0.55746   0.56051
 Alpha virt. eigenvalues --    0.56334   0.56613   0.56942   0.57201   0.57368
 Alpha virt. eigenvalues --    0.57685   0.57710   0.57775   0.57892   0.58230
 Alpha virt. eigenvalues --    0.58583   0.58998   0.59272   0.59770   0.60079
 Alpha virt. eigenvalues --    0.60203   0.60370   0.60603   0.60829   0.60935
 Alpha virt. eigenvalues --    0.61249   0.61393   0.61804   0.61986   0.62205
 Alpha virt. eigenvalues --    0.62289   0.62661   0.63057   0.63294   0.63622
 Alpha virt. eigenvalues --    0.63801   0.64058   0.64329   0.64577   0.64691
 Alpha virt. eigenvalues --    0.65092   0.65398   0.65731   0.66062   0.66228
 Alpha virt. eigenvalues --    0.66531   0.66784   0.67153   0.67461   0.67732
 Alpha virt. eigenvalues --    0.67992   0.68200   0.68548   0.68635   0.69138
 Alpha virt. eigenvalues --    0.69277   0.69348   0.69664   0.69943   0.70060
 Alpha virt. eigenvalues --    0.70509   0.70793   0.70999   0.71127   0.71301
 Alpha virt. eigenvalues --    0.71613   0.72061   0.72129   0.72343   0.72579
 Alpha virt. eigenvalues --    0.72755   0.73116   0.73313   0.73686   0.73877
 Alpha virt. eigenvalues --    0.74118   0.74677   0.74791   0.75165   0.75415
 Alpha virt. eigenvalues --    0.75892   0.76115   0.76194   0.76272   0.76456
 Alpha virt. eigenvalues --    0.76636   0.76717   0.77160   0.77584   0.77741
 Alpha virt. eigenvalues --    0.77972   0.78149   0.78242   0.78510   0.78729
 Alpha virt. eigenvalues --    0.78961   0.79380   0.79579   0.79709   0.80141
 Alpha virt. eigenvalues --    0.80396   0.80562   0.80852   0.81426   0.81589
 Alpha virt. eigenvalues --    0.81645   0.81952   0.82018   0.82175   0.82512
 Alpha virt. eigenvalues --    0.82716   0.83013   0.83186   0.83326   0.83456
 Alpha virt. eigenvalues --    0.83668   0.83846   0.84067   0.84532   0.84799
 Alpha virt. eigenvalues --    0.85263   0.85712   0.85864   0.86013   0.86114
 Alpha virt. eigenvalues --    0.86164   0.86262   0.86540   0.86831   0.87043
 Alpha virt. eigenvalues --    0.87182   0.87337   0.87583   0.87709   0.87755
 Alpha virt. eigenvalues --    0.88218   0.88381   0.88579   0.88765   0.88837
 Alpha virt. eigenvalues --    0.89013   0.89326   0.89344   0.89528   0.89805
 Alpha virt. eigenvalues --    0.90032   0.90133   0.90288   0.90541   0.90714
 Alpha virt. eigenvalues --    0.90857   0.91118   0.91319   0.91682   0.91939
 Alpha virt. eigenvalues --    0.92330   0.92378   0.92812   0.92867   0.93004
 Alpha virt. eigenvalues --    0.93233   0.93376   0.93683   0.93839   0.94226
 Alpha virt. eigenvalues --    0.94489   0.94519   0.94710   0.95223   0.95488
 Alpha virt. eigenvalues --    0.95623   0.95840   0.96119   0.96433   0.96504
 Alpha virt. eigenvalues --    0.96933   0.97086   0.97136   0.97278   0.97587
 Alpha virt. eigenvalues --    0.97926   0.98205   0.98292   0.98789   0.98848
 Alpha virt. eigenvalues --    0.98965   0.99023   0.99550   1.00031   1.00085
 Alpha virt. eigenvalues --    1.00293   1.00600   1.00817   1.01098   1.01365
 Alpha virt. eigenvalues --    1.01796   1.02060   1.02370   1.02434   1.02683
 Alpha virt. eigenvalues --    1.02914   1.03145   1.03541   1.03902   1.04049
 Alpha virt. eigenvalues --    1.04466   1.04743   1.04752   1.05117   1.05423
 Alpha virt. eigenvalues --    1.05657   1.05866   1.06357   1.06647   1.07147
 Alpha virt. eigenvalues --    1.07210   1.07885   1.08590   1.08901   1.09047
 Alpha virt. eigenvalues --    1.09392   1.09963   1.10950   1.11284   1.11657
 Alpha virt. eigenvalues --    1.11988   1.12202   1.12404   1.12796   1.13158
 Alpha virt. eigenvalues --    1.14278   1.14490   1.15131   1.16256   1.16393
 Alpha virt. eigenvalues --    1.16748   1.17431   1.17841   1.18581   1.19071
 Alpha virt. eigenvalues --    1.19588   1.19940   1.20301   1.20685   1.21465
 Alpha virt. eigenvalues --    1.22486   1.22611   1.23202   1.23521   1.23765
 Alpha virt. eigenvalues --    1.23898   1.24699   1.25765   1.26089   1.26371
 Alpha virt. eigenvalues --    1.27373   1.27440   1.28052   1.28737   1.29282
 Alpha virt. eigenvalues --    1.29356   1.29832   1.29865   1.30813   1.31606
 Alpha virt. eigenvalues --    1.31701   1.31941   1.32272   1.32868   1.33228
 Alpha virt. eigenvalues --    1.33368   1.33996   1.34819   1.35202   1.35542
 Alpha virt. eigenvalues --    1.35872   1.36638   1.37308   1.37488   1.37856
 Alpha virt. eigenvalues --    1.38196   1.38498   1.39295   1.39965   1.40170
 Alpha virt. eigenvalues --    1.40999   1.41247   1.41948   1.42041   1.42680
 Alpha virt. eigenvalues --    1.42968   1.43149   1.43753   1.44321   1.44653
 Alpha virt. eigenvalues --    1.44823   1.45392   1.45713   1.46452   1.46842
 Alpha virt. eigenvalues --    1.47269   1.47956   1.48186   1.48993   1.49361
 Alpha virt. eigenvalues --    1.50299   1.50458   1.50782   1.51077   1.51307
 Alpha virt. eigenvalues --    1.52253   1.52568   1.52780   1.53334   1.54036
 Alpha virt. eigenvalues --    1.54165   1.54370   1.54798   1.55220   1.55618
 Alpha virt. eigenvalues --    1.56105   1.56511   1.56791   1.57466   1.57719
 Alpha virt. eigenvalues --    1.57943   1.58538   1.59060   1.59759   1.59991
 Alpha virt. eigenvalues --    1.60461   1.61073   1.61202   1.61512   1.61586
 Alpha virt. eigenvalues --    1.61861   1.62825   1.63375   1.63712   1.63934
 Alpha virt. eigenvalues --    1.64218   1.64736   1.65174   1.65663   1.66066
 Alpha virt. eigenvalues --    1.66342   1.66652   1.67494   1.68131   1.68431
 Alpha virt. eigenvalues --    1.69028   1.69300   1.70087   1.70668   1.70862
 Alpha virt. eigenvalues --    1.70998   1.71308   1.71985   1.72016   1.72239
 Alpha virt. eigenvalues --    1.72493   1.72641   1.73261   1.73588   1.73805
 Alpha virt. eigenvalues --    1.74239   1.74805   1.74953   1.75039   1.75290
 Alpha virt. eigenvalues --    1.76751   1.77165   1.77380   1.77703   1.78120
 Alpha virt. eigenvalues --    1.78261   1.78769   1.79056   1.79556   1.79950
 Alpha virt. eigenvalues --    1.80396   1.80415   1.81212   1.81631   1.81730
 Alpha virt. eigenvalues --    1.81965   1.82407   1.82605   1.82644   1.82783
 Alpha virt. eigenvalues --    1.83166   1.83292   1.83484   1.83766   1.83935
 Alpha virt. eigenvalues --    1.84085   1.84509   1.84704   1.84877   1.85249
 Alpha virt. eigenvalues --    1.85891   1.86190   1.86404   1.86549   1.86798
 Alpha virt. eigenvalues --    1.86992   1.87446   1.87859   1.88023   1.88242
 Alpha virt. eigenvalues --    1.88393   1.88676   1.88804   1.89257   1.89508
 Alpha virt. eigenvalues --    1.89630   1.89922   1.90125   1.90299   1.90342
 Alpha virt. eigenvalues --    1.90735   1.91261   1.91574   1.91782   1.92126
 Alpha virt. eigenvalues --    1.92275   1.92406   1.92822   1.92986   1.93320
 Alpha virt. eigenvalues --    1.93714   1.94063   1.94324   1.94547   1.94867
 Alpha virt. eigenvalues --    1.94975   1.95485   1.95642   1.95789   1.96010
 Alpha virt. eigenvalues --    1.96093   1.96769   1.97116   1.97135   1.97394
 Alpha virt. eigenvalues --    1.97692   1.97795   1.98690   1.98929   1.99425
 Alpha virt. eigenvalues --    1.99653   1.99910   2.00267   2.00312   2.00635
 Alpha virt. eigenvalues --    2.00863   2.01071   2.01699   2.01943   2.02194
 Alpha virt. eigenvalues --    2.02523   2.02957   2.03276   2.03553   2.03677
 Alpha virt. eigenvalues --    2.03912   2.04207   2.04595   2.04881   2.04951
 Alpha virt. eigenvalues --    2.05532   2.05579   2.05637   2.06179   2.06247
 Alpha virt. eigenvalues --    2.06492   2.06920   2.07063   2.07327   2.07771
 Alpha virt. eigenvalues --    2.08011   2.08305   2.08569   2.08895   2.09173
 Alpha virt. eigenvalues --    2.09255   2.09543   2.09681   2.09984   2.10690
 Alpha virt. eigenvalues --    2.11356   2.11580   2.11946   2.12031   2.12829
 Alpha virt. eigenvalues --    2.13248   2.13422   2.13618   2.13802   2.14226
 Alpha virt. eigenvalues --    2.14674   2.14705   2.15176   2.15310   2.15578
 Alpha virt. eigenvalues --    2.15751   2.16074   2.16254   2.16941   2.17076
 Alpha virt. eigenvalues --    2.17172   2.17785   2.18302   2.18564   2.18763
 Alpha virt. eigenvalues --    2.19108   2.19355   2.19373   2.19970   2.20099
 Alpha virt. eigenvalues --    2.20569   2.20895   2.21148   2.21830   2.21913
 Alpha virt. eigenvalues --    2.22389   2.22645   2.23551   2.23905   2.24001
 Alpha virt. eigenvalues --    2.24287   2.24840   2.24978   2.25284   2.25627
 Alpha virt. eigenvalues --    2.26264   2.26320   2.26702   2.26850   2.27257
 Alpha virt. eigenvalues --    2.27648   2.27970   2.28298   2.28407   2.28803
 Alpha virt. eigenvalues --    2.29214   2.29624   2.29729   2.30599   2.30864
 Alpha virt. eigenvalues --    2.31272   2.31773   2.31944   2.32451   2.32729
 Alpha virt. eigenvalues --    2.33123   2.33222   2.33537   2.33864   2.34391
 Alpha virt. eigenvalues --    2.34579   2.34807   2.35284   2.35583   2.35821
 Alpha virt. eigenvalues --    2.36070   2.36254   2.36750   2.36908   2.37163
 Alpha virt. eigenvalues --    2.37748   2.37906   2.38033   2.38187   2.38562
 Alpha virt. eigenvalues --    2.38772   2.38914   2.39412   2.39678   2.39820
 Alpha virt. eigenvalues --    2.40362   2.40705   2.41013   2.41677   2.41845
 Alpha virt. eigenvalues --    2.41982   2.42412   2.42777   2.43058   2.43183
 Alpha virt. eigenvalues --    2.43349   2.43714   2.44081   2.44565   2.44623
 Alpha virt. eigenvalues --    2.45127   2.45727   2.46265   2.46538   2.46884
 Alpha virt. eigenvalues --    2.47291   2.47416   2.47837   2.47960   2.48171
 Alpha virt. eigenvalues --    2.48630   2.49048   2.49386   2.49838   2.50173
 Alpha virt. eigenvalues --    2.50209   2.51202   2.51556   2.52108   2.52216
 Alpha virt. eigenvalues --    2.52893   2.53328   2.53778   2.54232   2.54665
 Alpha virt. eigenvalues --    2.55039   2.55254   2.55414   2.55928   2.56193
 Alpha virt. eigenvalues --    2.56600   2.56824   2.57539   2.57966   2.58358
 Alpha virt. eigenvalues --    2.58835   2.59083   2.59276   2.59553   2.59985
 Alpha virt. eigenvalues --    2.60483   2.61001   2.61128   2.61498   2.61747
 Alpha virt. eigenvalues --    2.62230   2.62420   2.62849   2.63283   2.63549
 Alpha virt. eigenvalues --    2.63987   2.64113   2.64273   2.64710   2.65104
 Alpha virt. eigenvalues --    2.65709   2.65805   2.65889   2.66004   2.66588
 Alpha virt. eigenvalues --    2.67025   2.67536   2.67938   2.68246   2.68446
 Alpha virt. eigenvalues --    2.69094   2.69196   2.69303   2.69397   2.70436
 Alpha virt. eigenvalues --    2.70630   2.70719   2.71300   2.71648   2.71855
 Alpha virt. eigenvalues --    2.72144   2.72453   2.72720   2.72762   2.73113
 Alpha virt. eigenvalues --    2.73386   2.73731   2.73851   2.74675   2.74935
 Alpha virt. eigenvalues --    2.75125   2.75413   2.75738   2.76292   2.76422
 Alpha virt. eigenvalues --    2.76811   2.77530   2.77706   2.78274   2.78792
 Alpha virt. eigenvalues --    2.79675   2.80026   2.80219   2.80340   2.80590
 Alpha virt. eigenvalues --    2.81130   2.81288   2.81926   2.82436   2.82578
 Alpha virt. eigenvalues --    2.82761   2.83533   2.83934   2.84115   2.84254
 Alpha virt. eigenvalues --    2.84708   2.85177   2.85479   2.85761   2.85991
 Alpha virt. eigenvalues --    2.86282   2.87016   2.87621   2.88042   2.88285
 Alpha virt. eigenvalues --    2.88598   2.88908   2.89103   2.89420   2.89716
 Alpha virt. eigenvalues --    2.90040   2.90880   2.91002   2.91305   2.91668
 Alpha virt. eigenvalues --    2.91849   2.92736   2.93041   2.93379   2.93540
 Alpha virt. eigenvalues --    2.93661   2.94229   2.94425   2.94691   2.95154
 Alpha virt. eigenvalues --    2.95602   2.95766   2.96028   2.96443   2.96556
 Alpha virt. eigenvalues --    2.97216   2.97702   2.97822   2.98961   2.99077
 Alpha virt. eigenvalues --    2.99428   3.00314   3.00742   3.01002   3.01847
 Alpha virt. eigenvalues --    3.01884   3.02404   3.02724   3.03160   3.03368
 Alpha virt. eigenvalues --    3.04391   3.04820   3.04895   3.05520   3.05993
 Alpha virt. eigenvalues --    3.06470   3.06700   3.07529   3.09126   3.09379
 Alpha virt. eigenvalues --    3.10358   3.11140   3.11673   3.13954   3.14001
 Alpha virt. eigenvalues --    3.15487   3.17231   3.17481   3.17894   3.17942
 Alpha virt. eigenvalues --    3.18099   3.18932   3.20699   3.21263   3.21813
 Alpha virt. eigenvalues --    3.22261   3.22420   3.22902   3.23637   3.24145
 Alpha virt. eigenvalues --    3.24644   3.25865   3.26682   3.27148   3.28298
 Alpha virt. eigenvalues --    3.28542   3.29587   3.30323   3.31083   3.31270
 Alpha virt. eigenvalues --    3.31404   3.34440   3.34679   3.35279   3.35387
 Alpha virt. eigenvalues --    3.36817   3.36989   3.37053   3.38041   3.39071
 Alpha virt. eigenvalues --    3.39619   3.41031   3.41178   3.41442   3.41737
 Alpha virt. eigenvalues --    3.43039   3.44082   3.45115   3.45204   3.45686
 Alpha virt. eigenvalues --    3.46113   3.46890   3.47900   3.49518   3.50227
 Alpha virt. eigenvalues --    3.51693   3.52547   3.53084   3.53665   3.53879
 Alpha virt. eigenvalues --    3.54171   3.55276   3.56794   3.57202   3.57641
 Alpha virt. eigenvalues --    3.58110   3.59141   3.59209   3.60325   3.60802
 Alpha virt. eigenvalues --    3.62855   3.63029   3.63180   3.64459   3.64818
 Alpha virt. eigenvalues --    3.65374   3.67291   3.70993   3.78153   3.96703
 Alpha virt. eigenvalues --    3.99594   4.00092   4.00440   4.05935   4.10423
 Alpha virt. eigenvalues --    4.15106   4.15895   4.17411   4.18462   4.19611
 Alpha virt. eigenvalues --    4.20859   4.22736   4.23583   4.23828   4.24406
 Alpha virt. eigenvalues --    4.26942   4.27718   4.28958   4.30425   4.33083
 Alpha virt. eigenvalues --    4.33458   4.34022   4.35104   4.35919   4.36764
 Alpha virt. eigenvalues --    4.37627   4.39890   4.41245   4.42755   4.43518
 Alpha virt. eigenvalues --    4.44446   4.46801   4.46953   4.47037   4.47559
 Alpha virt. eigenvalues --    4.48588   4.50844   4.52502   4.53830   4.54156
 Alpha virt. eigenvalues --    4.54905   4.55517   4.57205   4.58041   4.58877
 Alpha virt. eigenvalues --    4.59517   4.62803   4.63177   4.65714   4.67337
 Alpha virt. eigenvalues --    4.68386   4.68932   4.70736   4.72265   4.72807
 Alpha virt. eigenvalues --    4.76005   4.76490   4.79967   4.80666   4.82530
 Alpha virt. eigenvalues --    4.83850   4.84110   4.86600   4.87834   4.93710
          Condensed to atoms (all electrons):
 Mulliken charges:
               1
     1  Mg   0.828574
     2  C    0.051075
     3  C   -0.193609
     4  C   -0.180030
     5  C   -0.194771
     6  N   -0.621485
     7  C    0.332794
     8  C   -0.172264
     9  C   -0.155697
    10  C    0.355210
    11  C   -0.314064
    12  C   -0.153252
    13  C   -0.275561
    14  C    0.601912
    15  O   -0.522740
    16  O   -0.409190
    17  N   -0.684757
    18  C    0.275861
    19  C    0.138623
    20  C   -0.068225
    21  C    0.301554
    22  C   -0.421064
    23  C    0.243092
    24  O   -0.394835
    25  N   -0.721502
    26  C    0.354564
    27  C   -0.098779
    28  C    0.084397
    29  C    0.299704
    30  C    0.251134
    31  C   -0.233746
    32  C   -0.298717
    33  N   -0.740617
    34  C    0.249787
    35  C   -0.007584
    36  C   -0.010743
    37  C    0.349587
    38  C   -0.371271
    39  C    0.358220
    40  O   -0.444709
    41  C   -0.319403
    42  C    0.615427
    43  O   -0.471252
    44  O   -0.446956
    45  C   -0.088675
    46  C    0.003934
    47  C   -0.150391
    48  C    0.143286
    49  C   -0.363716
    50  C   -0.216035
    51  C   -0.178568
    52  C   -0.174723
    53  C   -0.043888
    54  C   -0.303234
    55  C   -0.154561
    56  C   -0.197560
    57  C   -0.159327
    58  C   -0.091404
    59  C   -0.310363
    60  C   -0.140703
    61  C   -0.166787
    62  C   -0.159235
    63  C   -0.053628
    64  C   -0.316334
    65  C   -0.278171
    66  H    0.077695
    67  H    0.128186
    68  H    0.081043
    69  H    0.147081
    70  H    0.076190
    71  H    0.111408
    72  H    0.119637
    73  H    0.122684
    74  H    0.128965
    75  H    0.132120
    76  H    0.148685
    77  H    0.130471
    78  H    0.118121
    79  H    0.139160
    80  H    0.112342
    81  H    0.070767
    82  H    0.132522
    83  H    0.102880
    84  H    0.110053
    85  H    0.099262
    86  H    0.116406
    87  H    0.138348
    88  H    0.152235
    89  H    0.138180
    90  H    0.157483
    91  H    0.119574
    92  H    0.127048
    93  H    0.071484
    94  H    0.172203
    95  H    0.044507
    96  H    0.103236
    97  H    0.117776
    98  H    0.073346
    99  H    0.116501
   100  H    0.090242
   101  H    0.083376
   102  H    0.085892
   103  H    0.087959
   104  H    0.090790
   105  H    0.109627
   106  H    0.082392
   107  H    0.098057
   108  H    0.073329
   109  H    0.077566
   110  H    0.084698
   111  H    0.095743
   112  H    0.080348
   113  H    0.060451
   114  H    0.083847
   115  H    0.105114
   116  H    0.113436
   117  H    0.101185
   118  H    0.091971
   119  H    0.040292
   120  H    0.104363
   121  H    0.082547
   122  H    0.068122
   123  H    0.095094
   124  H    0.086944
   125  H    0.089488
   126  H    0.111506
   127  H    0.076987
   128  H    0.086420
   129  H    0.102239
   130  H    0.131200
   131  H    0.120937
   132  H    0.134044
   133  O   -0.404849
   134  H    0.076437
 Sum of Mulliken charges =   0.00000
 Mulliken charges with hydrogens summed into heavy atoms:
               1
     1  Mg   0.828574
     2  C    0.051075
     3  C   -0.115914
     4  C   -0.051844
     5  C   -0.113728
     6  N   -0.621485
     7  C    0.332794
     8  C   -0.025183
     9  C   -0.079507
    10  C    0.355210
    11  C    0.039666
    12  C    0.107833
    13  C    0.003595
    14  C    0.601912
    15  O   -0.522740
    16  O   -0.409190
    17  N   -0.684757
    18  C    0.275861
    19  C    0.138623
    20  C   -0.068225
    21  C    0.301554
    22  C   -0.051441
    23  C    0.313859
    24  O   -0.394835
    25  N   -0.721502
    26  C    0.354564
    27  C   -0.098779
    28  C    0.084397
    29  C    0.299704
    30  C    0.327572
    31  C    0.001657
    32  C    0.027004
    33  N   -0.740617
    34  C    0.249787
    35  C   -0.007584
    36  C   -0.010743
    37  C    0.349587
    38  C    0.057492
    39  C    0.358220
    40  O   -0.444709
    41  C   -0.161921
    42  C    0.615427
    43  O   -0.471252
    44  O   -0.446956
    45  C    0.297505
    46  C    0.250556
    47  C   -0.078907
    48  C    0.143286
    49  C   -0.043770
    50  C   -0.024913
    51  C    0.028176
    52  C   -0.005455
    53  C    0.044072
    54  C   -0.020424
    55  C    0.016824
    56  C   -0.035297
    57  C    0.016763
    58  C   -0.030953
    59  C   -0.007966
    60  C    0.052454
    61  C   -0.022132
    62  C   -0.008566
    63  C    0.041465
    64  C   -0.028396
    65  C   -0.012526
   133  O   -0.404849
 Electronic spatial extent (au):  <R**2>=         148896.9650
 Charge=              0.0000 electrons
 Dipole moment (field-independent basis, Debye):
    X=             -0.0091    Y=             -3.8529    Z=             -1.0554  Tot=              3.9949
 Quadrupole moment (field-independent basis, Debye-Ang):
   XX=           -382.1579   YY=           -433.5092   ZZ=           -392.4015
   XY=             -1.6813   XZ=             21.9371   YZ=            -37.2362
 Traceless Quadrupole moment (field-independent basis, Debye-Ang):
   XX=             20.5317   YY=            -30.8197   ZZ=             10.2880
   XY=             -1.6813   XZ=             21.9371   YZ=            -37.2362
 Octapole moment (field-independent basis, Debye-Ang**2):
  XXX=           -575.8536  YYY=           -504.4292  ZZZ=            -32.8468  XYY=            104.2509
  XXY=            -26.4897  XXZ=           -311.9038  XZZ=           -109.1596  YZZ=            -19.5981
  YYZ=            -80.3156  XYZ=            177.6772
 Hexadecapole moment (field-independent basis, Debye-Ang**3):
 XXXX=        -166611.6040 YYYY=         -30531.2046 ZZZZ=          -8958.0277 XXXY=          -2560.9210
 XXXZ=           1653.9082 YYYX=           1351.8694 YYYZ=          -1425.0161 ZZZX=            520.4224
 ZZZY=           -392.2132 XXYY=         -34560.3394 XXZZ=         -28748.4456 YYZZ=          -6830.9692
 XXYZ=          -1253.3615 YYXZ=            400.6651 ZZXY=           -227.6536
 N-N= 9.106475623572D+03 E-N=-2.529701295825D+04  KE= 3.015919767013D+03

 Test job not archived.
 1\1\GINC-PEDRO-RYZENSSD\SP\RCAM-B3LYP TD-FC\6-31G(d,p)\C54H68Mg1N4O7\P
 ADAWAN\04-Oct-2019\0\\# td=(NStates=1) iop(3/107=0140000000,3/108=0140
 000000) iop(3/107=0140000000,3/108=0140000000) CAM-B3LYP/6-31G(d,p)\\T
 D\\0,1\Mg,0,-5.7417899102,1.2241024379,0.1697396428\C,0,-5.1061007319,
 -2.1556595307,-0.3438174468\C,0,-3.49570103,1.1004925908,2.762677706\C
 ,0,-6.1956659889,4.50506853,0.5866310243\C,0,-8.1646273807,1.173396022
 ,-2.2034044343\N,0,-4.4273298175,-0.2990758307,1.0192520922\C,0,-4.235
 6187823,-1.6209432757,0.6689306116\C,0,-3.2527566774,-2.327743973,1.43
 40689955\C,0,-2.9756417196,-1.3605467244,2.5297997666\C,0,-3.571583958
 4,-0.0239915518,2.0746481234\C,0,-3.4273448425,-1.8037270653,3.9764855
 08\C,0,-2.024887332,-2.7590999032,0.5295671428\C,0,-0.9845862215,-3.47
 00720951,1.3871525922\C,0,0.2664225097,-3.8272675989,0.6212902901\O,0,
 0.5514389978,-3.4762773165,-0.6158115966\O,0,1.1004317254,-4.599725117
 3,1.2804740359\N,0,-4.9579343444,2.5764478815,1.5079974863\C,0,-4.0567
 897662,2.4009581118,2.4800732331\C,0,-3.7278733245,3.6175118337,3.2288
 018246\C,0,-4.5096367194,4.5821666822,2.5763935236\C,0,-5.3068400464,3
 .8819228688,1.5174168936\C,0,-2.824031028,3.5988569694,4.3342872992\C,
 0,-4.5505677568,6.0404040746,2.8466200988\O,0,-3.9116336507,6.49697452
 77,3.7423582083\N,0,-6.9724088905,2.5652144539,-0.6388165494\C,0,-6.99
 7411939,3.947315137,-0.3486230654\C,0,-7.9570708473,4.506051662,-1.191
 4419533\C,0,-8.585261559,3.597818912,-2.0858731397\C,0,-7.912825094,2.
 4204502191,-1.6339771675\C,0,-8.2860208808,6.0575971294,-1.2729584304\
 C,0,-9.5293494133,3.7365345918,-3.1358061292\C,0,-8.7685258333,4.07278
 8642,-4.3652097677\N,0,-6.4471104783,-0.1526004402,-1.0922602464\C,0,-
 7.4270963163,-0.0057614817,-2.079253848\C,0,-7.7522483414,-1.316516804
 4,-2.6709001146\C,0,-6.779383422,-2.1792917025,-2.0866478747\C,0,-6.03
 63615597,-1.3905330828,-1.0598138461\C,0,-8.675512926,-1.5878085695,-3
 .8599069101\C,0,-6.255619189,-3.5726663726,-2.1133067246\O,0,-6.706603
 901,-4.5582407942,-2.6882790736\C,0,-5.0539456481,-3.5650882755,-0.980
 4046613\C,0,-5.3777048981,-4.6460598076,0.128920043\O,0,-5.7658307657,
 -4.4900249359,1.2845755779\O,0,-5.0504550087,-5.8748413682,-0.40200437
 18\C,0,-5.5147148207,-6.9438279739,0.4097485097\C,0,2.3590425859,-4.88
 55548157,0.7610340847\C,0,3.4336666768,-3.8478862879,1.0245937452\C,0,
 4.1085199557,-3.0700368246,0.1995223272\C,0,3.7141563129,-3.0792711155
 ,-1.3089885677\C,0,5.2904732533,-2.1903333015,0.6426261135\C,0,6.62688
 82935,-2.6645214051,0.0887792038\C,0,7.7336124879,-1.6754491907,0.6648
 903236\C,0,9.0937979883,-1.8843944214,-0.011447858\C,0,9.6128183619,-3
 .3236622687,0.1027734023\C,0,10.0228177174,-0.9252831492,0.7085688203\
 C,0,11.438346992,-0.7954123363,-0.0349088015\C,0,12.4571333339,0.26291
 5482,0.3414849367\C,0,13.7136307572,0.3446641533,-0.5080805653\C,0,14.
 7053887119,-0.8621269427,-0.3619728825\C,0,14.4415840966,1.7182866009,
 -0.186836326\C,0,15.5672960105,1.9746794032,-0.9982369314\C,0,16.15554
 51742,3.4434468547,-0.7630774007\C,0,17.3972341181,3.9234812636,-1.434
 0644542\C,0,17.1572847106,4.0427098337,-2.9647687969\C,0,17.841487568,
 5.2459227183,-0.9306640234\H,0,-2.6453900449,1.0981966833,3.4937369849
 \H,0,-6.0750683897,5.6519613983,0.8092906918\H,0,-8.9430195011,0.92026
 62881,-3.0936147424\H,0,-3.9002270879,-3.1275458713,1.8535911012\H,0,-
 1.786849771,-1.199087517,2.5568778538\H,0,-2.9240217274,-2.7174283237,
 4.2718071266\H,0,-3.126669267,-1.0762297407,4.7141075467\H,0,-4.542805
 9564,-2.0491028283,4.0701502376\H,0,-2.3833254981,-3.6024832933,-0.183
 4160762\H,0,-1.5171524149,-1.7603046579,0.3217430156\H,0,-0.7180761977
 ,-2.9838283551,2.240678609\H,0,-1.4721966983,-4.4126981061,1.857574794
 2\H,0,-1.6445631084,3.3166063473,4.1578581669\H,0,-2.8794756016,4.6759
 172308,4.9478304459\H,0,-3.348194752,2.9074039345,5.1961765945\H,0,-5.
 0672105804,6.7094389264,2.0300551213\H,0,-9.9794519277,2.8176489168,-2
 .9991410687\H,0,-10.0944269256,4.673424877,-2.7194849411\H,0,-9.359951
 7561,4.2829461946,-5.280184329\H,0,-8.0401979858,5.1054724878,-4.60048
 97308\H,0,-8.2754978247,3.1082551394,-4.5959537101\H,0,-8.3459311747,-
 1.0452477825,-4.7194819172\H,0,-8.5909687248,-2.5859956599,-4.18103744
 76\H,0,-9.6163248816,-1.4196485995,-3.5020244875\H,0,-4.1965614321,-3.
 8336791909,-1.438088739\H,0,2.8173696808,-5.7838556787,1.2720055885\H,
 0,2.2703003566,-4.8316016866,-0.3204174768\H,0,3.6906450469,-3.9090310
 254,2.107199084\H,0,2.5942268746,-3.095891144,-1.3888815383\H,0,4.4188
 792259,-2.091103811,-1.9801662341\H,0,4.232355743,-4.0163734936,-1.857
 847242\H,0,5.16040991,-1.2018957342,0.4056709582\H,0,5.2541677752,-2.0
 312974469,1.830496936\H,0,6.8489441144,-3.6943437339,0.235072829\H,0,6
 .6301618557,-2.4458167977,-1.0312928155\H,0,7.6767384754,-0.5554520995
 ,0.4326720205\H,0,7.8579147017,-1.8250807566,1.7684143138\H,0,8.869522
 8519,-1.6219002307,-0.8766758863\H,0,8.8850706725,-4.016910551,-0.3558
 9806\H,0,10.4817612055,-3.7146048152,-0.3802256045\H,0,9.774034151,-3.
 5253782664,1.2454555086\H,0,9.6836494258,0.0418125917,0.6137305475\H,0
 ,10.0744764062,-1.3783861579,1.8432552628\H,0,12.1467966108,-1.7174490
 666,-0.0959589037\H,0,11.2639023304,-0.8028419197,-1.1582766714\H,0,11
 .9771477329,1.1614392157,0.3478675764\H,0,12.8858593446,0.2910003833,1
 .3858177569\H,0,13.4328740297,0.3390586487,-1.6307892837\H,0,15.254715
 6988,-0.7071137287,0.599195017\H,0,14.1098313696,-1.7231854974,-0.4048
 567398\H,0,15.6222920857,-0.9278661143,-0.8632887319\H,0,13.8202612717
 ,2.3913074299,-0.6213520125\H,0,14.4987874909,1.6806844829,0.891017929
 1\H,0,16.606259353,1.3530907706,-0.6831661316\H,0,15.3492597215,1.7497
 332247,-1.9294964805\H,0,15.279729435,4.0718103887,-1.0153428143\H,0,1
 6.3729969336,3.4431702764,0.4263150903\H,0,18.2078305999,3.2334668552,
 -1.4261370016\H,0,16.3606031971,4.7647337523,-3.367431022\H,0,18.06809
 91998,4.2626826615,-3.6336107947\H,0,16.8070253878,3.0941743286,-3.121
 1426675\H,0,17.9638242564,5.289099563,0.235122678\H,0,18.9042180326,5.
 4150277293,-1.3741195531\H,0,17.090091579,6.0037347836,-1.2240607582\H
 ,0,-5.5001078954,-7.8580569051,-0.1306773837\H,0,-6.5914596373,-6.7310
 924906,0.5826481081\H,0,-5.140816299,-6.8305829345,1.3716000284\O,0,-7
 .6913520305,6.8195019816,-0.5200254309\H,0,-9.1767110549,6.359563372,-
 1.9310215697\\Version=ES64L-G09RevD.01\State=1-A\HF=-3043.4098977\RMSD
 =3.516e-09\PG=C01 [X(C54H68Mg1N4O7)]\\@


 ONE BIG VICE IN A MAN IS APT TO KEEP OUT MANY SMALLER ONES.

                           -- BRET HARTE
 Job cpu time:       0 days  6 hours 30 minutes  4.6 seconds.
 File lengths (MBytes):  RWF=   2102 Int=      0 D2E=      0 Chk=    163 Scr=      1
 Normal termination of Gaussian 09 at Fri Oct  4 15:13:38 2019.
