 Entering Gaussian System, Link 0=g16
 Input=Geometria-252-.com
 Output=Geometria-252-.log
 Initial command:
 /usr/local/g09/l1.exe "/home/padawan/israel-mol/chlorophyll-b/spectra/emi/Gau-2193.inp" -scrdir="/home/padawan/israel-mol/chlorophyll-b/spectra/emi/"
 Entering Link 1 = /usr/local/g09/l1.exe PID=      2349.
  
 Copyright (c) 1988,1990,1992,1993,1995,1998,2003,2009,2013,
            Gaussian, Inc.  All Rights Reserved.
  
 This is part of the Gaussian(R) 09 program.  It is based on
 the Gaussian(R) 03 system (copyright 2003, Gaussian, Inc.),
 the Gaussian(R) 98 system (copyright 1998, Gaussian, Inc.),
 the Gaussian(R) 94 system (copyright 1995, Gaussian, Inc.),
 the Gaussian 92(TM) system (copyright 1992, Gaussian, Inc.),
 the Gaussian 90(TM) system (copyright 1990, Gaussian, Inc.),
 the Gaussian 88(TM) system (copyright 1988, Gaussian, Inc.),
 the Gaussian 86(TM) system (copyright 1986, Carnegie Mellon
 University), and the Gaussian 82(TM) system (copyright 1983,
 Carnegie Mellon University). Gaussian is a federally registered
 trademark of Gaussian, Inc.
  
 This software contains proprietary and confidential information,
 including trade secrets, belonging to Gaussian, Inc.
  
 This software is provided under written license and may be
 used, copied, transmitted, or stored only in accord with that
 written license.
  
 The following legend is applicable only to US Government
 contracts under FAR:
  
                    RESTRICTED RIGHTS LEGEND
  
 Use, reproduction and disclosure by the US Government is
 subject to restrictions as set forth in subparagraphs (a)
 and (c) of the Commercial Computer Software - Restricted
 Rights clause in FAR 52.227-19.
  
 Gaussian, Inc.
 340 Quinnipiac St., Bldg. 40, Wallingford CT 06492
  
  
 ---------------------------------------------------------------
 Warning -- This program may not be used in any manner that
 competes with the business of Gaussian, Inc. or will provide
 assistance to any competitor of Gaussian, Inc.  The licensee
 of this program is prohibited from giving any competitor of
 Gaussian, Inc. access to this program.  By using this program,
 the user acknowledges that Gaussian, Inc. is engaged in the
 business of creating and licensing software in the field of
 computational chemistry and represents and warrants to the
 licensee that it is not a competitor of Gaussian, Inc. and that
 it will not use this program in any manner prohibited above.
 ---------------------------------------------------------------
  

 Cite this work as:
 Gaussian 09, Revision D.01,
 M. J. Frisch, G. W. Trucks, H. B. Schlegel, G. E. Scuseria, 
 M. A. Robb, J. R. Cheeseman, G. Scalmani, V. Barone, B. Mennucci, 
 G. A. Petersson, H. Nakatsuji, M. Caricato, X. Li, H. P. Hratchian, 
 A. F. Izmaylov, J. Bloino, G. Zheng, J. L. Sonnenberg, M. Hada, 
 M. Ehara, K. Toyota, R. Fukuda, J. Hasegawa, M. Ishida, T. Nakajima, 
 Y. Honda, O. Kitao, H. Nakai, T. Vreven, J. A. Montgomery, Jr., 
 J. E. Peralta, F. Ogliaro, M. Bearpark, J. J. Heyd, E. Brothers, 
 K. N. Kudin, V. N. Staroverov, T. Keith, R. Kobayashi, J. Normand, 
 K. Raghavachari, A. Rendell, J. C. Burant, S. S. Iyengar, J. Tomasi, 
 M. Cossi, N. Rega, J. M. Millam, M. Klene, J. E. Knox, J. B. Cross, 
 V. Bakken, C. Adamo, J. Jaramillo, R. Gomperts, R. E. Stratmann, 
 O. Yazyev, A. J. Austin, R. Cammi, C. Pomelli, J. W. Ochterski, 
 R. L. Martin, K. Morokuma, V. G. Zakrzewski, G. A. Voth, 
 P. Salvador, J. J. Dannenberg, S. Dapprich, A. D. Daniels, 
 O. Farkas, J. B. Foresman, J. V. Ortiz, J. Cioslowski, 
 and D. J. Fox, Gaussian, Inc., Wallingford CT, 2013.
 
 ******************************************
 Gaussian 09:  ES64L-G09RevD.01 24-Apr-2013
                 7-Oct-2019 
 ******************************************
 %nproc=3
 Will use up to    3 processors via shared memory.
 %Mem=2GB
 ----------------------------------------------------------------------
 # td=(NStates=1) iop(3/107=0140000000,3/108=0140000000) iop(3/107=0140
 000000,3/108=0140000000) CAM-B3LYP/6-31G(d,p)
 ----------------------------------------------------------------------
 1/38=1/1;
 2/12=2,17=6,18=5,40=1/2;
 3/5=1,6=6,7=101,11=9,16=1,25=1,30=1,74=-40,107=140000000,108=140000000/1,2,8,3;
 4//1;
 5/5=2,38=5/2;
 8/6=1,10=2,108=1/1;
 9/41=1,42=1,70=2/14;
 6/7=2,8=2,9=2,10=2/1;
 99/5=1,9=1/99;
 --
 TD
 --
 Symbolic Z-matrix:
 Charge =  0 Multiplicity = 1
 12                   -5.58689   1.23223   0.23536 
 6                    -4.97733  -2.16132  -0.35166 
 6                    -3.48617   1.11998   2.85551 
 6                    -6.27068   4.55143   0.64322 
 6                    -8.0171    1.22038  -2.40235 
 7                    -4.27279  -0.26302   0.93324 
 6                    -4.13287  -1.63667   0.63793 
 6                    -3.26467  -2.36382   1.47714 
 6                    -2.9527   -1.38535   2.5801 
 6                    -3.56009  -0.11586   2.11997 
 6                    -3.51206  -1.91526   4.03453 
 6                    -2.0434   -2.69721   0.51265 
 6                    -0.94852  -3.49826   1.37632 
 6                     0.17092  -3.96116   0.46982 
 8                     0.39426  -3.49393  -0.63667 
 8                     1.079    -4.64097   1.22496 
 7                    -5.01019   2.66425   1.52218 
 6                    -3.99036   2.42547   2.41914 
 6                    -3.72529   3.71894   3.19359 
 6                    -4.44877   4.69085   2.48387 
 6                    -5.3154    3.98127   1.49065 
 6                    -2.67927   3.83173   4.37438 
 6                    -4.65912   6.07703   2.8481 
 8                    -3.94659   6.63184   3.72193 
 7                    -6.90005   2.59242  -0.69465 
 6                    -6.93889   3.84915  -0.30169 
 6                    -7.93882   4.57937  -1.10607 
 6                    -8.37066   3.5897   -1.92865 
 6                    -7.79516   2.41732  -1.70245 
 6                    -8.24271   6.00593  -1.10974 
 6                    -9.48599   3.78182  -3.10686 
 6                    -8.77993   3.68178  -4.55654 
 7                    -6.32392  -0.12783  -1.04955 
 6                    -7.28939  -0.02065  -2.13254 
 6                    -7.49443  -1.35017  -2.76711 
 6                    -6.70496  -2.24782  -2.10238 
 6                    -5.90263  -1.35545  -1.12104 
 6                    -8.41639  -1.5219   -3.90435 
 6                    -6.20335  -3.5205   -2.0331 
 8                    -6.65721  -4.49697  -2.64846 
 6                    -5.08772  -3.58076  -0.96851 
 6                    -5.338    -4.67671   0.11402 
 8                    -5.67801  -4.42043   1.20617 
 8                    -5.16561  -5.85815  -0.34385 
 6                    -5.45211  -6.96882   0.51732 
 6                     2.34483  -4.98298   0.73472 
 6                     3.39434  -4.00731   1.07121 
 6                     4.07422  -3.18499   0.28588 
 6                     3.70662  -3.15479  -1.22506 
 6                     5.19734  -2.29125   0.80405 
 6                     6.54642  -2.63088   0.15433 
 6                     7.64465  -1.77126   0.72611 
 6                     8.98925  -1.85797  -0.00376 
 6                     9.55804  -3.32924   0.0486 
 6                     10.00722  -0.85491   0.52176 
 6                     11.31259  -0.8893   -0.18996 
 6                     12.13828   0.36517   0.0841 
 6                     13.48474   0.4903   -0.61959 
 6                     14.2892  -0.78048  -0.5341 
 6                     14.21843   1.73713  -0.27737 
 6                     15.54763   2.10219  -1.05589 
 6                     16.12825   3.4697   -0.52489 
 6                     17.38092   3.84329  -1.33391 
 6                     17.23586   3.88402  -2.82196 
 6                     17.90564   5.25228  -0.77932 
 1                    -2.91297   1.31049   3.76494 
 1                    -6.41014   5.59937   0.81104 
 1                    -8.64067   1.10284  -3.29547 
 1                    -3.77034  -3.51001   1.77247 
 1                    -2.00676  -1.23164   3.02127 
 1                    -2.75401  -2.9013    4.26286 
 1                    -3.28422  -1.04905   4.71986 
 1                    -4.50937  -2.24813   4.1032 
 1                    -2.29197  -3.35355  -0.21316 
 1                    -1.74967  -1.80658   0.25205 
 1                    -0.72914  -2.84745   2.3712 
 1                    -1.53682  -4.37727   1.93396 
 1                    -1.71128   3.57813   3.89353 
 1                    -2.8518    4.77416   4.97297 
 1                    -2.85274   2.93343   5.21483 
 1                    -5.50087   6.63429   2.35597 
 1                    -10.3767   2.99041  -3.05956 
 1                    -9.8582    4.86977  -3.1721 
 1                    -9.47516   3.95992  -5.21617 
 1                    -7.81326   4.18913  -4.74305 
 1                    -8.68233   2.34592  -4.95359 
 1                    -8.23035  -0.67088  -4.66348 
 1                    -8.1229   -2.60994  -4.24838 
 1                    -9.47756  -1.55925  -3.60653 
 1                    -4.01084  -4.03808  -1.4653 
 1                     2.53686  -6.01978   0.89046 
 1                     2.30063  -5.0791   -0.27164 
 1                     3.78186  -4.0716    2.04141 
 1                     2.69059  -3.131    -1.60269 
 1                     3.8009   -2.23416  -1.51466 
 1                     4.37416  -3.9241   -1.66491 
 1                     4.85463  -1.31827   0.79278 
 1                     5.27829  -2.43221   1.87277 
 1                     6.58881  -3.75172   0.26424 
 1                     6.35777  -2.40793  -0.93986 
 1                     7.22607  -0.74176   0.66007 
 1                     7.79058  -2.04816   1.91724 
 1                     8.70429  -1.54214  -1.20982 
 1                     8.89785  -4.03661  -0.25677 
 1                     10.47948  -3.60944  -0.81523 
 1                     10.17713  -3.41797   1.0108 
 1                     9.74387   0.29171   0.42624 
 1                     10.02786  -1.03749   1.63614 
 1                     12.10053  -1.66068   0.00585 
 1                     11.09547  -0.90632  -1.32708 
 1                     11.56054   1.35515  -0.01986 
 1                     12.42892   0.34603   1.12577 
 1                     13.20177   0.49961  -1.70081 
 1                     14.79424  -0.94964   0.49256 
 1                     13.6436  -1.44123  -0.83999 
 1                     15.27445  -0.8632   -1.10442 
 1                     13.65823   2.67546  -0.43451 
 1                     14.47035   1.72997   0.68628 
 1                     16.39752   1.54748  -0.99101 
 1                     15.03153   2.12757  -2.0034 
 1                     15.47542   4.284    -0.99431 
 1                     16.10622   3.42984   0.54549 
 1                     18.17633   3.1493   -0.98204 
 1                     16.15686   4.46984  -3.37834 
 1                     18.22428   4.23721  -3.26874 
 1                     16.8821   2.85869  -3.27555 
 1                     18.22834   5.26775   0.22724 
 1                     18.76079   5.81766  -1.48898 
 1                     17.05098   6.15437  -0.7663 
 1                    -5.17967  -7.87134   0.03761 
 1                    -6.3214   -7.04966   0.86869 
 1                    -4.78279  -6.93809   1.36655 
 8                    -7.77541   6.93269  -0.33359 
 1                    -8.96446   6.28417  -1.88218 
 
 Stoichiometry    C54H68MgN4O7
 Framework group  C1[X(C54H68MgN4O7)]
 Deg. of freedom   396
 Full point group                 C1      NOp   1
 Largest Abelian subgroup         C1      NOp   1
 Largest concise Abelian subgroup C1      NOp   1
                         Standard orientation:                         
 ---------------------------------------------------------------------
 Center     Atomic      Atomic             Coordinates (Angstroms)
 Number     Number       Type             X           Y           Z
 ---------------------------------------------------------------------
      1         12           0       -5.584338    1.246284    0.224390
      2          6           0       -4.981999   -2.152913   -0.336865
      3          6           0       -3.484623    1.149198    2.845955
      4          6           0       -6.261010    4.569942    0.607034
      5          6           0       -8.013802    1.219858   -2.413901
      6          7           0       -4.273703   -0.246531    0.933920
      7          6           0       -4.136685   -1.622670    0.649000
      8          6           0       -3.270315   -2.345360    1.493934
      9          6           0       -2.956535   -1.359294    2.589591
     10          6           0       -3.561026   -0.091988    2.119726
     11          6           0       -3.517474   -1.877016    4.047795
     12          6           0       -2.049496   -2.688669    0.532348
     13          6           0       -0.956619   -3.485575    1.402368
     14          6           0        0.162078   -3.957721    0.499716
     15          8           0        0.386757   -3.499323   -0.610192
     16          8           0        1.068452   -4.633798    1.260235
     17          7           0       -5.004887    2.686689    1.500569
     18          6           0       -3.985843    2.452455    2.399612
     19          6           0       -3.718179    3.751142    3.164382
     20          6           0       -4.439331    4.719248    2.447147
     21          6           0       -5.307218    4.004102    1.459034
     22          6           0       -2.672252    3.870543    4.344613
     23          6           0       -4.646763    6.108587    2.800860
     24          8           0       -3.933278    6.668410    3.670701
     25          7           0       -6.894258    2.602281   -0.716237
     26          6           0       -6.930467    3.862015   -0.332760
     27          6           0       -7.928573    4.588335   -1.142928
     28          6           0       -8.362332    3.593440   -1.958158
     29          6           0       -7.789457    2.421548   -1.722966
     30          6           0       -8.229350    6.015488   -1.157433
     31          6           0       -9.476894    3.779110   -3.138129
     32          6           0       -8.770635    3.666618   -4.586794
     33          7           0       -6.323952   -0.121808   -1.050459
     34          6           0       -7.288876   -0.020690   -2.134525
     35          6           0       -7.496630   -1.354499   -2.759128
     36          6           0       -6.709304   -2.248833   -2.087415
     37          6           0       -5.905318   -1.350847   -1.112577
     38          6           0       -8.418626   -1.532783   -3.895326
     39          6           0       -6.210497   -3.522047   -2.008398
     40          8           0       -6.666301   -4.502136   -2.616523
     41          6           0       -5.095305   -3.576715   -0.943048
     42          6           0       -5.348289   -4.663936    0.147630
     43          8           0       -5.688057   -4.398694    1.237714
     44          8           0       -5.178337   -5.849160   -0.301274
     45          6           0       -5.467509   -6.952688    0.568145
     46          6           0        2.333677   -4.982251    0.772975
     47          6           0        3.385215   -4.006360    1.102427
     48          6           0        4.067107   -3.191456    0.311138
     49          6           0        3.700011   -3.171836   -1.200101
     50          6           0        5.192030   -2.296291    0.822908
     51          6           0        6.540551   -2.643736    0.176171
     52          6           0        7.640489   -1.782228    0.741798
     53          6           0        8.985103   -1.877363    0.013020
     54          6           0        9.550675   -3.349433    0.076628
     55          6           0       10.005103   -0.872587    0.531281
     56          6           0       11.310609   -0.915183   -0.179765
     57          6           0       12.138949    0.339512    0.085097
     58          6           0       13.485879    0.456410   -0.619104
     59          6           0       14.287542   -0.815436   -0.523798
     60          6           0       14.222189    1.704181   -0.286052
     61          6           0       15.552410    2.060476   -1.066899
     62          6           0       16.135853    3.430676   -0.546035
     63          6           0       17.389569    3.795438   -1.357463
     64          6           0       17.245030    3.825277   -2.845821
     65          6           0       17.917199    5.207420   -0.813333
     66          1           0       -2.911270    1.345297    3.754108
     67          1           0       -6.398233    5.619411    0.766919
     68          1           0       -8.637364    1.096956   -3.306302
     69          1           0       -3.778574   -3.488196    1.797732
     70          1           0       -2.010392   -1.204328    3.029880
     71          1           0       -2.761642   -2.862955    4.283772
     72          1           0       -3.287937   -1.006166    4.726649
     73          1           0       -4.515526   -2.207191    4.118667
     74          1           0       -2.299283   -3.349909   -0.188569
     75          1           0       -1.753747   -1.800664    0.265139
     76          1           0       -0.736104   -2.827770    2.392386
     77          1           0       -1.546995   -4.359077    1.966432
     78          1           0       -1.704681    3.611224    3.865983
     79          1           0       -2.842907    4.817824    4.936037
     80          1           0       -2.847922    2.978974    5.191747
     81          1           0       -5.487159    6.663960    2.304287
     82          1           0      -10.369347    2.990017   -3.085137
     83          1           0       -9.846721    4.867351   -3.211671
     84          1           0       -9.465072    3.941300   -5.248712
     85          1           0       -7.802806    4.170444   -4.776828
     86          1           0       -8.675833    2.327596   -4.973743
     87          1           0       -8.230515   -0.687910   -4.660782
     88          1           0       -8.127414   -2.624016   -4.231066
     89          1           0       -9.479966   -1.565579   -3.597562
     90          1           0       -4.019284   -4.040107   -1.436048
     91          1           0        2.523402   -6.018259    0.936574
     92          1           0        2.289562   -5.085843   -0.232650
     93          1           0        3.772314   -4.064180    2.073206
     94          1           0        2.684146   -3.148685   -1.578213
     95          1           0        3.796383   -2.253620   -1.496596
     96          1           0        4.366005   -3.945894   -1.633938
     97          1           0        4.851440   -1.322674    0.804203
     98          1           0        5.272359   -2.429369    1.892683
     99          1           0        6.580464   -3.763808    0.294531
    100          1           0        6.352709   -2.428628   -0.919724
    101          1           0        7.224173   -0.752348    0.667887
    102          1           0        7.785464   -2.050471    1.935027
    103          1           0        8.701180   -1.570006   -1.195473
    104          1           0        8.889032   -4.057643   -0.223605
    105          1           0       10.471750   -3.638138   -0.784783
    106          1           0       10.169293   -3.432256    1.039662
    107          1           0        9.744279    0.273846    0.427050
    108          1           0       10.025027   -1.046819    1.647015
    109          1           0       12.096807   -1.686782    0.022096
    110          1           0       11.093773   -0.940295   -1.316790
    111          1           0       11.563393    1.329939   -0.026490
    112          1           0       12.429247    0.327585    1.126973
    113          1           0       13.203246    0.458199   -1.700444
    114          1           0       14.791917   -0.977958    0.504266
    115          1           0       13.640599   -1.477063   -0.824902
    116          1           0       15.272774   -0.904595   -1.093180
    117          1           0       13.664074    2.642516   -0.450433
    118          1           0       14.473816    1.703731    0.677695
    119          1           0       16.401064    1.504420   -0.997577
    120          1           0       15.036635    2.079842   -2.014732
    121          1           0       15.484932    4.242840   -1.021771
    122          1           0       16.113424    3.398926    0.524609
    123          1           0       18.183357    3.102383   -1.000131
    124          1           0       16.167471    4.409238   -3.406925
    125          1           0       18.234349    4.172935   -3.294945
    126          1           0       16.889168    2.797329   -3.291779
    127          1           0       18.239637    5.229761    0.193182
    128          1           0       18.773785    5.765570   -1.526970
    129          1           0       17.064497    6.111437   -0.807374
    130          1           0       -5.196895   -7.859384    0.095329
    131          1           0       -6.337079   -7.028990    0.919845
    132          1           0       -4.798372   -6.917023    1.417325
    133          8           0       -7.760260    6.947049   -0.388135
    134          1           0       -8.950271    6.289467   -1.932162
 ---------------------------------------------------------------------
 Rotational constants (GHZ):      0.0348474      0.0080963      0.0071654
 Standard basis: 6-31G(d,p) (6D, 7F)
 There are  1334 symmetry adapted cartesian basis functions of A   symmetry.
 There are  1334 symmetry adapted basis functions of A   symmetry.
  1334 basis functions,  2348 primitive gaussians,  1334 cartesian basis functions
   244 alpha electrons      244 beta electrons
       nuclear repulsion energy      9119.1371104573 Hartrees.
 NAtoms=  134 NActive=  134 NUniq=  134 SFac= 1.00D+00 NAtFMM=   60 NAOKFM=T Big=T
 Integral buffers will be    131072 words long.
 Raffenetti 1 integral format.
 Two-electron integral symmetry is turned on.
 One-electron integrals computed using PRISM.
 NBasis=  1334 RedAO= T EigKep=  3.06D-04  NBF=  1334
 NBsUse=  1334 1.00D-06 EigRej= -1.00D+00 NBFU=  1334
 ExpMin= 4.21D-02 ExpMax= 1.17D+04 ExpMxC= 1.76D+03 IAcc=2 IRadAn=         4 AccDes= 0.00D+00
 Harris functional with IExCor=20419 and IRadAn=       4 diagonalized for initial guess.
 HarFok:  IExCor=20419 AccDes= 0.00D+00 IRadAn=         4 IDoV= 1 UseB2=F ITyADJ=14
 ICtDFT=  3500011 ScaDFX=  1.000000  1.000000  1.000000  1.000000
 FoFCou: FMM=F IPFlag=           0 FMFlag=      100000 FMFlg1=        2001
         NFxFlg=           0 DoJE=T BraDBF=F KetDBF=T FulRan=T
         wScrn=  0.000000 ICntrl=     500 IOpCl=  0 I1Cent=   200000004 NGrid=           0
         NMat0=    1 NMatS0=      1 NMatT0=    0 NMatD0=    1 NMtDS0=    0 NMtDT0=    0
 Petite list used in FoFCou.
 Requested convergence on RMS density matrix=1.00D-08 within 128 cycles.
 Requested convergence on MAX density matrix=1.00D-06.
 Requested convergence on             energy=1.00D-06.
 No special actions if energy rises.
 SCF Done:  E(RCAM-B3LYP) =  -3043.34262427     A.U. after   16 cycles
            NFock= 16  Conv=0.45D-08     -V/T= 2.0092
 DoSCS=F DFT=T ScalE2(SS,OS)=  1.000000  1.000000
 ExpMin= 4.21D-02 ExpMax= 1.17D+04 ExpMxC= 1.76D+03 IAcc=3 IRadAn=         5 AccDes= 0.00D+00
 HarFok:  IExCor=  205 AccDes= 0.00D+00 IRadAn=         5 IDoV=-2 UseB2=F ITyADJ=14
 ICtDFT= 12500011 ScaDFX=  1.000000  1.000000  1.000000  1.000000
 Range of M.O.s used for correlation:    71  1334
 NBasis=  1334 NAE=   244 NBE=   244 NFC=    70 NFV=     0
 NROrb=   1264 NOA=   174 NOB=   174 NVA=  1090 NVB=  1090
 Would need an additional       2379600800000 words for in-memory AO integral storage.
 Orbital symmetries:
       Occupied  (A) (A) (A) (A) (A) (A) (A) (A) (A) (A) (A) (A)
                 (A) (A) (A) (A) (A) (A) (A) (A) (A) (A) (A) (A)
                 (A) (A) (A) (A) (A) (A) (A) (A) (A) (A) (A) (A)
                 (A) (A) (A) (A) (A) (A) (A) (A) (A) (A) (A) (A)
                 (A) (A) (A) (A) (A) (A) (A) (A) (A) (A) (A) (A)
                 (A) (A) (A) (A) (A) (A) (A) (A) (A) (A) (A) (A)
                 (A) (A) (A) (A) (A) (A) (A) (A) (A) (A) (A) (A)
                 (A) (A) (A) (A) (A) (A) (A) (A) (A) (A) (A) (A)
                 (A) (A) (A) (A) (A) (A) (A) (A) (A) (A) (A) (A)
                 (A) (A) (A) (A) (A) (A) (A) (A) (A) (A) (A) (A)
                 (A) (A) (A) (A) (A) (A) (A) (A) (A) (A) (A) (A)
                 (A) (A) (A) (A) (A) (A) (A) (A) (A) (A) (A) (A)
                 (A) (A) (A) (A) (A) (A) (A) (A) (A) (A) (A) (A)
                 (A) (A) (A) (A) (A) (A) (A) (A) (A) (A) (A) (A)
                 (A) (A) (A) (A) (A) (A) (A) (A) (A) (A) (A) (A)
                 (A) (A) (A) (A) (A) (A) (A) (A) (A) (A) (A) (A)
                 (A) (A) (A) (A) (A) (A) (A) (A) (A) (A) (A) (A)
                 (A) (A) (A) (A) (A) (A) (A) (A) (A) (A) (A) (A)
                 (A) (A) (A) (A) (A) (A) (A) (A) (A) (A) (A) (A)
                 (A) (A) (A) (A) (A) (A) (A) (A) (A) (A) (A) (A)
                 (A) (A) (A) (A)
       Virtual   (A) (A) (A) (A) (A) (A) (A) (A) (A) (A) (A) (A)
                 (A) (A) (A) (A) (A) (A) (A) (A) (A) (A) (A) (A)
                 (A) (A) (A) (A) (A) (A) (A) (A) (A) (A) (A) (A)
                 (A) (A) (A) (A) (A) (A) (A) (A) (A) (A) (A) (A)
                 (A) (A) (A) (A) (A) (A) (A) (A) (A) (A) (A) (A)
                 (A) (A) (A) (A) (A) (A) (A) (A) (A) (A) (A) (A)
                 (A) (A) (A) (A) (A) (A) (A) (A) (A) (A) (A) (A)
                 (A) (A) (A) (A) (A) (A) (A) (A) (A) (A) (A) (A)
                 (A) (A) (A) (A) (A) (A) (A) (A) (A) (A) (A) (A)
                 (A) (A) (A) (A) (A) (A) (A) (A) (A) (A) (A) (A)
                 (A) (A) (A) (A) (A) (A) (A) (A) (A) (A) (A) (A)
                 (A) (A) (A) (A) (A) (A) (A) (A) (A) (A) (A) (A)
                 (A) (A) (A) (A) (A) (A) (A) (A) (A) (A) (A) (A)
                 (A) (A) (A) (A) (A) (A) (A) (A) (A) (A) (A) (A)
                 (A) (A) (A) (A) (A) (A) (A) (A) (A) (A) (A) (A)
                 (A) (A) (A) (A) (A) (A) (A) (A) (A) (A) (A) (A)
                 (A) (A) (A) (A) (A) (A) (A) (A) (A) (A) (A) (A)
                 (A) (A) (A) (A) (A) (A) (A) (A) (A) (A) (A) (A)
                 (A) (A) (A) (A) (A) (A) (A) (A) (A) (A) (A) (A)
                 (A) (A) (A) (A) (A) (A) (A) (A) (A) (A) (A) (A)
                 (A) (A) (A) (A) (A) (A) (A) (A) (A) (A) (A) (A)
                 (A) (A) (A) (A) (A) (A) (A) (A) (A) (A) (A) (A)
                 (A) (A) (A) (A) (A) (A) (A) (A) (A) (A) (A) (A)
                 (A) (A) (A) (A) (A) (A) (A) (A) (A) (A) (A) (A)
                 (A) (A) (A) (A) (A) (A) (A) (A) (A) (A) (A) (A)
                 (A) (A) (A) (A) (A) (A) (A) (A) (A) (A) (A) (A)
                 (A) (A) (A) (A) (A) (A) (A) (A) (A) (A) (A) (A)
                 (A) (A) (A) (A) (A) (A) (A) (A) (A) (A) (A) (A)
                 (A) (A) (A) (A) (A) (A) (A) (A) (A) (A) (A) (A)
                 (A) (A) (A) (A) (A) (A) (A) (A) (A) (A) (A) (A)
                 (A) (A) (A) (A) (A) (A) (A) (A) (A) (A) (A) (A)
                 (A) (A) (A) (A) (A) (A) (A) (A) (A) (A) (A) (A)
                 (A) (A) (A) (A) (A) (A) (A) (A) (A) (A) (A) (A)
                 (A) (A) (A) (A) (A) (A) (A) (A) (A) (A) (A) (A)
                 (A) (A) (A) (A) (A) (A) (A) (A) (A) (A) (A) (A)
                 (A) (A) (A) (A) (A) (A) (A) (A) (A) (A) (A) (A)
                 (A) (A) (A) (A) (A) (A) (A) (A) (A) (A) (A) (A)
                 (A) (A) (A) (A) (A) (A) (A) (A) (A) (A) (A) (A)
                 (A) (A) (A) (A) (A) (A) (A) (A) (A) (A) (A) (A)
                 (A) (A) (A) (A) (A) (A) (A) (A) (A) (A) (A) (A)
                 (A) (A) (A) (A) (A) (A) (A) (A) (A) (A) (A) (A)
                 (A) (A) (A) (A) (A) (A) (A) (A) (A) (A) (A) (A)
                 (A) (A) (A) (A) (A) (A) (A) (A) (A) (A) (A) (A)
                 (A) (A) (A) (A) (A) (A) (A) (A) (A) (A) (A) (A)
                 (A) (A) (A) (A) (A) (A) (A) (A) (A) (A) (A) (A)
                 (A) (A) (A) (A) (A) (A) (A) (A) (A) (A) (A) (A)
                 (A) (A) (A) (A) (A) (A) (A) (A) (A) (A) (A) (A)
                 (A) (A) (A) (A) (A) (A) (A) (A) (A) (A) (A) (A)
                 (A) (A) (A) (A) (A) (A) (A) (A) (A) (A) (A) (A)
                 (A) (A) (A) (A) (A) (A) (A) (A) (A) (A) (A) (A)
                 (A) (A) (A) (A) (A) (A) (A) (A) (A) (A) (A) (A)
                 (A) (A) (A) (A) (A) (A) (A) (A) (A) (A) (A) (A)
                 (A) (A) (A) (A) (A) (A) (A) (A) (A) (A) (A) (A)
                 (A) (A) (A) (A) (A) (A) (A) (A) (A) (A) (A) (A)
                 (A) (A) (A) (A) (A) (A) (A) (A) (A) (A) (A) (A)
                 (A) (A) (A) (A) (A) (A) (A) (A) (A) (A) (A) (A)
                 (A) (A) (A) (A) (A) (A) (A) (A) (A) (A) (A) (A)
                 (A) (A) (A) (A) (A) (A) (A) (A) (A) (A) (A) (A)
                 (A) (A) (A) (A) (A) (A) (A) (A) (A) (A) (A) (A)
                 (A) (A) (A) (A) (A) (A) (A) (A) (A) (A) (A) (A)
                 (A) (A) (A) (A) (A) (A) (A) (A) (A) (A) (A) (A)
                 (A) (A) (A) (A) (A) (A) (A) (A) (A) (A) (A) (A)
                 (A) (A) (A) (A) (A) (A) (A) (A) (A) (A) (A) (A)
                 (A) (A) (A) (A) (A) (A) (A) (A) (A) (A) (A) (A)
                 (A) (A) (A) (A) (A) (A) (A) (A) (A) (A) (A) (A)
                 (A) (A) (A) (A) (A) (A) (A) (A) (A) (A) (A) (A)
                 (A) (A) (A) (A) (A) (A) (A) (A) (A) (A) (A) (A)
                 (A) (A) (A) (A) (A) (A) (A) (A) (A) (A) (A) (A)
                 (A) (A) (A) (A) (A) (A) (A) (A) (A) (A) (A) (A)
                 (A) (A) (A) (A) (A) (A) (A) (A) (A) (A) (A) (A)
                 (A) (A) (A) (A) (A) (A) (A) (A) (A) (A) (A) (A)
                 (A) (A) (A) (A) (A) (A) (A) (A) (A) (A) (A) (A)
                 (A) (A) (A) (A) (A) (A) (A) (A) (A) (A) (A) (A)
                 (A) (A) (A) (A) (A) (A) (A) (A) (A) (A) (A) (A)
                 (A) (A) (A) (A) (A) (A) (A) (A) (A) (A) (A) (A)
                 (A) (A) (A) (A) (A) (A) (A) (A) (A) (A) (A) (A)
                 (A) (A) (A) (A) (A) (A) (A) (A) (A) (A) (A) (A)
                 (A) (A) (A) (A) (A) (A) (A) (A) (A) (A) (A) (A)
                 (A) (A) (A) (A) (A) (A) (A) (A) (A) (A) (A) (A)
                 (A) (A) (A) (A) (A) (A) (A) (A) (A) (A) (A) (A)
                 (A) (A) (A) (A) (A) (A) (A) (A) (A) (A) (A) (A)
                 (A) (A) (A) (A) (A) (A) (A) (A) (A) (A) (A) (A)
                 (A) (A) (A) (A) (A) (A) (A) (A) (A) (A) (A) (A)
                 (A) (A) (A) (A) (A) (A) (A) (A) (A) (A) (A) (A)
                 (A) (A) (A) (A) (A) (A) (A) (A) (A) (A) (A) (A)
                 (A) (A) (A) (A) (A) (A) (A) (A) (A) (A) (A) (A)
                 (A) (A) (A) (A) (A) (A) (A) (A) (A) (A) (A) (A)
                 (A) (A) (A) (A) (A) (A) (A) (A) (A) (A) (A) (A)
                 (A) (A) (A) (A) (A) (A) (A) (A) (A) (A) (A) (A)
                 (A) (A) (A) (A) (A) (A) (A) (A) (A) (A) (A) (A)
                 (A) (A) (A) (A) (A) (A) (A) (A) (A) (A)
     8 initial guesses have been made.
 Convergence on wavefunction:    0.001000000000000
 Iteration     1 Dimension     8 NMult     0 NNew      8
 CISAX will form     8 AO SS matrices at one time.
 Iteration     2 Dimension    12 NMult     8 NNew      4
 Iteration     3 Dimension    16 NMult    12 NNew      4
 Iteration     4 Dimension    20 NMult    16 NNew      4
 Iteration     5 Dimension    24 NMult    20 NNew      4
 Iteration     6 Dimension    28 NMult    24 NNew      4
 ***********************************************************************
 Excited states from <AA,BB:AA,BB> singles matrix:
 ***********************************************************************
 
 Ground to excited state transition densities written to RWF  633
 Ground to excited state transition electric dipole moments (Au):
       state          X           Y           Z        Dip. S.      Osc.
         1        -0.8859     -0.9924     -1.3583      3.6146      0.1740
 Ground to excited state transition velocity dipole moments (Au):
       state          X           Y           Z        Dip. S.      Osc.
         1         0.0614      0.0686      0.0952      0.0176      0.1621
 Ground to excited state transition magnetic dipole moments (Au):
       state          X           Y           Z
         1         1.4590      1.4423     -2.0120
 Ground to excited state transition velocity quadrupole moments (Au):
       state          XX          YY          ZZ          XY          XZ          YZ
         1        -1.2708     -0.0357      0.2172     -0.5061     -0.9120      0.2235
 <0|del|b> * <b|rxdel|0> + <0|del|b> * <b|delr+rdel|0>
 Rotatory Strengths (R) in cgs (10**-40 erg-esu-cm/Gauss)
       state          XX          YY          ZZ    R(velocity)    E-M Angle
         1      -382.8794   -195.9620    549.9860     -9.6185       90.44
 1/2[<0|r|b>*<b|rxdel|0> + (<0|rxdel|b>*<b|r|0>)*]
 Rotatory Strengths (R) in cgs (10**-40 erg-esu-cm/Gauss)
       state          XX          YY          ZZ     R(length)
         1       914.0018   1012.1618  -1932.5935     -2.1433
  1/2[<0|del|b>*<b|r|0> + (<0|r|b>*<b|del|0>)*] (Au)
       state          X           Y           Z        Dip. S.   Osc.(frdel)
         1        -0.0544     -0.0681     -0.1294      0.2519      0.1679

 Excitation energies and oscillator strengths:
 
 Excited State   1:      Singlet-A      1.9648 eV  631.03 nm  f=0.1740  <S**2>=0.000
     243 -> 246        0.24699
     244 -> 245        0.65318
 This state for optimization and/or second-order correction.
 Total Energy, E(TD-HF/TD-KS) =  -3043.27041971    
 Copying the excited state density for this state as the 1-particle RhoCI density.
 SavETr:  write IOETrn=   770 NScale= 10 NData=  16 NLR=1 NState=    1 LETran=      28.

 **********************************************************************

            Population analysis using the SCF density.

 **********************************************************************

 Orbital symmetries:
       Occupied  (A) (A) (A) (A) (A) (A) (A) (A) (A) (A) (A) (A)
                 (A) (A) (A) (A) (A) (A) (A) (A) (A) (A) (A) (A)
                 (A) (A) (A) (A) (A) (A) (A) (A) (A) (A) (A) (A)
                 (A) (A) (A) (A) (A) (A) (A) (A) (A) (A) (A) (A)
                 (A) (A) (A) (A) (A) (A) (A) (A) (A) (A) (A) (A)
                 (A) (A) (A) (A) (A) (A) (A) (A) (A) (A) (A) (A)
                 (A) (A) (A) (A) (A) (A) (A) (A) (A) (A) (A) (A)
                 (A) (A) (A) (A) (A) (A) (A) (A) (A) (A) (A) (A)
                 (A) (A) (A) (A) (A) (A) (A) (A) (A) (A) (A) (A)
                 (A) (A) (A) (A) (A) (A) (A) (A) (A) (A) (A) (A)
                 (A) (A) (A) (A) (A) (A) (A) (A) (A) (A) (A) (A)
                 (A) (A) (A) (A) (A) (A) (A) (A) (A) (A) (A) (A)
                 (A) (A) (A) (A) (A) (A) (A) (A) (A) (A) (A) (A)
                 (A) (A) (A) (A) (A) (A) (A) (A) (A) (A) (A) (A)
                 (A) (A) (A) (A) (A) (A) (A) (A) (A) (A) (A) (A)
                 (A) (A) (A) (A) (A) (A) (A) (A) (A) (A) (A) (A)
                 (A) (A) (A) (A) (A) (A) (A) (A) (A) (A) (A) (A)
                 (A) (A) (A) (A) (A) (A) (A) (A) (A) (A) (A) (A)
                 (A) (A) (A) (A) (A) (A) (A) (A) (A) (A) (A) (A)
                 (A) (A) (A) (A) (A) (A) (A) (A) (A) (A) (A) (A)
                 (A) (A) (A) (A)
       Virtual   (A) (A) (A) (A) (A) (A) (A) (A) (A) (A) (A) (A)
                 (A) (A) (A) (A) (A) (A) (A) (A) (A) (A) (A) (A)
                 (A) (A) (A) (A) (A) (A) (A) (A) (A) (A) (A) (A)
                 (A) (A) (A) (A) (A) (A) (A) (A) (A) (A) (A) (A)
                 (A) (A) (A) (A) (A) (A) (A) (A) (A) (A) (A) (A)
                 (A) (A) (A) (A) (A) (A) (A) (A) (A) (A) (A) (A)
                 (A) (A) (A) (A) (A) (A) (A) (A) (A) (A) (A) (A)
                 (A) (A) (A) (A) (A) (A) (A) (A) (A) (A) (A) (A)
                 (A) (A) (A) (A) (A) (A) (A) (A) (A) (A) (A) (A)
                 (A) (A) (A) (A) (A) (A) (A) (A) (A) (A) (A) (A)
                 (A) (A) (A) (A) (A) (A) (A) (A) (A) (A) (A) (A)
                 (A) (A) (A) (A) (A) (A) (A) (A) (A) (A) (A) (A)
                 (A) (A) (A) (A) (A) (A) (A) (A) (A) (A) (A) (A)
                 (A) (A) (A) (A) (A) (A) (A) (A) (A) (A) (A) (A)
                 (A) (A) (A) (A) (A) (A) (A) (A) (A) (A) (A) (A)
                 (A) (A) (A) (A) (A) (A) (A) (A) (A) (A) (A) (A)
                 (A) (A) (A) (A) (A) (A) (A) (A) (A) (A) (A) (A)
                 (A) (A) (A) (A) (A) (A) (A) (A) (A) (A) (A) (A)
                 (A) (A) (A) (A) (A) (A) (A) (A) (A) (A) (A) (A)
                 (A) (A) (A) (A) (A) (A) (A) (A) (A) (A) (A) (A)
                 (A) (A) (A) (A) (A) (A) (A) (A) (A) (A) (A) (A)
                 (A) (A) (A) (A) (A) (A) (A) (A) (A) (A) (A) (A)
                 (A) (A) (A) (A) (A) (A) (A) (A) (A) (A) (A) (A)
                 (A) (A) (A) (A) (A) (A) (A) (A) (A) (A) (A) (A)
                 (A) (A) (A) (A) (A) (A) (A) (A) (A) (A) (A) (A)
                 (A) (A) (A) (A) (A) (A) (A) (A) (A) (A) (A) (A)
                 (A) (A) (A) (A) (A) (A) (A) (A) (A) (A) (A) (A)
                 (A) (A) (A) (A) (A) (A) (A) (A) (A) (A) (A) (A)
                 (A) (A) (A) (A) (A) (A) (A) (A) (A) (A) (A) (A)
                 (A) (A) (A) (A) (A) (A) (A) (A) (A) (A) (A) (A)
                 (A) (A) (A) (A) (A) (A) (A) (A) (A) (A) (A) (A)
                 (A) (A) (A) (A) (A) (A) (A) (A) (A) (A) (A) (A)
                 (A) (A) (A) (A) (A) (A) (A) (A) (A) (A) (A) (A)
                 (A) (A) (A) (A) (A) (A) (A) (A) (A) (A) (A) (A)
                 (A) (A) (A) (A) (A) (A) (A) (A) (A) (A) (A) (A)
                 (A) (A) (A) (A) (A) (A) (A) (A) (A) (A) (A) (A)
                 (A) (A) (A) (A) (A) (A) (A) (A) (A) (A) (A) (A)
                 (A) (A) (A) (A) (A) (A) (A) (A) (A) (A) (A) (A)
                 (A) (A) (A) (A) (A) (A) (A) (A) (A) (A) (A) (A)
                 (A) (A) (A) (A) (A) (A) (A) (A) (A) (A) (A) (A)
                 (A) (A) (A) (A) (A) (A) (A) (A) (A) (A) (A) (A)
                 (A) (A) (A) (A) (A) (A) (A) (A) (A) (A) (A) (A)
                 (A) (A) (A) (A) (A) (A) (A) (A) (A) (A) (A) (A)
                 (A) (A) (A) (A) (A) (A) (A) (A) (A) (A) (A) (A)
                 (A) (A) (A) (A) (A) (A) (A) (A) (A) (A) (A) (A)
                 (A) (A) (A) (A) (A) (A) (A) (A) (A) (A) (A) (A)
                 (A) (A) (A) (A) (A) (A) (A) (A) (A) (A) (A) (A)
                 (A) (A) (A) (A) (A) (A) (A) (A) (A) (A) (A) (A)
                 (A) (A) (A) (A) (A) (A) (A) (A) (A) (A) (A) (A)
                 (A) (A) (A) (A) (A) (A) (A) (A) (A) (A) (A) (A)
                 (A) (A) (A) (A) (A) (A) (A) (A) (A) (A) (A) (A)
                 (A) (A) (A) (A) (A) (A) (A) (A) (A) (A) (A) (A)
                 (A) (A) (A) (A) (A) (A) (A) (A) (A) (A) (A) (A)
                 (A) (A) (A) (A) (A) (A) (A) (A) (A) (A) (A) (A)
                 (A) (A) (A) (A) (A) (A) (A) (A) (A) (A) (A) (A)
                 (A) (A) (A) (A) (A) (A) (A) (A) (A) (A) (A) (A)
                 (A) (A) (A) (A) (A) (A) (A) (A) (A) (A) (A) (A)
                 (A) (A) (A) (A) (A) (A) (A) (A) (A) (A) (A) (A)
                 (A) (A) (A) (A) (A) (A) (A) (A) (A) (A) (A) (A)
                 (A) (A) (A) (A) (A) (A) (A) (A) (A) (A) (A) (A)
                 (A) (A) (A) (A) (A) (A) (A) (A) (A) (A) (A) (A)
                 (A) (A) (A) (A) (A) (A) (A) (A) (A) (A) (A) (A)
                 (A) (A) (A) (A) (A) (A) (A) (A) (A) (A) (A) (A)
                 (A) (A) (A) (A) (A) (A) (A) (A) (A) (A) (A) (A)
                 (A) (A) (A) (A) (A) (A) (A) (A) (A) (A) (A) (A)
                 (A) (A) (A) (A) (A) (A) (A) (A) (A) (A) (A) (A)
                 (A) (A) (A) (A) (A) (A) (A) (A) (A) (A) (A) (A)
                 (A) (A) (A) (A) (A) (A) (A) (A) (A) (A) (A) (A)
                 (A) (A) (A) (A) (A) (A) (A) (A) (A) (A) (A) (A)
                 (A) (A) (A) (A) (A) (A) (A) (A) (A) (A) (A) (A)
                 (A) (A) (A) (A) (A) (A) (A) (A) (A) (A) (A) (A)
                 (A) (A) (A) (A) (A) (A) (A) (A) (A) (A) (A) (A)
                 (A) (A) (A) (A) (A) (A) (A) (A) (A) (A) (A) (A)
                 (A) (A) (A) (A) (A) (A) (A) (A) (A) (A) (A) (A)
                 (A) (A) (A) (A) (A) (A) (A) (A) (A) (A) (A) (A)
                 (A) (A) (A) (A) (A) (A) (A) (A) (A) (A) (A) (A)
                 (A) (A) (A) (A) (A) (A) (A) (A) (A) (A) (A) (A)
                 (A) (A) (A) (A) (A) (A) (A) (A) (A) (A) (A) (A)
                 (A) (A) (A) (A) (A) (A) (A) (A) (A) (A) (A) (A)
                 (A) (A) (A) (A) (A) (A) (A) (A) (A) (A) (A) (A)
                 (A) (A) (A) (A) (A) (A) (A) (A) (A) (A) (A) (A)
                 (A) (A) (A) (A) (A) (A) (A) (A) (A) (A) (A) (A)
                 (A) (A) (A) (A) (A) (A) (A) (A) (A) (A) (A) (A)
                 (A) (A) (A) (A) (A) (A) (A) (A) (A) (A) (A) (A)
                 (A) (A) (A) (A) (A) (A) (A) (A) (A) (A) (A) (A)
                 (A) (A) (A) (A) (A) (A) (A) (A) (A) (A) (A) (A)
                 (A) (A) (A) (A) (A) (A) (A) (A) (A) (A) (A) (A)
                 (A) (A) (A) (A) (A) (A) (A) (A) (A) (A) (A) (A)
                 (A) (A) (A) (A) (A) (A) (A) (A) (A) (A) (A) (A)
                 (A) (A) (A) (A) (A) (A) (A) (A) (A) (A) (A) (A)
                 (A) (A) (A) (A) (A) (A) (A) (A) (A) (A)
 The electronic state is 1-A.
 Alpha  occ. eigenvalues --  -46.81717 -19.23706 -19.22106 -19.18078 -19.17089
 Alpha  occ. eigenvalues --  -19.16568 -19.16402 -19.15933 -14.39514 -14.37520
 Alpha  occ. eigenvalues --  -14.37333 -14.36484 -10.35985 -10.34974 -10.30365
 Alpha  occ. eigenvalues --  -10.30351 -10.30047 -10.28849 -10.28127 -10.27666
 Alpha  occ. eigenvalues --  -10.27194 -10.26795 -10.26492 -10.26411 -10.26274
 Alpha  occ. eigenvalues --  -10.26084 -10.26083 -10.26045 -10.25943 -10.25760
 Alpha  occ. eigenvalues --  -10.25454 -10.25361 -10.25154 -10.24976 -10.24949
 Alpha  occ. eigenvalues --  -10.24872 -10.24859 -10.24093 -10.24050 -10.24023
 Alpha  occ. eigenvalues --  -10.24005 -10.23985 -10.23597 -10.23498 -10.23418
 Alpha  occ. eigenvalues --  -10.22959 -10.22940 -10.22887 -10.22543 -10.22421
 Alpha  occ. eigenvalues --  -10.22367 -10.22338 -10.22206 -10.22203 -10.22089
 Alpha  occ. eigenvalues --  -10.22068 -10.21426 -10.21081 -10.20994 -10.20937
 Alpha  occ. eigenvalues --  -10.20549 -10.19966 -10.19645 -10.19609 -10.19426
 Alpha  occ. eigenvalues --  -10.19247  -3.10334  -1.85270  -1.84786  -1.84767
 Alpha  occ. eigenvalues --   -1.17234  -1.13418  -1.07345  -1.05413  -1.05213
 Alpha  occ. eigenvalues --   -1.04046  -1.02376  -1.01540  -1.00390  -0.99269
 Alpha  occ. eigenvalues --   -0.98851  -0.87492  -0.86516  -0.86138  -0.85919
 Alpha  occ. eigenvalues --   -0.85478  -0.84533  -0.84441  -0.83434  -0.83295
 Alpha  occ. eigenvalues --   -0.83046  -0.82021  -0.81726  -0.81030  -0.80294
 Alpha  occ. eigenvalues --   -0.79429  -0.78348  -0.77777  -0.77213  -0.76867
 Alpha  occ. eigenvalues --   -0.75544  -0.74750  -0.74110  -0.73452  -0.72502
 Alpha  occ. eigenvalues --   -0.72048  -0.71091  -0.70324  -0.69860  -0.69479
 Alpha  occ. eigenvalues --   -0.69174  -0.69090  -0.67875  -0.66925  -0.66119
 Alpha  occ. eigenvalues --   -0.65336  -0.65231  -0.64757  -0.62857  -0.62710
 Alpha  occ. eigenvalues --   -0.62211  -0.61594  -0.60703  -0.60481  -0.59986
 Alpha  occ. eigenvalues --   -0.58471  -0.57814  -0.57678  -0.57486  -0.57292
 Alpha  occ. eigenvalues --   -0.56703  -0.56318  -0.55990  -0.54732  -0.54388
 Alpha  occ. eigenvalues --   -0.54188  -0.53714  -0.53320  -0.52772  -0.52354
 Alpha  occ. eigenvalues --   -0.52241  -0.52105  -0.51937  -0.51599  -0.51169
 Alpha  occ. eigenvalues --   -0.50616  -0.50523  -0.49897  -0.49577  -0.49499
 Alpha  occ. eigenvalues --   -0.49388  -0.48638  -0.48392  -0.48198  -0.48152
 Alpha  occ. eigenvalues --   -0.47757  -0.47533  -0.47175  -0.47009  -0.46834
 Alpha  occ. eigenvalues --   -0.46805  -0.46614  -0.46339  -0.46151  -0.45900
 Alpha  occ. eigenvalues --   -0.45791  -0.45417  -0.45279  -0.45056  -0.44689
 Alpha  occ. eigenvalues --   -0.44603  -0.44433  -0.44247  -0.43882  -0.43743
 Alpha  occ. eigenvalues --   -0.43626  -0.43558  -0.43114  -0.42996  -0.42870
 Alpha  occ. eigenvalues --   -0.42793  -0.42692  -0.42247  -0.41990  -0.41692
 Alpha  occ. eigenvalues --   -0.41138  -0.41022  -0.40740  -0.40507  -0.40426
 Alpha  occ. eigenvalues --   -0.40212  -0.39995  -0.39931  -0.39722  -0.39710
 Alpha  occ. eigenvalues --   -0.39553  -0.39273  -0.39051  -0.38989  -0.38686
 Alpha  occ. eigenvalues --   -0.38467  -0.38371  -0.38082  -0.38027  -0.37935
 Alpha  occ. eigenvalues --   -0.37410  -0.37343  -0.36973  -0.36883  -0.36780
 Alpha  occ. eigenvalues --   -0.36662  -0.36408  -0.35957  -0.35769  -0.35649
 Alpha  occ. eigenvalues --   -0.35102  -0.35041  -0.34822  -0.34783  -0.34482
 Alpha  occ. eigenvalues --   -0.34375  -0.34265  -0.34188  -0.33928  -0.33261
 Alpha  occ. eigenvalues --   -0.32872  -0.32638  -0.32395  -0.32124  -0.31766
 Alpha  occ. eigenvalues --   -0.31381  -0.31208  -0.31045  -0.30416  -0.29503
 Alpha  occ. eigenvalues --   -0.29092  -0.28136  -0.28031  -0.27925  -0.27519
 Alpha  occ. eigenvalues --   -0.27385  -0.27342  -0.22931  -0.21405
 Alpha virt. eigenvalues --   -0.08606  -0.06733  -0.02184  -0.01004  -0.00161
 Alpha virt. eigenvalues --    0.00901   0.02585   0.03809   0.04290   0.04485
 Alpha virt. eigenvalues --    0.04680   0.05577   0.05823   0.07478   0.08514
 Alpha virt. eigenvalues --    0.08970   0.09266   0.09823   0.10088   0.10331
 Alpha virt. eigenvalues --    0.10860   0.11045   0.11278   0.11590   0.11703
 Alpha virt. eigenvalues --    0.11978   0.12379   0.12435   0.12751   0.12921
 Alpha virt. eigenvalues --    0.13163   0.13666   0.13839   0.14038   0.14108
 Alpha virt. eigenvalues --    0.14444   0.14550   0.14706   0.14745   0.14776
 Alpha virt. eigenvalues --    0.15235   0.15243   0.15303   0.15605   0.15648
 Alpha virt. eigenvalues --    0.15825   0.15967   0.15988   0.16258   0.16315
 Alpha virt. eigenvalues --    0.16702   0.16950   0.17111   0.17358   0.17517
 Alpha virt. eigenvalues --    0.17542   0.17723   0.18002   0.18069   0.18224
 Alpha virt. eigenvalues --    0.18484   0.18661   0.18741   0.19059   0.19101
 Alpha virt. eigenvalues --    0.19230   0.19431   0.19669   0.19747   0.19952
 Alpha virt. eigenvalues --    0.20030   0.20247   0.20333   0.20532   0.20712
 Alpha virt. eigenvalues --    0.20745   0.21110   0.21457   0.21502   0.21648
 Alpha virt. eigenvalues --    0.21772   0.21823   0.22229   0.22326   0.22474
 Alpha virt. eigenvalues --    0.22577   0.22866   0.22892   0.23260   0.23356
 Alpha virt. eigenvalues --    0.23737   0.23818   0.23998   0.24476   0.24592
 Alpha virt. eigenvalues --    0.24784   0.25196   0.25407   0.25422   0.25647
 Alpha virt. eigenvalues --    0.25764   0.25985   0.26117   0.26379   0.26614
 Alpha virt. eigenvalues --    0.26861   0.26984   0.27343   0.27562   0.27623
 Alpha virt. eigenvalues --    0.28015   0.28265   0.28807   0.28873   0.29257
 Alpha virt. eigenvalues --    0.29519   0.30022   0.30063   0.30369   0.30411
 Alpha virt. eigenvalues --    0.30726   0.31191   0.31493   0.31939   0.32020
 Alpha virt. eigenvalues --    0.32291   0.32597   0.33066   0.33219   0.33592
 Alpha virt. eigenvalues --    0.34583   0.35006   0.35571   0.35983   0.36243
 Alpha virt. eigenvalues --    0.36914   0.37125   0.37234   0.37949   0.38457
 Alpha virt. eigenvalues --    0.38658   0.39876   0.40511   0.40929   0.41106
 Alpha virt. eigenvalues --    0.41524   0.42253   0.42650   0.43267   0.43570
 Alpha virt. eigenvalues --    0.44475   0.44696   0.44800   0.46275   0.46577
 Alpha virt. eigenvalues --    0.46985   0.47432   0.47802   0.48721   0.49831
 Alpha virt. eigenvalues --    0.50027   0.50933   0.51018   0.51215   0.51556
 Alpha virt. eigenvalues --    0.51570   0.51724   0.52219   0.52328   0.52420
 Alpha virt. eigenvalues --    0.52853   0.52966   0.53047   0.53708   0.54001
 Alpha virt. eigenvalues --    0.54079   0.54471   0.54634   0.54719   0.54812
 Alpha virt. eigenvalues --    0.54948   0.55187   0.55377   0.55543   0.55753
 Alpha virt. eigenvalues --    0.56335   0.56431   0.56592   0.57108   0.57271
 Alpha virt. eigenvalues --    0.57616   0.57838   0.58419   0.58513   0.58710
 Alpha virt. eigenvalues --    0.58788   0.59221   0.59347   0.59782   0.60023
 Alpha virt. eigenvalues --    0.60176   0.60375   0.60575   0.60676   0.60762
 Alpha virt. eigenvalues --    0.60999   0.61276   0.61336   0.61582   0.61704
 Alpha virt. eigenvalues --    0.61946   0.62246   0.62835   0.63001   0.63284
 Alpha virt. eigenvalues --    0.63363   0.63875   0.63982   0.64408   0.64720
 Alpha virt. eigenvalues --    0.64817   0.64935   0.65241   0.65445   0.65832
 Alpha virt. eigenvalues --    0.66177   0.66659   0.66840   0.67107   0.67268
 Alpha virt. eigenvalues --    0.67456   0.67582   0.67748   0.68374   0.68569
 Alpha virt. eigenvalues --    0.68741   0.69129   0.69248   0.69682   0.69727
 Alpha virt. eigenvalues --    0.69887   0.70098   0.70187   0.70366   0.70691
 Alpha virt. eigenvalues --    0.71138   0.71339   0.71680   0.71883   0.72064
 Alpha virt. eigenvalues --    0.72390   0.72664   0.72795   0.72981   0.73269
 Alpha virt. eigenvalues --    0.73386   0.73594   0.74149   0.74914   0.75130
 Alpha virt. eigenvalues --    0.75255   0.75548   0.75615   0.75934   0.76154
 Alpha virt. eigenvalues --    0.76505   0.76635   0.76892   0.77284   0.77547
 Alpha virt. eigenvalues --    0.77862   0.78066   0.78145   0.78653   0.78793
 Alpha virt. eigenvalues --    0.78893   0.79297   0.79819   0.80019   0.80290
 Alpha virt. eigenvalues --    0.80342   0.80480   0.80629   0.80988   0.81150
 Alpha virt. eigenvalues --    0.81176   0.81405   0.81622   0.81790   0.82075
 Alpha virt. eigenvalues --    0.82312   0.82440   0.82954   0.83009   0.83228
 Alpha virt. eigenvalues --    0.83366   0.83526   0.83812   0.84240   0.84396
 Alpha virt. eigenvalues --    0.84572   0.85060   0.85311   0.85524   0.85737
 Alpha virt. eigenvalues --    0.86056   0.86303   0.86381   0.86404   0.86764
 Alpha virt. eigenvalues --    0.87071   0.87133   0.87456   0.87474   0.87725
 Alpha virt. eigenvalues --    0.87806   0.87917   0.88310   0.88542   0.88623
 Alpha virt. eigenvalues --    0.89010   0.89301   0.89385   0.89714   0.90238
 Alpha virt. eigenvalues --    0.90260   0.90412   0.90844   0.90986   0.91200
 Alpha virt. eigenvalues --    0.91386   0.91545   0.91826   0.91856   0.92147
 Alpha virt. eigenvalues --    0.92583   0.92742   0.93001   0.93161   0.93296
 Alpha virt. eigenvalues --    0.93548   0.93737   0.93928   0.94181   0.94531
 Alpha virt. eigenvalues --    0.94682   0.94754   0.95450   0.95666   0.96043
 Alpha virt. eigenvalues --    0.96146   0.96316   0.96466   0.96658   0.96760
 Alpha virt. eigenvalues --    0.96979   0.97188   0.97271   0.97600   0.97693
 Alpha virt. eigenvalues --    0.97811   0.98083   0.98156   0.98365   0.98857
 Alpha virt. eigenvalues --    0.99164   0.99461   0.99630   0.99687   0.99780
 Alpha virt. eigenvalues --    1.00742   1.00859   1.01106   1.01167   1.01306
 Alpha virt. eigenvalues --    1.01679   1.02120   1.02382   1.02424   1.02461
 Alpha virt. eigenvalues --    1.02795   1.03032   1.03329   1.03498   1.04029
 Alpha virt. eigenvalues --    1.04098   1.04357   1.04524   1.04673   1.05292
 Alpha virt. eigenvalues --    1.05600   1.05852   1.06271   1.06378   1.06739
 Alpha virt. eigenvalues --    1.07208   1.07716   1.07952   1.08324   1.08501
 Alpha virt. eigenvalues --    1.09509   1.09728   1.10238   1.10555   1.11294
 Alpha virt. eigenvalues --    1.11505   1.11815   1.12414   1.12863   1.13177
 Alpha virt. eigenvalues --    1.13274   1.14244   1.14862   1.15295   1.16418
 Alpha virt. eigenvalues --    1.16604   1.17410   1.17702   1.18273   1.18816
 Alpha virt. eigenvalues --    1.19119   1.20056   1.20326   1.20786   1.21105
 Alpha virt. eigenvalues --    1.21637   1.22232   1.22318   1.23018   1.23222
 Alpha virt. eigenvalues --    1.24517   1.24973   1.25010   1.25108   1.25755
 Alpha virt. eigenvalues --    1.26025   1.27001   1.27197   1.27829   1.28142
 Alpha virt. eigenvalues --    1.28343   1.29208   1.29733   1.30048   1.30504
 Alpha virt. eigenvalues --    1.30728   1.31328   1.31833   1.32328   1.32764
 Alpha virt. eigenvalues --    1.32894   1.33238   1.34670   1.34971   1.35045
 Alpha virt. eigenvalues --    1.35503   1.35779   1.35941   1.36007   1.36887
 Alpha virt. eigenvalues --    1.37672   1.38566   1.39008   1.39679   1.39836
 Alpha virt. eigenvalues --    1.40328   1.40662   1.40908   1.41761   1.42078
 Alpha virt. eigenvalues --    1.43030   1.43359   1.43914   1.44315   1.44740
 Alpha virt. eigenvalues --    1.44785   1.44793   1.46095   1.46295   1.47008
 Alpha virt. eigenvalues --    1.47464   1.47515   1.47689   1.48989   1.49199
 Alpha virt. eigenvalues --    1.49346   1.49589   1.50060   1.50409   1.50548
 Alpha virt. eigenvalues --    1.51207   1.51259   1.52149   1.52667   1.53043
 Alpha virt. eigenvalues --    1.53641   1.54800   1.55013   1.55195   1.55234
 Alpha virt. eigenvalues --    1.56050   1.56796   1.57528   1.57607   1.58267
 Alpha virt. eigenvalues --    1.59045   1.59286   1.59364   1.59607   1.59790
 Alpha virt. eigenvalues --    1.60037   1.60476   1.60977   1.61297   1.61534
 Alpha virt. eigenvalues --    1.62093   1.62507   1.62816   1.62942   1.63192
 Alpha virt. eigenvalues --    1.63878   1.64741   1.64981   1.65693   1.66010
 Alpha virt. eigenvalues --    1.66829   1.67080   1.67265   1.67399   1.67728
 Alpha virt. eigenvalues --    1.68043   1.68350   1.68730   1.69164   1.69851
 Alpha virt. eigenvalues --    1.69987   1.70141   1.70573   1.71274   1.71531
 Alpha virt. eigenvalues --    1.72120   1.72363   1.73126   1.73541   1.73625
 Alpha virt. eigenvalues --    1.73885   1.74326   1.74668   1.74865   1.75172
 Alpha virt. eigenvalues --    1.75591   1.75872   1.76858   1.76996   1.77551
 Alpha virt. eigenvalues --    1.77966   1.78559   1.78654   1.79147   1.79796
 Alpha virt. eigenvalues --    1.80134   1.80346   1.80714   1.80988   1.81245
 Alpha virt. eigenvalues --    1.81338   1.81606   1.81706   1.81908   1.82672
 Alpha virt. eigenvalues --    1.83018   1.83222   1.83429   1.83609   1.83693
 Alpha virt. eigenvalues --    1.84007   1.84206   1.84631   1.84666   1.84875
 Alpha virt. eigenvalues --    1.84988   1.85240   1.85786   1.86178   1.86456
 Alpha virt. eigenvalues --    1.86915   1.87007   1.87281   1.87491   1.87853
 Alpha virt. eigenvalues --    1.88023   1.88422   1.88447   1.88628   1.88689
 Alpha virt. eigenvalues --    1.89174   1.89373   1.89472   1.89841   1.90123
 Alpha virt. eigenvalues --    1.90258   1.90321   1.90671   1.90911   1.91089
 Alpha virt. eigenvalues --    1.91348   1.91576   1.91965   1.92683   1.92829
 Alpha virt. eigenvalues --    1.92936   1.93242   1.93601   1.94160   1.94504
 Alpha virt. eigenvalues --    1.94644   1.94862   1.94979   1.95499   1.95698
 Alpha virt. eigenvalues --    1.95926   1.95986   1.96416   1.96770   1.96886
 Alpha virt. eigenvalues --    1.96940   1.97245   1.97363   1.97665   1.97838
 Alpha virt. eigenvalues --    1.98151   1.98248   1.98718   1.99145   1.99763
 Alpha virt. eigenvalues --    1.99829   2.00068   2.00376   2.00973   2.01045
 Alpha virt. eigenvalues --    2.01135   2.01474   2.02106   2.02145   2.02624
 Alpha virt. eigenvalues --    2.02763   2.02948   2.03207   2.03812   2.04017
 Alpha virt. eigenvalues --    2.04230   2.04363   2.04756   2.04939   2.05067
 Alpha virt. eigenvalues --    2.05292   2.05991   2.06226   2.06772   2.06852
 Alpha virt. eigenvalues --    2.06973   2.07721   2.08284   2.08356   2.08539
 Alpha virt. eigenvalues --    2.08675   2.09054   2.09322   2.09574   2.11051
 Alpha virt. eigenvalues --    2.11123   2.11269   2.11489   2.11855   2.12351
 Alpha virt. eigenvalues --    2.12859   2.12987   2.13107   2.13380   2.13539
 Alpha virt. eigenvalues --    2.13615   2.13715   2.14287   2.15648   2.15774
 Alpha virt. eigenvalues --    2.15876   2.16347   2.16374   2.16679   2.16971
 Alpha virt. eigenvalues --    2.17473   2.17700   2.17912   2.17942   2.18266
 Alpha virt. eigenvalues --    2.18819   2.18847   2.19669   2.19897   2.20185
 Alpha virt. eigenvalues --    2.20815   2.21212   2.21774   2.21899   2.22293
 Alpha virt. eigenvalues --    2.22510   2.23136   2.23322   2.23621   2.24367
 Alpha virt. eigenvalues --    2.24634   2.24741   2.24825   2.25065   2.25601
 Alpha virt. eigenvalues --    2.25684   2.26106   2.26477   2.26965   2.27519
 Alpha virt. eigenvalues --    2.27606   2.28299   2.28533   2.28697   2.28864
 Alpha virt. eigenvalues --    2.29460   2.29757   2.30067   2.30682   2.31009
 Alpha virt. eigenvalues --    2.31136   2.31329   2.31534   2.31765   2.32023
 Alpha virt. eigenvalues --    2.32433   2.32628   2.33046   2.33213   2.33642
 Alpha virt. eigenvalues --    2.34063   2.34310   2.34936   2.35083   2.35540
 Alpha virt. eigenvalues --    2.36292   2.36563   2.36745   2.36950   2.37262
 Alpha virt. eigenvalues --    2.37657   2.37835   2.38325   2.38679   2.38807
 Alpha virt. eigenvalues --    2.39137   2.39833   2.40046   2.40501   2.40928
 Alpha virt. eigenvalues --    2.41390   2.41623   2.42218   2.42447   2.42762
 Alpha virt. eigenvalues --    2.43208   2.43235   2.43362   2.43551   2.44265
 Alpha virt. eigenvalues --    2.44589   2.44746   2.45000   2.45524   2.45749
 Alpha virt. eigenvalues --    2.45890   2.46204   2.46552   2.46674   2.46876
 Alpha virt. eigenvalues --    2.47941   2.48132   2.48716   2.48771   2.49200
 Alpha virt. eigenvalues --    2.49776   2.50027   2.50319   2.50701   2.50803
 Alpha virt. eigenvalues --    2.51240   2.51572   2.52029   2.52401   2.52480
 Alpha virt. eigenvalues --    2.53204   2.53292   2.53850   2.54057   2.54429
 Alpha virt. eigenvalues --    2.54596   2.54930   2.55001   2.55685   2.56027
 Alpha virt. eigenvalues --    2.56558   2.57010   2.57470   2.57630   2.57752
 Alpha virt. eigenvalues --    2.58189   2.58223   2.58627   2.58741   2.58806
 Alpha virt. eigenvalues --    2.59317   2.59384   2.59740   2.60202   2.60503
 Alpha virt. eigenvalues --    2.60751   2.61105   2.61300   2.61703   2.62133
 Alpha virt. eigenvalues --    2.62723   2.62926   2.63306   2.63796   2.63957
 Alpha virt. eigenvalues --    2.64249   2.64438   2.64802   2.65238   2.65510
 Alpha virt. eigenvalues --    2.65617   2.65675   2.66149   2.66635   2.66919
 Alpha virt. eigenvalues --    2.67437   2.67942   2.68590   2.69097   2.69292
 Alpha virt. eigenvalues --    2.69921   2.70077   2.70272   2.70351   2.70626
 Alpha virt. eigenvalues --    2.71183   2.71536   2.71755   2.72084   2.72266
 Alpha virt. eigenvalues --    2.72459   2.73123   2.74188   2.74497   2.74759
 Alpha virt. eigenvalues --    2.74826   2.75495   2.75608   2.75785   2.76097
 Alpha virt. eigenvalues --    2.76643   2.76712   2.77497   2.77710   2.78172
 Alpha virt. eigenvalues --    2.78282   2.78666   2.78713   2.79251   2.79769
 Alpha virt. eigenvalues --    2.80045   2.80289   2.80558   2.80829   2.81716
 Alpha virt. eigenvalues --    2.81892   2.82012   2.82441   2.82713   2.82991
 Alpha virt. eigenvalues --    2.83509   2.84143   2.84503   2.84907   2.85247
 Alpha virt. eigenvalues --    2.85655   2.85731   2.86402   2.86995   2.87379
 Alpha virt. eigenvalues --    2.87756   2.88030   2.88544   2.89139   2.89383
 Alpha virt. eigenvalues --    2.89514   2.89857   2.90236   2.90637   2.90996
 Alpha virt. eigenvalues --    2.91626   2.91687   2.91981   2.92423   2.92506
 Alpha virt. eigenvalues --    2.93471   2.93843   2.94268   2.94504   2.94886
 Alpha virt. eigenvalues --    2.95983   2.96539   2.96926   2.97058   2.97268
 Alpha virt. eigenvalues --    2.97506   2.97807   2.98683   2.98904   2.99877
 Alpha virt. eigenvalues --    3.00186   3.00344   3.00858   3.01509   3.01697
 Alpha virt. eigenvalues --    3.02291   3.02422   3.03182   3.03748   3.04703
 Alpha virt. eigenvalues --    3.05233   3.05395   3.05692   3.06023   3.07300
 Alpha virt. eigenvalues --    3.07558   3.08443   3.08729   3.09072   3.09238
 Alpha virt. eigenvalues --    3.09561   3.09976   3.10163   3.10931   3.11764
 Alpha virt. eigenvalues --    3.12487   3.13302   3.15399   3.16098   3.17566
 Alpha virt. eigenvalues --    3.18781   3.19184   3.20486   3.21033   3.21897
 Alpha virt. eigenvalues --    3.22343   3.22577   3.22976   3.23503   3.26116
 Alpha virt. eigenvalues --    3.26248   3.26562   3.27802   3.27915   3.28947
 Alpha virt. eigenvalues --    3.30086   3.30401   3.31048   3.31552   3.32333
 Alpha virt. eigenvalues --    3.32740   3.32988   3.33673   3.34669   3.35008
 Alpha virt. eigenvalues --    3.35966   3.36318   3.36801   3.37936   3.38103
 Alpha virt. eigenvalues --    3.39111   3.39131   3.39636   3.40805   3.41326
 Alpha virt. eigenvalues --    3.42379   3.43272   3.43850   3.44359   3.46095
 Alpha virt. eigenvalues --    3.46494   3.47013   3.47541   3.47687   3.48976
 Alpha virt. eigenvalues --    3.49643   3.50169   3.50335   3.51069   3.51562
 Alpha virt. eigenvalues --    3.51662   3.52569   3.54224   3.56173   3.57819
 Alpha virt. eigenvalues --    3.59593   3.60336   3.61686   3.64308   3.65359
 Alpha virt. eigenvalues --    3.66402   3.66922   3.66943   3.67851   3.71133
 Alpha virt. eigenvalues --    3.75337   3.75802   3.79258   3.79402   3.84948
 Alpha virt. eigenvalues --    3.93930   4.01441   4.03081   4.07705   4.11936
 Alpha virt. eigenvalues --    4.12773   4.15657   4.15893   4.16983   4.18638
 Alpha virt. eigenvalues --    4.20792   4.21330   4.22030   4.22955   4.25034
 Alpha virt. eigenvalues --    4.26367   4.28900   4.29128   4.30788   4.31451
 Alpha virt. eigenvalues --    4.31574   4.33600   4.35454   4.36225   4.37148
 Alpha virt. eigenvalues --    4.38278   4.39810   4.39927   4.41315   4.43377
 Alpha virt. eigenvalues --    4.43526   4.46399   4.46554   4.47892   4.48457
 Alpha virt. eigenvalues --    4.49073   4.49936   4.50690   4.52546   4.54319
 Alpha virt. eigenvalues --    4.54628   4.55138   4.55897   4.57145   4.58207
 Alpha virt. eigenvalues --    4.58251   4.60166   4.62113   4.63558   4.66063
 Alpha virt. eigenvalues --    4.66401   4.68412   4.68955   4.71144   4.72205
 Alpha virt. eigenvalues --    4.73652   4.76854   4.77896   4.80186   4.81265
 Alpha virt. eigenvalues --    4.81463   4.83955   4.86715   4.87885   4.97684
          Condensed to atoms (all electrons):
 Mulliken charges:
               1
     1  Mg   0.825113
     2  C    0.081737
     3  C   -0.197310
     4  C   -0.134862
     5  C   -0.151785
     6  N   -0.639817
     7  C    0.318370
     8  C   -0.177597
     9  C   -0.160009
    10  C    0.362346
    11  C   -0.299608
    12  C   -0.134043
    13  C   -0.278519
    14  C    0.603996
    15  O   -0.449581
    16  O   -0.452436
    17  N   -0.698088
    18  C    0.263698
    19  C    0.037889
    20  C   -0.035420
    21  C    0.311695
    22  C   -0.362190
    23  C    0.224483
    24  O   -0.442081
    25  N   -0.720093
    26  C    0.328335
    27  C   -0.008507
    28  C   -0.000974
    29  C    0.338092
    30  C    0.236193
    31  C   -0.242995
    32  C   -0.282905
    33  N   -0.693651
    34  C    0.221412
    35  C    0.035615
    36  C    0.092025
    37  C    0.281124
    38  C   -0.389018
    39  C    0.333621
    40  O   -0.486955
    41  C   -0.336661
    42  C    0.608288
    43  O   -0.454672
    44  O   -0.405678
    45  C   -0.090308
    46  C    0.010469
    47  C   -0.115980
    48  C    0.089122
    49  C   -0.373609
    50  C   -0.233141
    51  C   -0.175998
    52  C   -0.148790
    53  C   -0.037541
    54  C   -0.294950
    55  C   -0.162379
    56  C   -0.164334
    57  C   -0.182346
    58  C   -0.060758
    59  C   -0.302970
    60  C   -0.183092
    61  C   -0.184719
    62  C   -0.172624
    63  C   -0.050143
    64  C   -0.279282
    65  C   -0.298631
    66  H    0.079940
    67  H    0.134903
    68  H    0.094727
    69  H    0.122645
    70  H    0.126834
    71  H    0.077365
    72  H    0.111431
    73  H    0.145303
    74  H    0.122991
    75  H    0.129435
    76  H    0.126863
    77  H    0.109111
    78  H    0.143939
    79  H    0.165874
    80  H    0.088487
    81  H    0.102401
    82  H    0.110846
    83  H    0.108895
    84  H    0.132644
    85  H    0.129315
    86  H    0.021013
    87  H    0.122564
    88  H    0.142687
    89  H    0.143192
    90  H    0.127856
    91  H    0.111038
    92  H    0.117483
    93  H    0.066996
    94  H    0.142968
    95  H    0.112588
    96  H    0.117171
    97  H    0.113780
    98  H    0.096650
    99  H    0.098605
   100  H    0.098532
   101  H    0.099207
   102  H    0.063177
   103  H    0.044200
   104  H    0.122440
   105  H    0.057391
   106  H    0.106781
   107  H    0.082037
   108  H    0.086566
   109  H    0.102440
   110  H    0.082105
   111  H    0.075352
   112  H    0.090647
   113  H    0.070686
   114  H    0.079493
   115  H    0.115879
   116  H    0.094330
   117  H    0.087296
   118  H    0.089654
   119  H    0.095454
   120  H    0.099980
   121  H    0.087306
   122  H    0.099463
   123  H    0.094041
   124  H    0.054480
   125  H    0.109216
   126  H    0.100974
   127  H    0.112748
   128  H    0.067834
   129  H    0.069292
   130  H    0.130999
   131  H    0.147395
   132  H    0.118193
   133  O   -0.466358
   134  H    0.075657
 Sum of Mulliken charges =   0.00000
 Mulliken charges with hydrogens summed into heavy atoms:
               1
     1  Mg   0.825113
     2  C    0.081737
     3  C   -0.117370
     4  C    0.000041
     5  C   -0.057058
     6  N   -0.639817
     7  C    0.318370
     8  C   -0.054952
     9  C   -0.033175
    10  C    0.362346
    11  C    0.034491
    12  C    0.118382
    13  C   -0.042545
    14  C    0.603996
    15  O   -0.449581
    16  O   -0.452436
    17  N   -0.698088
    18  C    0.263698
    19  C    0.037889
    20  C   -0.035420
    21  C    0.311695
    22  C    0.036110
    23  C    0.326884
    24  O   -0.442081
    25  N   -0.720093
    26  C    0.328335
    27  C   -0.008507
    28  C   -0.000974
    29  C    0.338092
    30  C    0.311849
    31  C   -0.023254
    32  C    0.000067
    33  N   -0.693651
    34  C    0.221412
    35  C    0.035615
    36  C    0.092025
    37  C    0.281124
    38  C    0.019425
    39  C    0.333621
    40  O   -0.486955
    41  C   -0.208804
    42  C    0.608288
    43  O   -0.454672
    44  O   -0.405678
    45  C    0.306278
    46  C    0.238990
    47  C   -0.048984
    48  C    0.089122
    49  C   -0.000881
    50  C   -0.022712
    51  C    0.021140
    52  C    0.013594
    53  C    0.006658
    54  C   -0.008338
    55  C    0.006225
    56  C    0.020211
    57  C   -0.016347
    58  C    0.009928
    59  C   -0.013268
    60  C   -0.006142
    61  C    0.010716
    62  C    0.014145
    63  C    0.043897
    64  C   -0.014612
    65  C   -0.048758
   133  O   -0.466358
 Electronic spatial extent (au):  <R**2>=         147240.0652
 Charge=              0.0000 electrons
 Dipole moment (field-independent basis, Debye):
    X=              2.4053    Y=             -6.9448    Z=              0.1251  Tot=              7.3506
 Quadrupole moment (field-independent basis, Debye-Ang):
   XX=           -384.3046   YY=           -443.9830   ZZ=           -394.9995
   XY=             10.9399   XZ=             23.7940   YZ=            -36.3624
 Traceless Quadrupole moment (field-independent basis, Debye-Ang):
   XX=             23.4578   YY=            -36.2206   ZZ=             12.7628
   XY=             10.9399   XZ=             23.7940   YZ=            -36.3624
 Octapole moment (field-independent basis, Debye-Ang**2):
  XXX=           -147.3348  YYY=           -753.1672  ZZZ=             -4.7443  XYY=            185.1985
  XXY=           -190.5466  XXZ=           -103.8440  XZZ=            -97.1201  YZZ=            -10.1732
  YYZ=            -64.7826  XYZ=            232.7945
 Hexadecapole moment (field-independent basis, Debye-Ang**3):
 XXXX=        -160156.3265 YYYY=         -31410.3304 ZZZZ=          -9201.7046 XXXY=          -1883.2370
 XXXZ=           3827.3481 YYYX=           2577.9062 YYYZ=          -1537.0487 ZZZX=            379.0459
 ZZZY=           -338.6880 XXYY=         -35181.9301 XXZZ=         -28559.3202 YYZZ=          -7029.2022
 XXYZ=          -1014.9949 YYXZ=            382.0440 ZZXY=           -323.1745
 N-N= 9.119137110457D+03 E-N=-2.532154905498D+04  KE= 3.015570768403D+03

 Test job not archived.
 1\1\GINC-PEDRO-RYZENSSD\SP\RCAM-B3LYP TD-FC\6-31G(d,p)\C54H68Mg1N4O7\P
 ADAWAN\07-Oct-2019\0\\# td=(NStates=1) iop(3/107=0140000000,3/108=0140
 000000) iop(3/107=0140000000,3/108=0140000000) CAM-B3LYP/6-31G(d,p)\\T
 D\\0,1\Mg,0,-5.5868944206,1.232233251,0.2353562044\C,0,-4.9773278546,-
 2.1613200967,-0.3516582309\C,0,-3.4861700769,1.11998454,2.8555069889\C
 ,0,-6.2706834906,4.5514331664,0.6432166829\C,0,-8.0171026283,1.2203807
 205,-2.4023543293\N,0,-4.2727943639,-0.2630222253,0.9332434913\C,0,-4.
 1328685073,-1.6366748489,0.6379275113\C,0,-3.2646678685,-2.3638175804,
 1.4771433029\C,0,-2.9526994253,-1.3853492046,2.5801047971\C,0,-3.56009
 28093,-0.1158607387,2.1199726559\C,0,-3.5120633143,-1.9152582184,4.034
 5313125\C,0,-2.0433991832,-2.6972137146,0.5126454506\C,0,-0.9485226152
 ,-3.4982649144,1.3763215091\C,0,0.1709229597,-3.9611609882,0.469815142
 6\O,0,0.3942632802,-3.4939290817,-0.6366736828\O,0,1.0789995822,-4.640
 9692417,1.2249584843\N,0,-5.01018957,2.6642466614,1.5221789045\C,0,-3.
 9903631235,2.4254705631,2.4191371395\C,0,-3.7252930665,3.7189419767,3.
 1935883032\C,0,-4.4487706328,4.6908475503,2.4838742716\C,0,-5.31540090
 25,3.9812728038,1.4906542173\C,0,-2.6792665516,3.8317302567,4.37438130
 86\C,0,-4.6591186119,6.077027737,2.8481002468\O,0,-3.946587146,6.63183
 8014,3.7219261651\N,0,-6.9000516548,2.5924171742,-0.6946521329\C,0,-6.
 9388860864,3.84914532,-0.3016883719\C,0,-7.9388190221,4.5793689937,-1.
 1060734164\C,0,-8.3706600988,3.5896980999,-1.9286474171\C,0,-7.7951633
 278,2.4173199061,-1.7024540152\C,0,-8.2427065494,6.0059319629,-1.10974
 21088\C,0,-9.4859850769,3.7818191202,-3.1068632349\C,0,-8.7799269734,3
 .6817795411,-4.5565389006\N,0,-6.3239181591,-0.127827963,-1.049545975\
 C,0,-7.289392546,-0.0206529709,-2.1325391765\C,0,-7.4944325599,-1.3501
 701697,-2.7671097356\C,0,-6.7049559793,-2.2478185552,-2.1023794478\C,0
 ,-5.9026281863,-1.3554495745,-1.1210399687\C,0,-8.4163870134,-1.521901
 9788,-3.9043513545\C,0,-6.2033539625,-3.5205011561,-2.0330987038\O,0,-
 6.6572089615,-4.4969746676,-2.6484550912\C,0,-5.0877190254,-3.58075984
 27,-0.9685134721\C,0,-5.3380009277,-4.6767128729,0.1140185529\O,0,-5.6
 780119838,-4.4204279762,1.2061677371\O,0,-5.1656065239,-5.8581496991,-
 0.3438485563\C,0,-5.4521085601,-6.9688204731,0.5173192667\C,0,2.344831
 1647,-4.9829845587,0.7347214534\C,0,3.3943427444,-4.0073122305,1.07120
 84066\C,0,4.0742165254,-3.1849883197,0.2858809631\C,0,3.7066155589,-3.
 1547886673,-1.2250601748\C,0,5.1973439404,-2.2912533935,0.8040522561\C
 ,0,6.5464202467,-2.6308780408,0.1543257585\C,0,7.6446535921,-1.7712587
 717,0.7261064452\C,0,8.9892475333,-1.8579717792,-0.0037570889\C,0,9.55
 80428844,-3.3292428268,0.0485979848\C,0,10.0072161572,-0.8549061115,0.
 5217601394\C,0,11.3125944167,-0.8893017253,-0.189964307\C,0,12.1382814
 487,0.3651657071,0.0840991981\C,0,13.4847378679,0.4902987168,-0.619591
 7164\C,0,14.2891970927,-0.7804787779,-0.5341000952\C,0,14.2184317814,1
 .737128485,-0.2773653789\C,0,15.5476340443,2.1021921545,-1.055892697\C
 ,0,16.1282524449,3.4696994799,-0.5248935824\C,0,17.3809224869,3.843293
 2448,-1.3339144392\C,0,17.2358625684,3.8840239651,-2.8219645165\C,0,17
 .9056439836,5.2522833543,-0.7793188889\H,0,-2.9129668026,1.3104879124,
 3.7649441056\H,0,-6.4101418971,5.5993661388,0.8110408668\H,0,-8.640669
 266,1.102844546,-3.2954749284\H,0,-3.7703440996,-3.5100141181,1.772472
 9894\H,0,-2.0067617622,-1.2316407723,3.0212742934\H,0,-2.7540147267,-2
 .9012967106,4.2628562315\H,0,-3.2842150216,-1.0490470224,4.7198581217\
 H,0,-4.5093726131,-2.2481327313,4.103203543\H,0,-2.2919663622,-3.35354
 83998,-0.2131590505\H,0,-1.7496656663,-1.8065792853,0.2520460459\H,0,-
 0.7291373038,-2.8474547178,2.3712016613\H,0,-1.5368231609,-4.377274563
 8,1.9339624329\H,0,-1.7112797801,3.5781325,3.8935317343\H,0,-2.8518028
 343,4.7741570548,4.9729729602\H,0,-2.852735206,2.9334265368,5.21482845
 96\H,0,-5.5008739467,6.6342914116,2.3559677126\H,0,-10.3767016527,2.99
 04061925,-3.0595571103\H,0,-9.8582033032,4.869774512,-3.1721002026\H,0
 ,-9.4751632772,3.9599238924,-5.2161679274\H,0,-7.8132552915,4.18913085
 37,-4.7430539872\H,0,-8.6823285078,2.3459189058,-4.9535894736\H,0,-8.2
 303496166,-0.6708803457,-4.6634763166\H,0,-8.1229019181,-2.6099380541,
 -4.2483841823\H,0,-9.4775610052,-1.5592525599,-3.6065349386\H,0,-4.010
 8428603,-4.038079631,-1.4653014602\H,0,2.53686163,-6.019779271,0.89045
 74336\H,0,2.3006333899,-5.079096436,-0.2716425994\H,0,3.7818641688,-4.
 071597282,2.0414125054\H,0,2.6905865106,-3.1310046554,-1.6026929194\H,
 0,3.8008974277,-2.2341581164,-1.5146596835\H,0,4.3741599234,-3.9241042
 667,-1.6649079481\H,0,4.8546293319,-1.3182673713,0.7927796691\H,0,5.27
 82901874,-2.432207538,1.8727711634\H,0,6.5888081008,-3.7517194714,0.26
 42357453\H,0,6.357774617,-2.4079330093,-0.9398636726\H,0,7.2260734089,
 -0.7417607304,0.6600747608\H,0,7.790577968,-2.0481630648,1.9172391963\
 H,0,8.7042863282,-1.5421422549,-1.2098192006\H,0,8.8978519506,-4.03661
 25212,-0.256768147\H,0,10.4794809775,-3.6094442991,-0.8152291048\H,0,1
 0.177134461,-3.4179675254,1.0108020432\H,0,9.7438654474,0.2917075812,0
 .4262417986\H,0,10.0278617448,-1.0374920685,1.6361445518\H,0,12.100531
 9843,-1.66068339,0.0058512773\H,0,11.0954654867,-0.9063222677,-1.32708
 35521\H,0,11.5605360717,1.3551485867,-0.0198591963\H,0,12.4289236511,0
 .3460258859,1.1257717523\H,0,13.2017709194,0.4996147043,-1.7008062854\
 H,0,14.7942396512,-0.9496379811,0.4925643539\H,0,13.643604747,-1.44122
 73016,-0.8399902531\H,0,15.2744473012,-0.8631996477,-1.1044228453\H,0,
 13.6582250681,2.6754558448,-0.4345133286\H,0,14.4703546477,1.729969411
 4,0.686277455\H,0,16.3975184789,1.5474802095,-0.9910069157\H,0,15.0315
 279483,2.1275710085,-2.0034038713\H,0,15.475419004,4.2840016079,-0.994
 3107111\H,0,16.1062202559,3.4298389433,0.5454870075\H,0,18.1763274495,
 3.1492984383,-0.9820425922\H,0,16.1568628231,4.4698442633,-3.378342113
 1\H,0,18.2242848184,4.2372101142,-3.268744308\H,0,16.8821028956,2.8586
 907803,-3.275548108\H,0,18.2283407081,5.2677474277,0.2272418899\H,0,18
 .7607936902,5.8176579923,-1.4889810392\H,0,17.0509776676,6.1543698471,
 -0.7663049826\H,0,-5.1796658512,-7.8713382332,0.0376094449\H,0,-6.3214
 026316,-7.0496643478,0.868686712\H,0,-4.7827904964,-6.9380936856,1.366
 5495234\O,0,-7.7754104363,6.9326933007,-0.3335867871\H,0,-8.9644598298
 ,6.2841658323,-1.8821766852\\Version=ES64L-G09RevD.01\State=1-A\HF=-30
 43.3426243\RMSD=4.524e-09\PG=C01 [X(C54H68Mg1N4O7)]\\@


 EXPERIMENTALISTS THINK SILICON IS REALLY FUN TO USE
     ITS PLACE IN NOVEL COMPOUNDS IS CERTAIN TO AMUSE
 THEY SIT ALL DAY IN LABORATORIES MAKING ALL THIS SLUDGE
     "LOADED WITH THE SILICON THEY SAY", TO ME IT LOOKS LIKE FUDGE.
 FOR HAPPY THOUGH THEY BE WITH CRUD, I'D LIKE TO KNOW A LITTLE
      ABOUT THE PI BONDS ON THE EDGE AND SIGMAS IN THE MIDDLE.

 SO LETS DERIVE A WAVEFUNCTION.....6-31G*
     USE AN OPTIMAL GEOMETRY AND SEE WHERE ELECTRONS ARE.
 BUT WHAT OF CORRELATION?  ASKS THE WIRY LITTLE SKEPTIC.
     WE'LL THROW IN PERTURBATION AS AN ELECTRON ANTISEPTIC.
 AND WHEN THE PROGRAM GIVES US ANSWERS IN THEM WE CAN TRUST
     SINCE NOBODY CAN MAKE THE STUFF, WE HAVE NO CHOICE, WE MUST.

 SO THEORY GUYS HAVE GOT IT MADE, IN ROOMS FREE OF POLLUTION.
     INSTEAD OF PROBLEMS WITH THE REFLUX, THEY HAVE ONLY SOLUTIONS.
 AND WHEN THE FEDS ANNOUNCE THE LIST OF CARCINOGENIC TERRORS,
     THE THEORISTS SIT SAFELY AT THEIR TERMINALS FIXING ERRORS.
 IN OTHER WORDS, EXPERIMENTALISTS WILL LIKELY DIE OF CANCER
     FROM WORKING HARD YET FRUITLESSLY...TILL THEORY GIVES THE ANSWER.
          -- THOMAS A. HOLME, 1983
 Job cpu time:       0 days  5 hours 50 minutes 16.0 seconds.
 File lengths (MBytes):  RWF=   2102 Int=      0 D2E=      0 Chk=    163 Scr=      1
 Normal termination of Gaussian 09 at Mon Oct  7 08:39:14 2019.
