 Entering Gaussian System, Link 0=g16
 Input=Geometria-333-.com
 Output=Geometria-333-.log
 Initial command:
 /usr/local/g09/l1.exe "/home/padawan/israel-mol/chlorophyll-b/spectra/emi/Gau-8460.inp" -scrdir="/home/padawan/israel-mol/chlorophyll-b/spectra/emi/"
 Entering Link 1 = /usr/local/g09/l1.exe PID=      8462.
  
 Copyright (c) 1988,1990,1992,1993,1995,1998,2003,2009,2013,
            Gaussian, Inc.  All Rights Reserved.
  
 This is part of the Gaussian(R) 09 program.  It is based on
 the Gaussian(R) 03 system (copyright 2003, Gaussian, Inc.),
 the Gaussian(R) 98 system (copyright 1998, Gaussian, Inc.),
 the Gaussian(R) 94 system (copyright 1995, Gaussian, Inc.),
 the Gaussian 92(TM) system (copyright 1992, Gaussian, Inc.),
 the Gaussian 90(TM) system (copyright 1990, Gaussian, Inc.),
 the Gaussian 88(TM) system (copyright 1988, Gaussian, Inc.),
 the Gaussian 86(TM) system (copyright 1986, Carnegie Mellon
 University), and the Gaussian 82(TM) system (copyright 1983,
 Carnegie Mellon University). Gaussian is a federally registered
 trademark of Gaussian, Inc.
  
 This software contains proprietary and confidential information,
 including trade secrets, belonging to Gaussian, Inc.
  
 This software is provided under written license and may be
 used, copied, transmitted, or stored only in accord with that
 written license.
  
 The following legend is applicable only to US Government
 contracts under FAR:
  
                    RESTRICTED RIGHTS LEGEND
  
 Use, reproduction and disclosure by the US Government is
 subject to restrictions as set forth in subparagraphs (a)
 and (c) of the Commercial Computer Software - Restricted
 Rights clause in FAR 52.227-19.
  
 Gaussian, Inc.
 340 Quinnipiac St., Bldg. 40, Wallingford CT 06492
  
  
 ---------------------------------------------------------------
 Warning -- This program may not be used in any manner that
 competes with the business of Gaussian, Inc. or will provide
 assistance to any competitor of Gaussian, Inc.  The licensee
 of this program is prohibited from giving any competitor of
 Gaussian, Inc. access to this program.  By using this program,
 the user acknowledges that Gaussian, Inc. is engaged in the
 business of creating and licensing software in the field of
 computational chemistry and represents and warrants to the
 licensee that it is not a competitor of Gaussian, Inc. and that
 it will not use this program in any manner prohibited above.
 ---------------------------------------------------------------
  

 Cite this work as:
 Gaussian 09, Revision D.01,
 M. J. Frisch, G. W. Trucks, H. B. Schlegel, G. E. Scuseria, 
 M. A. Robb, J. R. Cheeseman, G. Scalmani, V. Barone, B. Mennucci, 
 G. A. Petersson, H. Nakatsuji, M. Caricato, X. Li, H. P. Hratchian, 
 A. F. Izmaylov, J. Bloino, G. Zheng, J. L. Sonnenberg, M. Hada, 
 M. Ehara, K. Toyota, R. Fukuda, J. Hasegawa, M. Ishida, T. Nakajima, 
 Y. Honda, O. Kitao, H. Nakai, T. Vreven, J. A. Montgomery, Jr., 
 J. E. Peralta, F. Ogliaro, M. Bearpark, J. J. Heyd, E. Brothers, 
 K. N. Kudin, V. N. Staroverov, T. Keith, R. Kobayashi, J. Normand, 
 K. Raghavachari, A. Rendell, J. C. Burant, S. S. Iyengar, J. Tomasi, 
 M. Cossi, N. Rega, J. M. Millam, M. Klene, J. E. Knox, J. B. Cross, 
 V. Bakken, C. Adamo, J. Jaramillo, R. Gomperts, R. E. Stratmann, 
 O. Yazyev, A. J. Austin, R. Cammi, C. Pomelli, J. W. Ochterski, 
 R. L. Martin, K. Morokuma, V. G. Zakrzewski, G. A. Voth, 
 P. Salvador, J. J. Dannenberg, S. Dapprich, A. D. Daniels, 
 O. Farkas, J. B. Foresman, J. V. Ortiz, J. Cioslowski, 
 and D. J. Fox, Gaussian, Inc., Wallingford CT, 2013.
 
 ******************************************
 Gaussian 09:  ES64L-G09RevD.01 24-Apr-2013
                 7-Oct-2019 
 ******************************************
 %nproc=3
 Will use up to    3 processors via shared memory.
 %Mem=2GB
 ----------------------------------------------------------------------
 # td=(NStates=1) iop(3/107=0140000000,3/108=0140000000) iop(3/107=0140
 000000,3/108=0140000000) CAM-B3LYP/6-31G(d,p)
 ----------------------------------------------------------------------
 1/38=1/1;
 2/12=2,17=6,18=5,40=1/2;
 3/5=1,6=6,7=101,11=9,16=1,25=1,30=1,74=-40,107=140000000,108=140000000/1,2,8,3;
 4//1;
 5/5=2,38=5/2;
 8/6=1,10=2,108=1/1;
 9/41=1,42=1,70=2/14;
 6/7=2,8=2,9=2,10=2/1;
 99/5=1,9=1/99;
 --
 TD
 --
 Symbolic Z-matrix:
 Charge =  0 Multiplicity = 1
 12                   -5.58354   1.18348   0.20006 
 6                    -4.90582  -2.06867  -0.47797 
 6                    -3.25044   1.20868   2.67458 
 6                    -6.29297   4.52986   0.6472 
 6                    -7.98634   1.10287  -2.31663 
 7                    -4.2449   -0.27714   0.94422 
 6                    -4.17903  -1.52538   0.68697 
 6                    -3.10919  -2.24239   1.50352 
 6                    -2.93511  -1.23383   2.63612 
 6                    -3.5142   -0.00261   2.08287 
 6                    -3.46216  -1.65953   3.98354 
 6                    -1.95463  -2.74722   0.70004 
 6                    -0.91408  -3.59629   1.53812 
 6                     0.25431  -3.97316   0.59175 
 8                     0.50704  -3.36335  -0.41538 
 8                     1.06425  -4.81571   1.30568 
 7                    -4.92341   2.5895    1.49145 
 6                    -3.93759   2.42239   2.36561 
 6                    -3.69246   3.65936   3.15765 
 6                    -4.54884   4.63097   2.54268 
 6                    -5.26334   3.99086   1.45758 
 6                    -2.63557   3.77176   4.26435 
 6                    -4.77408   5.96571   3.0631 
 8                    -4.07252   6.56867   3.85249 
 7                    -6.90404   2.64276  -0.65092 
 6                    -7.0113    3.94063  -0.40217 
 6                    -7.95229   4.55107  -1.31785 
 6                    -8.37426   3.5649   -2.17762 
 6                    -7.72795   2.36477  -1.68565 
 6                    -8.39109   5.97731  -1.12414 
 6                    -9.3532    3.78002  -3.23777 
 6                    -8.77519   4.1047   -4.63991 
 7                    -6.46235  -0.14484  -1.0276 
 6                    -7.37537  -0.09273  -2.06952 
 6                    -7.56983  -1.29865  -2.69296 
 6                    -6.58114  -2.14715  -2.12272 
 6                    -5.89946  -1.41829  -1.20843 
 6                    -8.4846   -1.60902  -3.77341 
 6                    -6.16275  -3.52516  -2.07159 
 8                    -6.54201  -4.48174  -2.64761 
 6                    -5.00291  -3.69652  -0.83637 
 6                    -5.43271  -4.61911   0.11878 
 8                    -5.88075  -4.35215   1.30296 
 8                    -5.26313  -5.83676  -0.34504 
 6                    -5.66865  -6.82965   0.57582 
 6                     2.32369  -5.10276   0.66871 
 6                     3.44738  -4.18553   1.00799 
 6                     4.09273  -3.2584    0.11514 
 6                     3.74668  -3.12002  -1.27535 
 6                     5.21669  -2.49853   0.81012 
 6                     6.66181  -2.76119   0.15051 
 6                     7.73438  -1.88542   0.68865 
 6                     9.08103  -2.01094  -0.17457 
 6                     9.51303  -3.48699   0.04333 
 6                     10.10189  -0.90654   0.39016 
 6                     11.42615  -0.76901  -0.34822 
 6                     12.26984   0.37661   0.112 
 6                     13.55416   0.46295  -0.71196 
 6                     14.42338  -0.78689  -0.4681 
 6                     14.25514   1.70199  -0.21068 
 6                     15.4195   2.22356  -1.01378 
 6                     15.88507   3.58346  -0.53106 
 6                     17.21133   3.91132  -1.29693 
 6                     17.14274   4.06444  -2.76584 
 6                     17.87519   5.27589  -0.74253 
 1                    -2.63322   1.5164    3.46701 
 1                    -6.33431   5.68269   0.67419 
 1                    -8.75483   1.21202  -2.97888 
 1                    -3.65574  -3.21834   1.92622 
 1                    -1.84197  -0.76902   2.78219 
 1                    -3.13077  -2.86634   4.11322 
 1                    -2.78765  -1.17329   5.05573 
 1                    -4.44747  -1.76773   4.04479 
 1                    -2.4695   -3.33688  -0.039 
 1                    -1.46762  -1.89653   0.1398 
 1                    -0.5312   -3.01007   2.34045 
 1                    -1.1913   -4.69052   2.03787 
 1                    -1.47849   3.84754   4.20987 
 1                    -2.80864   4.7375    4.77896 
 1                    -2.94842   3.01478   4.9459 
 1                    -5.54794   6.30302   2.42195 
 1                    -10.00319   2.94347  -3.42736 
 1                    -10.037    4.57119  -2.98274 
 1                    -9.44525   4.13907  -5.31845 
 1                    -8.26542   5.0491   -4.54108 
 1                    -8.02974   3.37279  -4.86724 
 1                    -8.25329  -1.19856  -4.59731 
 1                    -8.43038  -2.79211  -3.82843 
 1                    -9.57239  -1.19306  -3.54263 
 1                    -4.12777  -3.96757  -1.40773 
 1                     2.44797  -6.22322   0.91374 
 1                     1.85237  -5.0589   -0.38162 
 1                     3.67479  -4.2057    2.0176 
 1                     2.80009  -3.52012  -1.56218 
 1                     3.84221  -2.06219  -1.49587 
 1                     4.38887  -3.63683  -2.05394 
 1                     5.1467   -1.43055   0.59135 
 1                     5.26808  -2.78121   1.90211 
 1                     6.65148  -3.84192   0.21269 
 1                     6.56711  -2.66777  -1.01147 
 1                     7.48292  -0.8224    0.41103 
 1                     8.00441  -2.14731   1.69242 
 1                     8.80603  -2.0407   -1.17064 
 1                     8.86514  -4.17979  -0.31032 
 1                     10.59832  -3.74686  -0.3392 
 1                     9.56681  -3.50481   1.08502 
 1                     9.39875  -0.00722   0.24226 
 1                     10.29955  -0.98799   1.46849 
 1                     11.8098  -1.86096  -0.06524 
 1                     11.31396  -0.69362  -1.47059 
 1                     11.67284   1.29089  -0.02643 
 1                     12.34147   0.32705   1.18579 
 1                     13.25248   0.68879  -1.80603 
 1                     14.84656  -1.04246   0.63832 
 1                     13.85338  -1.68854  -0.68261 
 1                     15.31763  -0.76116  -1.06397 
 1                     13.4153   2.30805  -0.16017 
 1                     14.43828   1.34358   0.8561 
 1                     16.12254   1.3752   -1.09654 
 1                     15.19378   2.66695  -2.05698 
 1                     15.14615   4.32991  -0.6066 
 1                     16.26844   3.40816   0.69213 
 1                     17.82794   2.95792  -1.1988 
 1                     16.47553   4.81576  -3.02398 
 1                     17.98492   4.25793  -3.10103 
 1                     16.57795   3.23453  -3.24574 
 1                     17.89489   5.13747   0.10363 
 1                     18.85914   5.42408  -1.15227 
 1                     17.20345   6.20455  -1.04322 
 1                    -5.61577  -7.78866   0.24116 
 1                    -6.74172  -6.60353   0.58892 
 1                    -5.18036  -6.79719   1.60428 
 8                    -7.97686   6.82167  -0.34678 
 1                    -9.14011   6.30393  -1.9205 
 
 Stoichiometry    C54H68MgN4O7
 Framework group  C1[X(C54H68MgN4O7)]
 Deg. of freedom   396
 Full point group                 C1      NOp   1
 Largest Abelian subgroup         C1      NOp   1
 Largest concise Abelian subgroup C1      NOp   1
                         Standard orientation:                         
 ---------------------------------------------------------------------
 Center     Atomic      Atomic             Coordinates (Angstroms)
 Number     Number       Type             X           Y           Z
 ---------------------------------------------------------------------
      1         12           0       -5.583608    1.180630    0.202513
      2          6           0       -4.903794   -2.069845   -0.481430
      3          6           0       -3.249941    1.203072    2.676529
      4          6           0       -6.295238    4.525725    0.655731
      5          6           0       -7.986933    1.102811   -2.313757
      6          7           0       -4.243782   -0.280380    0.943779
      7          6           0       -4.177111   -1.528117    0.684304
      8          6           0       -3.106585   -2.245822    1.499330
      9          6           0       -2.932933   -1.239155    2.633676
     10          6           0       -3.513004   -0.007355    2.082738
     11          6           0       -3.459375   -1.667601    3.980459
     12          6           0       -1.951861   -2.748434    0.694699
     13          6           0       -0.910528   -3.598271    1.531028
     14          6           0        0.257902   -3.972656    0.583721
     15          8           0        0.509979   -3.360885   -0.422386
     16          8           0        1.068588   -4.815902    1.295971
     17          7           0       -4.924146    2.584821    1.496228
     18          6           0       -3.938003    2.416848    2.369869
     19          6           0       -3.693546    3.652580    3.164042
     20          6           0       -4.550742    4.624689    2.550985
     21          6           0       -5.265047    3.986008    1.464921
     22          6           0       -2.636478    3.763761    4.270689
     23          6           0       -4.776782    5.958345    3.073820
     24          8           0       -4.075455    6.560398    3.864110
     25          7           0       -6.905312    2.640503   -0.645579
     26          6           0       -7.013413    3.937859   -0.394509
     27          6           0       -7.955035    4.549258   -1.308895
     28          6           0       -8.376524    3.564319   -2.170308
     29          6           0       -7.729266    2.363777   -1.680612
     30          6           0       -8.394777    5.974853   -1.112560
     31          6           0       -9.355861    3.780640   -3.229843
     32          6           0       -8.778397    4.108202   -4.631542
     33          7           0       -6.461783   -0.146122   -1.027298
     34          6           0       -7.375081   -0.092801   -2.068911
     35          6           0       -7.568852   -1.297745   -2.694438
     36          6           0       -6.579446   -2.146572   -2.125928
     37          6           0       -5.898051   -1.418857   -1.210506
     38          6           0       -8.483662   -1.606842   -3.775219
     39          6           0       -6.160088   -3.524384   -2.077334
     40          8           0       -6.538818   -4.480207   -2.654950
     41          6           0       -4.999842   -3.697126   -0.842686
     42          6           0       -5.428782   -4.621697    0.110930
     43          8           0       -5.876732   -4.357146    1.295682
     44          8           0       -5.258464   -5.838407   -0.355081
     45          6           0       -5.663087   -6.833204    0.564109
     46          6           0        2.328078   -5.100953    0.658210
     47          6           0        3.451212   -4.183551    0.998849
     48          6           0        4.095713   -3.254393    0.107493
     49          6           0        3.749245   -3.113792   -1.282669
     50          6           0        5.219307   -2.494985    0.803554
     51          6           0        6.664460   -2.755475    0.143138
     52          6           0        7.736551   -1.879916    0.682585
     53          6           0        9.083080   -2.002974   -0.181175
     54          6           0        9.516153   -3.479109    0.034015
     55          6           0       10.103307   -0.898873    0.385273
     56          6           0       11.427300   -0.759119   -0.353167
     57          6           0       12.270314    0.386265    0.108885
     58          6           0       13.554382    0.474949   -0.715221
     59          6           0       14.424518   -0.774714   -0.473777
     60          6           0       14.254612    1.713594   -0.211911
     61          6           0       15.418430    2.237388   -1.014356
     62          6           0       15.883169    3.596751   -0.529345
     63          6           0       17.209021    3.926881   -1.294938
     64          6           0       17.139991    4.082554   -2.763557
     65          6           0       17.872073    5.290923   -0.738273
     66          1           0       -2.632752    1.509812    3.469364
     67          1           0       -6.337377    5.678480    0.684770
     68          1           0       -8.755654    1.212597   -2.975642
     69          1           0       -3.652362   -3.222905    1.920432
     70          1           0       -1.840078   -0.773849    2.780315
     71          1           0       -3.127125   -2.874409    4.107932
     72          1           0       -2.784949   -1.182789    5.053357
     73          1           0       -4.444594   -1.776593    4.041748
     74          1           0       -2.466499   -3.337140   -0.045270
     75          1           0       -1.465567   -1.896418    0.135852
     76          1           0       -0.527865   -3.013203    2.334305
     77          1           0       -1.186874   -4.693566    2.028911
     78          1           0       -1.479458    3.840433    4.216078
     79          1           0       -2.810092    4.728469    4.787050
     80          1           0       -2.948649    3.005361    4.950973
     81          1           0       -5.551023    6.296255    2.433449
     82          1           0      -10.005319    2.943979   -3.420770
     83          1           0      -10.040147    4.570890   -2.973260
     84          1           0       -9.448642    4.143309   -5.309865
     85          1           0       -8.269261    5.052773   -4.531166
     86          1           0       -8.032501    3.377211   -4.860342
     87          1           0       -8.252826   -1.194768   -4.598447
     88          1           0       -8.428636   -2.789791   -3.832348
     89          1           0       -9.571683   -1.192039   -3.543452
     90          1           0       -4.124652   -3.966561   -1.414723
     91          1           0        2.453193   -6.221762    0.901224
     92          1           0        1.856483   -5.055569   -0.391939
     93          1           0        3.678876   -4.205350    2.008367
     94          1           0        2.802862   -3.514047   -1.569990
     95          1           0        3.843994   -2.055514   -1.501342
     96          1           0        4.391612   -3.628780   -2.062323
     97          1           0        5.148530   -1.426662    0.586687
     98          1           0        5.271150   -2.779558    1.895032
     99          1           0        6.654894   -3.836317    0.203414
    100          1           0        6.569419   -2.660063   -1.018649
    101          1           0        7.484288   -0.816579    0.406902
    102          1           0        8.006993   -2.143397    1.685822
    103          1           0        8.807868   -2.031167   -1.177223
    104          1           0        8.868660   -4.171729   -0.320710
    105          1           0       10.601537   -3.737551   -0.349224
    106          1           0        9.570193   -3.498732    1.075662
    107          1           0        9.399516    0.000220    0.239133
    108          1           0       10.301278   -0.982089    1.463412
    109          1           0       11.811777   -1.851306   -0.072204
    110          1           0       11.314797   -0.681823   -1.475374
    111          1           0       11.672642    1.300380   -0.027790
    112          1           0       12.342228    0.334862    1.182565
    113          1           0       13.252282    0.702523   -1.808816
    114          1           0       14.848137   -1.031946    0.632094
    115          1           0       13.855087   -1.676380   -0.689750
    116          1           0       15.318612   -0.747312   -1.069803
    117          1           0       13.414371    2.318977   -0.160131
    118          1           0       14.438255    1.353420    0.854194
    119          1           0       16.122037    1.389661   -1.098779
    120          1           0       15.192164    2.682467   -2.056719
    121          1           0       15.143714    4.342817   -0.603391
    122          1           0       16.266944    3.419549    0.693450
    123          1           0       17.826320    2.973735   -1.198641
    124          1           0       16.472203    4.833865   -3.020211
    125          1           0       17.981956    4.277219   -3.098598
    126          1           0       16.575662    3.253100   -3.244790
    127          1           0       17.892062    5.151029    0.107631
    128          1           0       18.855827    5.440521   -1.147981
    129          1           0       17.199623    6.219658   -1.037172
    130          1           0       -5.609621   -7.791587    0.227746
    131          1           0       -6.736314   -6.607853    0.577862
    132          1           0       -5.174580   -6.802228    1.592520
    133          8           0       -7.980948    6.818126   -0.333798
    134          1           0       -9.144204    6.302361   -1.908164
 ---------------------------------------------------------------------
 Rotational constants (GHZ):      0.0347125      0.0080869      0.0071547
 Standard basis: 6-31G(d,p) (6D, 7F)
 There are  1334 symmetry adapted cartesian basis functions of A   symmetry.
 There are  1334 symmetry adapted basis functions of A   symmetry.
  1334 basis functions,  2348 primitive gaussians,  1334 cartesian basis functions
   244 alpha electrons      244 beta electrons
       nuclear repulsion energy      9120.0484468212 Hartrees.
 NAtoms=  134 NActive=  134 NUniq=  134 SFac= 1.00D+00 NAtFMM=   60 NAOKFM=T Big=T
 Integral buffers will be    131072 words long.
 Raffenetti 1 integral format.
 Two-electron integral symmetry is turned on.
 One-electron integrals computed using PRISM.
 NBasis=  1334 RedAO= T EigKep=  2.70D-04  NBF=  1334
 NBsUse=  1334 1.00D-06 EigRej= -1.00D+00 NBFU=  1334
 ExpMin= 4.21D-02 ExpMax= 1.17D+04 ExpMxC= 1.76D+03 IAcc=2 IRadAn=         4 AccDes= 0.00D+00
 Harris functional with IExCor=20419 and IRadAn=       4 diagonalized for initial guess.
 HarFok:  IExCor=20419 AccDes= 0.00D+00 IRadAn=         4 IDoV= 1 UseB2=F ITyADJ=14
 ICtDFT=  3500011 ScaDFX=  1.000000  1.000000  1.000000  1.000000
 FoFCou: FMM=F IPFlag=           0 FMFlag=      100000 FMFlg1=        2001
         NFxFlg=           0 DoJE=T BraDBF=F KetDBF=T FulRan=T
         wScrn=  0.000000 ICntrl=     500 IOpCl=  0 I1Cent=   200000004 NGrid=           0
         NMat0=    1 NMatS0=      1 NMatT0=    0 NMatD0=    1 NMtDS0=    0 NMtDT0=    0
 Petite list used in FoFCou.
 Requested convergence on RMS density matrix=1.00D-08 within 128 cycles.
 Requested convergence on MAX density matrix=1.00D-06.
 Requested convergence on             energy=1.00D-06.
 No special actions if energy rises.
 SCF Done:  E(RCAM-B3LYP) =  -3043.37225050     A.U. after   16 cycles
            NFock= 16  Conv=0.60D-08     -V/T= 2.0084
 DoSCS=F DFT=T ScalE2(SS,OS)=  1.000000  1.000000
 ExpMin= 4.21D-02 ExpMax= 1.17D+04 ExpMxC= 1.76D+03 IAcc=3 IRadAn=         5 AccDes= 0.00D+00
 HarFok:  IExCor=  205 AccDes= 0.00D+00 IRadAn=         5 IDoV=-2 UseB2=F ITyADJ=14
 ICtDFT= 12500011 ScaDFX=  1.000000  1.000000  1.000000  1.000000
 Range of M.O.s used for correlation:    71  1334
 NBasis=  1334 NAE=   244 NBE=   244 NFC=    70 NFV=     0
 NROrb=   1264 NOA=   174 NOB=   174 NVA=  1090 NVB=  1090
 Would need an additional       2379600800000 words for in-memory AO integral storage.
 Orbital symmetries:
       Occupied  (A) (A) (A) (A) (A) (A) (A) (A) (A) (A) (A) (A)
                 (A) (A) (A) (A) (A) (A) (A) (A) (A) (A) (A) (A)
                 (A) (A) (A) (A) (A) (A) (A) (A) (A) (A) (A) (A)
                 (A) (A) (A) (A) (A) (A) (A) (A) (A) (A) (A) (A)
                 (A) (A) (A) (A) (A) (A) (A) (A) (A) (A) (A) (A)
                 (A) (A) (A) (A) (A) (A) (A) (A) (A) (A) (A) (A)
                 (A) (A) (A) (A) (A) (A) (A) (A) (A) (A) (A) (A)
                 (A) (A) (A) (A) (A) (A) (A) (A) (A) (A) (A) (A)
                 (A) (A) (A) (A) (A) (A) (A) (A) (A) (A) (A) (A)
                 (A) (A) (A) (A) (A) (A) (A) (A) (A) (A) (A) (A)
                 (A) (A) (A) (A) (A) (A) (A) (A) (A) (A) (A) (A)
                 (A) (A) (A) (A) (A) (A) (A) (A) (A) (A) (A) (A)
                 (A) (A) (A) (A) (A) (A) (A) (A) (A) (A) (A) (A)
                 (A) (A) (A) (A) (A) (A) (A) (A) (A) (A) (A) (A)
                 (A) (A) (A) (A) (A) (A) (A) (A) (A) (A) (A) (A)
                 (A) (A) (A) (A) (A) (A) (A) (A) (A) (A) (A) (A)
                 (A) (A) (A) (A) (A) (A) (A) (A) (A) (A) (A) (A)
                 (A) (A) (A) (A) (A) (A) (A) (A) (A) (A) (A) (A)
                 (A) (A) (A) (A) (A) (A) (A) (A) (A) (A) (A) (A)
                 (A) (A) (A) (A) (A) (A) (A) (A) (A) (A) (A) (A)
                 (A) (A) (A) (A)
       Virtual   (A) (A) (A) (A) (A) (A) (A) (A) (A) (A) (A) (A)
                 (A) (A) (A) (A) (A) (A) (A) (A) (A) (A) (A) (A)
                 (A) (A) (A) (A) (A) (A) (A) (A) (A) (A) (A) (A)
                 (A) (A) (A) (A) (A) (A) (A) (A) (A) (A) (A) (A)
                 (A) (A) (A) (A) (A) (A) (A) (A) (A) (A) (A) (A)
                 (A) (A) (A) (A) (A) (A) (A) (A) (A) (A) (A) (A)
                 (A) (A) (A) (A) (A) (A) (A) (A) (A) (A) (A) (A)
                 (A) (A) (A) (A) (A) (A) (A) (A) (A) (A) (A) (A)
                 (A) (A) (A) (A) (A) (A) (A) (A) (A) (A) (A) (A)
                 (A) (A) (A) (A) (A) (A) (A) (A) (A) (A) (A) (A)
                 (A) (A) (A) (A) (A) (A) (A) (A) (A) (A) (A) (A)
                 (A) (A) (A) (A) (A) (A) (A) (A) (A) (A) (A) (A)
                 (A) (A) (A) (A) (A) (A) (A) (A) (A) (A) (A) (A)
                 (A) (A) (A) (A) (A) (A) (A) (A) (A) (A) (A) (A)
                 (A) (A) (A) (A) (A) (A) (A) (A) (A) (A) (A) (A)
                 (A) (A) (A) (A) (A) (A) (A) (A) (A) (A) (A) (A)
                 (A) (A) (A) (A) (A) (A) (A) (A) (A) (A) (A) (A)
                 (A) (A) (A) (A) (A) (A) (A) (A) (A) (A) (A) (A)
                 (A) (A) (A) (A) (A) (A) (A) (A) (A) (A) (A) (A)
                 (A) (A) (A) (A) (A) (A) (A) (A) (A) (A) (A) (A)
                 (A) (A) (A) (A) (A) (A) (A) (A) (A) (A) (A) (A)
                 (A) (A) (A) (A) (A) (A) (A) (A) (A) (A) (A) (A)
                 (A) (A) (A) (A) (A) (A) (A) (A) (A) (A) (A) (A)
                 (A) (A) (A) (A) (A) (A) (A) (A) (A) (A) (A) (A)
                 (A) (A) (A) (A) (A) (A) (A) (A) (A) (A) (A) (A)
                 (A) (A) (A) (A) (A) (A) (A) (A) (A) (A) (A) (A)
                 (A) (A) (A) (A) (A) (A) (A) (A) (A) (A) (A) (A)
                 (A) (A) (A) (A) (A) (A) (A) (A) (A) (A) (A) (A)
                 (A) (A) (A) (A) (A) (A) (A) (A) (A) (A) (A) (A)
                 (A) (A) (A) (A) (A) (A) (A) (A) (A) (A) (A) (A)
                 (A) (A) (A) (A) (A) (A) (A) (A) (A) (A) (A) (A)
                 (A) (A) (A) (A) (A) (A) (A) (A) (A) (A) (A) (A)
                 (A) (A) (A) (A) (A) (A) (A) (A) (A) (A) (A) (A)
                 (A) (A) (A) (A) (A) (A) (A) (A) (A) (A) (A) (A)
                 (A) (A) (A) (A) (A) (A) (A) (A) (A) (A) (A) (A)
                 (A) (A) (A) (A) (A) (A) (A) (A) (A) (A) (A) (A)
                 (A) (A) (A) (A) (A) (A) (A) (A) (A) (A) (A) (A)
                 (A) (A) (A) (A) (A) (A) (A) (A) (A) (A) (A) (A)
                 (A) (A) (A) (A) (A) (A) (A) (A) (A) (A) (A) (A)
                 (A) (A) (A) (A) (A) (A) (A) (A) (A) (A) (A) (A)
                 (A) (A) (A) (A) (A) (A) (A) (A) (A) (A) (A) (A)
                 (A) (A) (A) (A) (A) (A) (A) (A) (A) (A) (A) (A)
                 (A) (A) (A) (A) (A) (A) (A) (A) (A) (A) (A) (A)
                 (A) (A) (A) (A) (A) (A) (A) (A) (A) (A) (A) (A)
                 (A) (A) (A) (A) (A) (A) (A) (A) (A) (A) (A) (A)
                 (A) (A) (A) (A) (A) (A) (A) (A) (A) (A) (A) (A)
                 (A) (A) (A) (A) (A) (A) (A) (A) (A) (A) (A) (A)
                 (A) (A) (A) (A) (A) (A) (A) (A) (A) (A) (A) (A)
                 (A) (A) (A) (A) (A) (A) (A) (A) (A) (A) (A) (A)
                 (A) (A) (A) (A) (A) (A) (A) (A) (A) (A) (A) (A)
                 (A) (A) (A) (A) (A) (A) (A) (A) (A) (A) (A) (A)
                 (A) (A) (A) (A) (A) (A) (A) (A) (A) (A) (A) (A)
                 (A) (A) (A) (A) (A) (A) (A) (A) (A) (A) (A) (A)
                 (A) (A) (A) (A) (A) (A) (A) (A) (A) (A) (A) (A)
                 (A) (A) (A) (A) (A) (A) (A) (A) (A) (A) (A) (A)
                 (A) (A) (A) (A) (A) (A) (A) (A) (A) (A) (A) (A)
                 (A) (A) (A) (A) (A) (A) (A) (A) (A) (A) (A) (A)
                 (A) (A) (A) (A) (A) (A) (A) (A) (A) (A) (A) (A)
                 (A) (A) (A) (A) (A) (A) (A) (A) (A) (A) (A) (A)
                 (A) (A) (A) (A) (A) (A) (A) (A) (A) (A) (A) (A)
                 (A) (A) (A) (A) (A) (A) (A) (A) (A) (A) (A) (A)
                 (A) (A) (A) (A) (A) (A) (A) (A) (A) (A) (A) (A)
                 (A) (A) (A) (A) (A) (A) (A) (A) (A) (A) (A) (A)
                 (A) (A) (A) (A) (A) (A) (A) (A) (A) (A) (A) (A)
                 (A) (A) (A) (A) (A) (A) (A) (A) (A) (A) (A) (A)
                 (A) (A) (A) (A) (A) (A) (A) (A) (A) (A) (A) (A)
                 (A) (A) (A) (A) (A) (A) (A) (A) (A) (A) (A) (A)
                 (A) (A) (A) (A) (A) (A) (A) (A) (A) (A) (A) (A)
                 (A) (A) (A) (A) (A) (A) (A) (A) (A) (A) (A) (A)
                 (A) (A) (A) (A) (A) (A) (A) (A) (A) (A) (A) (A)
                 (A) (A) (A) (A) (A) (A) (A) (A) (A) (A) (A) (A)
                 (A) (A) (A) (A) (A) (A) (A) (A) (A) (A) (A) (A)
                 (A) (A) (A) (A) (A) (A) (A) (A) (A) (A) (A) (A)
                 (A) (A) (A) (A) (A) (A) (A) (A) (A) (A) (A) (A)
                 (A) (A) (A) (A) (A) (A) (A) (A) (A) (A) (A) (A)
                 (A) (A) (A) (A) (A) (A) (A) (A) (A) (A) (A) (A)
                 (A) (A) (A) (A) (A) (A) (A) (A) (A) (A) (A) (A)
                 (A) (A) (A) (A) (A) (A) (A) (A) (A) (A) (A) (A)
                 (A) (A) (A) (A) (A) (A) (A) (A) (A) (A) (A) (A)
                 (A) (A) (A) (A) (A) (A) (A) (A) (A) (A) (A) (A)
                 (A) (A) (A) (A) (A) (A) (A) (A) (A) (A) (A) (A)
                 (A) (A) (A) (A) (A) (A) (A) (A) (A) (A) (A) (A)
                 (A) (A) (A) (A) (A) (A) (A) (A) (A) (A) (A) (A)
                 (A) (A) (A) (A) (A) (A) (A) (A) (A) (A) (A) (A)
                 (A) (A) (A) (A) (A) (A) (A) (A) (A) (A) (A) (A)
                 (A) (A) (A) (A) (A) (A) (A) (A) (A) (A) (A) (A)
                 (A) (A) (A) (A) (A) (A) (A) (A) (A) (A) (A) (A)
                 (A) (A) (A) (A) (A) (A) (A) (A) (A) (A) (A) (A)
                 (A) (A) (A) (A) (A) (A) (A) (A) (A) (A) (A) (A)
                 (A) (A) (A) (A) (A) (A) (A) (A) (A) (A) (A) (A)
                 (A) (A) (A) (A) (A) (A) (A) (A) (A) (A)
     8 initial guesses have been made.
 Convergence on wavefunction:    0.001000000000000
 Iteration     1 Dimension     8 NMult     0 NNew      8
 CISAX will form     8 AO SS matrices at one time.
 Iteration     2 Dimension    12 NMult     8 NNew      4
 Iteration     3 Dimension    16 NMult    12 NNew      4
 Iteration     4 Dimension    20 NMult    16 NNew      4
 Iteration     5 Dimension    24 NMult    20 NNew      4
 Iteration     6 Dimension    28 NMult    24 NNew      4
 Iteration     7 Dimension    32 NMult    28 NNew      4
 ***********************************************************************
 Excited states from <AA,BB:AA,BB> singles matrix:
 ***********************************************************************
 
 Ground to excited state transition densities written to RWF  633
 Ground to excited state transition electric dipole moments (Au):
       state          X           Y           Z        Dip. S.      Osc.
         1         0.3510      1.5197      0.9398      3.3158      0.1649
 Ground to excited state transition velocity dipole moments (Au):
       state          X           Y           Z        Dip. S.      Osc.
         1        -0.0272     -0.1090     -0.0689      0.0174      0.1552
 Ground to excited state transition magnetic dipole moments (Au):
       state          X           Y           Z
         1        -1.0090     -1.0224      2.0776
 Ground to excited state transition velocity quadrupole moments (Au):
       state          XX          YY          ZZ          XY          XZ          YZ
         1         0.6093     -0.1390     -0.2403      0.9649      0.5919     -0.2543
 <0|del|b> * <b|rxdel|0> + <0|del|b> * <b|delr+rdel|0>
 Rotatory Strengths (R) in cgs (10**-40 erg-esu-cm/Gauss)
       state          XX          YY          ZZ    R(velocity)    E-M Angle
         1      -160.2092   -200.6601    319.5854    -13.7613       90.75
 1/2[<0|r|b>*<b|rxdel|0> + (<0|rxdel|b>*<b|r|0>)*]
 Rotatory Strengths (R) in cgs (10**-40 erg-esu-cm/Gauss)
       state          XX          YY          ZZ     R(length)
         1       250.4404   1098.6780  -1380.7054    -10.5290
  1/2[<0|del|b>*<b|r|0> + (<0|r|b>*<b|del|0>)*] (Au)
       state          X           Y           Z        Dip. S.   Osc.(frdel)
         1        -0.0095     -0.1656     -0.0648      0.2400      0.1600

 Excitation energies and oscillator strengths:
 
 Excited State   1:      Singlet-A      2.0305 eV  610.62 nm  f=0.1649  <S**2>=0.000
     243 -> 246        0.28233
     244 -> 245        0.62786
 This state for optimization and/or second-order correction.
 Total Energy, E(TD-HF/TD-KS) =  -3043.29763196    
 Copying the excited state density for this state as the 1-particle RhoCI density.
 SavETr:  write IOETrn=   770 NScale= 10 NData=  16 NLR=1 NState=    1 LETran=      28.

 **********************************************************************

            Population analysis using the SCF density.

 **********************************************************************

 Orbital symmetries:
       Occupied  (A) (A) (A) (A) (A) (A) (A) (A) (A) (A) (A) (A)
                 (A) (A) (A) (A) (A) (A) (A) (A) (A) (A) (A) (A)
                 (A) (A) (A) (A) (A) (A) (A) (A) (A) (A) (A) (A)
                 (A) (A) (A) (A) (A) (A) (A) (A) (A) (A) (A) (A)
                 (A) (A) (A) (A) (A) (A) (A) (A) (A) (A) (A) (A)
                 (A) (A) (A) (A) (A) (A) (A) (A) (A) (A) (A) (A)
                 (A) (A) (A) (A) (A) (A) (A) (A) (A) (A) (A) (A)
                 (A) (A) (A) (A) (A) (A) (A) (A) (A) (A) (A) (A)
                 (A) (A) (A) (A) (A) (A) (A) (A) (A) (A) (A) (A)
                 (A) (A) (A) (A) (A) (A) (A) (A) (A) (A) (A) (A)
                 (A) (A) (A) (A) (A) (A) (A) (A) (A) (A) (A) (A)
                 (A) (A) (A) (A) (A) (A) (A) (A) (A) (A) (A) (A)
                 (A) (A) (A) (A) (A) (A) (A) (A) (A) (A) (A) (A)
                 (A) (A) (A) (A) (A) (A) (A) (A) (A) (A) (A) (A)
                 (A) (A) (A) (A) (A) (A) (A) (A) (A) (A) (A) (A)
                 (A) (A) (A) (A) (A) (A) (A) (A) (A) (A) (A) (A)
                 (A) (A) (A) (A) (A) (A) (A) (A) (A) (A) (A) (A)
                 (A) (A) (A) (A) (A) (A) (A) (A) (A) (A) (A) (A)
                 (A) (A) (A) (A) (A) (A) (A) (A) (A) (A) (A) (A)
                 (A) (A) (A) (A) (A) (A) (A) (A) (A) (A) (A) (A)
                 (A) (A) (A) (A)
       Virtual   (A) (A) (A) (A) (A) (A) (A) (A) (A) (A) (A) (A)
                 (A) (A) (A) (A) (A) (A) (A) (A) (A) (A) (A) (A)
                 (A) (A) (A) (A) (A) (A) (A) (A) (A) (A) (A) (A)
                 (A) (A) (A) (A) (A) (A) (A) (A) (A) (A) (A) (A)
                 (A) (A) (A) (A) (A) (A) (A) (A) (A) (A) (A) (A)
                 (A) (A) (A) (A) (A) (A) (A) (A) (A) (A) (A) (A)
                 (A) (A) (A) (A) (A) (A) (A) (A) (A) (A) (A) (A)
                 (A) (A) (A) (A) (A) (A) (A) (A) (A) (A) (A) (A)
                 (A) (A) (A) (A) (A) (A) (A) (A) (A) (A) (A) (A)
                 (A) (A) (A) (A) (A) (A) (A) (A) (A) (A) (A) (A)
                 (A) (A) (A) (A) (A) (A) (A) (A) (A) (A) (A) (A)
                 (A) (A) (A) (A) (A) (A) (A) (A) (A) (A) (A) (A)
                 (A) (A) (A) (A) (A) (A) (A) (A) (A) (A) (A) (A)
                 (A) (A) (A) (A) (A) (A) (A) (A) (A) (A) (A) (A)
                 (A) (A) (A) (A) (A) (A) (A) (A) (A) (A) (A) (A)
                 (A) (A) (A) (A) (A) (A) (A) (A) (A) (A) (A) (A)
                 (A) (A) (A) (A) (A) (A) (A) (A) (A) (A) (A) (A)
                 (A) (A) (A) (A) (A) (A) (A) (A) (A) (A) (A) (A)
                 (A) (A) (A) (A) (A) (A) (A) (A) (A) (A) (A) (A)
                 (A) (A) (A) (A) (A) (A) (A) (A) (A) (A) (A) (A)
                 (A) (A) (A) (A) (A) (A) (A) (A) (A) (A) (A) (A)
                 (A) (A) (A) (A) (A) (A) (A) (A) (A) (A) (A) (A)
                 (A) (A) (A) (A) (A) (A) (A) (A) (A) (A) (A) (A)
                 (A) (A) (A) (A) (A) (A) (A) (A) (A) (A) (A) (A)
                 (A) (A) (A) (A) (A) (A) (A) (A) (A) (A) (A) (A)
                 (A) (A) (A) (A) (A) (A) (A) (A) (A) (A) (A) (A)
                 (A) (A) (A) (A) (A) (A) (A) (A) (A) (A) (A) (A)
                 (A) (A) (A) (A) (A) (A) (A) (A) (A) (A) (A) (A)
                 (A) (A) (A) (A) (A) (A) (A) (A) (A) (A) (A) (A)
                 (A) (A) (A) (A) (A) (A) (A) (A) (A) (A) (A) (A)
                 (A) (A) (A) (A) (A) (A) (A) (A) (A) (A) (A) (A)
                 (A) (A) (A) (A) (A) (A) (A) (A) (A) (A) (A) (A)
                 (A) (A) (A) (A) (A) (A) (A) (A) (A) (A) (A) (A)
                 (A) (A) (A) (A) (A) (A) (A) (A) (A) (A) (A) (A)
                 (A) (A) (A) (A) (A) (A) (A) (A) (A) (A) (A) (A)
                 (A) (A) (A) (A) (A) (A) (A) (A) (A) (A) (A) (A)
                 (A) (A) (A) (A) (A) (A) (A) (A) (A) (A) (A) (A)
                 (A) (A) (A) (A) (A) (A) (A) (A) (A) (A) (A) (A)
                 (A) (A) (A) (A) (A) (A) (A) (A) (A) (A) (A) (A)
                 (A) (A) (A) (A) (A) (A) (A) (A) (A) (A) (A) (A)
                 (A) (A) (A) (A) (A) (A) (A) (A) (A) (A) (A) (A)
                 (A) (A) (A) (A) (A) (A) (A) (A) (A) (A) (A) (A)
                 (A) (A) (A) (A) (A) (A) (A) (A) (A) (A) (A) (A)
                 (A) (A) (A) (A) (A) (A) (A) (A) (A) (A) (A) (A)
                 (A) (A) (A) (A) (A) (A) (A) (A) (A) (A) (A) (A)
                 (A) (A) (A) (A) (A) (A) (A) (A) (A) (A) (A) (A)
                 (A) (A) (A) (A) (A) (A) (A) (A) (A) (A) (A) (A)
                 (A) (A) (A) (A) (A) (A) (A) (A) (A) (A) (A) (A)
                 (A) (A) (A) (A) (A) (A) (A) (A) (A) (A) (A) (A)
                 (A) (A) (A) (A) (A) (A) (A) (A) (A) (A) (A) (A)
                 (A) (A) (A) (A) (A) (A) (A) (A) (A) (A) (A) (A)
                 (A) (A) (A) (A) (A) (A) (A) (A) (A) (A) (A) (A)
                 (A) (A) (A) (A) (A) (A) (A) (A) (A) (A) (A) (A)
                 (A) (A) (A) (A) (A) (A) (A) (A) (A) (A) (A) (A)
                 (A) (A) (A) (A) (A) (A) (A) (A) (A) (A) (A) (A)
                 (A) (A) (A) (A) (A) (A) (A) (A) (A) (A) (A) (A)
                 (A) (A) (A) (A) (A) (A) (A) (A) (A) (A) (A) (A)
                 (A) (A) (A) (A) (A) (A) (A) (A) (A) (A) (A) (A)
                 (A) (A) (A) (A) (A) (A) (A) (A) (A) (A) (A) (A)
                 (A) (A) (A) (A) (A) (A) (A) (A) (A) (A) (A) (A)
                 (A) (A) (A) (A) (A) (A) (A) (A) (A) (A) (A) (A)
                 (A) (A) (A) (A) (A) (A) (A) (A) (A) (A) (A) (A)
                 (A) (A) (A) (A) (A) (A) (A) (A) (A) (A) (A) (A)
                 (A) (A) (A) (A) (A) (A) (A) (A) (A) (A) (A) (A)
                 (A) (A) (A) (A) (A) (A) (A) (A) (A) (A) (A) (A)
                 (A) (A) (A) (A) (A) (A) (A) (A) (A) (A) (A) (A)
                 (A) (A) (A) (A) (A) (A) (A) (A) (A) (A) (A) (A)
                 (A) (A) (A) (A) (A) (A) (A) (A) (A) (A) (A) (A)
                 (A) (A) (A) (A) (A) (A) (A) (A) (A) (A) (A) (A)
                 (A) (A) (A) (A) (A) (A) (A) (A) (A) (A) (A) (A)
                 (A) (A) (A) (A) (A) (A) (A) (A) (A) (A) (A) (A)
                 (A) (A) (A) (A) (A) (A) (A) (A) (A) (A) (A) (A)
                 (A) (A) (A) (A) (A) (A) (A) (A) (A) (A) (A) (A)
                 (A) (A) (A) (A) (A) (A) (A) (A) (A) (A) (A) (A)
                 (A) (A) (A) (A) (A) (A) (A) (A) (A) (A) (A) (A)
                 (A) (A) (A) (A) (A) (A) (A) (A) (A) (A) (A) (A)
                 (A) (A) (A) (A) (A) (A) (A) (A) (A) (A) (A) (A)
                 (A) (A) (A) (A) (A) (A) (A) (A) (A) (A) (A) (A)
                 (A) (A) (A) (A) (A) (A) (A) (A) (A) (A) (A) (A)
                 (A) (A) (A) (A) (A) (A) (A) (A) (A) (A) (A) (A)
                 (A) (A) (A) (A) (A) (A) (A) (A) (A) (A) (A) (A)
                 (A) (A) (A) (A) (A) (A) (A) (A) (A) (A) (A) (A)
                 (A) (A) (A) (A) (A) (A) (A) (A) (A) (A) (A) (A)
                 (A) (A) (A) (A) (A) (A) (A) (A) (A) (A) (A) (A)
                 (A) (A) (A) (A) (A) (A) (A) (A) (A) (A) (A) (A)
                 (A) (A) (A) (A) (A) (A) (A) (A) (A) (A) (A) (A)
                 (A) (A) (A) (A) (A) (A) (A) (A) (A) (A) (A) (A)
                 (A) (A) (A) (A) (A) (A) (A) (A) (A) (A) (A) (A)
                 (A) (A) (A) (A) (A) (A) (A) (A) (A) (A) (A) (A)
                 (A) (A) (A) (A) (A) (A) (A) (A) (A) (A) (A) (A)
                 (A) (A) (A) (A) (A) (A) (A) (A) (A) (A)
 The electronic state is 1-A.
 Alpha  occ. eigenvalues --  -46.81639 -19.23563 -19.21848 -19.18306 -19.18114
 Alpha  occ. eigenvalues --  -19.17833 -19.17008 -19.15738 -14.39078 -14.36917
 Alpha  occ. eigenvalues --  -14.36646 -14.35797 -10.35001 -10.34512 -10.32164
 Alpha  occ. eigenvalues --  -10.31189 -10.29193 -10.27960 -10.27661 -10.27365
 Alpha  occ. eigenvalues --  -10.27002 -10.26539 -10.26270 -10.26106 -10.25621
 Alpha  occ. eigenvalues --  -10.25434 -10.25098 -10.25069 -10.24919 -10.24816
 Alpha  occ. eigenvalues --  -10.24712 -10.24615 -10.24535 -10.24477 -10.24413
 Alpha  occ. eigenvalues --  -10.24284 -10.24260 -10.24251 -10.23504 -10.23390
 Alpha  occ. eigenvalues --  -10.22917 -10.22883 -10.22882 -10.22851 -10.22560
 Alpha  occ. eigenvalues --  -10.22438 -10.22405 -10.22328 -10.21941 -10.21892
 Alpha  occ. eigenvalues --  -10.21874 -10.21773 -10.21740 -10.21530 -10.21527
 Alpha  occ. eigenvalues --  -10.21494 -10.21456 -10.21148 -10.21048 -10.20693
 Alpha  occ. eigenvalues --  -10.20243 -10.20217 -10.19376 -10.19079 -10.18486
 Alpha  occ. eigenvalues --  -10.17202  -3.10172  -1.85116  -1.84646  -1.84576
 Alpha  occ. eigenvalues --   -1.15025  -1.13170  -1.10007  -1.07048  -1.06348
 Alpha  occ. eigenvalues --   -1.05821  -1.02804  -1.01107  -1.00935  -0.99644
 Alpha  occ. eigenvalues --   -0.98462  -0.87654  -0.86268  -0.86088  -0.85984
 Alpha  occ. eigenvalues --   -0.85594  -0.84811  -0.84325  -0.84301  -0.83598
 Alpha  occ. eigenvalues --   -0.83486  -0.82370  -0.81766  -0.80650  -0.80200
 Alpha  occ. eigenvalues --   -0.79470  -0.78962  -0.78000  -0.77474  -0.76661
 Alpha  occ. eigenvalues --   -0.75779  -0.75447  -0.74095  -0.73126  -0.72955
 Alpha  occ. eigenvalues --   -0.72468  -0.71560  -0.70984  -0.70425  -0.70344
 Alpha  occ. eigenvalues --   -0.69264  -0.68730  -0.68020  -0.67526  -0.66796
 Alpha  occ. eigenvalues --   -0.66061  -0.64622  -0.64508  -0.62439  -0.62118
 Alpha  occ. eigenvalues --   -0.61305  -0.60975  -0.59912  -0.59417  -0.59369
 Alpha  occ. eigenvalues --   -0.58528  -0.58258  -0.58010  -0.57796  -0.56962
 Alpha  occ. eigenvalues --   -0.56700  -0.56090  -0.55679  -0.55402  -0.54574
 Alpha  occ. eigenvalues --   -0.54180  -0.53538  -0.53229  -0.52613  -0.52529
 Alpha  occ. eigenvalues --   -0.52028  -0.51804  -0.51328  -0.51127  -0.50890
 Alpha  occ. eigenvalues --   -0.50647  -0.50098  -0.50023  -0.49846  -0.49350
 Alpha  occ. eigenvalues --   -0.49179  -0.48949  -0.48865  -0.48554  -0.48504
 Alpha  occ. eigenvalues --   -0.47939  -0.47589  -0.47387  -0.47293  -0.47080
 Alpha  occ. eigenvalues --   -0.46933  -0.46621  -0.46537  -0.46220  -0.46137
 Alpha  occ. eigenvalues --   -0.46011  -0.45741  -0.45602  -0.45114  -0.44831
 Alpha  occ. eigenvalues --   -0.44695  -0.44557  -0.44370  -0.44166  -0.43945
 Alpha  occ. eigenvalues --   -0.43832  -0.43638  -0.43437  -0.43159  -0.42652
 Alpha  occ. eigenvalues --   -0.42542  -0.42301  -0.42133  -0.41930  -0.41776
 Alpha  occ. eigenvalues --   -0.41575  -0.41486  -0.41410  -0.41122  -0.40960
 Alpha  occ. eigenvalues --   -0.40925  -0.40678  -0.40638  -0.40554  -0.40427
 Alpha  occ. eigenvalues --   -0.40180  -0.40077  -0.39937  -0.39823  -0.39465
 Alpha  occ. eigenvalues --   -0.39265  -0.39109  -0.38935  -0.38760  -0.38625
 Alpha  occ. eigenvalues --   -0.38161  -0.37919  -0.37768  -0.37429  -0.37122
 Alpha  occ. eigenvalues --   -0.36948  -0.36327  -0.36177  -0.36115  -0.35796
 Alpha  occ. eigenvalues --   -0.35399  -0.35146  -0.35097  -0.34792  -0.34734
 Alpha  occ. eigenvalues --   -0.34174  -0.33904  -0.33775  -0.33366  -0.33049
 Alpha  occ. eigenvalues --   -0.32861  -0.32582  -0.32109  -0.32060  -0.31794
 Alpha  occ. eigenvalues --   -0.31042  -0.30780  -0.29671  -0.29607  -0.29585
 Alpha  occ. eigenvalues --   -0.28852  -0.28126  -0.27767  -0.27659  -0.27511
 Alpha  occ. eigenvalues --   -0.27121  -0.25871  -0.22866  -0.21583
 Alpha virt. eigenvalues --   -0.08551  -0.06621  -0.01801  -0.00986   0.00862
 Alpha virt. eigenvalues --    0.01474   0.02129   0.03119   0.03451   0.03871
 Alpha virt. eigenvalues --    0.05056   0.06035   0.07061   0.08381   0.09051
 Alpha virt. eigenvalues --    0.09814   0.10256   0.10399   0.10712   0.10804
 Alpha virt. eigenvalues --    0.11412   0.11510   0.11828   0.11900   0.12056
 Alpha virt. eigenvalues --    0.12490   0.12660   0.12838   0.12986   0.13159
 Alpha virt. eigenvalues --    0.13541   0.13942   0.14086   0.14220   0.14544
 Alpha virt. eigenvalues --    0.14598   0.14664   0.14976   0.15049   0.15076
 Alpha virt. eigenvalues --    0.15261   0.15642   0.15747   0.15878   0.16043
 Alpha virt. eigenvalues --    0.16206   0.16313   0.16554   0.16847   0.17094
 Alpha virt. eigenvalues --    0.17381   0.17647   0.17685   0.17865   0.18081
 Alpha virt. eigenvalues --    0.18249   0.18336   0.18838   0.18909   0.18955
 Alpha virt. eigenvalues --    0.19568   0.19697   0.19818   0.19966   0.20004
 Alpha virt. eigenvalues --    0.20174   0.20338   0.20442   0.20471   0.20913
 Alpha virt. eigenvalues --    0.21123   0.21203   0.21350   0.21669   0.21751
 Alpha virt. eigenvalues --    0.21928   0.22090   0.22253   0.22447   0.22553
 Alpha virt. eigenvalues --    0.22664   0.22849   0.23162   0.23264   0.23425
 Alpha virt. eigenvalues --    0.23650   0.23728   0.23789   0.24213   0.24475
 Alpha virt. eigenvalues --    0.24655   0.24732   0.24773   0.24930   0.25104
 Alpha virt. eigenvalues --    0.25487   0.25528   0.25616   0.26188   0.26355
 Alpha virt. eigenvalues --    0.26695   0.26825   0.27293   0.27432   0.27687
 Alpha virt. eigenvalues --    0.27818   0.27885   0.28255   0.28331   0.28388
 Alpha virt. eigenvalues --    0.28555   0.28685   0.28975   0.29192   0.29257
 Alpha virt. eigenvalues --    0.29897   0.30006   0.30221   0.30452   0.31051
 Alpha virt. eigenvalues --    0.31264   0.31560   0.31940   0.32016   0.32157
 Alpha virt. eigenvalues --    0.32504   0.32883   0.33173   0.33402   0.34086
 Alpha virt. eigenvalues --    0.34428   0.34649   0.35447   0.36147   0.36611
 Alpha virt. eigenvalues --    0.36704   0.37120   0.37507   0.38009   0.38668
 Alpha virt. eigenvalues --    0.39075   0.39775   0.40057   0.40259   0.40894
 Alpha virt. eigenvalues --    0.41777   0.41904   0.42447   0.43087   0.43957
 Alpha virt. eigenvalues --    0.44523   0.45290   0.45439   0.46021   0.46846
 Alpha virt. eigenvalues --    0.47820   0.48631   0.49120   0.49434   0.49516
 Alpha virt. eigenvalues --    0.49812   0.50600   0.50763   0.51287   0.51665
 Alpha virt. eigenvalues --    0.51785   0.52046   0.52264   0.52389   0.52893
 Alpha virt. eigenvalues --    0.53081   0.53359   0.53657   0.53865   0.54058
 Alpha virt. eigenvalues --    0.54208   0.54303   0.54722   0.55062   0.55359
 Alpha virt. eigenvalues --    0.55420   0.55668   0.55892   0.56035   0.56159
 Alpha virt. eigenvalues --    0.56424   0.56633   0.56967   0.57162   0.57273
 Alpha virt. eigenvalues --    0.57625   0.57681   0.57845   0.58121   0.58237
 Alpha virt. eigenvalues --    0.58635   0.58814   0.58934   0.59363   0.59772
 Alpha virt. eigenvalues --    0.59997   0.60330   0.60689   0.60799   0.61043
 Alpha virt. eigenvalues --    0.61333   0.61482   0.61755   0.61992   0.62260
 Alpha virt. eigenvalues --    0.62405   0.62761   0.62809   0.63145   0.63393
 Alpha virt. eigenvalues --    0.63621   0.64008   0.64164   0.64617   0.64890
 Alpha virt. eigenvalues --    0.64923   0.65151   0.65507   0.65708   0.66071
 Alpha virt. eigenvalues --    0.66448   0.66650   0.66751   0.66848   0.67380
 Alpha virt. eigenvalues --    0.67452   0.67666   0.68026   0.68490   0.68591
 Alpha virt. eigenvalues --    0.68707   0.69256   0.69431   0.69519   0.69581
 Alpha virt. eigenvalues --    0.70143   0.70455   0.70709   0.71329   0.71626
 Alpha virt. eigenvalues --    0.71742   0.72132   0.72334   0.72829   0.73059
 Alpha virt. eigenvalues --    0.73342   0.73671   0.73678   0.73870   0.74509
 Alpha virt. eigenvalues --    0.74839   0.74983   0.75204   0.75485   0.75506
 Alpha virt. eigenvalues --    0.75952   0.76139   0.76394   0.76873   0.77053
 Alpha virt. eigenvalues --    0.77156   0.77511   0.77623   0.77709   0.78002
 Alpha virt. eigenvalues --    0.78156   0.78511   0.78804   0.78997   0.79306
 Alpha virt. eigenvalues --    0.79630   0.79914   0.79944   0.80120   0.80551
 Alpha virt. eigenvalues --    0.80801   0.80952   0.81380   0.81555   0.81737
 Alpha virt. eigenvalues --    0.81915   0.82037   0.82219   0.82380   0.82611
 Alpha virt. eigenvalues --    0.82900   0.83180   0.83254   0.83524   0.83559
 Alpha virt. eigenvalues --    0.83708   0.84112   0.84545   0.84754   0.84867
 Alpha virt. eigenvalues --    0.85217   0.85334   0.85762   0.86035   0.86380
 Alpha virt. eigenvalues --    0.86536   0.86731   0.86920   0.87126   0.87224
 Alpha virt. eigenvalues --    0.87328   0.87531   0.87978   0.88329   0.88378
 Alpha virt. eigenvalues --    0.88592   0.88836   0.89084   0.89145   0.89377
 Alpha virt. eigenvalues --    0.89610   0.89907   0.90023   0.90319   0.90676
 Alpha virt. eigenvalues --    0.90968   0.91013   0.91308   0.91391   0.91674
 Alpha virt. eigenvalues --    0.91788   0.91933   0.92107   0.92459   0.92623
 Alpha virt. eigenvalues --    0.92734   0.92947   0.93131   0.93307   0.93490
 Alpha virt. eigenvalues --    0.93679   0.93955   0.94507   0.94825   0.94836
 Alpha virt. eigenvalues --    0.95139   0.95204   0.95374   0.95918   0.96141
 Alpha virt. eigenvalues --    0.96332   0.96370   0.96627   0.96776   0.96930
 Alpha virt. eigenvalues --    0.97113   0.97312   0.97568   0.97632   0.97862
 Alpha virt. eigenvalues --    0.97925   0.98257   0.98685   0.98967   0.99204
 Alpha virt. eigenvalues --    0.99383   0.99622   0.99739   0.99775   1.00273
 Alpha virt. eigenvalues --    1.00503   1.00670   1.01101   1.01302   1.01579
 Alpha virt. eigenvalues --    1.01690   1.01790   1.01997   1.02298   1.02456
 Alpha virt. eigenvalues --    1.02851   1.03162   1.03432   1.03905   1.04366
 Alpha virt. eigenvalues --    1.04566   1.04938   1.05050   1.05286   1.06101
 Alpha virt. eigenvalues --    1.06189   1.06379   1.06477   1.06985   1.07565
 Alpha virt. eigenvalues --    1.08064   1.08273   1.08709   1.09000   1.09344
 Alpha virt. eigenvalues --    1.09934   1.10607   1.10801   1.11250   1.11465
 Alpha virt. eigenvalues --    1.11705   1.12363   1.13052   1.13356   1.13948
 Alpha virt. eigenvalues --    1.14320   1.15533   1.16034   1.16755   1.17551
 Alpha virt. eigenvalues --    1.17865   1.17997   1.18037   1.18779   1.19305
 Alpha virt. eigenvalues --    1.19525   1.20071   1.20196   1.20493   1.21157
 Alpha virt. eigenvalues --    1.21245   1.21717   1.22016   1.22338   1.22760
 Alpha virt. eigenvalues --    1.23112   1.24050   1.24449   1.25128   1.26055
 Alpha virt. eigenvalues --    1.26284   1.26612   1.26996   1.27828   1.28289
 Alpha virt. eigenvalues --    1.28657   1.29053   1.29889   1.30223   1.30481
 Alpha virt. eigenvalues --    1.31221   1.31772   1.32590   1.33068   1.33659
 Alpha virt. eigenvalues --    1.33929   1.34066   1.34364   1.34490   1.35421
 Alpha virt. eigenvalues --    1.35658   1.36379   1.36647   1.37420   1.37542
 Alpha virt. eigenvalues --    1.37640   1.37936   1.38236   1.39315   1.39522
 Alpha virt. eigenvalues --    1.39961   1.40920   1.41251   1.41608   1.42686
 Alpha virt. eigenvalues --    1.43034   1.44361   1.44402   1.45205   1.45955
 Alpha virt. eigenvalues --    1.46443   1.46984   1.47394   1.47827   1.47903
 Alpha virt. eigenvalues --    1.48028   1.48919   1.49071   1.49535   1.50064
 Alpha virt. eigenvalues --    1.50437   1.50718   1.50904   1.51313   1.51703
 Alpha virt. eigenvalues --    1.52112   1.52262   1.52520   1.52669   1.52870
 Alpha virt. eigenvalues --    1.54214   1.54495   1.55151   1.55188   1.56154
 Alpha virt. eigenvalues --    1.56367   1.56762   1.56963   1.57229   1.57391
 Alpha virt. eigenvalues --    1.57589   1.58235   1.59050   1.59286   1.59852
 Alpha virt. eigenvalues --    1.59937   1.60387   1.60721   1.60857   1.61344
 Alpha virt. eigenvalues --    1.62440   1.62626   1.62742   1.63402   1.63886
 Alpha virt. eigenvalues --    1.64449   1.64908   1.65815   1.66189   1.66403
 Alpha virt. eigenvalues --    1.66831   1.67864   1.68016   1.68098   1.68646
 Alpha virt. eigenvalues --    1.68887   1.69704   1.69966   1.70593   1.70772
 Alpha virt. eigenvalues --    1.70799   1.71262   1.71852   1.72294   1.72336
 Alpha virt. eigenvalues --    1.72648   1.72846   1.72942   1.73633   1.74177
 Alpha virt. eigenvalues --    1.75156   1.75228   1.75671   1.75932   1.76008
 Alpha virt. eigenvalues --    1.76486   1.77092   1.77701   1.78193   1.78662
 Alpha virt. eigenvalues --    1.78807   1.79391   1.79455   1.79727   1.80292
 Alpha virt. eigenvalues --    1.80363   1.80630   1.81025   1.81177   1.81582
 Alpha virt. eigenvalues --    1.81767   1.82043   1.82337   1.82411   1.82884
 Alpha virt. eigenvalues --    1.83235   1.83686   1.83844   1.84504   1.84579
 Alpha virt. eigenvalues --    1.84764   1.85141   1.85245   1.85558   1.85680
 Alpha virt. eigenvalues --    1.86061   1.86320   1.86579   1.86869   1.87061
 Alpha virt. eigenvalues --    1.87364   1.87629   1.87813   1.88046   1.88416
 Alpha virt. eigenvalues --    1.88628   1.88694   1.89174   1.89844   1.90175
 Alpha virt. eigenvalues --    1.90556   1.90586   1.90802   1.91111   1.91452
 Alpha virt. eigenvalues --    1.91685   1.91911   1.92139   1.92645   1.92756
 Alpha virt. eigenvalues --    1.92840   1.93100   1.93289   1.93875   1.94126
 Alpha virt. eigenvalues --    1.94383   1.94527   1.94706   1.94896   1.95116
 Alpha virt. eigenvalues --    1.95607   1.95784   1.95982   1.96266   1.96990
 Alpha virt. eigenvalues --    1.97206   1.97783   1.98013   1.98358   1.98546
 Alpha virt. eigenvalues --    1.99105   1.99272   1.99533   1.99742   2.00443
 Alpha virt. eigenvalues --    2.00724   2.00826   2.01000   2.01432   2.01563
 Alpha virt. eigenvalues --    2.01936   2.02168   2.02340   2.02741   2.02803
 Alpha virt. eigenvalues --    2.03502   2.03732   2.04180   2.04203   2.04596
 Alpha virt. eigenvalues --    2.05095   2.05201   2.05306   2.05411   2.05592
 Alpha virt. eigenvalues --    2.06132   2.06186   2.06354   2.06575   2.06789
 Alpha virt. eigenvalues --    2.07239   2.07647   2.07852   2.08022   2.08191
 Alpha virt. eigenvalues --    2.08737   2.09367   2.09454   2.09917   2.10103
 Alpha virt. eigenvalues --    2.10350   2.10883   2.11070   2.11303   2.11587
 Alpha virt. eigenvalues --    2.12165   2.12323   2.12630   2.12751   2.13194
 Alpha virt. eigenvalues --    2.13355   2.13954   2.14105   2.14233   2.14447
 Alpha virt. eigenvalues --    2.14653   2.14949   2.15825   2.16148   2.16480
 Alpha virt. eigenvalues --    2.16806   2.16973   2.17162   2.17565   2.18661
 Alpha virt. eigenvalues --    2.19185   2.19292   2.19558   2.20052   2.20244
 Alpha virt. eigenvalues --    2.20687   2.20935   2.21475   2.22021   2.22490
 Alpha virt. eigenvalues --    2.22690   2.23200   2.23291   2.23491   2.23742
 Alpha virt. eigenvalues --    2.24040   2.24448   2.24945   2.24981   2.25351
 Alpha virt. eigenvalues --    2.25492   2.26152   2.26160   2.26435   2.26589
 Alpha virt. eigenvalues --    2.26789   2.26996   2.27753   2.27960   2.28094
 Alpha virt. eigenvalues --    2.28728   2.28898   2.29013   2.29191   2.29381
 Alpha virt. eigenvalues --    2.29980   2.30284   2.30438   2.30649   2.31245
 Alpha virt. eigenvalues --    2.31645   2.31843   2.32266   2.32527   2.32690
 Alpha virt. eigenvalues --    2.33556   2.33912   2.34225   2.34367   2.34839
 Alpha virt. eigenvalues --    2.34986   2.35344   2.35699   2.35878   2.36277
 Alpha virt. eigenvalues --    2.36300   2.36618   2.36774   2.37194   2.37211
 Alpha virt. eigenvalues --    2.37903   2.37960   2.38758   2.38862   2.39049
 Alpha virt. eigenvalues --    2.39406   2.39410   2.40092   2.40593   2.40893
 Alpha virt. eigenvalues --    2.41141   2.41718   2.42162   2.42525   2.42840
 Alpha virt. eigenvalues --    2.43294   2.43368   2.44041   2.44201   2.44310
 Alpha virt. eigenvalues --    2.44739   2.45069   2.45222   2.45616   2.45705
 Alpha virt. eigenvalues --    2.45837   2.46384   2.47040   2.47527   2.47581
 Alpha virt. eigenvalues --    2.47706   2.48068   2.48385   2.48808   2.49512
 Alpha virt. eigenvalues --    2.49619   2.49723   2.50826   2.51150   2.51558
 Alpha virt. eigenvalues --    2.51646   2.51956   2.52310   2.52805   2.53448
 Alpha virt. eigenvalues --    2.53808   2.53960   2.54148   2.54747   2.56148
 Alpha virt. eigenvalues --    2.56207   2.56411   2.56744   2.57163   2.57388
 Alpha virt. eigenvalues --    2.58188   2.58599   2.58749   2.59363   2.59672
 Alpha virt. eigenvalues --    2.60025   2.60325   2.60864   2.61066   2.61960
 Alpha virt. eigenvalues --    2.62354   2.62471   2.62768   2.63258   2.63570
 Alpha virt. eigenvalues --    2.63830   2.64031   2.64277   2.64884   2.65453
 Alpha virt. eigenvalues --    2.65613   2.65826   2.66521   2.66780   2.66883
 Alpha virt. eigenvalues --    2.67120   2.67373   2.67644   2.68306   2.69070
 Alpha virt. eigenvalues --    2.69240   2.69394   2.69892   2.70000   2.70090
 Alpha virt. eigenvalues --    2.70508   2.71012   2.71510   2.71588   2.72291
 Alpha virt. eigenvalues --    2.72699   2.73207   2.73469   2.73793   2.73872
 Alpha virt. eigenvalues --    2.74445   2.74727   2.74830   2.75192   2.75271
 Alpha virt. eigenvalues --    2.75886   2.75970   2.76424   2.76465   2.77152
 Alpha virt. eigenvalues --    2.77312   2.77381   2.77640   2.77802   2.77929
 Alpha virt. eigenvalues --    2.78252   2.78424   2.79234   2.79316   2.79781
 Alpha virt. eigenvalues --    2.79883   2.80699   2.80867   2.81076   2.81449
 Alpha virt. eigenvalues --    2.81737   2.82298   2.83040   2.83251   2.83721
 Alpha virt. eigenvalues --    2.83796   2.84952   2.85146   2.85411   2.85602
 Alpha virt. eigenvalues --    2.86131   2.86390   2.86501   2.86739   2.87502
 Alpha virt. eigenvalues --    2.87989   2.88435   2.88754   2.89226   2.89435
 Alpha virt. eigenvalues --    2.89769   2.89897   2.90289   2.90804   2.91608
 Alpha virt. eigenvalues --    2.91958   2.92098   2.92155   2.92857   2.93202
 Alpha virt. eigenvalues --    2.93557   2.93588   2.94562   2.94874   2.95351
 Alpha virt. eigenvalues --    2.96003   2.96603   2.96798   2.97213   2.97571
 Alpha virt. eigenvalues --    2.97870   2.99152   2.99354   2.99521   2.99713
 Alpha virt. eigenvalues --    3.00322   3.00530   3.00862   3.01377   3.01817
 Alpha virt. eigenvalues --    3.02079   3.03501   3.03534   3.03584   3.03989
 Alpha virt. eigenvalues --    3.04152   3.04507   3.04956   3.05811   3.05909
 Alpha virt. eigenvalues --    3.07130   3.07628   3.08098   3.08355   3.10029
 Alpha virt. eigenvalues --    3.11113   3.11310   3.12120   3.12438   3.12601
 Alpha virt. eigenvalues --    3.13277   3.14138   3.14301   3.15751   3.15929
 Alpha virt. eigenvalues --    3.17269   3.17925   3.18211   3.19138   3.20145
 Alpha virt. eigenvalues --    3.20608   3.21001   3.21309   3.21982   3.22716
 Alpha virt. eigenvalues --    3.23594   3.24225   3.24456   3.25263   3.26720
 Alpha virt. eigenvalues --    3.26804   3.27927   3.28931   3.29622   3.30084
 Alpha virt. eigenvalues --    3.31345   3.32019   3.32136   3.33301   3.34021
 Alpha virt. eigenvalues --    3.35040   3.35907   3.37302   3.37843   3.39854
 Alpha virt. eigenvalues --    3.40334   3.40659   3.41357   3.41763   3.41869
 Alpha virt. eigenvalues --    3.42446   3.43886   3.44252   3.45515   3.45783
 Alpha virt. eigenvalues --    3.46461   3.46587   3.46656   3.48098   3.48780
 Alpha virt. eigenvalues --    3.49036   3.49419   3.49967   3.50956   3.51791
 Alpha virt. eigenvalues --    3.52256   3.52270   3.52654   3.53993   3.54349
 Alpha virt. eigenvalues --    3.55223   3.56804   3.57400   3.58953   3.60696
 Alpha virt. eigenvalues --    3.61495   3.62548   3.62847   3.62974   3.64204
 Alpha virt. eigenvalues --    3.64997   3.67010   3.67693   3.67886   3.69904
 Alpha virt. eigenvalues --    3.73939   3.81577   3.82514   3.96487   4.01203
 Alpha virt. eigenvalues --    4.01626   4.01898   4.07859   4.11448   4.14644
 Alpha virt. eigenvalues --    4.14896   4.16402   4.16956   4.17430   4.19413
 Alpha virt. eigenvalues --    4.21901   4.22974   4.25469   4.26712   4.27736
 Alpha virt. eigenvalues --    4.29708   4.31322   4.31742   4.33532   4.34526
 Alpha virt. eigenvalues --    4.35177   4.35379   4.37273   4.37502   4.37756
 Alpha virt. eigenvalues --    4.39421   4.40334   4.41865   4.43057   4.43558
 Alpha virt. eigenvalues --    4.43961   4.45196   4.47597   4.48412   4.49247
 Alpha virt. eigenvalues --    4.49726   4.50654   4.51428   4.51800   4.52875
 Alpha virt. eigenvalues --    4.54423   4.54550   4.57152   4.58223   4.59102
 Alpha virt. eigenvalues --    4.59256   4.59700   4.65205   4.65851   4.66989
 Alpha virt. eigenvalues --    4.67352   4.68616   4.69356   4.70259   4.72694
 Alpha virt. eigenvalues --    4.75509   4.76683   4.78821   4.81974   4.82275
 Alpha virt. eigenvalues --    4.82986   4.83954   4.87075   4.87824   4.93528
          Condensed to atoms (all electrons):
 Mulliken charges:
               1
     1  Mg   0.822876
     2  C   -0.047733
     3  C   -0.130402
     4  C   -0.188184
     5  C   -0.166241
     6  N   -0.603680
     7  C    0.333586
     8  C   -0.171853
     9  C   -0.143929
    10  C    0.332737
    11  C   -0.270889
    12  C   -0.157387
    13  C   -0.263732
    14  C    0.603061
    15  O   -0.447160
    16  O   -0.470772
    17  N   -0.707326
    18  C    0.309824
    19  C    0.026569
    20  C   -0.047038
    21  C    0.273726
    22  C   -0.398759
    23  C    0.270209
    24  O   -0.426398
    25  N   -0.672296
    26  C    0.294967
    27  C   -0.036796
    28  C    0.052396
    29  C    0.283822
    30  C    0.261614
    31  C   -0.284544
    32  C   -0.304903
    33  N   -0.733124
    34  C    0.316705
    35  C    0.068132
    36  C    0.024326
    37  C    0.323294
    38  C   -0.370682
    39  C    0.313150
    40  O   -0.413911
    41  C   -0.320765
    42  C    0.654536
    43  O   -0.539543
    44  O   -0.414165
    45  C   -0.081433
    46  C   -0.013252
    47  C   -0.131184
    48  C    0.157523
    49  C   -0.381264
    50  C   -0.233663
    51  C   -0.196992
    52  C   -0.159645
    53  C   -0.083402
    54  C   -0.307866
    55  C   -0.175843
    56  C   -0.165746
    57  C   -0.171001
    58  C   -0.065695
    59  C   -0.312810
    60  C   -0.142628
    61  C   -0.168400
    62  C   -0.153437
    63  C   -0.074345
    64  C   -0.288338
    65  C   -0.273611
    66  H    0.078536
    67  H    0.139615
    68  H    0.065935
    69  H    0.120599
    70  H    0.104038
    71  H    0.078678
    72  H    0.073918
    73  H    0.144712
    74  H    0.114565
    75  H    0.125123
    76  H    0.151276
    77  H    0.110988
    78  H    0.131781
    79  H    0.156620
    80  H    0.129676
    81  H    0.071701
    82  H    0.111321
    83  H    0.118057
    84  H    0.120728
    85  H    0.114439
    86  H    0.111643
    87  H    0.150421
    88  H    0.136417
    89  H    0.106996
    90  H    0.161126
    91  H    0.105588
    92  H    0.106360
    93  H    0.086577
    94  H    0.150751
    95  H    0.117207
    96  H    0.113284
    97  H    0.099355
    98  H    0.100215
    99  H    0.106954
   100  H    0.077354
   101  H    0.092441
   102  H    0.101081
   103  H    0.093095
   104  H    0.112977
   105  H    0.073697
   106  H    0.099472
   107  H    0.071048
   108  H    0.092268
   109  H    0.082178
   110  H    0.085830
   111  H    0.091063
   112  H    0.092513
   113  H    0.077120
   114  H    0.079045
   115  H    0.108230
   116  H    0.104382
   117  H    0.082534
   118  H    0.080614
   119  H    0.094911
   120  H    0.083331
   121  H    0.102651
   122  H    0.039020
   123  H    0.077123
   124  H    0.096867
   125  H    0.107105
   126  H    0.084209
   127  H    0.099700
   128  H    0.096768
   129  H    0.078979
   130  H    0.125965
   131  H    0.131042
   132  H    0.125562
   133  O   -0.417023
   134  H    0.051361
 Sum of Mulliken charges =   0.00000
 Mulliken charges with hydrogens summed into heavy atoms:
               1
     1  Mg   0.822876
     2  C   -0.047733
     3  C   -0.051866
     4  C   -0.048569
     5  C   -0.100306
     6  N   -0.603680
     7  C    0.333586
     8  C   -0.051254
     9  C   -0.039891
    10  C    0.332737
    11  C    0.026419
    12  C    0.082301
    13  C   -0.001468
    14  C    0.603061
    15  O   -0.447160
    16  O   -0.470772
    17  N   -0.707326
    18  C    0.309824
    19  C    0.026569
    20  C   -0.047038
    21  C    0.273726
    22  C    0.019318
    23  C    0.341911
    24  O   -0.426398
    25  N   -0.672296
    26  C    0.294967
    27  C   -0.036796
    28  C    0.052396
    29  C    0.283822
    30  C    0.312975
    31  C   -0.055166
    32  C    0.041907
    33  N   -0.733124
    34  C    0.316705
    35  C    0.068132
    36  C    0.024326
    37  C    0.323294
    38  C    0.023152
    39  C    0.313150
    40  O   -0.413911
    41  C   -0.159639
    42  C    0.654536
    43  O   -0.539543
    44  O   -0.414165
    45  C    0.301136
    46  C    0.198696
    47  C   -0.044607
    48  C    0.157523
    49  C   -0.000023
    50  C   -0.034092
    51  C   -0.012684
    52  C    0.033876
    53  C    0.009694
    54  C   -0.021720
    55  C   -0.012527
    56  C    0.002262
    57  C    0.012575
    58  C    0.011425
    59  C   -0.021153
    60  C    0.020520
    61  C    0.009843
    62  C   -0.011767
    63  C    0.002778
    64  C   -0.000157
    65  C    0.001836
   133  O   -0.417023
 Electronic spatial extent (au):  <R**2>=         147413.1656
 Charge=              0.0000 electrons
 Dipole moment (field-independent basis, Debye):
    X=              2.1941    Y=             -4.7160    Z=             -2.5675  Tot=              5.8006
 Quadrupole moment (field-independent basis, Debye-Ang):
   XX=           -383.3116   YY=           -439.3435   ZZ=           -390.5389
   XY=             11.6615   XZ=             28.4518   YZ=            -33.5680
 Traceless Quadrupole moment (field-independent basis, Debye-Ang):
   XX=             21.0864   YY=            -34.9455   ZZ=             13.8591
   XY=             11.6615   XZ=             28.4518   YZ=            -33.5680
 Octapole moment (field-independent basis, Debye-Ang**2):
  XXX=           -329.8839  YYY=           -576.0373  ZZZ=            -39.3402  XYY=            217.6058
  XXY=            -24.2396  XXZ=           -351.1844  XZZ=            -92.0148  YZZ=            -26.9507
  YYZ=           -116.2027  XYZ=            151.4604
 Hexadecapole moment (field-independent basis, Debye-Ang**3):
 XXXX=        -161398.0145 YYYY=         -31358.6502 ZZZZ=          -9044.7625 XXXY=           -579.7400
 XXXZ=           1862.2209 YYYX=           2761.1029 YYYZ=          -1506.1120 ZZZX=            612.0940
 ZZZY=           -353.9019 XXYY=         -34036.9724 XXZZ=         -28146.5440 YYZZ=          -7032.0088
 XXYZ=          -1751.5629 YYXZ=            404.0655 ZZXY=           -221.4351
 N-N= 9.120048446821D+03 E-N=-2.532555626175D+04  KE= 3.017948354846D+03

 Test job not archived.
 1\1\GINC-PEDRO-RYZENSSD\SP\RCAM-B3LYP TD-FC\6-31G(d,p)\C54H68Mg1N4O7\P
 ADAWAN\08-Oct-2019\0\\# td=(NStates=1) iop(3/107=0140000000,3/108=0140
 000000) iop(3/107=0140000000,3/108=0140000000) CAM-B3LYP/6-31G(d,p)\\T
 D\\0,1\Mg,0,-5.5835440856,1.1834783755,0.2000626751\C,0,-4.9058207039,
 -2.0686708318,-0.4779708622\C,0,-3.2504365036,1.2086834098,2.674578896
 1\C,0,-6.2929657189,4.5298610092,0.6471970809\C,0,-7.986339552,1.10286
 89693,-2.3166257565\N,0,-4.2449015747,-0.2771436375,0.9442245895\C,0,-
 4.1790331237,-1.5253837198,0.6869724157\C,0,-3.1091923209,-2.242385437
 1,1.5035159402\C,0,-2.9351076662,-1.2338340531,2.6361203986\C,0,-3.514
 1982198,-0.0026094135,2.0828689455\C,0,-3.4621583238,-1.6595326459,3.9
 83536213\C,0,-1.9546303063,-2.7472187151,0.7000441905\C,0,-0.914079170
 8,-3.5962947174,1.5381176887\C,0,0.2543112985,-3.9731621883,0.59174733
 58\O,0,0.5070445584,-3.3633460234,-0.4153815536\O,0,1.064248107,-4.815
 7067155,1.3056765562\N,0,-4.9234108921,2.5894991866,1.4914458312\C,0,-
 3.937587846,2.422390255,2.365611787\C,0,-3.6924597832,3.6593560181,3.1
 576547099\C,0,-4.5488406398,4.6309715627,2.5426801522\C,0,-5.263335696
 ,3.9908637629,1.45758091\C,0,-2.6355721821,3.7717642601,4.2643503055\C
 ,0,-4.774080108,5.9657066049,3.063101747\O,0,-4.0725197393,6.568671697
 4,3.8524892214\N,0,-6.9040420538,2.6427622087,-0.6509177595\C,0,-7.011
 3033281,3.9406344689,-0.4021684199\C,0,-7.9522903692,4.5510661634,-1.3
 178545946\C,0,-8.3742604588,3.5648956197,-2.1776223146\C,0,-7.72794660
 62,2.3647746516,-1.685652335\C,0,-8.3910913878,5.9773091006,-1.1241435
 49\C,0,-9.3532017986,3.7800189402,-3.2377663252\C,0,-8.7751864993,4.10
 47018333,-4.6399072374\N,0,-6.4623520025,-0.1448396642,-1.0276037808\C
 ,0,-7.3753711438,-0.0927301786,-2.0695228749\C,0,-7.5698300996,-1.2986
 450172,-2.6929623208\C,0,-6.5811435981,-2.1471484881,-2.122721482\C,0,
 -5.8994578693,-1.4182858581,-1.2084287076\C,0,-8.4846038351,-1.6090206
 907,-3.7734082602\C,0,-6.1627499021,-3.5251616222,-2.0715925532\O,0,-6
 .5420074413,-4.4817431444,-2.6476050062\C,0,-5.0029105446,-3.696521418
 8,-0.8363702578\C,0,-5.4327103986,-4.6191071123,0.1187790289\O,0,-5.88
 07522578,-4.3521511485,1.302957416\O,0,-5.2631262758,-5.8367575599,-0.
 3450386753\C,0,-5.6686502142,-6.8296465558,0.5758151163\C,0,2.32368905
 05,-5.1027565359,0.6687148528\C,0,3.4473780479,-4.1855300523,1.0079920
 85\C,0,4.0927283765,-3.2583956605,0.1151438894\C,0,3.7466795653,-3.120
 0151899,-1.2753452033\C,0,5.2166858746,-2.4985341216,0.8101228632\C,0,
 6.6618117859,-2.7611910721,0.1505053764\C,0,7.734382565,-1.8854201878,
 0.6886526999\C,0,9.0810267112,-2.0109370757,-0.1745741706\C,0,9.513028
 3829,-3.4869886014,0.0433274577\C,0,10.1018856242,-0.906541275,0.39015
 69791\C,0,11.4261457719,-0.7690096961,-0.3482201326\C,0,12.2698446051,
 0.3766068512,0.1120019884\C,0,13.5541648106,0.4629459815,-0.7119609533
 \C,0,14.4233805111,-0.7868894189,-0.4681034955\C,0,14.2551354517,1.701
 9949717,-0.2106787103\C,0,15.419501231,2.2235642917,-1.0137784855\C,0,
 15.8850681265,3.5834608561,-0.5310641994\C,0,17.2113255273,3.911320047
 5,-1.2969307409\C,0,17.1427432564,4.0644420069,-2.7658389039\C,0,17.87
 51909383,5.2758857146,-0.7425252095\H,0,-2.6332188278,1.5163985035,3.4
 670143126\H,0,-6.3343143143,5.6826944716,0.6741871814\H,0,-8.754830682
 2,1.212015463,-2.9788832692\H,0,-3.6557426395,-3.2183449512,1.92621836
 39\H,0,-1.8419652825,-0.7690245107,2.782190385\H,0,-3.1307724024,-2.86
 63432152,4.113221268\H,0,-2.7876453646,-1.1732894466,5.0557317091\H,0,
 -4.4474664224,-1.7677346915,4.0447877014\H,0,-2.469504116,-3.336876732
 7,-0.0390016348\H,0,-1.4676174614,-1.8965282802,0.1398048218\H,0,-0.53
 11975099,-3.0100709794,2.340448586\H,0,-1.1912986085,-4.6905158879,2.0
 37872824\H,0,-1.4784865008,3.8475394406,4.2098733684\H,0,-2.8086385179
 ,4.7375033894,4.7789635593\H,0,-2.948424775,3.0147846726,4.945901567\H
 ,0,-5.5479386532,6.3030182843,2.4219543112\H,0,-10.0031943019,2.943471
 499,-3.427363891\H,0,-10.037001183,4.571194654,-2.9827412667\H,0,-9.44
 52502859,4.1390718072,-5.3184481554\H,0,-8.2654205081,5.0490968503,-4.
 5410837902\H,0,-8.0297432492,3.3727915931,-4.8672408388\H,0,-8.2532919
 108,-1.198563114,-4.5973097\H,0,-8.4303826662,-2.7921062709,-3.8284321
 871\H,0,-9.5723904881,-1.1930559402,-3.542628548\H,0,-4.1277745535,-3.
 9675725803,-1.4077257027\H,0,2.4479727411,-6.2232196151,0.9137397619\H
 ,0,1.8523685635,-5.0589044168,-0.3816235975\H,0,3.6747934617,-4.205700
 6924,2.0176001241\H,0,2.8000874606,-3.5201235673,-1.562178868\H,0,3.84
 22115592,-2.0621909197,-1.4958678043\H,0,4.3888713945,-3.6368255389,-2
 .053936851\H,0,5.1466985389,-1.4305485995,0.5913495261\H,0,5.268079166
 3,-2.7812124384,1.9021140977\H,0,6.6514843684,-3.8419184913,0.21269059
 08\H,0,6.5671055501,-2.6677689929,-1.0114708333\H,0,7.4829190935,-0.82
 23987942,0.4110298563\H,0,8.0044093511,-2.1473129798,1.6924167141\H,0,
 8.8060265023,-2.0407021109,-1.1706352822\H,0,8.8651386793,-4.179786838
 6,-0.3103235026\H,0,10.5983228617,-3.7468580405,-0.3392015021\H,0,9.56
 68134289,-3.5048062092,1.0850194649\H,0,9.398750936,-0.0072223118,0.24
 22634007\H,0,10.2995489135,-0.987987118,1.4684877861\H,0,11.8098029114
 ,-1.860963418,-0.0652358314\H,0,11.3139573359,-0.6936209976,-1.4705879
 025\H,0,11.6728373018,1.290892161,-0.0264298534\H,0,12.3414749062,0.32
 70539887,1.1857877539\H,0,13.2524759899,0.6887936222,-1.8060268075\H,0
 ,14.8465648837,-1.042457263,0.6383189294\H,0,13.8533757241,-1.68854203
 31,-0.6826145156\H,0,15.3176316197,-0.7611594436,-1.0639687999\H,0,13.
 4153007757,2.3080491041,-0.1601658939\H,0,14.4382814403,1.3435807726,0
 .8561044377\H,0,16.1225409812,1.3752029818,-1.0965374687\H,0,15.193784
 1739,2.6669549469,-2.0569792288\H,0,15.1461460767,4.3299061983,-0.6066
 019402\H,0,16.2684364775,3.4081567751,0.692131672\H,0,17.8279426111,2.
 9579193004,-1.1988042683\H,0,16.4755346903,4.8157588548,-3.0239766766\
 H,0,17.984920882,4.2579321864,-3.1010275364\H,0,16.5779524805,3.234528
 364,-3.2457351267\H,0,17.8948873627,5.1374744004,0.1036295287\H,0,18.8
 591435252,5.4240786344,-1.1522673678\H,0,17.2034529151,6.2045548656,-1
 .0432226744\H,0,-5.6157694615,-7.7886599654,0.2411598\H,0,-6.741724663
 8,-6.6035297344,0.5889187352\H,0,-5.1803602534,-6.7971895952,1.6042832
 967\O,0,-7.9768605814,6.8216721986,-0.3467781062\H,0,-9.1401073945,6.3
 039278085,-1.9205005176\\Version=ES64L-G09RevD.01\State=1-A\HF=-3043.3
 722505\RMSD=5.991e-09\PG=C01 [X(C54H68Mg1N4O7)]\\@


 WHEN A MATHEMATICIAN ENGAGED IN INVESTIGATING
 PHYSICAL ACTIONS AND RESULTS HAS ARRIVED AT HIS
 CONCLUSIONS, MAY THEY NOT BE EXPRESSED IN COMMON
 LANGUAGE AS FULLY, CLEARLY, AND DEFINITELY AS IN
 MATHEMATICAL FORMULAE?
           - LETTER FROM M. FARADAY TO J.C. MAXWELL, 1857.
 Job cpu time:       0 days  6 hours 20 minutes 18.7 seconds.
 File lengths (MBytes):  RWF=   2102 Int=      0 D2E=      0 Chk=    163 Scr=      1
 Normal termination of Gaussian 09 at Tue Oct  8 01:44:08 2019.
