 Entering Gaussian System, Link 0=g16
 Input=Geometria-135-.com
 Output=Geometria-135-.log
 Initial command:
 /usr/local/g09/l1.exe "/home/padawan/israel-mol/chlorophyll-b/spectra/emi/Gau-88608.inp" -scrdir="/home/padawan/israel-mol/chlorophyll-b/spectra/emi/"
 Entering Link 1 = /usr/local/g09/l1.exe PID=     88610.
  
 Copyright (c) 1988,1990,1992,1993,1995,1998,2003,2009,2013,
            Gaussian, Inc.  All Rights Reserved.
  
 This is part of the Gaussian(R) 09 program.  It is based on
 the Gaussian(R) 03 system (copyright 2003, Gaussian, Inc.),
 the Gaussian(R) 98 system (copyright 1998, Gaussian, Inc.),
 the Gaussian(R) 94 system (copyright 1995, Gaussian, Inc.),
 the Gaussian 92(TM) system (copyright 1992, Gaussian, Inc.),
 the Gaussian 90(TM) system (copyright 1990, Gaussian, Inc.),
 the Gaussian 88(TM) system (copyright 1988, Gaussian, Inc.),
 the Gaussian 86(TM) system (copyright 1986, Carnegie Mellon
 University), and the Gaussian 82(TM) system (copyright 1983,
 Carnegie Mellon University). Gaussian is a federally registered
 trademark of Gaussian, Inc.
  
 This software contains proprietary and confidential information,
 including trade secrets, belonging to Gaussian, Inc.
  
 This software is provided under written license and may be
 used, copied, transmitted, or stored only in accord with that
 written license.
  
 The following legend is applicable only to US Government
 contracts under FAR:
  
                    RESTRICTED RIGHTS LEGEND
  
 Use, reproduction and disclosure by the US Government is
 subject to restrictions as set forth in subparagraphs (a)
 and (c) of the Commercial Computer Software - Restricted
 Rights clause in FAR 52.227-19.
  
 Gaussian, Inc.
 340 Quinnipiac St., Bldg. 40, Wallingford CT 06492
  
  
 ---------------------------------------------------------------
 Warning -- This program may not be used in any manner that
 competes with the business of Gaussian, Inc. or will provide
 assistance to any competitor of Gaussian, Inc.  The licensee
 of this program is prohibited from giving any competitor of
 Gaussian, Inc. access to this program.  By using this program,
 the user acknowledges that Gaussian, Inc. is engaged in the
 business of creating and licensing software in the field of
 computational chemistry and represents and warrants to the
 licensee that it is not a competitor of Gaussian, Inc. and that
 it will not use this program in any manner prohibited above.
 ---------------------------------------------------------------
  

 Cite this work as:
 Gaussian 09, Revision D.01,
 M. J. Frisch, G. W. Trucks, H. B. Schlegel, G. E. Scuseria, 
 M. A. Robb, J. R. Cheeseman, G. Scalmani, V. Barone, B. Mennucci, 
 G. A. Petersson, H. Nakatsuji, M. Caricato, X. Li, H. P. Hratchian, 
 A. F. Izmaylov, J. Bloino, G. Zheng, J. L. Sonnenberg, M. Hada, 
 M. Ehara, K. Toyota, R. Fukuda, J. Hasegawa, M. Ishida, T. Nakajima, 
 Y. Honda, O. Kitao, H. Nakai, T. Vreven, J. A. Montgomery, Jr., 
 J. E. Peralta, F. Ogliaro, M. Bearpark, J. J. Heyd, E. Brothers, 
 K. N. Kudin, V. N. Staroverov, T. Keith, R. Kobayashi, J. Normand, 
 K. Raghavachari, A. Rendell, J. C. Burant, S. S. Iyengar, J. Tomasi, 
 M. Cossi, N. Rega, J. M. Millam, M. Klene, J. E. Knox, J. B. Cross, 
 V. Bakken, C. Adamo, J. Jaramillo, R. Gomperts, R. E. Stratmann, 
 O. Yazyev, A. J. Austin, R. Cammi, C. Pomelli, J. W. Ochterski, 
 R. L. Martin, K. Morokuma, V. G. Zakrzewski, G. A. Voth, 
 P. Salvador, J. J. Dannenberg, S. Dapprich, A. D. Daniels, 
 O. Farkas, J. B. Foresman, J. V. Ortiz, J. Cioslowski, 
 and D. J. Fox, Gaussian, Inc., Wallingford CT, 2013.
 
 ******************************************
 Gaussian 09:  ES64L-G09RevD.01 24-Apr-2013
                 4-Oct-2019 
 ******************************************
 %nproc=3
 Will use up to    3 processors via shared memory.
 %Mem=2GB
 ----------------------------------------------------------------------
 # td=(NStates=1) iop(3/107=0140000000,3/108=0140000000) iop(3/107=0140
 000000,3/108=0140000000) CAM-B3LYP/6-31G(d,p)
 ----------------------------------------------------------------------
 1/38=1/1;
 2/12=2,17=6,18=5,40=1/2;
 3/5=1,6=6,7=101,11=9,16=1,25=1,30=1,74=-40,107=140000000,108=140000000/1,2,8,3;
 4//1;
 5/5=2,38=5/2;
 8/6=1,10=2,108=1/1;
 9/41=1,42=1,70=2/14;
 6/7=2,8=2,9=2,10=2/1;
 99/5=1,9=1/99;
 --
 TD
 --
 Symbolic Z-matrix:
 Charge =  0 Multiplicity = 1
 12                   -5.59313   1.18869   0.2095 
 6                    -4.98946  -2.18379  -0.39159 
 6                    -3.35768   1.1377    2.76943 
 6                    -6.18022   4.57867   0.72029 
 6                    -7.93043   1.21435  -2.36798 
 7                    -4.3555   -0.26877   1.05407 
 6                    -4.28576  -1.61248   0.71767 
 6                    -3.1701   -2.38734   1.4842 
 6                    -3.00527  -1.31765   2.57988 
 6                    -3.63124  -0.06514   2.14144 
 6                    -3.43545  -1.89234   4.00004 
 6                    -1.94384  -2.73685   0.64068 
 6                    -0.97596  -3.53464   1.34035 
 6                     0.26297  -3.96616   0.57224 
 8                     0.45461  -3.49772  -0.52421 
 8                     0.99091  -4.79066   1.3179 
 7                    -4.85982   2.62005   1.50113 
 6                    -3.98747   2.41276   2.50695 
 6                    -3.7045    3.7053    3.2544 
 6                    -4.52924   4.62902   2.6001 
 6                    -5.24163   3.96234   1.49309 
 6                    -2.86047   3.85728   4.3735 
 6                    -4.54224   6.05162   2.82538 
 8                    -3.97611   6.61231   3.80668 
 7                    -6.87925   2.67016  -0.65419 
 6                    -6.90561   3.99605  -0.36199 
 6                    -7.93201   4.64957  -1.2023 
 6                    -8.38078   3.67395  -2.07007 
 6                    -7.76937   2.42457  -1.69989 
 6                    -8.3388    6.05782  -1.1994 
 6                    -9.32248   3.83143  -3.19249 
 6                    -8.50811   3.94973  -4.53871 
 7                    -6.33419  -0.11584  -1.04277 
 6                    -7.39781  -0.05502  -1.96763 
 6                    -7.53487  -1.28901  -2.72362 
 6                    -6.66037  -2.20807  -2.12961 
 6                    -5.95063  -1.38901  -1.06657 
 6                    -8.4101   -1.549    -3.85509 
 6                    -6.10378  -3.60179  -2.05909 
 8                    -6.51382  -4.59203  -2.70626 
 6                    -4.96223  -3.63527  -0.93789 
 6                    -5.12257  -4.6827    0.06005 
 8                    -5.43946  -4.53663   1.26383 
 8                    -4.91274  -5.903    -0.48181 
 6                    -5.1398   -6.97431   0.40768 
 6                     2.20803  -5.09786   0.67031 
 6                     3.27966  -4.06391   1.06232 
 6                     3.86423  -3.21203   0.29167 
 6                     3.63916  -3.08862  -1.16406 
 6                     5.04175  -2.36493   0.77286 
 6                     6.35631  -2.7253    0.17495 
 6                     7.46096  -1.68863   0.64375 
 6                     8.86846  -1.91889   0.01339 
 6                     9.38491  -3.25396   0.34004 
 6                     9.85052  -0.71687   0.47658 
 6                     11.18358  -0.67488  -0.40959 
 6                     12.10817   0.33068   0.04335 
 6                     13.395    0.46434  -0.69124 
 6                     14.43525  -0.67908  -0.46871 
 6                     14.00192   1.85746  -0.34735 
 6                     15.41367   2.08682  -1.11598 
 6                     16.00397   3.50471  -0.65137 
 6                     17.41541   3.84571  -1.31503 
 6                     17.24235   3.81267  -2.87723 
 6                     17.96461   5.11095  -0.80082 
 1                    -2.6142    0.90263   3.55157 
 1                    -6.54406   5.67214   0.88176 
 1                    -8.67218   1.294    -3.0697 
 1                    -3.82266  -3.43038   1.91239 
 1                    -1.70467  -0.99711   2.54179 
 1                    -2.89865  -2.80489   4.21721 
 1                    -3.21809  -1.18213   4.86855 
 1                    -4.50733  -2.10383   3.99593 
 1                    -2.2437   -3.31374  -0.21953 
 1                    -1.29655  -1.8672    0.37495 
 1                    -0.60643  -3.23636   2.39015 
 1                    -1.54342  -4.5847    1.60159 
 1                    -1.72386   3.57144   4.28399 
 1                    -3.02758   4.87455   4.70679 
 1                    -3.01625   3.21307   5.30581 
 1                    -5.06208   6.66739   2.25578 
 1                    -9.7694    2.80957  -3.28382 
 1                    -10.18309   4.64732  -3.14833 
 1                    -9.03162   4.04293  -5.41641 
 1                    -7.87355   4.87724  -4.38127 
 1                    -7.92121   2.96295  -4.56027 
 1                    -8.25864  -1.00799  -4.68867 
 1                    -8.30979  -2.67664  -4.1766 
 1                    -9.59658  -1.59211  -3.56553 
 1                    -4.18099  -3.8493   -1.64137 
 1                     2.58782  -6.12764   0.79612 
 1                     2.0894   -4.82946  -0.41591 
 1                     3.80064  -4.16295   2.01661 
 1                     2.63121  -3.11681  -1.33722 
 1                     3.98193  -1.97472  -1.33944 
 1                     4.22286  -3.77559  -1.72881 
 1                     4.91449  -1.29264   0.57239 
 1                     4.94119  -2.23371   1.96171 
 1                     6.76314  -3.6762    0.45265 
 1                     6.66592  -2.94024  -0.91061 
 1                     7.21164  -0.63814   0.39138 
 1                     7.37795  -1.75907   1.74321 
 1                     8.67317  -1.75522  -1.214 
 1                     8.52325  -3.94172   0.17286 
 1                     10.27001  -3.39982  -0.21583 
 1                     9.54462  -3.59636   1.40208 
 1                     9.54366   0.24285   0.26861 
 1                     10.0167  -0.88046   1.59756 
 1                     11.71533  -1.60049  -0.39045 
 1                     10.7066  -0.50664  -1.40858 
 1                     11.59123   1.42831  -0.06479 
 1                     12.09879   0.10639   1.26086 
 1                     13.33786   0.45635  -2.01314 
 1                     14.66519  -0.87601   0.57046 
 1                     13.95874  -1.66723  -0.73823 
 1                     15.17937  -0.46235  -1.12584 
 1                     13.22837   2.75348  -0.80167 
 1                     14.09334   1.87838   0.67128 
 1                     16.32578   1.37553  -0.8673 
 1                     15.19956   2.20124  -2.12013 
 1                     15.34277   4.11143  -0.90601 
 1                     16.13834   3.39601   0.33952 
 1                     17.92716   2.82967  -1.10511 
 1                     16.34645   4.48173  -3.12193 
 1                     18.13781   4.13057  -3.28948 
 1                     17.20991   2.80711  -3.29294 
 1                     17.81886   5.24012   0.33768 
 1                     19.20939   5.11087  -1.10937 
 1                     17.43167   5.99891  -1.11367 
 1                    -4.945    -7.82684  -0.30463 
 1                    -6.08693  -7.04916   0.84831 
 1                    -4.39354  -7.17396   1.35041 
 8                    -7.87294   6.92513  -0.47676 
 1                    -9.22557   6.15269  -1.81729 
 
 Stoichiometry    C54H68MgN4O7
 Framework group  C1[X(C54H68MgN4O7)]
 Deg. of freedom   396
 Full point group                 C1      NOp   1
 Largest Abelian subgroup         C1      NOp   1
 Largest concise Abelian subgroup C1      NOp   1
                         Standard orientation:                         
 ---------------------------------------------------------------------
 Center     Atomic      Atomic             Coordinates (Angstroms)
 Number     Number       Type             X           Y           Z
 ---------------------------------------------------------------------
      1         12           0       -5.592540    1.192016    0.200296
      2          6           0       -4.989882   -2.181515   -0.395899
      3          6           0       -3.361579    1.142592    2.764163
      4          6           0       -6.178463    4.582930    0.706195
      5          6           0       -7.925346    1.216151   -2.381279
      6          7           0       -4.357276   -0.265230    1.048673
      7          6           0       -4.287770   -1.609365    0.713929
      8          6           0       -3.173911   -2.384023    1.483291
      9          6           0       -3.010342   -1.313185    2.578035
     10          6           0       -3.634782   -0.060790    2.137078
     11          6           0       -3.443332   -1.885984    3.998093
     12          6           0       -1.946400   -2.735238    0.642300
     13          6           0       -0.980220   -3.532816    1.344563
     14          6           0        0.259779   -3.965968    0.579100
     15          8           0        0.453608   -3.498895   -0.517547
     16          8           0        0.985917   -4.790060    1.326968
     17          7           0       -4.860616    2.624409    1.491559
     18          6           0       -3.990141    2.417736    2.499130
     19          6           0       -3.707683    3.710959    3.245604
     20          6           0       -4.530719    4.634432    2.588807
     21          6           0       -5.241593    3.966919    1.481330
     22          6           0       -2.865512    3.863707    4.365993
     23          6           0       -4.543243    6.057290    2.812443
     24          8           0       -3.978483    6.618758    3.794092
     25          7           0       -6.876258    2.673285   -0.667323
     26          6           0       -6.902323    3.999519   -0.376689
     27          6           0       -7.926857    4.652697   -1.219527
     28          6           0       -8.374714    3.676359   -2.086961
     29          6           0       -7.764709    2.427036   -1.714294
     30          6           0       -8.332792    6.061197   -1.218941
     31          6           0       -9.314362    3.833135   -3.211197
     32          6           0       -8.497581    3.949395   -4.556128
     33          7           0       -6.332219   -0.113489   -1.051771
     34          6           0       -7.394196   -0.053080   -1.978556
     35          6           0       -7.530685   -1.287857   -2.733367
     36          6           0       -6.657784   -2.206769   -2.136795
     37          6           0       -5.949397   -1.386924   -1.073459
     38          6           0       -8.404104   -1.548609   -3.866062
     39          6           0       -6.102168   -3.600740   -2.063715
     40          8           0       -6.511685   -4.591474   -2.710466
     41          6           0       -4.962583   -3.633627   -0.940492
     42          6           0       -5.125299   -4.679827    0.058366
     43          8           0       -5.444192   -4.532186    1.261426
     44          8           0       -4.915272   -5.900873   -0.481740
     45          6           0       -5.144526   -6.971025    0.408576
     46          6           0        2.203971   -5.098730    0.681845
     47          6           0        3.275551   -4.064985    1.074542
     48          6           0        3.861973   -3.214344    0.303942
     49          6           0        3.639514   -3.092461   -1.152323
     50          6           0        5.039173   -2.367409    0.786211
     51          6           0        6.354554   -2.729256    0.190999
     52          6           0        7.459011   -1.692724    0.660537
     53          6           0        8.867466   -1.924556    0.032897
     54          6           0        9.382534   -3.259562    0.361961
     55          6           0        9.849455   -0.722608    0.496414
     56          6           0       11.184081   -0.682437   -0.387475
     57          6           0       12.108490    0.323081    0.065917
     58          6           0       13.396677    0.455115   -0.666579
     59          6           0       14.435845   -0.688676   -0.440939
     60          6           0       14.003848    1.848263   -0.323228
     61          6           0       15.417072    2.075888   -1.089658
     62          6           0       16.007425    3.493952   -0.625638
     63          6           0       17.420221    3.833338   -1.287236
     64          6           0       17.249865    3.798611   -2.849693
     65          6           0       17.969300    5.098827   -0.773514
     66          1           0       -2.619604    0.907966    3.547868
     67          1           0       -6.541909    5.676812    0.865777
     68          1           0       -8.665825    1.295453   -3.084381
     69          1           0       -3.827851   -3.426173    1.911528
     70          1           0       -1.709480   -0.993473    2.541834
     71          1           0       -2.907470   -2.798612    4.217242
     72          1           0       -3.227054   -1.174919    4.866174
     73          1           0       -4.515339   -2.096831    3.992364
     74          1           0       -2.245117   -3.312935   -0.217769
     75          1           0       -1.298120   -1.866283    0.376704
     76          1           0       -0.612335   -3.233567    2.394669
     77          1           0       -1.548781   -4.582230    1.606015
     78          1           0       -1.728919    3.577075    4.278787
     79          1           0       -3.032578    4.881453    4.697826
     80          1           0       -3.023302    3.220659    5.298762
     81          1           0       -5.061720    6.672733    2.241236
     82          1           0       -9.761746    2.811437   -3.302136
     83          1           0      -10.174548    4.649595   -3.169462
     84          1           0       -9.019506    4.041916   -5.434844
     85          1           0       -7.862733    4.876703   -4.398643
     86          1           0       -7.911248    2.962240   -4.575543
     87          1           0       -8.250871   -1.008643   -4.699996
     88          1           0       -8.303925   -2.676677   -4.186110
     89          1           0       -9.591118   -1.590660   -3.578522
     90          1           0       -4.180255   -3.848940   -1.642365
     91          1           0        2.582914   -6.128600    0.809494
     92          1           0        2.087399   -4.831504   -0.404877
     93          1           0        3.794805   -4.163249    2.029852
     94          1           0        2.631851   -3.120239   -1.327196
     95          1           0        3.983263   -1.978971   -1.328376
     96          1           0        4.223783   -3.780428   -1.715272
     97          1           0        4.912911   -1.295276    0.584294
     98          1           0        4.936623   -2.234767    1.974734
     99          1           0        6.760316   -3.680089    0.470499
    100          1           0        6.665915   -2.945623   -0.893773
    101          1           0        7.210777   -0.642372    0.406535
    102          1           0        7.374048   -1.761862    1.759934
    103          1           0        8.674418   -1.762175   -1.195021
    104          1           0        8.520757   -3.946998    0.194075
    105          1           0       10.268515   -3.406602   -0.192197
    106          1           0        9.540194   -3.600845    1.424672
    107          1           0        9.543536    0.237065    0.286815
    108          1           0       10.013586   -0.885012    1.617872
    109          1           0       11.715235   -1.608344   -0.366355
    110          1           0       10.708936   -0.515051   -1.387490
    111          1           0       11.592408    1.420894   -0.044374
    112          1           0       12.096858    0.100188    1.283664
    113          1           0       13.341837    0.445654   -1.988565
    114          1           0       14.663853   -0.884560    0.598859
    115          1           0       13.959198   -1.676845   -0.710157
    116          1           0       15.181235   -0.473149   -1.097022
    117          1           0       13.231636    2.744236   -0.779913
    118          1           0       14.093505    1.870295    0.695534
    119          1           0       16.328316    1.364332   -0.838585
    120          1           0       15.204783    2.189289   -2.094306
    121          1           0       15.347034    4.100783   -0.882126
    122          1           0       16.140009    3.386295    0.365601
    123          1           0       17.930993    2.817221   -1.075268
    124          1           0       16.354798    4.467933   -3.096712
    125          1           0       18.146227    4.115499   -3.260744
    126          1           0       17.217529    2.792596   -3.264311
    127          1           0       17.821648    5.229391    0.364587
    128          1           0       19.214613    5.097637   -1.079899
    129          1           0       17.437441    5.986757   -1.088303
    130          1           0       -4.949012   -7.824489   -0.302423
    131          1           0       -6.092469   -7.044800    0.847649
    132          1           0       -4.400033   -7.170047    1.352830
    133          8           0       -7.867666    6.929054   -0.496482
    134          1           0       -9.218428    6.155904   -1.838480
 ---------------------------------------------------------------------
 Rotational constants (GHZ):      0.0344946      0.0081900      0.0072300
 Standard basis: 6-31G(d,p) (6D, 7F)
 There are  1334 symmetry adapted cartesian basis functions of A   symmetry.
 There are  1334 symmetry adapted basis functions of A   symmetry.
  1334 basis functions,  2348 primitive gaussians,  1334 cartesian basis functions
   244 alpha electrons      244 beta electrons
       nuclear repulsion energy      9131.8829027585 Hartrees.
 NAtoms=  134 NActive=  134 NUniq=  134 SFac= 1.00D+00 NAtFMM=   60 NAOKFM=T Big=T
 Integral buffers will be    131072 words long.
 Raffenetti 1 integral format.
 Two-electron integral symmetry is turned on.
 One-electron integrals computed using PRISM.
 NBasis=  1334 RedAO= T EigKep=  3.95D-04  NBF=  1334
 NBsUse=  1334 1.00D-06 EigRej= -1.00D+00 NBFU=  1334
 ExpMin= 4.21D-02 ExpMax= 1.17D+04 ExpMxC= 1.76D+03 IAcc=2 IRadAn=         4 AccDes= 0.00D+00
 Harris functional with IExCor=20419 and IRadAn=       4 diagonalized for initial guess.
 HarFok:  IExCor=20419 AccDes= 0.00D+00 IRadAn=         4 IDoV= 1 UseB2=F ITyADJ=14
 ICtDFT=  3500011 ScaDFX=  1.000000  1.000000  1.000000  1.000000
 FoFCou: FMM=F IPFlag=           0 FMFlag=      100000 FMFlg1=        2001
         NFxFlg=           0 DoJE=T BraDBF=F KetDBF=T FulRan=T
         wScrn=  0.000000 ICntrl=     500 IOpCl=  0 I1Cent=   200000004 NGrid=           0
         NMat0=    1 NMatS0=      1 NMatT0=    0 NMatD0=    1 NMtDS0=    0 NMtDT0=    0
 Petite list used in FoFCou.
 Requested convergence on RMS density matrix=1.00D-08 within 128 cycles.
 Requested convergence on MAX density matrix=1.00D-06.
 Requested convergence on             energy=1.00D-06.
 No special actions if energy rises.
 SCF Done:  E(RCAM-B3LYP) =  -3043.45659445     A.U. after   16 cycles
            NFock= 16  Conv=0.54D-08     -V/T= 2.0092
 DoSCS=F DFT=T ScalE2(SS,OS)=  1.000000  1.000000
 ExpMin= 4.21D-02 ExpMax= 1.17D+04 ExpMxC= 1.76D+03 IAcc=3 IRadAn=         5 AccDes= 0.00D+00
 HarFok:  IExCor=  205 AccDes= 0.00D+00 IRadAn=         5 IDoV=-2 UseB2=F ITyADJ=14
 ICtDFT= 12500011 ScaDFX=  1.000000  1.000000  1.000000  1.000000
 Range of M.O.s used for correlation:    71  1334
 NBasis=  1334 NAE=   244 NBE=   244 NFC=    70 NFV=     0
 NROrb=   1264 NOA=   174 NOB=   174 NVA=  1090 NVB=  1090
 Would need an additional       2379600800000 words for in-memory AO integral storage.
 Orbital symmetries:
       Occupied  (A) (A) (A) (A) (A) (A) (A) (A) (A) (A) (A) (A)
                 (A) (A) (A) (A) (A) (A) (A) (A) (A) (A) (A) (A)
                 (A) (A) (A) (A) (A) (A) (A) (A) (A) (A) (A) (A)
                 (A) (A) (A) (A) (A) (A) (A) (A) (A) (A) (A) (A)
                 (A) (A) (A) (A) (A) (A) (A) (A) (A) (A) (A) (A)
                 (A) (A) (A) (A) (A) (A) (A) (A) (A) (A) (A) (A)
                 (A) (A) (A) (A) (A) (A) (A) (A) (A) (A) (A) (A)
                 (A) (A) (A) (A) (A) (A) (A) (A) (A) (A) (A) (A)
                 (A) (A) (A) (A) (A) (A) (A) (A) (A) (A) (A) (A)
                 (A) (A) (A) (A) (A) (A) (A) (A) (A) (A) (A) (A)
                 (A) (A) (A) (A) (A) (A) (A) (A) (A) (A) (A) (A)
                 (A) (A) (A) (A) (A) (A) (A) (A) (A) (A) (A) (A)
                 (A) (A) (A) (A) (A) (A) (A) (A) (A) (A) (A) (A)
                 (A) (A) (A) (A) (A) (A) (A) (A) (A) (A) (A) (A)
                 (A) (A) (A) (A) (A) (A) (A) (A) (A) (A) (A) (A)
                 (A) (A) (A) (A) (A) (A) (A) (A) (A) (A) (A) (A)
                 (A) (A) (A) (A) (A) (A) (A) (A) (A) (A) (A) (A)
                 (A) (A) (A) (A) (A) (A) (A) (A) (A) (A) (A) (A)
                 (A) (A) (A) (A) (A) (A) (A) (A) (A) (A) (A) (A)
                 (A) (A) (A) (A) (A) (A) (A) (A) (A) (A) (A) (A)
                 (A) (A) (A) (A)
       Virtual   (A) (A) (A) (A) (A) (A) (A) (A) (A) (A) (A) (A)
                 (A) (A) (A) (A) (A) (A) (A) (A) (A) (A) (A) (A)
                 (A) (A) (A) (A) (A) (A) (A) (A) (A) (A) (A) (A)
                 (A) (A) (A) (A) (A) (A) (A) (A) (A) (A) (A) (A)
                 (A) (A) (A) (A) (A) (A) (A) (A) (A) (A) (A) (A)
                 (A) (A) (A) (A) (A) (A) (A) (A) (A) (A) (A) (A)
                 (A) (A) (A) (A) (A) (A) (A) (A) (A) (A) (A) (A)
                 (A) (A) (A) (A) (A) (A) (A) (A) (A) (A) (A) (A)
                 (A) (A) (A) (A) (A) (A) (A) (A) (A) (A) (A) (A)
                 (A) (A) (A) (A) (A) (A) (A) (A) (A) (A) (A) (A)
                 (A) (A) (A) (A) (A) (A) (A) (A) (A) (A) (A) (A)
                 (A) (A) (A) (A) (A) (A) (A) (A) (A) (A) (A) (A)
                 (A) (A) (A) (A) (A) (A) (A) (A) (A) (A) (A) (A)
                 (A) (A) (A) (A) (A) (A) (A) (A) (A) (A) (A) (A)
                 (A) (A) (A) (A) (A) (A) (A) (A) (A) (A) (A) (A)
                 (A) (A) (A) (A) (A) (A) (A) (A) (A) (A) (A) (A)
                 (A) (A) (A) (A) (A) (A) (A) (A) (A) (A) (A) (A)
                 (A) (A) (A) (A) (A) (A) (A) (A) (A) (A) (A) (A)
                 (A) (A) (A) (A) (A) (A) (A) (A) (A) (A) (A) (A)
                 (A) (A) (A) (A) (A) (A) (A) (A) (A) (A) (A) (A)
                 (A) (A) (A) (A) (A) (A) (A) (A) (A) (A) (A) (A)
                 (A) (A) (A) (A) (A) (A) (A) (A) (A) (A) (A) (A)
                 (A) (A) (A) (A) (A) (A) (A) (A) (A) (A) (A) (A)
                 (A) (A) (A) (A) (A) (A) (A) (A) (A) (A) (A) (A)
                 (A) (A) (A) (A) (A) (A) (A) (A) (A) (A) (A) (A)
                 (A) (A) (A) (A) (A) (A) (A) (A) (A) (A) (A) (A)
                 (A) (A) (A) (A) (A) (A) (A) (A) (A) (A) (A) (A)
                 (A) (A) (A) (A) (A) (A) (A) (A) (A) (A) (A) (A)
                 (A) (A) (A) (A) (A) (A) (A) (A) (A) (A) (A) (A)
                 (A) (A) (A) (A) (A) (A) (A) (A) (A) (A) (A) (A)
                 (A) (A) (A) (A) (A) (A) (A) (A) (A) (A) (A) (A)
                 (A) (A) (A) (A) (A) (A) (A) (A) (A) (A) (A) (A)
                 (A) (A) (A) (A) (A) (A) (A) (A) (A) (A) (A) (A)
                 (A) (A) (A) (A) (A) (A) (A) (A) (A) (A) (A) (A)
                 (A) (A) (A) (A) (A) (A) (A) (A) (A) (A) (A) (A)
                 (A) (A) (A) (A) (A) (A) (A) (A) (A) (A) (A) (A)
                 (A) (A) (A) (A) (A) (A) (A) (A) (A) (A) (A) (A)
                 (A) (A) (A) (A) (A) (A) (A) (A) (A) (A) (A) (A)
                 (A) (A) (A) (A) (A) (A) (A) (A) (A) (A) (A) (A)
                 (A) (A) (A) (A) (A) (A) (A) (A) (A) (A) (A) (A)
                 (A) (A) (A) (A) (A) (A) (A) (A) (A) (A) (A) (A)
                 (A) (A) (A) (A) (A) (A) (A) (A) (A) (A) (A) (A)
                 (A) (A) (A) (A) (A) (A) (A) (A) (A) (A) (A) (A)
                 (A) (A) (A) (A) (A) (A) (A) (A) (A) (A) (A) (A)
                 (A) (A) (A) (A) (A) (A) (A) (A) (A) (A) (A) (A)
                 (A) (A) (A) (A) (A) (A) (A) (A) (A) (A) (A) (A)
                 (A) (A) (A) (A) (A) (A) (A) (A) (A) (A) (A) (A)
                 (A) (A) (A) (A) (A) (A) (A) (A) (A) (A) (A) (A)
                 (A) (A) (A) (A) (A) (A) (A) (A) (A) (A) (A) (A)
                 (A) (A) (A) (A) (A) (A) (A) (A) (A) (A) (A) (A)
                 (A) (A) (A) (A) (A) (A) (A) (A) (A) (A) (A) (A)
                 (A) (A) (A) (A) (A) (A) (A) (A) (A) (A) (A) (A)
                 (A) (A) (A) (A) (A) (A) (A) (A) (A) (A) (A) (A)
                 (A) (A) (A) (A) (A) (A) (A) (A) (A) (A) (A) (A)
                 (A) (A) (A) (A) (A) (A) (A) (A) (A) (A) (A) (A)
                 (A) (A) (A) (A) (A) (A) (A) (A) (A) (A) (A) (A)
                 (A) (A) (A) (A) (A) (A) (A) (A) (A) (A) (A) (A)
                 (A) (A) (A) (A) (A) (A) (A) (A) (A) (A) (A) (A)
                 (A) (A) (A) (A) (A) (A) (A) (A) (A) (A) (A) (A)
                 (A) (A) (A) (A) (A) (A) (A) (A) (A) (A) (A) (A)
                 (A) (A) (A) (A) (A) (A) (A) (A) (A) (A) (A) (A)
                 (A) (A) (A) (A) (A) (A) (A) (A) (A) (A) (A) (A)
                 (A) (A) (A) (A) (A) (A) (A) (A) (A) (A) (A) (A)
                 (A) (A) (A) (A) (A) (A) (A) (A) (A) (A) (A) (A)
                 (A) (A) (A) (A) (A) (A) (A) (A) (A) (A) (A) (A)
                 (A) (A) (A) (A) (A) (A) (A) (A) (A) (A) (A) (A)
                 (A) (A) (A) (A) (A) (A) (A) (A) (A) (A) (A) (A)
                 (A) (A) (A) (A) (A) (A) (A) (A) (A) (A) (A) (A)
                 (A) (A) (A) (A) (A) (A) (A) (A) (A) (A) (A) (A)
                 (A) (A) (A) (A) (A) (A) (A) (A) (A) (A) (A) (A)
                 (A) (A) (A) (A) (A) (A) (A) (A) (A) (A) (A) (A)
                 (A) (A) (A) (A) (A) (A) (A) (A) (A) (A) (A) (A)
                 (A) (A) (A) (A) (A) (A) (A) (A) (A) (A) (A) (A)
                 (A) (A) (A) (A) (A) (A) (A) (A) (A) (A) (A) (A)
                 (A) (A) (A) (A) (A) (A) (A) (A) (A) (A) (A) (A)
                 (A) (A) (A) (A) (A) (A) (A) (A) (A) (A) (A) (A)
                 (A) (A) (A) (A) (A) (A) (A) (A) (A) (A) (A) (A)
                 (A) (A) (A) (A) (A) (A) (A) (A) (A) (A) (A) (A)
                 (A) (A) (A) (A) (A) (A) (A) (A) (A) (A) (A) (A)
                 (A) (A) (A) (A) (A) (A) (A) (A) (A) (A) (A) (A)
                 (A) (A) (A) (A) (A) (A) (A) (A) (A) (A) (A) (A)
                 (A) (A) (A) (A) (A) (A) (A) (A) (A) (A) (A) (A)
                 (A) (A) (A) (A) (A) (A) (A) (A) (A) (A) (A) (A)
                 (A) (A) (A) (A) (A) (A) (A) (A) (A) (A) (A) (A)
                 (A) (A) (A) (A) (A) (A) (A) (A) (A) (A) (A) (A)
                 (A) (A) (A) (A) (A) (A) (A) (A) (A) (A) (A) (A)
                 (A) (A) (A) (A) (A) (A) (A) (A) (A) (A) (A) (A)
                 (A) (A) (A) (A) (A) (A) (A) (A) (A) (A) (A) (A)
                 (A) (A) (A) (A) (A) (A) (A) (A) (A) (A) (A) (A)
                 (A) (A) (A) (A) (A) (A) (A) (A) (A) (A) (A) (A)
                 (A) (A) (A) (A) (A) (A) (A) (A) (A) (A)
     8 initial guesses have been made.
 Convergence on wavefunction:    0.001000000000000
 Iteration     1 Dimension     8 NMult     0 NNew      8
 CISAX will form     8 AO SS matrices at one time.
 Iteration     2 Dimension    12 NMult     8 NNew      4
 Iteration     3 Dimension    16 NMult    12 NNew      4
 Iteration     4 Dimension    20 NMult    16 NNew      4
 Iteration     5 Dimension    24 NMult    20 NNew      4
 Iteration     6 Dimension    28 NMult    24 NNew      4
 Iteration     7 Dimension    32 NMult    28 NNew      4
 ***********************************************************************
 Excited states from <AA,BB:AA,BB> singles matrix:
 ***********************************************************************
 
 Ground to excited state transition densities written to RWF  633
 Ground to excited state transition electric dipole moments (Au):
       state          X           Y           Z        Dip. S.      Osc.
         1        -0.5774     -1.4944     -1.1217      3.8250      0.1933
 Ground to excited state transition velocity dipole moments (Au):
       state          X           Y           Z        Dip. S.      Osc.
         1         0.0431      0.1091      0.0836      0.0207      0.1824
 Ground to excited state transition magnetic dipole moments (Au):
       state          X           Y           Z
         1         1.4294      1.2759     -2.3931
 Ground to excited state transition velocity quadrupole moments (Au):
       state          XX          YY          ZZ          XY          XZ          YZ
         1        -0.8832      0.1190      0.2571     -1.0457     -0.7504      0.1657
 <0|del|b> * <b|rxdel|0> + <0|del|b> * <b|delr+rdel|0>
 Rotatory Strengths (R) in cgs (10**-40 erg-esu-cm/Gauss)
       state          XX          YY          ZZ    R(velocity)    E-M Angle
         1      -309.9810   -204.9848    521.2015      2.0786       89.91
 1/2[<0|r|b>*<b|rxdel|0> + (<0|rxdel|b>*<b|r|0>)*]
 Rotatory Strengths (R) in cgs (10**-40 erg-esu-cm/Gauss)
       state          XX          YY          ZZ     R(length)
         1       583.6415   1348.3821  -1898.3005     11.2410
  1/2[<0|del|b>*<b|r|0> + (<0|r|b>*<b|del|0>)*] (Au)
       state          X           Y           Z        Dip. S.   Osc.(frdel)
         1        -0.0249     -0.1630     -0.0938      0.2816      0.1878

 Excitation energies and oscillator strengths:
 
 Excited State   1:      Singlet-A      2.0627 eV  601.08 nm  f=0.1933  <S**2>=0.000
     243 -> 246       -0.26483
     244 -> 245        0.63757
 This state for optimization and/or second-order correction.
 Total Energy, E(TD-HF/TD-KS) =  -3043.38079250    
 Copying the excited state density for this state as the 1-particle RhoCI density.
 SavETr:  write IOETrn=   770 NScale= 10 NData=  16 NLR=1 NState=    1 LETran=      28.

 **********************************************************************

            Population analysis using the SCF density.

 **********************************************************************

 Orbital symmetries:
       Occupied  (A) (A) (A) (A) (A) (A) (A) (A) (A) (A) (A) (A)
                 (A) (A) (A) (A) (A) (A) (A) (A) (A) (A) (A) (A)
                 (A) (A) (A) (A) (A) (A) (A) (A) (A) (A) (A) (A)
                 (A) (A) (A) (A) (A) (A) (A) (A) (A) (A) (A) (A)
                 (A) (A) (A) (A) (A) (A) (A) (A) (A) (A) (A) (A)
                 (A) (A) (A) (A) (A) (A) (A) (A) (A) (A) (A) (A)
                 (A) (A) (A) (A) (A) (A) (A) (A) (A) (A) (A) (A)
                 (A) (A) (A) (A) (A) (A) (A) (A) (A) (A) (A) (A)
                 (A) (A) (A) (A) (A) (A) (A) (A) (A) (A) (A) (A)
                 (A) (A) (A) (A) (A) (A) (A) (A) (A) (A) (A) (A)
                 (A) (A) (A) (A) (A) (A) (A) (A) (A) (A) (A) (A)
                 (A) (A) (A) (A) (A) (A) (A) (A) (A) (A) (A) (A)
                 (A) (A) (A) (A) (A) (A) (A) (A) (A) (A) (A) (A)
                 (A) (A) (A) (A) (A) (A) (A) (A) (A) (A) (A) (A)
                 (A) (A) (A) (A) (A) (A) (A) (A) (A) (A) (A) (A)
                 (A) (A) (A) (A) (A) (A) (A) (A) (A) (A) (A) (A)
                 (A) (A) (A) (A) (A) (A) (A) (A) (A) (A) (A) (A)
                 (A) (A) (A) (A) (A) (A) (A) (A) (A) (A) (A) (A)
                 (A) (A) (A) (A) (A) (A) (A) (A) (A) (A) (A) (A)
                 (A) (A) (A) (A) (A) (A) (A) (A) (A) (A) (A) (A)
                 (A) (A) (A) (A)
       Virtual   (A) (A) (A) (A) (A) (A) (A) (A) (A) (A) (A) (A)
                 (A) (A) (A) (A) (A) (A) (A) (A) (A) (A) (A) (A)
                 (A) (A) (A) (A) (A) (A) (A) (A) (A) (A) (A) (A)
                 (A) (A) (A) (A) (A) (A) (A) (A) (A) (A) (A) (A)
                 (A) (A) (A) (A) (A) (A) (A) (A) (A) (A) (A) (A)
                 (A) (A) (A) (A) (A) (A) (A) (A) (A) (A) (A) (A)
                 (A) (A) (A) (A) (A) (A) (A) (A) (A) (A) (A) (A)
                 (A) (A) (A) (A) (A) (A) (A) (A) (A) (A) (A) (A)
                 (A) (A) (A) (A) (A) (A) (A) (A) (A) (A) (A) (A)
                 (A) (A) (A) (A) (A) (A) (A) (A) (A) (A) (A) (A)
                 (A) (A) (A) (A) (A) (A) (A) (A) (A) (A) (A) (A)
                 (A) (A) (A) (A) (A) (A) (A) (A) (A) (A) (A) (A)
                 (A) (A) (A) (A) (A) (A) (A) (A) (A) (A) (A) (A)
                 (A) (A) (A) (A) (A) (A) (A) (A) (A) (A) (A) (A)
                 (A) (A) (A) (A) (A) (A) (A) (A) (A) (A) (A) (A)
                 (A) (A) (A) (A) (A) (A) (A) (A) (A) (A) (A) (A)
                 (A) (A) (A) (A) (A) (A) (A) (A) (A) (A) (A) (A)
                 (A) (A) (A) (A) (A) (A) (A) (A) (A) (A) (A) (A)
                 (A) (A) (A) (A) (A) (A) (A) (A) (A) (A) (A) (A)
                 (A) (A) (A) (A) (A) (A) (A) (A) (A) (A) (A) (A)
                 (A) (A) (A) (A) (A) (A) (A) (A) (A) (A) (A) (A)
                 (A) (A) (A) (A) (A) (A) (A) (A) (A) (A) (A) (A)
                 (A) (A) (A) (A) (A) (A) (A) (A) (A) (A) (A) (A)
                 (A) (A) (A) (A) (A) (A) (A) (A) (A) (A) (A) (A)
                 (A) (A) (A) (A) (A) (A) (A) (A) (A) (A) (A) (A)
                 (A) (A) (A) (A) (A) (A) (A) (A) (A) (A) (A) (A)
                 (A) (A) (A) (A) (A) (A) (A) (A) (A) (A) (A) (A)
                 (A) (A) (A) (A) (A) (A) (A) (A) (A) (A) (A) (A)
                 (A) (A) (A) (A) (A) (A) (A) (A) (A) (A) (A) (A)
                 (A) (A) (A) (A) (A) (A) (A) (A) (A) (A) (A) (A)
                 (A) (A) (A) (A) (A) (A) (A) (A) (A) (A) (A) (A)
                 (A) (A) (A) (A) (A) (A) (A) (A) (A) (A) (A) (A)
                 (A) (A) (A) (A) (A) (A) (A) (A) (A) (A) (A) (A)
                 (A) (A) (A) (A) (A) (A) (A) (A) (A) (A) (A) (A)
                 (A) (A) (A) (A) (A) (A) (A) (A) (A) (A) (A) (A)
                 (A) (A) (A) (A) (A) (A) (A) (A) (A) (A) (A) (A)
                 (A) (A) (A) (A) (A) (A) (A) (A) (A) (A) (A) (A)
                 (A) (A) (A) (A) (A) (A) (A) (A) (A) (A) (A) (A)
                 (A) (A) (A) (A) (A) (A) (A) (A) (A) (A) (A) (A)
                 (A) (A) (A) (A) (A) (A) (A) (A) (A) (A) (A) (A)
                 (A) (A) (A) (A) (A) (A) (A) (A) (A) (A) (A) (A)
                 (A) (A) (A) (A) (A) (A) (A) (A) (A) (A) (A) (A)
                 (A) (A) (A) (A) (A) (A) (A) (A) (A) (A) (A) (A)
                 (A) (A) (A) (A) (A) (A) (A) (A) (A) (A) (A) (A)
                 (A) (A) (A) (A) (A) (A) (A) (A) (A) (A) (A) (A)
                 (A) (A) (A) (A) (A) (A) (A) (A) (A) (A) (A) (A)
                 (A) (A) (A) (A) (A) (A) (A) (A) (A) (A) (A) (A)
                 (A) (A) (A) (A) (A) (A) (A) (A) (A) (A) (A) (A)
                 (A) (A) (A) (A) (A) (A) (A) (A) (A) (A) (A) (A)
                 (A) (A) (A) (A) (A) (A) (A) (A) (A) (A) (A) (A)
                 (A) (A) (A) (A) (A) (A) (A) (A) (A) (A) (A) (A)
                 (A) (A) (A) (A) (A) (A) (A) (A) (A) (A) (A) (A)
                 (A) (A) (A) (A) (A) (A) (A) (A) (A) (A) (A) (A)
                 (A) (A) (A) (A) (A) (A) (A) (A) (A) (A) (A) (A)
                 (A) (A) (A) (A) (A) (A) (A) (A) (A) (A) (A) (A)
                 (A) (A) (A) (A) (A) (A) (A) (A) (A) (A) (A) (A)
                 (A) (A) (A) (A) (A) (A) (A) (A) (A) (A) (A) (A)
                 (A) (A) (A) (A) (A) (A) (A) (A) (A) (A) (A) (A)
                 (A) (A) (A) (A) (A) (A) (A) (A) (A) (A) (A) (A)
                 (A) (A) (A) (A) (A) (A) (A) (A) (A) (A) (A) (A)
                 (A) (A) (A) (A) (A) (A) (A) (A) (A) (A) (A) (A)
                 (A) (A) (A) (A) (A) (A) (A) (A) (A) (A) (A) (A)
                 (A) (A) (A) (A) (A) (A) (A) (A) (A) (A) (A) (A)
                 (A) (A) (A) (A) (A) (A) (A) (A) (A) (A) (A) (A)
                 (A) (A) (A) (A) (A) (A) (A) (A) (A) (A) (A) (A)
                 (A) (A) (A) (A) (A) (A) (A) (A) (A) (A) (A) (A)
                 (A) (A) (A) (A) (A) (A) (A) (A) (A) (A) (A) (A)
                 (A) (A) (A) (A) (A) (A) (A) (A) (A) (A) (A) (A)
                 (A) (A) (A) (A) (A) (A) (A) (A) (A) (A) (A) (A)
                 (A) (A) (A) (A) (A) (A) (A) (A) (A) (A) (A) (A)
                 (A) (A) (A) (A) (A) (A) (A) (A) (A) (A) (A) (A)
                 (A) (A) (A) (A) (A) (A) (A) (A) (A) (A) (A) (A)
                 (A) (A) (A) (A) (A) (A) (A) (A) (A) (A) (A) (A)
                 (A) (A) (A) (A) (A) (A) (A) (A) (A) (A) (A) (A)
                 (A) (A) (A) (A) (A) (A) (A) (A) (A) (A) (A) (A)
                 (A) (A) (A) (A) (A) (A) (A) (A) (A) (A) (A) (A)
                 (A) (A) (A) (A) (A) (A) (A) (A) (A) (A) (A) (A)
                 (A) (A) (A) (A) (A) (A) (A) (A) (A) (A) (A) (A)
                 (A) (A) (A) (A) (A) (A) (A) (A) (A) (A) (A) (A)
                 (A) (A) (A) (A) (A) (A) (A) (A) (A) (A) (A) (A)
                 (A) (A) (A) (A) (A) (A) (A) (A) (A) (A) (A) (A)
                 (A) (A) (A) (A) (A) (A) (A) (A) (A) (A) (A) (A)
                 (A) (A) (A) (A) (A) (A) (A) (A) (A) (A) (A) (A)
                 (A) (A) (A) (A) (A) (A) (A) (A) (A) (A) (A) (A)
                 (A) (A) (A) (A) (A) (A) (A) (A) (A) (A) (A) (A)
                 (A) (A) (A) (A) (A) (A) (A) (A) (A) (A) (A) (A)
                 (A) (A) (A) (A) (A) (A) (A) (A) (A) (A) (A) (A)
                 (A) (A) (A) (A) (A) (A) (A) (A) (A) (A) (A) (A)
                 (A) (A) (A) (A) (A) (A) (A) (A) (A) (A) (A) (A)
                 (A) (A) (A) (A) (A) (A) (A) (A) (A) (A) (A) (A)
                 (A) (A) (A) (A) (A) (A) (A) (A) (A) (A)
 The electronic state is 1-A.
 Alpha  occ. eigenvalues --  -46.81653 -19.24357 -19.24089 -19.18244 -19.18074
 Alpha  occ. eigenvalues --  -19.17820 -19.17382 -19.16271 -14.38997 -14.37627
 Alpha  occ. eigenvalues --  -14.37580 -14.36987 -10.36399 -10.35505 -10.33138
 Alpha  occ. eigenvalues --  -10.30218 -10.28810 -10.28317 -10.28179 -10.28085
 Alpha  occ. eigenvalues --  -10.27903 -10.27195 -10.26926 -10.26824 -10.26681
 Alpha  occ. eigenvalues --  -10.26504 -10.26437 -10.26084 -10.25766 -10.25712
 Alpha  occ. eigenvalues --  -10.25310 -10.25309 -10.24669 -10.24650 -10.24468
 Alpha  occ. eigenvalues --  -10.24301 -10.24172 -10.24124 -10.23514 -10.23477
 Alpha  occ. eigenvalues --  -10.23443 -10.23433 -10.23337 -10.23060 -10.23028
 Alpha  occ. eigenvalues --  -10.22907 -10.22787 -10.22498 -10.22480 -10.22261
 Alpha  occ. eigenvalues --  -10.22192 -10.22133 -10.21996 -10.21882 -10.21818
 Alpha  occ. eigenvalues --  -10.21721 -10.21147 -10.20968 -10.20944 -10.20299
 Alpha  occ. eigenvalues --  -10.20229 -10.20215 -10.19781 -10.19699 -10.19612
 Alpha  occ. eigenvalues --  -10.17683  -3.10289  -1.85226  -1.84741  -1.84722
 Alpha  occ. eigenvalues --   -1.15810  -1.14888  -1.07026  -1.06682  -1.05637
 Alpha  occ. eigenvalues --   -1.04632  -1.03937  -1.01336  -0.99899  -0.99539
 Alpha  occ. eigenvalues --   -0.98573  -0.88289  -0.86728  -0.86131  -0.85948
 Alpha  occ. eigenvalues --   -0.85278  -0.84547  -0.83979  -0.83871  -0.83864
 Alpha  occ. eigenvalues --   -0.83110  -0.83092  -0.81864  -0.80920  -0.79972
 Alpha  occ. eigenvalues --   -0.78967  -0.78409  -0.77898  -0.76994  -0.76487
 Alpha  occ. eigenvalues --   -0.75642  -0.75315  -0.73615  -0.73514  -0.72424
 Alpha  occ. eigenvalues --   -0.71488  -0.71079  -0.70946  -0.70359  -0.69758
 Alpha  occ. eigenvalues --   -0.69476  -0.69078  -0.67618  -0.67023  -0.66299
 Alpha  occ. eigenvalues --   -0.66106  -0.64765  -0.64706  -0.62885  -0.62420
 Alpha  occ. eigenvalues --   -0.61410  -0.60943  -0.60067  -0.59714  -0.59608
 Alpha  occ. eigenvalues --   -0.58429  -0.58047  -0.57945  -0.57493  -0.56732
 Alpha  occ. eigenvalues --   -0.56286  -0.56184  -0.55812  -0.55127  -0.54909
 Alpha  occ. eigenvalues --   -0.54622  -0.53793  -0.53330  -0.52812  -0.52440
 Alpha  occ. eigenvalues --   -0.52207  -0.51851  -0.51612  -0.51373  -0.51316
 Alpha  occ. eigenvalues --   -0.50924  -0.50180  -0.49949  -0.49510  -0.49391
 Alpha  occ. eigenvalues --   -0.48952  -0.48679  -0.48507  -0.48141  -0.47904
 Alpha  occ. eigenvalues --   -0.47729  -0.47462  -0.47233  -0.47181  -0.46953
 Alpha  occ. eigenvalues --   -0.46654  -0.46341  -0.46200  -0.46017  -0.45833
 Alpha  occ. eigenvalues --   -0.45727  -0.45587  -0.45422  -0.45355  -0.44892
 Alpha  occ. eigenvalues --   -0.44663  -0.44290  -0.44262  -0.44013  -0.43860
 Alpha  occ. eigenvalues --   -0.43824  -0.43670  -0.43395  -0.43239  -0.43023
 Alpha  occ. eigenvalues --   -0.42673  -0.42563  -0.42428  -0.42176  -0.41791
 Alpha  occ. eigenvalues --   -0.41760  -0.41516  -0.41353  -0.41189  -0.41040
 Alpha  occ. eigenvalues --   -0.40687  -0.40623  -0.40479  -0.40363  -0.40190
 Alpha  occ. eigenvalues --   -0.40145  -0.39932  -0.39654  -0.39445  -0.39089
 Alpha  occ. eigenvalues --   -0.38879  -0.38693  -0.38323  -0.38058  -0.38024
 Alpha  occ. eigenvalues --   -0.37843  -0.37744  -0.37728  -0.37378  -0.37357
 Alpha  occ. eigenvalues --   -0.36928  -0.36524  -0.35941  -0.35910  -0.35536
 Alpha  occ. eigenvalues --   -0.35477  -0.35008  -0.34922  -0.34694  -0.33969
 Alpha  occ. eigenvalues --   -0.33854  -0.33483  -0.33319  -0.33079  -0.33024
 Alpha  occ. eigenvalues --   -0.32690  -0.32115  -0.32047  -0.31925  -0.31719
 Alpha  occ. eigenvalues --   -0.31473  -0.31324  -0.31065  -0.29930  -0.29804
 Alpha  occ. eigenvalues --   -0.29068  -0.28430  -0.28162  -0.28145  -0.28078
 Alpha  occ. eigenvalues --   -0.27668  -0.27265  -0.23127  -0.21646
 Alpha virt. eigenvalues --   -0.08456  -0.06589  -0.02468  -0.01225  -0.00178
 Alpha virt. eigenvalues --    0.00791   0.02970   0.03585   0.03928   0.04255
 Alpha virt. eigenvalues --    0.05217   0.05270   0.07489   0.08175   0.08677
 Alpha virt. eigenvalues --    0.08989   0.09453   0.09782   0.10069   0.10384
 Alpha virt. eigenvalues --    0.10548   0.10877   0.11155   0.11731   0.11919
 Alpha virt. eigenvalues --    0.12269   0.12377   0.12537   0.12689   0.12921
 Alpha virt. eigenvalues --    0.12985   0.13152   0.13251   0.13459   0.13650
 Alpha virt. eigenvalues --    0.13698   0.14097   0.14301   0.14433   0.14686
 Alpha virt. eigenvalues --    0.14981   0.15179   0.15394   0.15438   0.15618
 Alpha virt. eigenvalues --    0.16134   0.16231   0.16432   0.16738   0.16826
 Alpha virt. eigenvalues --    0.17105   0.17240   0.17280   0.17395   0.17780
 Alpha virt. eigenvalues --    0.17991   0.18423   0.18438   0.18601   0.18872
 Alpha virt. eigenvalues --    0.18904   0.19089   0.19500   0.19638   0.19729
 Alpha virt. eigenvalues --    0.19925   0.20116   0.20225   0.20326   0.20376
 Alpha virt. eigenvalues --    0.20514   0.20703   0.20965   0.21054   0.21114
 Alpha virt. eigenvalues --    0.21310   0.21501   0.21590   0.21779   0.21964
 Alpha virt. eigenvalues --    0.21983   0.22045   0.22274   0.22802   0.22865
 Alpha virt. eigenvalues --    0.23061   0.23195   0.23519   0.23895   0.24011
 Alpha virt. eigenvalues --    0.24331   0.24514   0.24807   0.25110   0.25161
 Alpha virt. eigenvalues --    0.25388   0.25590   0.25711   0.25865   0.26097
 Alpha virt. eigenvalues --    0.26400   0.26461   0.26688   0.26812   0.27027
 Alpha virt. eigenvalues --    0.27377   0.27400   0.27430   0.27557   0.28012
 Alpha virt. eigenvalues --    0.28135   0.28536   0.28638   0.28941   0.29126
 Alpha virt. eigenvalues --    0.29478   0.30135   0.30389   0.30629   0.30756
 Alpha virt. eigenvalues --    0.30922   0.31106   0.31563   0.32004   0.32202
 Alpha virt. eigenvalues --    0.32324   0.32587   0.32670   0.33149   0.33424
 Alpha virt. eigenvalues --    0.34096   0.34314   0.34971   0.35570   0.35978
 Alpha virt. eigenvalues --    0.36326   0.36683   0.36993   0.38159   0.38488
 Alpha virt. eigenvalues --    0.38529   0.38918   0.39642   0.39809   0.40059
 Alpha virt. eigenvalues --    0.40629   0.41813   0.42982   0.43204   0.43679
 Alpha virt. eigenvalues --    0.44393   0.44582   0.45245   0.45487   0.45881
 Alpha virt. eigenvalues --    0.46676   0.47541   0.48002   0.48685   0.49047
 Alpha virt. eigenvalues --    0.50061   0.50453   0.50487   0.50631   0.51114
 Alpha virt. eigenvalues --    0.51580   0.52061   0.52407   0.52659   0.52818
 Alpha virt. eigenvalues --    0.53082   0.53351   0.53447   0.53975   0.54092
 Alpha virt. eigenvalues --    0.54313   0.54364   0.54710   0.54804   0.55046
 Alpha virt. eigenvalues --    0.55134   0.55665   0.55701   0.56001   0.56474
 Alpha virt. eigenvalues --    0.56539   0.56593   0.56784   0.57158   0.57193
 Alpha virt. eigenvalues --    0.57430   0.57779   0.58041   0.58332   0.58425
 Alpha virt. eigenvalues --    0.58621   0.58915   0.59178   0.59563   0.59639
 Alpha virt. eigenvalues --    0.59917   0.60319   0.60473   0.60624   0.60885
 Alpha virt. eigenvalues --    0.61219   0.61423   0.61692   0.61924   0.61994
 Alpha virt. eigenvalues --    0.62178   0.62370   0.62640   0.62983   0.63110
 Alpha virt. eigenvalues --    0.63341   0.63450   0.63528   0.63803   0.64447
 Alpha virt. eigenvalues --    0.64742   0.64805   0.65330   0.65589   0.65886
 Alpha virt. eigenvalues --    0.66109   0.66189   0.66461   0.67154   0.67364
 Alpha virt. eigenvalues --    0.67644   0.67665   0.67857   0.68063   0.68150
 Alpha virt. eigenvalues --    0.68480   0.68810   0.69146   0.69321   0.69625
 Alpha virt. eigenvalues --    0.69722   0.70061   0.70426   0.70875   0.71055
 Alpha virt. eigenvalues --    0.71383   0.71559   0.71849   0.72151   0.72302
 Alpha virt. eigenvalues --    0.72478   0.72729   0.72945   0.73286   0.73699
 Alpha virt. eigenvalues --    0.73938   0.74134   0.74305   0.74835   0.75113
 Alpha virt. eigenvalues --    0.75209   0.75429   0.75830   0.76163   0.76458
 Alpha virt. eigenvalues --    0.76901   0.76979   0.77321   0.77530   0.77736
 Alpha virt. eigenvalues --    0.78061   0.78142   0.78523   0.78694   0.78940
 Alpha virt. eigenvalues --    0.79096   0.79311   0.79554   0.79692   0.79767
 Alpha virt. eigenvalues --    0.79867   0.80050   0.80274   0.80670   0.80748
 Alpha virt. eigenvalues --    0.80989   0.81174   0.81755   0.81885   0.82168
 Alpha virt. eigenvalues --    0.82451   0.82575   0.82742   0.83036   0.83329
 Alpha virt. eigenvalues --    0.83511   0.83805   0.84119   0.84482   0.84708
 Alpha virt. eigenvalues --    0.84804   0.84905   0.85439   0.85761   0.85835
 Alpha virt. eigenvalues --    0.86052   0.86199   0.86389   0.86514   0.86546
 Alpha virt. eigenvalues --    0.87037   0.87147   0.87469   0.87523   0.87647
 Alpha virt. eigenvalues --    0.87847   0.87882   0.88036   0.88310   0.88520
 Alpha virt. eigenvalues --    0.88557   0.88933   0.89158   0.89342   0.89417
 Alpha virt. eigenvalues --    0.89614   0.89834   0.90006   0.90273   0.90432
 Alpha virt. eigenvalues --    0.90983   0.91098   0.91574   0.91624   0.91987
 Alpha virt. eigenvalues --    0.92047   0.92242   0.92451   0.92669   0.93006
 Alpha virt. eigenvalues --    0.93080   0.93452   0.93548   0.93745   0.94106
 Alpha virt. eigenvalues --    0.94278   0.94341   0.94501   0.95086   0.95205
 Alpha virt. eigenvalues --    0.95343   0.95682   0.95797   0.96205   0.96283
 Alpha virt. eigenvalues --    0.96691   0.96762   0.96883   0.97175   0.97398
 Alpha virt. eigenvalues --    0.97569   0.97867   0.98193   0.98315   0.98554
 Alpha virt. eigenvalues --    0.98841   0.98957   0.99208   0.99579   0.99725
 Alpha virt. eigenvalues --    0.99900   1.00053   1.00446   1.00506   1.00651
 Alpha virt. eigenvalues --    1.01502   1.01902   1.02284   1.02301   1.02584
 Alpha virt. eigenvalues --    1.03005   1.03397   1.03770   1.03894   1.03998
 Alpha virt. eigenvalues --    1.04099   1.04363   1.04591   1.05020   1.05582
 Alpha virt. eigenvalues --    1.05842   1.05920   1.06385   1.06620   1.07086
 Alpha virt. eigenvalues --    1.07624   1.07908   1.08360   1.08403   1.08634
 Alpha virt. eigenvalues --    1.09307   1.09550   1.10163   1.10460   1.10570
 Alpha virt. eigenvalues --    1.10983   1.11864   1.12429   1.12717   1.13165
 Alpha virt. eigenvalues --    1.13284   1.13870   1.14415   1.15440   1.16071
 Alpha virt. eigenvalues --    1.16278   1.16439   1.16996   1.17447   1.17905
 Alpha virt. eigenvalues --    1.18054   1.18693   1.19775   1.20917   1.21272
 Alpha virt. eigenvalues --    1.21332   1.22382   1.22661   1.22831   1.24478
 Alpha virt. eigenvalues --    1.25494   1.25713   1.25998   1.26385   1.26561
 Alpha virt. eigenvalues --    1.26822   1.27207   1.27766   1.28749   1.29174
 Alpha virt. eigenvalues --    1.29373   1.29681   1.30230   1.30522   1.31332
 Alpha virt. eigenvalues --    1.31686   1.31962   1.32488   1.32884   1.32985
 Alpha virt. eigenvalues --    1.33584   1.33797   1.34142   1.35038   1.35151
 Alpha virt. eigenvalues --    1.35450   1.35943   1.36476   1.36752   1.37818
 Alpha virt. eigenvalues --    1.38060   1.38629   1.38756   1.39137   1.39306
 Alpha virt. eigenvalues --    1.39916   1.40368   1.41485   1.42323   1.42380
 Alpha virt. eigenvalues --    1.42980   1.43309   1.43867   1.44247   1.44847
 Alpha virt. eigenvalues --    1.45078   1.45635   1.46494   1.46711   1.47354
 Alpha virt. eigenvalues --    1.48043   1.48364   1.48912   1.49451   1.49650
 Alpha virt. eigenvalues --    1.49861   1.50103   1.50668   1.50805   1.50913
 Alpha virt. eigenvalues --    1.51631   1.52212   1.52621   1.53548   1.53783
 Alpha virt. eigenvalues --    1.54251   1.54311   1.54742   1.55008   1.55487
 Alpha virt. eigenvalues --    1.56114   1.56679   1.56880   1.57105   1.57615
 Alpha virt. eigenvalues --    1.57844   1.57923   1.58354   1.59150   1.59663
 Alpha virt. eigenvalues --    1.60040   1.60194   1.60622   1.61012   1.61359
 Alpha virt. eigenvalues --    1.61724   1.62108   1.62901   1.63258   1.63403
 Alpha virt. eigenvalues --    1.64394   1.64432   1.65041   1.65280   1.66397
 Alpha virt. eigenvalues --    1.66888   1.67387   1.67671   1.68251   1.68420
 Alpha virt. eigenvalues --    1.69177   1.69705   1.69928   1.70137   1.70660
 Alpha virt. eigenvalues --    1.71161   1.71569   1.72234   1.72792   1.73207
 Alpha virt. eigenvalues --    1.73448   1.73869   1.74072   1.74243   1.74705
 Alpha virt. eigenvalues --    1.74791   1.75345   1.75556   1.75765   1.75834
 Alpha virt. eigenvalues --    1.76065   1.77029   1.77383   1.77614   1.78036
 Alpha virt. eigenvalues --    1.78667   1.78931   1.79242   1.79449   1.79788
 Alpha virt. eigenvalues --    1.80479   1.80693   1.81087   1.81147   1.81399
 Alpha virt. eigenvalues --    1.81494   1.81804   1.82017   1.82213   1.82598
 Alpha virt. eigenvalues --    1.82730   1.82789   1.82986   1.83166   1.83399
 Alpha virt. eigenvalues --    1.83868   1.84100   1.84214   1.84375   1.84713
 Alpha virt. eigenvalues --    1.84977   1.85229   1.85390   1.85525   1.85598
 Alpha virt. eigenvalues --    1.86109   1.86414   1.86693   1.87258   1.87439
 Alpha virt. eigenvalues --    1.87607   1.87727   1.87932   1.88257   1.88568
 Alpha virt. eigenvalues --    1.88823   1.89251   1.89764   1.89813   1.90374
 Alpha virt. eigenvalues --    1.90577   1.90935   1.91048   1.91527   1.91687
 Alpha virt. eigenvalues --    1.92113   1.92249   1.92541   1.92694   1.93056
 Alpha virt. eigenvalues --    1.93216   1.93523   1.93650   1.94223   1.94371
 Alpha virt. eigenvalues --    1.94672   1.95009   1.95200   1.95480   1.95612
 Alpha virt. eigenvalues --    1.95923   1.95991   1.96298   1.96478   1.98044
 Alpha virt. eigenvalues --    1.98332   1.98939   1.99014   1.99214   1.99518
 Alpha virt. eigenvalues --    1.99962   2.00084   2.00235   2.00694   2.01055
 Alpha virt. eigenvalues --    2.01373   2.01381   2.01772   2.01970   2.02071
 Alpha virt. eigenvalues --    2.02445   2.02529   2.02749   2.03009   2.03208
 Alpha virt. eigenvalues --    2.03497   2.04330   2.04551   2.04632   2.04964
 Alpha virt. eigenvalues --    2.05070   2.05535   2.05746   2.05916   2.05995
 Alpha virt. eigenvalues --    2.06433   2.06712   2.07042   2.07502   2.07555
 Alpha virt. eigenvalues --    2.07988   2.08192   2.08240   2.08323   2.08529
 Alpha virt. eigenvalues --    2.09126   2.09425   2.09775   2.09828   2.10065
 Alpha virt. eigenvalues --    2.10615   2.10943   2.11391   2.11438   2.11706
 Alpha virt. eigenvalues --    2.12054   2.12496   2.13356   2.13461   2.14245
 Alpha virt. eigenvalues --    2.14371   2.14632   2.15393   2.15735   2.15764
 Alpha virt. eigenvalues --    2.16128   2.16384   2.16426   2.16860   2.17474
 Alpha virt. eigenvalues --    2.17629   2.18242   2.18267   2.18610   2.18745
 Alpha virt. eigenvalues --    2.19090   2.19244   2.19697   2.19767   2.20175
 Alpha virt. eigenvalues --    2.20267   2.20538   2.20650   2.20960   2.20983
 Alpha virt. eigenvalues --    2.22246   2.22320   2.22923   2.23107   2.23397
 Alpha virt. eigenvalues --    2.23674   2.23762   2.24090   2.24750   2.25201
 Alpha virt. eigenvalues --    2.25408   2.25805   2.25921   2.26493   2.27032
 Alpha virt. eigenvalues --    2.27196   2.27718   2.28102   2.28771   2.29207
 Alpha virt. eigenvalues --    2.29579   2.29722   2.30362   2.30456   2.30903
 Alpha virt. eigenvalues --    2.31295   2.31764   2.31819   2.32025   2.32328
 Alpha virt. eigenvalues --    2.32608   2.32808   2.32865   2.33712   2.33864
 Alpha virt. eigenvalues --    2.34230   2.34567   2.35157   2.35524   2.35588
 Alpha virt. eigenvalues --    2.35611   2.35905   2.36461   2.36698   2.37300
 Alpha virt. eigenvalues --    2.37364   2.37433   2.38033   2.38301   2.38576
 Alpha virt. eigenvalues --    2.39072   2.39602   2.40260   2.40354   2.40859
 Alpha virt. eigenvalues --    2.40955   2.41566   2.41717   2.41967   2.41986
 Alpha virt. eigenvalues --    2.42649   2.42776   2.43317   2.43971   2.44278
 Alpha virt. eigenvalues --    2.44458   2.44500   2.44892   2.45057   2.45399
 Alpha virt. eigenvalues --    2.45656   2.45742   2.46397   2.46475   2.46687
 Alpha virt. eigenvalues --    2.47155   2.47470   2.47857   2.48398   2.48651
 Alpha virt. eigenvalues --    2.48879   2.49471   2.49497   2.49946   2.50218
 Alpha virt. eigenvalues --    2.50622   2.50867   2.51256   2.51898   2.52172
 Alpha virt. eigenvalues --    2.52285   2.52660   2.53236   2.53904   2.54113
 Alpha virt. eigenvalues --    2.54682   2.54926   2.55433   2.55742   2.56052
 Alpha virt. eigenvalues --    2.56856   2.56955   2.57038   2.57388   2.57997
 Alpha virt. eigenvalues --    2.58581   2.58869   2.59267   2.59449   2.59639
 Alpha virt. eigenvalues --    2.59934   2.60279   2.60552   2.60721   2.61319
 Alpha virt. eigenvalues --    2.61603   2.61947   2.62286   2.62758   2.63021
 Alpha virt. eigenvalues --    2.63767   2.64325   2.64347   2.64765   2.64925
 Alpha virt. eigenvalues --    2.65375   2.65786   2.66308   2.66542   2.66999
 Alpha virt. eigenvalues --    2.67201   2.67403   2.67631   2.67844   2.68084
 Alpha virt. eigenvalues --    2.68287   2.68461   2.68706   2.69093   2.69589
 Alpha virt. eigenvalues --    2.69669   2.70142   2.70441   2.70516   2.71207
 Alpha virt. eigenvalues --    2.71613   2.71679   2.72073   2.72479   2.72516
 Alpha virt. eigenvalues --    2.72879   2.73095   2.73226   2.73514   2.73922
 Alpha virt. eigenvalues --    2.74405   2.74900   2.75032   2.75622   2.75873
 Alpha virt. eigenvalues --    2.76191   2.76953   2.77196   2.77332   2.77561
 Alpha virt. eigenvalues --    2.77950   2.78507   2.78625   2.78948   2.79309
 Alpha virt. eigenvalues --    2.79522   2.79720   2.80354   2.81076   2.81988
 Alpha virt. eigenvalues --    2.82107   2.82426   2.82680   2.83305   2.83843
 Alpha virt. eigenvalues --    2.84039   2.84132   2.85157   2.85484   2.85682
 Alpha virt. eigenvalues --    2.85902   2.86705   2.86708   2.87284   2.87521
 Alpha virt. eigenvalues --    2.87841   2.87927   2.88443   2.88890   2.89149
 Alpha virt. eigenvalues --    2.89245   2.90115   2.90498   2.91047   2.91186
 Alpha virt. eigenvalues --    2.91506   2.91676   2.91891   2.92026   2.92927
 Alpha virt. eigenvalues --    2.93168   2.93672   2.93958   2.94337   2.95211
 Alpha virt. eigenvalues --    2.95464   2.95781   2.95907   2.95967   2.96311
 Alpha virt. eigenvalues --    2.96866   2.97333   2.98073   2.98371   2.98467
 Alpha virt. eigenvalues --    2.98939   2.99427   3.00318   3.00679   3.00922
 Alpha virt. eigenvalues --    3.01237   3.03321   3.03616   3.03699   3.03875
 Alpha virt. eigenvalues --    3.04804   3.07489   3.07524   3.07871   3.08333
 Alpha virt. eigenvalues --    3.08943   3.08990   3.10541   3.10985   3.11232
 Alpha virt. eigenvalues --    3.12016   3.12844   3.13597   3.13891   3.13959
 Alpha virt. eigenvalues --    3.14988   3.15369   3.16891   3.17037   3.17443
 Alpha virt. eigenvalues --    3.17762   3.18419   3.19169   3.20476   3.21036
 Alpha virt. eigenvalues --    3.22106   3.23004   3.23696   3.23986   3.24740
 Alpha virt. eigenvalues --    3.25370   3.25948   3.26376   3.27211   3.27769
 Alpha virt. eigenvalues --    3.28339   3.28749   3.29014   3.31038   3.31293
 Alpha virt. eigenvalues --    3.31470   3.31705   3.32911   3.33163   3.33439
 Alpha virt. eigenvalues --    3.34425   3.35327   3.37909   3.39624   3.39892
 Alpha virt. eigenvalues --    3.40358   3.40378   3.41112   3.41254   3.43277
 Alpha virt. eigenvalues --    3.43330   3.44156   3.44190   3.44434   3.44858
 Alpha virt. eigenvalues --    3.47391   3.47865   3.48447   3.48708   3.48827
 Alpha virt. eigenvalues --    3.49857   3.51906   3.51990   3.52737   3.52981
 Alpha virt. eigenvalues --    3.53514   3.54032   3.54463   3.55111   3.55150
 Alpha virt. eigenvalues --    3.56204   3.57160   3.58556   3.59819   3.60722
 Alpha virt. eigenvalues --    3.62508   3.63052   3.64672   3.65080   3.65303
 Alpha virt. eigenvalues --    3.66863   3.67456   3.72837   3.75710   3.96052
 Alpha virt. eigenvalues --    3.96234   4.01438   4.01589   4.07412   4.09489
 Alpha virt. eigenvalues --    4.14972   4.15206   4.17086   4.18941   4.19568
 Alpha virt. eigenvalues --    4.21507   4.22916   4.23627   4.24965   4.25370
 Alpha virt. eigenvalues --    4.26938   4.28512   4.31242   4.31723   4.33386
 Alpha virt. eigenvalues --    4.33922   4.34045   4.34783   4.35344   4.37624
 Alpha virt. eigenvalues --    4.38771   4.39647   4.41244   4.41817   4.42642
 Alpha virt. eigenvalues --    4.43421   4.44482   4.46732   4.47417   4.48247
 Alpha virt. eigenvalues --    4.48610   4.49156   4.51097   4.52248   4.53405
 Alpha virt. eigenvalues --    4.53794   4.56109   4.56636   4.57503   4.58135
 Alpha virt. eigenvalues --    4.59803   4.62327   4.63705   4.63780   4.65709
 Alpha virt. eigenvalues --    4.66179   4.67659   4.69097   4.69600   4.73124
 Alpha virt. eigenvalues --    4.75583   4.76442   4.79445   4.80523   4.81459
 Alpha virt. eigenvalues --    4.82980   4.83342   4.84149   4.85031   4.92746
          Condensed to atoms (all electrons):
 Mulliken charges:
               1
     1  Mg   0.833976
     2  C    0.032652
     3  C   -0.188553
     4  C   -0.179399
     5  C   -0.127818
     6  N   -0.647388
     7  C    0.275066
     8  C   -0.142925
     9  C   -0.174009
    10  C    0.418112
    11  C   -0.314480
    12  C   -0.142644
    13  C   -0.271174
    14  C    0.628547
    15  O   -0.464813
    16  O   -0.427184
    17  N   -0.701436
    18  C    0.306320
    19  C    0.109188
    20  C   -0.046923
    21  C    0.333004
    22  C   -0.433873
    23  C    0.253545
    24  O   -0.445207
    25  N   -0.682479
    26  C    0.281897
    27  C   -0.042054
    28  C    0.058583
    29  C    0.285952
    30  C    0.264267
    31  C   -0.288704
    32  C   -0.296496
    33  N   -0.719990
    34  C    0.230084
    35  C    0.034251
    36  C    0.036255
    37  C    0.317459
    38  C   -0.401120
    39  C    0.337768
    40  O   -0.460352
    41  C   -0.297888
    42  C    0.652670
    43  O   -0.498570
    44  O   -0.420491
    45  C   -0.087950
    46  C   -0.043538
    47  C   -0.126015
    48  C    0.130333
    49  C   -0.369705
    50  C   -0.239631
    51  C   -0.180202
    52  C   -0.173691
    53  C   -0.056899
    54  C   -0.299274
    55  C   -0.178178
    56  C   -0.173662
    57  C   -0.145887
    58  C   -0.035495
    59  C   -0.306489
    60  C   -0.155657
    61  C   -0.208210
    62  C   -0.165624
    63  C   -0.051078
    64  C   -0.309754
    65  C   -0.287899
    66  H    0.086083
    67  H    0.147552
    68  H    0.078702
    69  H    0.130743
    70  H    0.055645
    71  H    0.125299
    72  H    0.102284
    73  H    0.132615
    74  H    0.115897
    75  H    0.120771
    76  H    0.128904
    77  H    0.095874
    78  H    0.119250
    79  H    0.170284
    80  H    0.124783
    81  H    0.090856
    82  H    0.109379
    83  H    0.109048
    84  H    0.122194
    85  H    0.111126
    86  H    0.100619
    87  H    0.140927
    88  H    0.139366
    89  H    0.111578
    90  H    0.183854
    91  H    0.122852
    92  H    0.134137
    93  H    0.070736
    94  H    0.153277
    95  H    0.086047
    96  H    0.127327
    97  H    0.107856
    98  H    0.081278
    99  H    0.105842
   100  H    0.096053
   101  H    0.085309
   102  H    0.089339
   103  H    0.053076
   104  H    0.089503
   105  H    0.111912
   106  H    0.100173
   107  H    0.102031
   108  H    0.078065
   109  H    0.093055
   110  H    0.089673
   111  H    0.058748
   112  H    0.069398
   113  H    0.032498
   114  H    0.101142
   115  H    0.089701
   116  H    0.119972
   117  H    0.061487
   118  H    0.106384
   119  H    0.080390
   120  H    0.110000
   121  H    0.091073
   122  H    0.095243
   123  H    0.071334
   124  H    0.091056
   125  H    0.103952
   126  H    0.103905
   127  H    0.092520
   128  H    0.068380
   129  H    0.112860
   130  H    0.121841
   131  H    0.147785
   132  H    0.099187
   133  O   -0.434206
   134  H    0.065054
 Sum of Mulliken charges =   0.00000
 Mulliken charges with hydrogens summed into heavy atoms:
               1
     1  Mg   0.833976
     2  C    0.032652
     3  C   -0.102470
     4  C   -0.031846
     5  C   -0.049116
     6  N   -0.647388
     7  C    0.275066
     8  C   -0.012182
     9  C   -0.118364
    10  C    0.418112
    11  C    0.045717
    12  C    0.094024
    13  C   -0.046396
    14  C    0.628547
    15  O   -0.464813
    16  O   -0.427184
    17  N   -0.701436
    18  C    0.306320
    19  C    0.109188
    20  C   -0.046923
    21  C    0.333004
    22  C   -0.019556
    23  C    0.344402
    24  O   -0.445207
    25  N   -0.682479
    26  C    0.281897
    27  C   -0.042054
    28  C    0.058583
    29  C    0.285952
    30  C    0.329322
    31  C   -0.070278
    32  C    0.037442
    33  N   -0.719990
    34  C    0.230084
    35  C    0.034251
    36  C    0.036255
    37  C    0.317459
    38  C   -0.009250
    39  C    0.337768
    40  O   -0.460352
    41  C   -0.114034
    42  C    0.652670
    43  O   -0.498570
    44  O   -0.420491
    45  C    0.280863
    46  C    0.213451
    47  C   -0.055278
    48  C    0.130333
    49  C   -0.003053
    50  C   -0.050497
    51  C    0.021692
    52  C    0.000957
    53  C   -0.003823
    54  C    0.002315
    55  C    0.001917
    56  C    0.009066
    57  C   -0.017742
    58  C   -0.002997
    59  C    0.004326
    60  C    0.012214
    61  C   -0.017820
    62  C    0.020692
    63  C    0.020256
    64  C   -0.010840
    65  C   -0.014138
   133  O   -0.434206
 Electronic spatial extent (au):  <R**2>=         145999.2969
 Charge=              0.0000 electrons
 Dipole moment (field-independent basis, Debye):
    X=              1.8893    Y=             -5.4475    Z=             -1.0503  Tot=              5.8607
 Quadrupole moment (field-independent basis, Debye-Ang):
   XX=           -380.1208   YY=           -439.9851   ZZ=           -395.5712
   XY=              5.4149   XZ=             24.5530   YZ=            -35.0373
 Traceless Quadrupole moment (field-independent basis, Debye-Ang):
   XX=             25.1049   YY=            -34.7594   ZZ=              9.6545
   XY=              5.4149   XZ=             24.5530   YZ=            -35.0373
 Octapole moment (field-independent basis, Debye-Ang**2):
  XXX=           -295.4490  YYY=           -592.2513  ZZZ=            -27.2774  XYY=            261.2563
  XXY=            -72.7210  XXZ=           -221.7366  XZZ=            -96.2242  YZZ=            -30.7965
  YYZ=            -91.3281  XYZ=            182.7751
 Hexadecapole moment (field-independent basis, Debye-Ang**3):
 XXXX=        -161116.0430 YYYY=         -31631.4442 ZZZZ=          -9102.2211 XXXY=          -1912.9947
 XXXZ=           2170.1916 YYYX=           2253.7567 YYYZ=          -1476.0593 ZZZX=            559.5218
 ZZZY=           -396.2910 XXYY=         -33869.1493 XXZZ=         -27980.2477 YYZZ=          -7191.7986
 XXYZ=          -1273.1795 YYXZ=            436.5038 ZZXY=           -236.0725
 N-N= 9.131882902758D+03 E-N=-2.534699182632D+04  KE= 3.015604943031D+03

 Test job not archived.
 1\1\GINC-PEDRO-RYZENSSD\SP\RCAM-B3LYP TD-FC\6-31G(d,p)\C54H68Mg1N4O7\P
 ADAWAN\04-Oct-2019\0\\# td=(NStates=1) iop(3/107=0140000000,3/108=0140
 000000) iop(3/107=0140000000,3/108=0140000000) CAM-B3LYP/6-31G(d,p)\\T
 D\\0,1\Mg,0,-5.5931250437,1.1886888966,0.2095036192\C,0,-4.9894590677,
 -2.1837923439,-0.3915922243\C,0,-3.3576772276,1.1376963111,2.769428381
 \C,0,-6.1802244447,4.5786658897,0.7202943906\C,0,-7.9304339614,1.21435
 01174,-2.367980892\N,0,-4.3555026348,-0.2687728004,1.0540655736\C,0,-4
 .2857637968,-1.6124824296,0.717665485\C,0,-3.1700984115,-2.3873399326,
 1.484204009\C,0,-3.0052746829,-1.3176524349,2.5798847751\C,0,-3.631239
 924,-0.0651356662,2.1414448031\C,0,-3.4354456526,-1.8923359262,4.00003
 78632\C,0,-1.9438392272,-2.736847678,0.6406782539\C,0,-0.9759553584,-3
 .5346385518,1.3403479117\C,0,0.2629721646,-3.9661614882,0.5722353846\O
 ,0,0.4546093148,-3.4977194607,-0.5242124366\O,0,0.9909107733,-4.790664
 2112,1.3178977783\N,0,-4.8598245335,2.6200522419,1.5011267993\C,0,-3.9
 874728345,2.4127592919,2.5069459204\C,0,-3.7045009873,3.7053006126,3.2
 544043848\C,0,-4.5292386796,4.6290213676,2.6000958938\C,0,-5.241633525
 8,3.9623409106,1.4930944613\C,0,-2.8604746724,3.857282812,4.3735012206
 \C,0,-4.5422369237,6.0516151957,2.8253779746\O,0,-3.9761100983,6.61230
 60608,3.806684641\N,0,-6.8792495746,2.670164949,-0.6541880865\C,0,-6.9
 056127591,3.9960500105,-0.3619944025\C,0,-7.932008341,4.6495660134,-1.
 2023030394\C,0,-8.3807811109,3.6739465248,-2.0700715596\C,0,-7.7693707
 486,2.4245706312,-1.6998937592\C,0,-8.3387961583,6.0578171514,-1.19940
 10747\C,0,-9.3224787263,3.8314340817,-3.1924917978\C,0,-8.5081097917,3
 .9497263357,-4.5387071174\N,0,-6.3341891862,-0.1158367639,-1.042765296
 9\C,0,-7.397813388,-0.0550164072,-1.9676326859\C,0,-7.5348666033,-1.28
 90140541,-2.7236153861\C,0,-6.6603715209,-2.2080745808,-2.1296121711\C
 ,0,-5.9506329868,-1.3890129308,-1.0665745222\C,0,-8.4100963843,-1.5490
 046891,-3.855086428\C,0,-6.1037840055,-3.6017892849,-2.059091303\O,0,-
 6.5138246231,-4.5920341735,-2.7062608718\C,0,-4.9622264761,-3.63526529
 32,-0.9378904098\C,0,-5.1225693845,-4.6827034719,0.0600531563\O,0,-5.4
 394581284,-4.5366295964,1.2638335037\O,0,-4.9127412373,-5.9030041845,-
 0.4818123526\C,0,-5.1397973289,-6.9743110222,0.4076783026\C,0,2.208027
 4843,-5.0978560458,0.6703050118\C,0,3.2796612762,-4.0639078901,1.06231
 75176\C,0,3.8642255263,-3.212031024,0.2916715422\C,0,3.6391588132,-3.0
 886220506,-1.1640640752\C,0,5.0417483808,-2.3649307613,0.7728591368\C,
 0,6.3563112358,-2.7252974827,0.1749478207\C,0,7.4609552222,-1.68863050
 89,0.6437482094\C,0,8.868455454,-1.9188878708,0.0133946263\C,0,9.38490
 55707,-3.253955298,0.3400371287\C,0,9.8505204876,-0.7168723081,0.47657
 5621\C,0,11.1835815155,-0.6748802831,-0.4095862692\C,0,12.1081684374,0
 .3306822587,0.0433451227\C,0,13.394998894,0.4643361205,-0.6912388811\C
 ,0,14.4352516982,-0.6790786379,-0.4687135566\C,0,14.0019201302,1.85746
 05183,-0.3473523776\C,0,15.413670648,2.0868206174,-1.1159787056\C,0,16
 .0039700167,3.5047129813,-0.6513662296\C,0,17.4154059353,3.8457134868,
 -1.3150325511\C,0,17.2423532174,3.8126668294,-2.877230043\C,0,17.96460
 98802,5.1109492209,-0.8008210391\H,0,-2.6141969256,0.9026271263,3.5515
 727685\H,0,-6.5440552884,5.6721434165,0.8817579385\H,0,-8.6721824173,1
 .2940036619,-3.0697023511\H,0,-3.8226593311,-3.4303761543,1.9123869808
 \H,0,-1.7046715532,-0.9971073189,2.5417863446\H,0,-2.8986491901,-2.804
 8870696,4.2172116671\H,0,-3.2180884089,-1.1821303307,4.8685529912\H,0,
 -4.507332409,-2.1038283008,3.9959328159\H,0,-2.2437015358,-3.313744419
 4,-0.2195296876\H,0,-1.2965503547,-1.8671953469,0.3749483361\H,0,-0.60
 64250326,-3.2363636087,2.3901535565\H,0,-1.543423821,-4.5846953058,1.6
 015891956\H,0,-1.7238610382,3.5714418309,4.2839907802\H,0,-3.027580412
 ,4.8745470938,4.7067863415\H,0,-3.0162515577,3.2130745016,5.3058075576
 \H,0,-5.0620800673,6.667394722,2.2557776936\H,0,-9.7694009226,2.809568
 1087,-3.2838195366\H,0,-10.1830857915,4.6473222667,-3.1483278254\H,0,-
 9.0316189228,4.0429321932,-5.4164079514\H,0,-7.8735513211,4.8772396646
 ,-4.3812678086\H,0,-7.9212123961,2.962950609,-4.5602701417\H,0,-8.2586
 424458,-1.0079940571,-4.6886688359\H,0,-8.309790607,-2.6766447248,-4.1
 765970036\H,0,-9.5965829074,-1.5921058452,-3.5655308382\H,0,-4.1809898
 75,-3.8493007531,-1.641369067\H,0,2.5878167255,-6.1276400571,0.7961179
 997\H,0,2.0894022668,-4.8294614725,-0.4159070258\H,0,3.800636046,-4.16
 29464169,2.0166100251\H,0,2.631210573,-3.1168132362,-1.3372163717\H,0,
 3.9819255306,-1.9747221728,-1.3394421617\H,0,4.2228647939,-3.775589415
 2,-1.7288143387\H,0,4.9144853175,-1.2926448091,0.5723876299\H,0,4.9411
 86477,-2.233707688,1.9617100573\H,0,6.7631355336,-3.6762019197,0.45265
 45872\H,0,6.665915431,-2.9402362396,-0.9106107473\H,0,7.2116419658,-0.
 6381403683,0.3913778911\H,0,7.3779467049,-1.7590741559,1.7432117936\H,
 0,8.6731732169,-1.7552235631,-1.2139996187\H,0,8.5232544908,-3.9417230
 322,0.1728648163\H,0,10.2700100304,-3.399823337,-0.2158291648\H,0,9.54
 46212097,-3.5963553641,1.4020811711\H,0,9.5436554264,0.2428526957,0.26
 8606035\H,0,10.0167006287,-0.8804563649,1.5975606934\H,0,11.7153334644
 ,-1.6004873704,-0.3904483526\H,0,10.7065965999,-0.5066422997,-1.408581
 7019\H,0,11.591229141,1.4283059024,-0.0647936898\H,0,12.0987906378,0.1
 063919225,1.2608552606\H,0,13.3378645288,0.4563503778,-2.0131375186\H,
 0,14.6651867459,-0.8760106184,0.5704621437\H,0,13.9587362601,-1.667229
 9019,-0.7382300771\H,0,15.1793677933,-0.4623495627,-1.1258449875\H,0,1
 3.2283720828,2.7534836476,-0.8016700443\H,0,14.0933369459,1.8783842529
 ,0.6712759549\H,0,16.3257813052,1.3755330148,-0.8673045455\H,0,15.1995
 64752,2.2012383752,-2.1201255435\H,0,15.3427657387,4.1114343511,-0.906
 0118812\H,0,16.1383434682,3.39600556,0.3395164104\H,0,17.9271625331,2.
 8296664751,-1.1051148994\H,0,16.346451782,4.4817254514,-3.1219264715\H
 ,0,18.1378061705,4.1305694501,-3.2894763812\H,0,17.2099056759,2.807105
 6218,-3.2929398472\H,0,17.81885976,5.2401246655,0.337682934\H,0,19.209
 3885497,5.1108673132,-1.1093730784\H,0,17.4316657364,5.9989143015,-1.1
 136697191\H,0,-4.9450023848,-7.8268437838,-0.3046347795\H,0,-6.0869291
 842,-7.0491642978,0.8483146748\H,0,-4.3935415716,-7.1739572719,1.35040
 79092\O,0,-7.8729401893,6.9251325447,-0.4767611045\H,0,-9.2255659404,6
 .152692685,-1.8172901965\\Version=ES64L-G09RevD.01\State=1-A\HF=-3043.
 4565944\RMSD=5.414e-09\PG=C01 [X(C54H68Mg1N4O7)]\\@


 IF YOU GET CONFUSED, LOGIC OUT YOUR DILEMMA

           --  PICKER X-RAY CORP.    DIGITAL PRINTER MANUAL CA. 1964
 Job cpu time:       0 days  6 hours  7 minutes 59.0 seconds.
 File lengths (MBytes):  RWF=   2102 Int=      0 D2E=      0 Chk=    163 Scr=      1
 Normal termination of Gaussian 09 at Fri Oct  4 15:10:19 2019.
