 Entering Gaussian System, Link 0=/usr/local/g09/g09
 Input=gaussian.com
 Output=gaussian.log
 Initial command:
 /usr/local/g09/l1.exe "/home/padawan/Born/SpectrumNX/NXModule/NX/AlQ3Abs/IC/TEMP/Gau-18075.inp" -scrdir="/home/padawan/Born/SpectrumNX/NXModule/NX/AlQ3Abs/IC/TEMP/"
 Entering Link 1 = /usr/local/g09/l1.exe PID=     18077.
  
 Copyright (c) 1988,1990,1992,1993,1995,1998,2003,2009,2013,
            Gaussian, Inc.  All Rights Reserved.
  
 This is part of the Gaussian(R) 09 program.  It is based on
 the Gaussian(R) 03 system (copyright 2003, Gaussian, Inc.),
 the Gaussian(R) 98 system (copyright 1998, Gaussian, Inc.),
 the Gaussian(R) 94 system (copyright 1995, Gaussian, Inc.),
 the Gaussian 92(TM) system (copyright 1992, Gaussian, Inc.),
 the Gaussian 90(TM) system (copyright 1990, Gaussian, Inc.),
 the Gaussian 88(TM) system (copyright 1988, Gaussian, Inc.),
 the Gaussian 86(TM) system (copyright 1986, Carnegie Mellon
 University), and the Gaussian 82(TM) system (copyright 1983,
 Carnegie Mellon University). Gaussian is a federally registered
 trademark of Gaussian, Inc.
  
 This software contains proprietary and confidential information,
 including trade secrets, belonging to Gaussian, Inc.
  
 This software is provided under written license and may be
 used, copied, transmitted, or stored only in accord with that
 written license.
  
 The following legend is applicable only to US Government
 contracts under FAR:
  
                    RESTRICTED RIGHTS LEGEND
  
 Use, reproduction and disclosure by the US Government is
 subject to restrictions as set forth in subparagraphs (a)
 and (c) of the Commercial Computer Software - Restricted
 Rights clause in FAR 52.227-19.
  
 Gaussian, Inc.
 340 Quinnipiac St., Bldg. 40, Wallingford CT 06492
  
  
 ---------------------------------------------------------------
 Warning -- This program may not be used in any manner that
 competes with the business of Gaussian, Inc. or will provide
 assistance to any competitor of Gaussian, Inc.  The licensee
 of this program is prohibited from giving any competitor of
 Gaussian, Inc. access to this program.  By using this program,
 the user acknowledges that Gaussian, Inc. is engaged in the
 business of creating and licensing software in the field of
 computational chemistry and represents and warrants to the
 licensee that it is not a competitor of Gaussian, Inc. and that
 it will not use this program in any manner prohibited above.
 ---------------------------------------------------------------
  

 Cite this work as:
 Gaussian 09, Revision D.01,
 M. J. Frisch, G. W. Trucks, H. B. Schlegel, G. E. Scuseria, 
 M. A. Robb, J. R. Cheeseman, G. Scalmani, V. Barone, B. Mennucci, 
 G. A. Petersson, H. Nakatsuji, M. Caricato, X. Li, H. P. Hratchian, 
 A. F. Izmaylov, J. Bloino, G. Zheng, J. L. Sonnenberg, M. Hada, 
 M. Ehara, K. Toyota, R. Fukuda, J. Hasegawa, M. Ishida, T. Nakajima, 
 Y. Honda, O. Kitao, H. Nakai, T. Vreven, J. A. Montgomery, Jr., 
 J. E. Peralta, F. Ogliaro, M. Bearpark, J. J. Heyd, E. Brothers, 
 K. N. Kudin, V. N. Staroverov, T. Keith, R. Kobayashi, J. Normand, 
 K. Raghavachari, A. Rendell, J. C. Burant, S. S. Iyengar, J. Tomasi, 
 M. Cossi, N. Rega, J. M. Millam, M. Klene, J. E. Knox, J. B. Cross, 
 V. Bakken, C. Adamo, J. Jaramillo, R. Gomperts, R. E. Stratmann, 
 O. Yazyev, A. J. Austin, R. Cammi, C. Pomelli, J. W. Ochterski, 
 R. L. Martin, K. Morokuma, V. G. Zakrzewski, G. A. Voth, 
 P. Salvador, J. J. Dannenberg, S. Dapprich, A. D. Daniels, 
 O. Farkas, J. B. Foresman, J. V. Ortiz, J. Cioslowski, 
 and D. J. Fox, Gaussian, Inc., Wallingford CT, 2013.
 
 ******************************************
 Gaussian 09:  ES64L-G09RevD.01 24-Apr-2013
                 8-Mar-2019 
 ******************************************
 %nproc=4
 Will use up to    4 processors via shared memory.
 %Mem=2GB
 ---------------------------------------
 # td(NStates=1) B3LYP/6-31G(d,p) nosymm
 ---------------------------------------
 1/38=1/1;
 2/12=2,15=1,17=6,18=5,40=1/2;
 3/5=1,6=6,7=101,11=9,16=1,25=1,30=1,74=-5/1,2,8,3;
 4//1;
 5/5=2,38=5/2;
 8/6=1,10=2,108=1/1;
 9/41=1,42=1,70=2/14;
 6/7=2,8=2,9=2,10=2/1;
 99/5=1,9=1/99;
 --------------------
 AlQ3Abs Single Point
 --------------------
 Symbolic Z-matrix:
 Charge =  0 Multiplicity = 1
 Al                   -0.55471  -1.19173   0.38106 
 O                     0.7712   -2.39859   0.22684 
 O                    -2.01981  -2.10335  -0.27899 
 O                    -0.94662  -1.40877   2.26023 
 C                    -0.1878   -0.78238   3.03439 
 C                    -0.30563  -0.87558   4.48186 
 C                     0.6117   -0.12803   5.29038 
 C                     1.38683   0.77336   4.68526 
 C                     1.49173   1.00751   3.34797 
 C                     0.762     0.18821   2.51847 
 C                     2.37572   1.78595   2.69141 
 C                     2.33284   1.94134   1.35664 
 C                     1.4307    1.09696   0.60555 
 N                     0.71679   0.28992   1.20502 
 C                     1.3679   -2.39231  -0.98598 
 C                     2.42796  -3.29077  -1.30163 
 C                     2.97924  -3.41465  -2.61841 
 C                     2.57678  -2.49034  -3.59567 
 C                     1.61178  -1.43493  -3.3042 
 C                     0.95826  -1.49091  -2.04301 
 C                     1.009    -0.58099  -4.29245 
 C                     0.03639   0.33497  -3.89485 
 C                    -0.40265   0.29073  -2.51041 
 N                     0.00465  -0.72946  -1.67581 
 C                    -3.10983  -1.46277  -0.54373 
 C                    -4.31684  -2.05888  -1.02857 
 C                    -5.47036  -1.27296  -1.1098 
 C                    -5.56422   0.13163  -0.86711 
 C                    -3.21643  -0.11667  -0.29941 
 C                    -4.40462   0.73992  -0.48739 
 C                    -4.2039    2.11346  -0.10306 
 C                    -3.11052   2.66352   0.44567 
 C                    -1.93766   1.78022   0.54745 
 N                    -2.05417   0.4966    0.24667 
 H                    -4.39913  -3.20861  -0.99068 
 H                    -6.1842   -1.90149  -1.27585 
 H                    -6.53253   0.85042  -1.31849 
 H                    -5.22553   2.76413  -0.14314 
 H                    -3.07244   3.80746   0.82554 
 H                    -1.12286   2.37218   1.08007 
 H                    -0.90645  -1.46236   4.84125 
 H                     0.57124  -0.23529   6.3483 
 H                     2.10752   1.32663   5.43119 
 H                     3.15484   2.75302   3.29057 
 H                     2.89781   2.55672   0.69644 
 H                     1.26515   1.01718  -0.57709 
 H                     2.85863  -3.96577  -0.3057 
 H                     3.86586  -4.1776   -2.95034 
 H                     2.96875  -2.36778  -4.45471 
 H                    -1.05852   1.08911  -2.27032 
 H                     1.40575  -0.37307  -5.34089 
 H                    -0.35583   1.06298  -4.47809 
 
 Symmetry turned off by external request.
 Stoichiometry    C27H18AlN3O3
 Framework group  C1[X(C27H18AlN3O3)]
 Deg. of freedom   150
 Full point group                 C1      NOp   1
                          Input orientation:                          
 ---------------------------------------------------------------------
 Center     Atomic      Atomic             Coordinates (Angstroms)
 Number     Number       Type             X           Y           Z
 ---------------------------------------------------------------------
      1         13           0       -0.554711   -1.191733    0.381056
      2          8           0        0.771196   -2.398585    0.226839
      3          8           0       -2.019808   -2.103351   -0.278986
      4          8           0       -0.946620   -1.408774    2.260234
      5          6           0       -0.187796   -0.782380    3.034392
      6          6           0       -0.305631   -0.875582    4.481861
      7          6           0        0.611702   -0.128031    5.290383
      8          6           0        1.386831    0.773357    4.685261
      9          6           0        1.491731    1.007511    3.347974
     10          6           0        0.761996    0.188214    2.518467
     11          6           0        2.375720    1.785951    2.691414
     12          6           0        2.332839    1.941342    1.356637
     13          6           0        1.430700    1.096962    0.605546
     14          7           0        0.716793    0.289925    1.205020
     15          6           0        1.367902   -2.392308   -0.985975
     16          6           0        2.427957   -3.290771   -1.301629
     17          6           0        2.979239   -3.414652   -2.618412
     18          6           0        2.576777   -2.490340   -3.595667
     19          6           0        1.611781   -1.434928   -3.304198
     20          6           0        0.958257   -1.490914   -2.043006
     21          6           0        1.009004   -0.580993   -4.292451
     22          6           0        0.036386    0.334973   -3.894851
     23          6           0       -0.402652    0.290727   -2.510408
     24          7           0        0.004650   -0.729459   -1.675810
     25          6           0       -3.109831   -1.462771   -0.543729
     26          6           0       -4.316844   -2.058881   -1.028571
     27          6           0       -5.470362   -1.272963   -1.109796
     28          6           0       -5.564223    0.131629   -0.867108
     29          6           0       -3.216429   -0.116669   -0.299414
     30          6           0       -4.404623    0.739922   -0.487394
     31          6           0       -4.203898    2.113456   -0.103065
     32          6           0       -3.110523    2.663520    0.445669
     33          6           0       -1.937659    1.780221    0.547453
     34          7           0       -2.054170    0.496602    0.246666
     35          1           0       -4.399126   -3.208608   -0.990681
     36          1           0       -6.184198   -1.901487   -1.275847
     37          1           0       -6.532532    0.850421   -1.318495
     38          1           0       -5.225530    2.764132   -0.143135
     39          1           0       -3.072443    3.807461    0.825538
     40          1           0       -1.122860    2.372181    1.080074
     41          1           0       -0.906452   -1.462359    4.841246
     42          1           0        0.571237   -0.235292    6.348300
     43          1           0        2.107524    1.326629    5.431193
     44          1           0        3.154841    2.753018    3.290566
     45          1           0        2.897806    2.556720    0.696441
     46          1           0        1.265150    1.017182   -0.577093
     47          1           0        2.858632   -3.965766   -0.305701
     48          1           0        3.865860   -4.177598   -2.950336
     49          1           0        2.968750   -2.367785   -4.454713
     50          1           0       -1.058519    1.089110   -2.270324
     51          1           0        1.405745   -0.373068   -5.340886
     52          1           0       -0.355835    1.062984   -4.478088
 ---------------------------------------------------------------------
 Rotational constants (GHZ):      0.1429503      0.1380162      0.0922375
 Standard basis: 6-31G(d,p) (6D, 7F)
   604 basis functions,  1102 primitive gaussians,   604 cartesian basis functions
   119 alpha electrons      119 beta electrons
       nuclear repulsion energy      3678.9864789174 Hartrees.
 NAtoms=   52 NActive=   52 NUniq=   52 SFac= 1.00D+00 NAtFMM=   60 NAOKFM=F Big=F
 Integral buffers will be    131072 words long.
 Regular integral format.
 Two-electron integral symmetry is turned off.
 One-electron integrals computed using PRISM.
 NBasis=   604 RedAO= T EigKep=  3.79D-04  NBF=   604
 NBsUse=   604 1.00D-06 EigRej= -1.00D+00 NBFU=   604
 ExpMin= 5.57D-02 ExpMax= 1.40D+04 ExpMxC= 2.10D+03 IAcc=2 IRadAn=         4 AccDes= 0.00D+00
 Harris functional with IExCor=  402 and IRadAn=       4 diagonalized for initial guess.
 HarFok:  IExCor=  402 AccDes= 0.00D+00 IRadAn=         4 IDoV= 1 UseB2=F ITyADJ=14
 ICtDFT=  3500011 ScaDFX=  1.000000  1.000000  1.000000  1.000000
 FoFCou: FMM=F IPFlag=           0 FMFlag=      100000 FMFlg1=           0
         NFxFlg=           0 DoJE=T BraDBF=F KetDBF=T FulRan=T
         wScrn=  0.000000 ICntrl=     500 IOpCl=  0 I1Cent=   200000004 NGrid=           0
         NMat0=    1 NMatS0=      1 NMatT0=    0 NMatD0=    1 NMtDS0=    0 NMtDT0=    0
 Symmetry not used in FoFCou.
 Requested convergence on RMS density matrix=1.00D-08 within 128 cycles.
 Requested convergence on MAX density matrix=1.00D-06.
 Requested convergence on             energy=1.00D-06.
 No special actions if energy rises.
 Integral accuracy reduced to 1.0D-05 until final iterations.
 Initial convergence to 1.0D-05 achieved.  Increase integral accuracy.
 SCF Done:  E(RB3LYP) =  -1672.07761239     A.U. after   16 cycles
            NFock= 16  Conv=0.43D-08     -V/T= 2.0087
 DoSCS=F DFT=T ScalE2(SS,OS)=  1.000000  1.000000
 ExpMin= 5.57D-02 ExpMax= 1.40D+04 ExpMxC= 2.10D+03 IAcc=3 IRadAn=         5 AccDes= 0.00D+00
 HarFok:  IExCor=  205 AccDes= 0.00D+00 IRadAn=         5 IDoV=-2 UseB2=F ITyADJ=14
 ICtDFT= 12500011 ScaDFX=  1.000000  1.000000  1.000000  1.000000
 Range of M.O.s used for correlation:    39   604
 NBasis=   604 NAE=   119 NBE=   119 NFC=    38 NFV=     0
 NROrb=    566 NOA=    81 NOB=    81 NVA=   485 NVB=   485
 Would need an additional         49917000000 words for in-memory AO integral storage.
     8 initial guesses have been made.
 Convergence on wavefunction:    0.001000000000000
 Iteration     1 Dimension     8 NMult     0 NNew      8
 CISAX will form     8 AO SS matrices at one time.
 Iteration     2 Dimension    12 NMult     8 NNew      4
 Iteration     3 Dimension    16 NMult    12 NNew      4
 Iteration     4 Dimension    20 NMult    16 NNew      4
 ***********************************************************************
 Excited states from <AA,BB:AA,BB> singles matrix:
 ***********************************************************************
 
 Ground to excited state transition densities written to RWF  633
 Ground to excited state transition electric dipole moments (Au):
       state          X           Y           Z        Dip. S.      Osc.
         1        -0.0054     -0.0171      0.0052      0.0003      0.0000
 Ground to excited state transition velocity dipole moments (Au):
       state          X           Y           Z        Dip. S.      Osc.
         1         0.0004      0.0037     -0.0015      0.0000      0.0001
 Ground to excited state transition magnetic dipole moments (Au):
       state          X           Y           Z
         1         0.0514      0.0265      0.0072
 Ground to excited state transition velocity quadrupole moments (Au):
       state          XX          YY          ZZ          XY          XZ          YZ
         1         0.0080     -0.0115      0.0058      0.0100      0.0142      0.0003
 <0|del|b> * <b|rxdel|0> + <0|del|b> * <b|delr+rdel|0>
 Rotatory Strengths (R) in cgs (10**-40 erg-esu-cm/Gauss)
       state          XX          YY          ZZ    R(velocity)    E-M Angle
         1         0.0818      0.0893      0.6732      0.2814       62.88
 1/2[<0|r|b>*<b|rxdel|0> + (<0|rxdel|b>*<b|r|0>)*]
 Rotatory Strengths (R) in cgs (10**-40 erg-esu-cm/Gauss)
       state          XX          YY          ZZ     R(length)
         1         0.1953      0.3203     -0.0265      0.1630
  1/2[<0|del|b>*<b|r|0> + (<0|r|b>*<b|del|0>)*] (Au)
       state          X           Y           Z        Dip. S.   Osc.(frdel)
         1         0.0000     -0.0001      0.0000      0.0001      0.0000

 Excitation energies and oscillator strengths:
 
 Excited state symmetry could not be determined.
 Excited State   1:      Singlet-?Sym    2.4318 eV  509.84 nm  f=0.0000  <S**2>=0.000
     119 ->120         0.70671
 This state for optimization and/or second-order correction.
 Total Energy, E(TD-HF/TD-KS) =  -1671.98824376    
 Copying the excited state density for this state as the 1-particle RhoCI density.
 SavETr:  write IOETrn=   770 NScale= 10 NData=  16 NLR=1 NState=    1 LETran=      28.

 **********************************************************************

            Population analysis using the SCF density.

 **********************************************************************

 Alpha  occ. eigenvalues --  -56.05629 -19.12876 -19.12277 -19.11447 -14.38058
 Alpha  occ. eigenvalues --  -14.37309 -14.36230 -10.25704 -10.25568 -10.25318
 Alpha  occ. eigenvalues --  -10.24436 -10.24232 -10.23761 -10.23705 -10.23412
 Alpha  occ. eigenvalues --  -10.23232 -10.22744 -10.22484 -10.22431 -10.22139
 Alpha  occ. eigenvalues --  -10.22061 -10.21715 -10.21519 -10.21253 -10.20702
 Alpha  occ. eigenvalues --  -10.20621 -10.20613 -10.19550 -10.18919 -10.18710
 Alpha  occ. eigenvalues --  -10.18465 -10.17866 -10.16976 -10.15077  -4.12788
 Alpha  occ. eigenvalues --   -2.68259  -2.68154  -2.68133  -1.03168  -1.02040
 Alpha  occ. eigenvalues --   -1.01082  -0.99676  -0.97468  -0.94535  -0.85903
 Alpha  occ. eigenvalues --   -0.84579  -0.84265  -0.81851  -0.80942  -0.80449
 Alpha  occ. eigenvalues --   -0.76394  -0.75886  -0.75561  -0.72801  -0.72600
 Alpha  occ. eigenvalues --   -0.71424  -0.65997  -0.65450  -0.65173  -0.64501
 Alpha  occ. eigenvalues --   -0.64133  -0.63056  -0.60308  -0.58318  -0.57965
 Alpha  occ. eigenvalues --   -0.54796  -0.54212  -0.53429  -0.53040  -0.52408
 Alpha  occ. eigenvalues --   -0.51674  -0.51641  -0.51253  -0.50154  -0.47569
 Alpha  occ. eigenvalues --   -0.46141  -0.46093  -0.45793  -0.45342  -0.45067
 Alpha  occ. eigenvalues --   -0.44484  -0.44323  -0.44195  -0.43569  -0.43263
 Alpha  occ. eigenvalues --   -0.42643  -0.41979  -0.41565  -0.41523  -0.41144
 Alpha  occ. eigenvalues --   -0.40200  -0.38562  -0.38085  -0.37755  -0.37587
 Alpha  occ. eigenvalues --   -0.37172  -0.36853  -0.36644  -0.36470  -0.35081
 Alpha  occ. eigenvalues --   -0.34708  -0.34515  -0.33676  -0.33030  -0.32464
 Alpha  occ. eigenvalues --   -0.30862  -0.30194  -0.29852  -0.29385  -0.29192
 Alpha  occ. eigenvalues --   -0.29046  -0.27885  -0.26886  -0.25959  -0.25189
 Alpha  occ. eigenvalues --   -0.24999  -0.20293  -0.20053  -0.18083
 Alpha virt. eigenvalues --   -0.07440  -0.06121  -0.04496  -0.03543  -0.02569
 Alpha virt. eigenvalues --   -0.01736   0.01571   0.02483   0.03897   0.05151
 Alpha virt. eigenvalues --    0.05917   0.06444   0.07483   0.07729   0.08344
 Alpha virt. eigenvalues --    0.09026   0.09416   0.10075   0.10415   0.11078
 Alpha virt. eigenvalues --    0.11984   0.12343   0.13172   0.13444   0.13598
 Alpha virt. eigenvalues --    0.14868   0.15001   0.15796   0.16953   0.17144
 Alpha virt. eigenvalues --    0.17734   0.18201   0.18346   0.18978   0.19855
 Alpha virt. eigenvalues --    0.20685   0.21562   0.22442   0.22815   0.23484
 Alpha virt. eigenvalues --    0.23920   0.24731   0.25150   0.25515   0.26606
 Alpha virt. eigenvalues --    0.27378   0.27756   0.28052   0.29171   0.29639
 Alpha virt. eigenvalues --    0.30203   0.30312   0.30695   0.31570   0.32358
 Alpha virt. eigenvalues --    0.32750   0.33230   0.33483   0.34804   0.36393
 Alpha virt. eigenvalues --    0.37622   0.38868   0.39167   0.40206   0.40466
 Alpha virt. eigenvalues --    0.41990   0.42688   0.43896   0.44986   0.45855
 Alpha virt. eigenvalues --    0.46572   0.47262   0.48299   0.48634   0.49530
 Alpha virt. eigenvalues --    0.50067   0.50577   0.51145   0.51276   0.51713
 Alpha virt. eigenvalues --    0.52023   0.52546   0.52817   0.53569   0.53831
 Alpha virt. eigenvalues --    0.54402   0.54499   0.54958   0.55808   0.56049
 Alpha virt. eigenvalues --    0.56769   0.56920   0.57295   0.57631   0.57852
 Alpha virt. eigenvalues --    0.58504   0.58824   0.58947   0.59208   0.59637
 Alpha virt. eigenvalues --    0.59808   0.60573   0.60777   0.61081   0.61571
 Alpha virt. eigenvalues --    0.61630   0.61945   0.62382   0.62743   0.63057
 Alpha virt. eigenvalues --    0.63664   0.63896   0.64633   0.64802   0.64879
 Alpha virt. eigenvalues --    0.65830   0.66132   0.66673   0.67625   0.68219
 Alpha virt. eigenvalues --    0.68374   0.69148   0.69814   0.70228   0.70966
 Alpha virt. eigenvalues --    0.72209   0.73183   0.74055   0.74715   0.75072
 Alpha virt. eigenvalues --    0.75539   0.75839   0.76588   0.77368   0.77615
 Alpha virt. eigenvalues --    0.78153   0.78439   0.79359   0.79794   0.80546
 Alpha virt. eigenvalues --    0.81043   0.81431   0.82093   0.82249   0.83076
 Alpha virt. eigenvalues --    0.84016   0.84775   0.84897   0.85415   0.86446
 Alpha virt. eigenvalues --    0.86660   0.87019   0.87541   0.88239   0.89051
 Alpha virt. eigenvalues --    0.89961   0.91299   0.91572   0.92133   0.92738
 Alpha virt. eigenvalues --    0.93401   0.93651   0.94164   0.94552   0.94839
 Alpha virt. eigenvalues --    0.96050   0.96844   0.97551   0.98023   0.98661
 Alpha virt. eigenvalues --    0.99084   0.99698   0.99892   1.00918   1.01745
 Alpha virt. eigenvalues --    1.02896   1.03365   1.04247   1.04773   1.06100
 Alpha virt. eigenvalues --    1.06797   1.07454   1.08198   1.08710   1.09487
 Alpha virt. eigenvalues --    1.10185   1.11337   1.11793   1.12303   1.13660
 Alpha virt. eigenvalues --    1.14473   1.15344   1.16217   1.16644   1.17178
 Alpha virt. eigenvalues --    1.17647   1.18093   1.18481   1.19168   1.20083
 Alpha virt. eigenvalues --    1.21035   1.21304   1.22212   1.24082   1.24363
 Alpha virt. eigenvalues --    1.24609   1.25944   1.26856   1.27604   1.29170
 Alpha virt. eigenvalues --    1.30270   1.30539   1.31298   1.31912   1.32613
 Alpha virt. eigenvalues --    1.33669   1.33988   1.35302   1.36758   1.37108
 Alpha virt. eigenvalues --    1.37326   1.37523   1.38955   1.39951   1.40367
 Alpha virt. eigenvalues --    1.40779   1.41004   1.42608   1.43522   1.44188
 Alpha virt. eigenvalues --    1.44498   1.44819   1.46303   1.47258   1.47610
 Alpha virt. eigenvalues --    1.48151   1.49103   1.49570   1.49663   1.50614
 Alpha virt. eigenvalues --    1.51754   1.52766   1.53230   1.54583   1.54917
 Alpha virt. eigenvalues --    1.55530   1.58175   1.59336   1.60916   1.64195
 Alpha virt. eigenvalues --    1.64791   1.65487   1.67670   1.68757   1.69801
 Alpha virt. eigenvalues --    1.70838   1.72690   1.73359   1.74618   1.75275
 Alpha virt. eigenvalues --    1.76220   1.76940   1.77142   1.77376   1.78581
 Alpha virt. eigenvalues --    1.79419   1.80221   1.80446   1.81099   1.81546
 Alpha virt. eigenvalues --    1.82278   1.84353   1.84599   1.85387   1.85929
 Alpha virt. eigenvalues --    1.86411   1.86801   1.87319   1.88125   1.88721
 Alpha virt. eigenvalues --    1.89095   1.90220   1.90921   1.91024   1.91965
 Alpha virt. eigenvalues --    1.92464   1.92956   1.93865   1.93966   1.94621
 Alpha virt. eigenvalues --    1.95634   1.96398   1.97466   1.97834   1.99062
 Alpha virt. eigenvalues --    1.99544   2.00038   2.00175   2.01268   2.01620
 Alpha virt. eigenvalues --    2.02219   2.03281   2.03632   2.04300   2.04965
 Alpha virt. eigenvalues --    2.06353   2.06638   2.07033   2.07563   2.09270
 Alpha virt. eigenvalues --    2.10125   2.10551   2.11731   2.12727   2.13486
 Alpha virt. eigenvalues --    2.14827   2.15642   2.16668   2.16882   2.18021
 Alpha virt. eigenvalues --    2.19317   2.20792   2.21367   2.22914   2.23435
 Alpha virt. eigenvalues --    2.24169   2.24784   2.25209   2.25837   2.26628
 Alpha virt. eigenvalues --    2.27117   2.27529   2.28221   2.28673   2.29334
 Alpha virt. eigenvalues --    2.29804   2.29828   2.30659   2.31650   2.31989
 Alpha virt. eigenvalues --    2.32879   2.34753   2.35208   2.35409   2.36524
 Alpha virt. eigenvalues --    2.36764   2.37780   2.38329   2.38884   2.39001
 Alpha virt. eigenvalues --    2.40428   2.41003   2.42089   2.42701   2.42961
 Alpha virt. eigenvalues --    2.43742   2.43933   2.44608   2.45230   2.46004
 Alpha virt. eigenvalues --    2.46729   2.47070   2.48592   2.48893   2.49242
 Alpha virt. eigenvalues --    2.50363   2.50584   2.51613   2.52404   2.52953
 Alpha virt. eigenvalues --    2.53242   2.53888   2.54948   2.55142   2.55892
 Alpha virt. eigenvalues --    2.56321   2.56989   2.58317   2.59188   2.59928
 Alpha virt. eigenvalues --    2.60501   2.61054   2.61535   2.62054   2.62281
 Alpha virt. eigenvalues --    2.64545   2.64853   2.65529   2.65677   2.66389
 Alpha virt. eigenvalues --    2.66896   2.68408   2.69613   2.70090   2.70893
 Alpha virt. eigenvalues --    2.72377   2.73152   2.74565   2.74783   2.75224
 Alpha virt. eigenvalues --    2.75890   2.76850   2.77862   2.78176   2.79827
 Alpha virt. eigenvalues --    2.80611   2.82006   2.82660   2.85927   2.87159
 Alpha virt. eigenvalues --    2.87806   2.89297   2.89833   2.93980   2.95858
 Alpha virt. eigenvalues --    2.96616   2.98425   3.00271   3.02636   3.03026
 Alpha virt. eigenvalues --    3.04156   3.04862   3.05969   3.07230   3.09113
 Alpha virt. eigenvalues --    3.09844   3.11175   3.12164   3.15249   3.17169
 Alpha virt. eigenvalues --    3.18442   3.20054   3.22564   3.23229   3.23528
 Alpha virt. eigenvalues --    3.25026   3.26401   3.34843   3.35748   3.37258
 Alpha virt. eigenvalues --    3.39243   3.44216   3.47139   3.48196   3.51673
 Alpha virt. eigenvalues --    3.60145   3.62718   3.74787   3.76073   3.84092
 Alpha virt. eigenvalues --    3.87992   4.01646   4.06510   4.08290   4.10458
 Alpha virt. eigenvalues --    4.10773   4.11466   4.12754   4.13478   4.14398
 Alpha virt. eigenvalues --    4.15280   4.16876   4.17360   4.18217   4.25789
 Alpha virt. eigenvalues --    4.28061   4.29018   4.31419   4.33531   4.36964
 Alpha virt. eigenvalues --    4.39415   4.39781   4.42086   4.43382   4.44663
 Alpha virt. eigenvalues --    4.46569   4.56300   4.57422   4.61406   4.66186
 Alpha virt. eigenvalues --    4.72520   4.81965   4.91509   4.93673   4.98764
          Condensed to atoms (all electrons):
 Mulliken charges:
               1
     1  Al   1.049251
     2  O   -0.631247
     3  O   -0.629367
     4  O   -0.612706
     5  C    0.419081
     6  C   -0.112423
     7  C   -0.057412
     8  C   -0.187315
     9  C    0.222044
    10  C    0.146246
    11  C   -0.098523
    12  C   -0.125845
    13  C    0.071754
    14  N   -0.487013
    15  C    0.417910
    16  C   -0.157787
    17  C   -0.083445
    18  C   -0.098532
    19  C    0.090198
    20  C    0.253144
    21  C   -0.095456
    22  C   -0.097412
    23  C    0.089642
    24  N   -0.582379
    25  C    0.445669
    26  C   -0.174146
    27  C   -0.046714
    28  C   -0.188604
    29  C    0.170140
    30  C    0.172836
    31  C   -0.081517
    32  C   -0.136364
    33  C    0.106979
    34  N   -0.582017
    35  H    0.106651
    36  H    0.077768
    37  H    0.071986
    38  H    0.083825
    39  H    0.106079
    40  H    0.127584
    41  H    0.045266
    42  H    0.086300
    43  H    0.055938
    44  H    0.063620
    45  H    0.101741
    46  H    0.094768
    47  H    0.093615
    48  H    0.098410
    49  H    0.061034
    50  H    0.129232
    51  H    0.108101
    52  H    0.099412
 Sum of Mulliken charges =   0.00000
 Mulliken charges with hydrogens summed into heavy atoms:
               1
     1  Al   1.049251
     2  O   -0.631247
     3  O   -0.629367
     4  O   -0.612706
     5  C    0.419081
     6  C   -0.067157
     7  C    0.028888
     8  C   -0.131377
     9  C    0.222044
    10  C    0.146246
    11  C   -0.034904
    12  C   -0.024104
    13  C    0.166522
    14  N   -0.487013
    15  C    0.417910
    16  C   -0.064172
    17  C    0.014966
    18  C   -0.037498
    19  C    0.090198
    20  C    0.253144
    21  C    0.012646
    22  C    0.002000
    23  C    0.218875
    24  N   -0.582379
    25  C    0.445669
    26  C   -0.067495
    27  C    0.031054
    28  C   -0.116617
    29  C    0.170140
    30  C    0.172836
    31  C    0.002308
    32  C   -0.030285
    33  C    0.234563
    34  N   -0.582017
 Electronic spatial extent (au):  <R**2>=          12989.6108
 Charge=              0.0000 electrons
 Dipole moment (field-independent basis, Debye):
    X=              1.1644    Y=              6.2077    Z=             -4.4064  Tot=              7.7011
 Quadrupole moment (field-independent basis, Debye-Ang):
   XX=           -185.9312   YY=           -193.6582   ZZ=           -181.7405
   XY=             -5.7531   XZ=             -0.5286   YZ=              3.7749
 Traceless Quadrupole moment (field-independent basis, Debye-Ang):
   XX=              1.1788   YY=             -6.5482   ZZ=              5.3695
   XY=             -5.7531   XZ=             -0.5286   YZ=              3.7749
 Octapole moment (field-independent basis, Debye-Ang**2):
  XXX=            251.6487  YYY=            272.9634  ZZZ=            -82.6268  XYY=             95.8309
  XXY=             79.4000  XXZ=            -44.3781  XZZ=            133.8855  YZZ=             85.8506
  YYZ=            -19.2016  XYZ=             15.9594
 Hexadecapole moment (field-independent basis, Debye-Ang**3):
 XXXX=          -7178.3545 YYYY=          -3386.2344 ZZZZ=          -6435.9389 XXXY=            304.9246
 XXXZ=            -91.2191 YYYX=            254.2880 YYYZ=           -725.0752 ZZZX=           -291.2214
 ZZZY=           -849.5007 XXYY=          -1566.8913 XXZZ=          -2431.3653 YYZZ=          -1774.1253
 XXYZ=           -158.9645 YYXZ=            -85.0142 ZZXY=             89.0139
 N-N= 3.678986478917D+03 E-N=-1.125991057027D+04  KE= 1.657653962119D+03
 1\1\GINC-RYZEN-SSD1\SP\RB3LYP TD-FC\6-31G(d,p)\C27H18Al1N3O3\PADAWAN\0
 8-Mar-2019\0\\# td(NStates=1) B3LYP/6-31G(d,p) nosymm\\AlQ3Abs Single 
 Point\\0,1\Al,0,-0.55471147,-1.19173268,0.38105623\O,0,0.77119602,-2.3
 9858523,0.22683879\O,0,-2.01980834,-2.10335137,-0.27898643\O,0,-0.9466
 1989,-1.40877428,2.2602342\C,0,-0.18779568,-0.78237966,3.03439202\C,0,
 -0.30563051,-0.87558213,4.48186125\C,0,0.61170216,-0.12803057,5.290382
 94\C,0,1.38683126,0.77335688,4.68526106\C,0,1.49173091,1.00751134,3.34
 797388\C,0,0.76199552,0.18821389,2.5184671\C,0,2.37571961,1.78595057,2
 .69141404\C,0,2.33283865,1.94134182,1.3566366\C,0,1.4306998,1.09696164
 ,0.60554648\N,0,0.71679314,0.28992499,1.20502038\C,0,1.36790191,-2.392
 30757,-0.98597524\C,0,2.42795679,-3.29077117,-1.30162913\C,0,2.9792390
 5,-3.41465226,-2.61841199\C,0,2.57677665,-2.49034033,-3.59566701\C,0,1
 .61178089,-1.43492814,-3.30419751\C,0,0.95825652,-1.49091392,-2.043006
 28\C,0,1.0090042,-0.58099322,-4.29245132\C,0,0.03638569,0.3349728,-3.8
 9485122\C,0,-0.40265177,0.29072669,-2.51040812\N,0,0.00465044,-0.72945
 89,-1.67580961\C,0,-3.10983118,-1.46277067,-0.5437288\C,0,-4.31684385,
 -2.05888074,-1.02857069\C,0,-5.47036161,-1.27296315,-1.10979562\C,0,-5
 .56422315,0.13162913,-0.86710793\C,0,-3.21642863,-0.11666867,-0.299413
 62\C,0,-4.40462273,0.73992184,-0.48739377\C,0,-4.20389762,2.11345623,-
 0.10306471\C,0,-3.11052271,2.66351974,0.44566877\C,0,-1.937659,1.78022
 05,0.54745284\N,0,-2.05417039,0.49660178,0.24666599\H,0,-4.39912636,-3
 .20860798,-0.99068094\H,0,-6.18419828,-1.90148718,-1.27584749\H,0,-6.5
 3253177,0.8504208,-1.31849472\H,0,-5.22552995,2.76413156,-0.1431352\H,
 0,-3.07244345,3.80746105,0.82553828\H,0,-1.12285986,2.37218114,1.08007
 425\H,0,-0.90645219,-1.46235922,4.84124629\H,0,0.57123737,-0.23529193,
 6.34830005\H,0,2.1075239,1.32662861,5.43119298\H,0,3.15484137,2.753018
 23,3.29056592\H,0,2.89780621,2.55672009,0.69644146\H,0,1.26514986,1.01
 718185,-0.57709334\H,0,2.85863249,-3.96576556,-0.30570059\H,0,3.865859
 78,-4.17759806,-2.95033646\H,0,2.96874973,-2.36778474,-4.45471313\H,0,
 -1.05851867,1.08911004,-2.27032373\H,0,1.40574522,-0.37306825,-5.34088
 55\H,0,-0.35583495,1.06298404,-4.47808785\\Version=ES64L-G09RevD.01\HF
 =-1672.0776124\RMSD=4.253e-09\PG=C01 [X(C27H18Al1N3O3)]\\@


 IT IS BETTER TO THINK YOU ARE HALF DRY THAN TO KNOW YOU
 ARE ALL WET.  -- SNOOPY
 Job cpu time:       0 days  1 hours 27 minutes 51.6 seconds.
 File lengths (MBytes):  RWF=    439 Int=      0 D2E=      0 Chk=     34 Scr=      1
 Normal termination of Gaussian 09 at Fri Mar  8 14:11:31 2019.
