 Entering Gaussian System, Link 0=g16
 Input=Geometria-437-.com
 Output=Geometria-437-.log
 Initial command:
 /usr/local/g09/l1.exe "/home/padawan/israel-mol/chlorophyll-a/spectra/emi/Gau-27022.inp" -scrdir="/home/padawan/israel-mol/chlorophyll-a/spectra/emi/"
 Entering Link 1 = /usr/local/g09/l1.exe PID=     27024.
  
 Copyright (c) 1988,1990,1992,1993,1995,1998,2003,2009,2013,
            Gaussian, Inc.  All Rights Reserved.
  
 This is part of the Gaussian(R) 09 program.  It is based on
 the Gaussian(R) 03 system (copyright 2003, Gaussian, Inc.),
 the Gaussian(R) 98 system (copyright 1998, Gaussian, Inc.),
 the Gaussian(R) 94 system (copyright 1995, Gaussian, Inc.),
 the Gaussian 92(TM) system (copyright 1992, Gaussian, Inc.),
 the Gaussian 90(TM) system (copyright 1990, Gaussian, Inc.),
 the Gaussian 88(TM) system (copyright 1988, Gaussian, Inc.),
 the Gaussian 86(TM) system (copyright 1986, Carnegie Mellon
 University), and the Gaussian 82(TM) system (copyright 1983,
 Carnegie Mellon University). Gaussian is a federally registered
 trademark of Gaussian, Inc.
  
 This software contains proprietary and confidential information,
 including trade secrets, belonging to Gaussian, Inc.
  
 This software is provided under written license and may be
 used, copied, transmitted, or stored only in accord with that
 written license.
  
 The following legend is applicable only to US Government
 contracts under FAR:
  
                    RESTRICTED RIGHTS LEGEND
  
 Use, reproduction and disclosure by the US Government is
 subject to restrictions as set forth in subparagraphs (a)
 and (c) of the Commercial Computer Software - Restricted
 Rights clause in FAR 52.227-19.
  
 Gaussian, Inc.
 340 Quinnipiac St., Bldg. 40, Wallingford CT 06492
  
  
 ---------------------------------------------------------------
 Warning -- This program may not be used in any manner that
 competes with the business of Gaussian, Inc. or will provide
 assistance to any competitor of Gaussian, Inc.  The licensee
 of this program is prohibited from giving any competitor of
 Gaussian, Inc. access to this program.  By using this program,
 the user acknowledges that Gaussian, Inc. is engaged in the
 business of creating and licensing software in the field of
 computational chemistry and represents and warrants to the
 licensee that it is not a competitor of Gaussian, Inc. and that
 it will not use this program in any manner prohibited above.
 ---------------------------------------------------------------
  

 Cite this work as:
 Gaussian 09, Revision D.01,
 M. J. Frisch, G. W. Trucks, H. B. Schlegel, G. E. Scuseria, 
 M. A. Robb, J. R. Cheeseman, G. Scalmani, V. Barone, B. Mennucci, 
 G. A. Petersson, H. Nakatsuji, M. Caricato, X. Li, H. P. Hratchian, 
 A. F. Izmaylov, J. Bloino, G. Zheng, J. L. Sonnenberg, M. Hada, 
 M. Ehara, K. Toyota, R. Fukuda, J. Hasegawa, M. Ishida, T. Nakajima, 
 Y. Honda, O. Kitao, H. Nakai, T. Vreven, J. A. Montgomery, Jr., 
 J. E. Peralta, F. Ogliaro, M. Bearpark, J. J. Heyd, E. Brothers, 
 K. N. Kudin, V. N. Staroverov, T. Keith, R. Kobayashi, J. Normand, 
 K. Raghavachari, A. Rendell, J. C. Burant, S. S. Iyengar, J. Tomasi, 
 M. Cossi, N. Rega, J. M. Millam, M. Klene, J. E. Knox, J. B. Cross, 
 V. Bakken, C. Adamo, J. Jaramillo, R. Gomperts, R. E. Stratmann, 
 O. Yazyev, A. J. Austin, R. Cammi, C. Pomelli, J. W. Ochterski, 
 R. L. Martin, K. Morokuma, V. G. Zakrzewski, G. A. Voth, 
 P. Salvador, J. J. Dannenberg, S. Dapprich, A. D. Daniels, 
 O. Farkas, J. B. Foresman, J. V. Ortiz, J. Cioslowski, 
 and D. J. Fox, Gaussian, Inc., Wallingford CT, 2013.
 
 ******************************************
 Gaussian 09:  ES64L-G09RevD.01 24-Apr-2013
                 6-Jul-2019 
 ******************************************
 %nproc=4
 Will use up to    4 processors via shared memory.
 %Mem=2GB
 -------------------------------------
 # td=(NStates=1) CAM-B3LYP/6-31G(d,p)
 -------------------------------------
 1/38=1/1;
 2/12=2,17=6,18=5,40=1/2;
 3/5=1,6=6,7=101,11=9,16=1,25=1,30=1,74=-40/1,2,8,3;
 4//1;
 5/5=2,38=5/2;
 8/6=1,10=2,108=1/1;
 9/41=1,42=1,70=2/14;
 6/7=2,8=2,9=2,10=2/1;
 99/5=1,9=1/99;
 --
 TD
 --
 Symbolic Z-matrix:
 Charge =  0 Multiplicity = 1
 12                   -7.20875   0.60762   0.12039 
 6                    -4.92551  -1.9626    0.51644 
 6                    -4.81134   2.80093   0.97368 
 6                    -9.37391   3.13732  -0.2849 
 6                    -9.58144  -1.79629  -0.75144 
 7                    -5.16761   0.46052   0.64183 
 6                    -4.37727  -0.67903   0.76837 
 6                    -2.96376  -0.41623   1.11033 
 6                    -3.01349   1.05961   1.33768 
 6                    -4.46942   1.56298   0.94867 
 6                    -2.72431   1.38573   2.96862 
 6                    -1.93533  -0.76043  -0.07516 
 6                    -0.4865   -0.68575   0.37289 
 6                     0.53215  -0.67656  -0.72615 
 8                     0.26256  -1.08879  -1.73588 
 8                     1.85995  -0.42201  -0.2598 
 7                    -7.20543   2.68082   0.25197 
 6                    -6.09599   3.34094   0.67649 
 6                    -6.40989   4.71481   0.69983 
 6                    -7.83035   4.86727   0.47035 
 6                    -8.23291   3.44865   0.19697 
 6                    -5.46221   5.92327   1.01515 
 6                    -8.63494   5.98045   0.32376 
 6                    -8.36465   7.1477    0.86402 
 7                    -9.12786   0.61646  -0.54018 
 6                    -9.94579   1.77625  -0.61019 
 6                    -11.24705   1.49932  -1.07338 
 6                    -11.32088   0.07874  -1.14314 
 6                    -9.98005  -0.43522  -0.81449 
 6                    -12.29743   2.49207  -1.39247 
 6                    -12.37791  -0.80162  -1.61156 
 6                    -12.22149  -1.19912  -3.16708 
 7                    -7.37856  -1.46164  -0.0189 
 6                    -8.31152  -2.29583  -0.46994 
 6                    -7.91924  -3.64189  -0.4089 
 6                    -6.52498  -3.55771  -0.07406 
 6                    -6.24476  -2.24646   0.13335 
 6                    -8.65367  -4.90181  -0.72205 
 6                    -5.33585  -4.23755   0.22986 
 8                    -5.25115  -5.47831   0.12327 
 6                    -4.1808   -3.27638   0.57498 
 6                    -3.57154  -3.5935    1.7963 
 8                    -3.79137  -3.12091   2.93026 
 8                    -2.71392  -4.68974   1.68923 
 6                    -2.26248  -5.12591   2.99186 
 6                     2.91571  -0.5752   -1.25333 
 6                     4.2148   -0.33778  -0.49162 
 6                     5.22757   0.37976  -0.8762 
 6                     5.24345   1.37177  -2.13791 
 6                     6.53093   0.50364  -0.05967 
 6                     7.65458  -0.15951  -0.87123 
 6                     9.05608  -0.13378  -0.02069 
 6                     10.18866  -0.481    -0.87912 
 6                     10.09283  -1.95555  -1.4046 
 6                     11.48235  -0.36068   0.03191 
 6                     12.80409  -0.39486  -0.71649 
 6                     13.96918  -0.10829   0.17118 
 6                     15.35854  -0.23218  -0.49627 
 6                     15.69993  -1.73753  -0.78494 
 6                     16.44966   0.47314   0.40696 
 6                     17.874    0.56222  -0.1439 
 6                     18.78595   1.26421   0.78119 
 6                     20.20178   1.29051   0.27667 
 6                     20.43263   2.1688   -0.99238 
 6                     21.21011   1.84134   1.28845 
 1                    -3.98751   3.5629    1.11899 
 1                    -10.28919   3.84327  -0.45337 
 1                    -10.53424  -2.4401   -0.8424 
 1                    -2.59869  -1.02229   2.03184 
 1                    -2.27545   1.56743   0.6044 
 1                    -1.66225   0.93032   3.065 
 1                    -2.70124   2.53217   3.13458 
 1                    -3.65942   0.85064   3.51505 
 1                    -2.26613  -1.76834  -0.52609 
 1                    -2.29564  -0.22176  -0.92599 
 1                    -0.22839   0.21904   0.98344 
 1                    -0.37241  -1.49822   1.06526 
 1                    -5.68873   6.75496   0.3462 
 1                    -5.37798   6.33489   1.97469 
 1                    -4.478     5.60627   0.6933 
 1                    -9.68246   6.02515  -0.25248 
 1                    -9.10836   7.85544   0.68239 
 1                    -7.62689   7.3124    1.7217 
 1                    -12.15948   2.83929  -2.53064 
 1                    -13.23221   2.20752  -1.37386 
 1                    -12.11043   3.48851  -0.81431 
 1                    -12.13399  -1.66356  -0.87637 
 1                    -13.46055  -0.38953  -1.4028 
 1                    -13.28935  -1.73634  -3.14179 
 1                    -12.43373  -0.29538  -3.97442 
 1                    -11.3135  -1.80254  -3.50336 
 1                    -8.8434   -5.16544  -1.79916 
 1                    -8.0868   -5.76791  -0.36521 
 1                    -9.60282  -4.79161  -0.10711 
 1                    -3.54738  -3.44683  -0.31231 
 1                    -1.93972  -4.30347   3.51896 
 1                    -3.07672  -5.7284    3.4664 
 1                    -1.27522  -5.78951   2.74619 
 1                     2.92763  -1.53488  -1.54541 
 1                     2.60142   0.04115  -2.0753 
 1                     4.12301  -0.97543   0.41046 
 1                     4.29932   1.71937  -2.52243 
 1                     6.0231    2.23737  -1.99043 
 1                     5.85283   0.58105  -2.8498 
 1                     6.68635   1.57457   0.12166 
 1                     6.46331   0.01374   0.99748 
 1                     7.31575  -1.27349  -1.16689 
 1                     8.06201   0.38874  -1.74737 
 1                     9.06077   0.95626   0.48618 
 1                     8.98761  -0.68535   0.86413 
 1                     10.23375   0.22696  -1.56739 
 1                     9.23905  -2.16139  -2.03455 
 1                     11.23395  -2.12339  -1.86563 
 1                     10.1427  -2.91004  -0.80248 
 1                     11.30305   0.56107   0.46947 
 1                     11.50827  -1.08379   0.89043 
 1                     12.92358  -1.53307  -1.1911 
 1                     13.0273   0.18407  -1.60392 
 1                     13.96442   1.03881   0.55762 
 1                     14.11444  -0.70677   0.92291 
 1                     15.2944   0.23347  -1.51177 
 1                     16.02842  -2.40244   0.23666 
 1                     14.67416  -2.2256   -1.2174 
 1                     16.59915  -1.78632  -1.59276 
 1                     16.07801   1.4938    0.58217 
 1                     16.3933  -0.24289   1.38203 
 1                     18.37235  -0.38279  -0.46288 
 1                     17.97178   0.96053  -1.1362 
 1                     18.46805   2.42339   0.99385 
 1                     18.92749   0.85084   1.74846 
 1                     20.60413   0.36356  -0.25084 
 1                     20.15913   3.24448  -0.86787 
 1                     21.44396   2.23513  -1.34144 
 1                     19.95457   1.71832  -1.94275 
 1                     21.1061   1.22898   2.11595 
 1                     22.30783   1.86608   1.06756 
 1                     20.90902   2.90177   1.69343 
 
 Stoichiometry    C55H72MgN4O5
 Framework group  C1[X(C55H72MgN4O5)]
 Deg. of freedom   405
 Full point group                 C1      NOp   1
 Largest Abelian subgroup         C1      NOp   1
 Largest concise Abelian subgroup C1      NOp   1
                         Standard orientation:                         
 ---------------------------------------------------------------------
 Center     Atomic      Atomic             Coordinates (Angstroms)
 Number     Number       Type             X           Y           Z
 ---------------------------------------------------------------------
      1         12           0       -7.210994    0.614406    0.117431
      2          6           0       -4.930131   -1.957325    0.517346
      3          6           0       -4.811798    2.806697    0.968321
      4          6           0       -9.373808    3.145503   -0.291649
      5          6           0       -9.585651   -1.788526   -0.751713
      6          7           0       -5.170092    0.466167    0.639491
      7          6           0       -4.380795   -0.673914    0.767700
      8          6           0       -2.967119   -0.411930    1.109601
      9          6           0       -3.015585    1.064253    1.334994
     10          6           0       -4.470983    1.568408    0.945016
     11          6           0       -2.726441    1.392271    2.965555
     12          6           0       -1.938755   -0.758616   -0.075226
     13          6           0       -0.489950   -0.684641    0.373029
     14          6           0        0.528934   -0.677812   -0.725811
     15          8           0        0.259176   -1.091138   -1.735053
     16          8           0        1.856859   -0.423832   -0.259528
     17          7           0       -7.205846    2.687779    0.246276
     18          6           0       -6.095901    3.347458    0.670150
     19          6           0       -6.408577    4.721639    0.691610
     20          6           0       -7.828850    4.875067    0.461630
     21          6           0       -8.232624    3.456454    0.190048
     22          6           0       -5.459887    5.929676    1.005524
     23          6           0       -8.632420    5.988773    0.313407
     24          6           0       -8.361196    7.156496    0.852183
     25          7           0       -9.129953    0.624094   -0.543544
     26          6           0       -9.946837    1.784515   -0.615255
     27          6           0      -11.248252    1.508137   -1.078349
     28          6           0      -11.323339    0.087538   -1.146251
     29          6           0       -9.983036   -0.427185   -0.816639
     30          6           0      -12.297673    2.501405   -1.398964
     31          6           0      -12.381057   -0.792496   -1.613725
     32          6           0      -12.224671   -1.192196   -3.168686
     33          7           0       -7.382622   -1.454878   -0.019156
     34          6           0       -8.316239   -2.288838   -0.469292
     35          6           0       -7.925172   -3.635164   -0.406388
     36          6           0       -6.530904   -3.551786   -0.071373
     37          6           0       -6.249555   -2.240517    0.134357
     38          6           0       -8.660669   -4.894840   -0.718028
     39          6           0       -5.342447   -4.232284    0.233685
     40          8           0       -5.258841   -5.473264    0.128756
     41          6           0       -4.186612   -3.271698    0.577775
     42          6           0       -3.577883   -3.587750    1.799642
     43          8           0       -3.797526   -3.113459    2.932926
     44          8           0       -2.721227   -4.684896    1.694195
     45          6           0       -2.270439   -5.119740    2.997500
     46          6           0        2.912692   -0.579274   -1.252631
     47          6           0        4.211836   -0.342016   -0.490970
     48          6           0        5.225319    0.374116   -0.876286
     49          6           0        5.242352    1.364438   -2.139303
     50          6           0        6.528623    0.497907   -0.059657
     51          6           0        7.651852   -0.167318   -0.870109
     52          6           0        9.053194   -0.141719   -0.019314
     53          6           0       10.185641   -0.491082   -0.877046
     54          6           0       10.088597   -1.966240   -1.400602
     55          6           0       11.479253   -0.370720    0.034094
     56          6           0       12.801110   -0.407074   -0.713993
     57          6           0       13.966274   -0.120372    0.173544
     58          6           0       15.355666   -0.246381   -0.493457
     59          6           0       15.695768   -1.752420   -0.780067
     60          6           0       16.447228    0.459155    0.409059
     61          6           0       17.871763    0.546230   -0.141619
     62          6           0       18.784147    1.248633    0.782729
     63          6           0       20.200104    1.272995    0.278471
     64          6           0       20.432005    2.149396   -0.991693
     65          6           0       21.208721    1.824257    1.289733
     66          1           0       -3.987316    3.568125    1.112787
     67          1           0      -10.288419    3.852044   -0.461240
     68          1           0      -10.539006   -2.431612   -0.842019
     69          1           0       -2.602781   -1.017097    2.031989
     70          1           0       -2.276937    1.570445    0.601192
     71          1           0       -1.664811    0.936042    3.062758
     72          1           0       -2.702377    2.538905    3.130002
     73          1           0       -3.662143    0.858739    3.512504
     74          1           0       -2.270366   -1.766820   -0.524885
     75          1           0       -2.298413   -0.220752   -0.926840
     76          1           0       -0.231156    0.220723    0.982434
     77          1           0       -0.376728   -1.496298    1.066495
     78          1           0       -5.685519    6.760683    0.335433
     79          1           0       -5.375487    6.342480    1.964544
     80          1           0       -4.475892    5.611368    0.684303
     81          1           0       -9.679780    6.033648   -0.263103
     82          1           0       -9.104237    7.864655    0.669460
     83          1           0       -7.623467    7.321666    1.709795
     84          1           0      -12.159180    2.847001   -2.537563
     85          1           0      -13.232715    2.217720   -1.380174
     86          1           0      -12.109905    3.498438   -0.822089
     87          1           0      -12.138055   -1.653680   -0.877347
     88          1           0      -13.463374   -0.379161   -1.405727
     89          1           0      -13.293012   -1.728423   -3.142909
     90          1           0      -12.435934   -0.289336   -3.977262
     91          1           0      -11.317150   -1.796864   -3.503978
     92          1           0       -8.850415   -5.159718   -1.794830
     93          1           0       -8.094642   -5.760968   -0.359922
     94          1           0       -9.609844   -4.782981   -0.103432
     95          1           0       -3.553157   -3.443881   -0.309152
     96          1           0       -1.947057   -4.296893    3.523580
     97          1           0       -3.085315   -5.720882    3.472662
     98          1           0       -1.283721   -5.784548    2.752905
     99          1           0        2.923811   -1.539350   -1.543442
    100          1           0        2.599115    0.036264   -2.075483
    101          1           0        4.119291   -0.978389    0.411937
    102          1           0        4.298608    1.712375   -2.524480
    103          1           0        6.022741    2.229539   -1.992803
    104          1           0        5.851171    0.572233   -2.850028
    105          1           0        6.684967    1.568936    0.120298
    106          1           0        6.460351    0.009466    0.998128
    107          1           0        7.312082   -1.281384   -1.164361
    108          1           0        8.059947    0.379408   -1.746882
    109          1           0        9.058756    0.948987    0.486116
    110          1           0        8.984049   -0.692063    0.866228
    111          1           0       10.231507    0.215917   -1.566244
    112          1           0        9.234765   -2.172157   -2.030451
    113          1           0       11.229661   -2.135712   -1.861171
    114          1           0       10.137491   -2.919985   -0.797207
    115          1           0       11.300684    0.551766    0.470393
    116          1           0       11.504353   -1.092722    0.893570
    117          1           0       12.919679   -1.546015   -1.187069
    118          1           0       13.025021    0.170485   -1.602143
    119          1           0       13.962462    1.027240    0.558466
    120          1           0       14.110852   -0.717986    0.926089
    121          1           0       15.292151    0.217984   -1.509582
    122          1           0       16.023452   -2.416272    0.242479
    123          1           0       14.669650   -2.240147   -1.212095
    124          1           0       16.595108   -1.803084   -1.587639
    125          1           0       16.076458    1.480373    0.582853
    126          1           0       16.390032   -0.255540    1.385068
    127          1           0       18.369329   -0.399649   -0.459247
    128          1           0       17.970105    0.943146   -1.134422
    129          1           0       18.467239    2.408368    0.993791
    130          1           0       18.925120    0.836410    1.750580
    131          1           0       20.601729    0.344992   -0.247731
    132          1           0       20.159437    3.225487   -0.868661
    133          1           0       21.443460    2.214366   -1.340627
    134          1           0       19.953732    1.698097   -1.941567
    135          1           0       21.103988    1.213089    2.118016
    136          1           0       22.306509    1.847725    1.069034
    137          1           0       20.908495    2.885494    1.693244
 ---------------------------------------------------------------------
 Rotational constants (GHZ):      0.0657151      0.0060528      0.0056986
 Standard basis: 6-31G(d,p) (6D, 7F)
 There are  1339 symmetry adapted cartesian basis functions of A   symmetry.
 There are  1339 symmetry adapted basis functions of A   symmetry.
  1339 basis functions,  2348 primitive gaussians,  1339 cartesian basis functions
   241 alpha electrons      241 beta electrons
       nuclear repulsion energy      8748.3694201053 Hartrees.
 NAtoms=  137 NActive=  137 NUniq=  137 SFac= 1.00D+00 NAtFMM=   60 NAOKFM=T Big=T
 Integral buffers will be    131072 words long.
 Raffenetti 1 integral format.
 Two-electron integral symmetry is turned on.
 One-electron integrals computed using PRISM.
 NBasis=  1339 RedAO= T EigKep=  2.91D-04  NBF=  1339
 NBsUse=  1339 1.00D-06 EigRej= -1.00D+00 NBFU=  1339
 ExpMin= 4.21D-02 ExpMax= 1.17D+04 ExpMxC= 1.76D+03 IAcc=2 IRadAn=         4 AccDes= 0.00D+00
 Harris functional with IExCor=20419 and IRadAn=       4 diagonalized for initial guess.
 HarFok:  IExCor=20419 AccDes= 0.00D+00 IRadAn=         4 IDoV= 1 UseB2=F ITyADJ=14
 ICtDFT=  3500011 ScaDFX=  1.000000  1.000000  1.000000  1.000000
 FoFCou: FMM=F IPFlag=           0 FMFlag=      100000 FMFlg1=        2001
         NFxFlg=           0 DoJE=T BraDBF=F KetDBF=T FulRan=T
         wScrn=  0.000000 ICntrl=     500 IOpCl=  0 I1Cent=   200000004 NGrid=           0
         NMat0=    1 NMatS0=      1 NMatT0=    0 NMatD0=    1 NMtDS0=    0 NMtDT0=    0
 Petite list used in FoFCou.
 Requested convergence on RMS density matrix=1.00D-08 within 128 cycles.
 Requested convergence on MAX density matrix=1.00D-06.
 Requested convergence on             energy=1.00D-06.
 No special actions if energy rises.
 SCF Done:  E(RCAM-B3LYP) =  -2932.63123232     A.U. after   17 cycles
            NFock= 17  Conv=0.91D-08     -V/T= 2.0094
 DoSCS=F DFT=T ScalE2(SS,OS)=  1.000000  1.000000
 ExpMin= 4.21D-02 ExpMax= 1.17D+04 ExpMxC= 1.76D+03 IAcc=3 IRadAn=         5 AccDes= 0.00D+00
 HarFok:  IExCor=  205 AccDes= 0.00D+00 IRadAn=         5 IDoV=-2 UseB2=F ITyADJ=14
 ICtDFT= 12500011 ScaDFX=  1.000000  1.000000  1.000000  1.000000
 Range of M.O.s used for correlation:    70  1339
 NBasis=  1339 NAE=   241 NBE=   241 NFC=    69 NFV=     0
 NROrb=   1270 NOA=   172 NOB=   172 NVA=  1098 NVB=  1098
 Would need an additional       2415464100000 words for in-memory AO integral storage.
 Orbital symmetries:
       Occupied  (A) (A) (A) (A) (A) (A) (A) (A) (A) (A) (A) (A)
                 (A) (A) (A) (A) (A) (A) (A) (A) (A) (A) (A) (A)
                 (A) (A) (A) (A) (A) (A) (A) (A) (A) (A) (A) (A)
                 (A) (A) (A) (A) (A) (A) (A) (A) (A) (A) (A) (A)
                 (A) (A) (A) (A) (A) (A) (A) (A) (A) (A) (A) (A)
                 (A) (A) (A) (A) (A) (A) (A) (A) (A) (A) (A) (A)
                 (A) (A) (A) (A) (A) (A) (A) (A) (A) (A) (A) (A)
                 (A) (A) (A) (A) (A) (A) (A) (A) (A) (A) (A) (A)
                 (A) (A) (A) (A) (A) (A) (A) (A) (A) (A) (A) (A)
                 (A) (A) (A) (A) (A) (A) (A) (A) (A) (A) (A) (A)
                 (A) (A) (A) (A) (A) (A) (A) (A) (A) (A) (A) (A)
                 (A) (A) (A) (A) (A) (A) (A) (A) (A) (A) (A) (A)
                 (A) (A) (A) (A) (A) (A) (A) (A) (A) (A) (A) (A)
                 (A) (A) (A) (A) (A) (A) (A) (A) (A) (A) (A) (A)
                 (A) (A) (A) (A) (A) (A) (A) (A) (A) (A) (A) (A)
                 (A) (A) (A) (A) (A) (A) (A) (A) (A) (A) (A) (A)
                 (A) (A) (A) (A) (A) (A) (A) (A) (A) (A) (A) (A)
                 (A) (A) (A) (A) (A) (A) (A) (A) (A) (A) (A) (A)
                 (A) (A) (A) (A) (A) (A) (A) (A) (A) (A) (A) (A)
                 (A) (A) (A) (A) (A) (A) (A) (A) (A) (A) (A) (A)
                 (A)
       Virtual   (A) (A) (A) (A) (A) (A) (A) (A) (A) (A) (A) (A)
                 (A) (A) (A) (A) (A) (A) (A) (A) (A) (A) (A) (A)
                 (A) (A) (A) (A) (A) (A) (A) (A) (A) (A) (A) (A)
                 (A) (A) (A) (A) (A) (A) (A) (A) (A) (A) (A) (A)
                 (A) (A) (A) (A) (A) (A) (A) (A) (A) (A) (A) (A)
                 (A) (A) (A) (A) (A) (A) (A) (A) (A) (A) (A) (A)
                 (A) (A) (A) (A) (A) (A) (A) (A) (A) (A) (A) (A)
                 (A) (A) (A) (A) (A) (A) (A) (A) (A) (A) (A) (A)
                 (A) (A) (A) (A) (A) (A) (A) (A) (A) (A) (A) (A)
                 (A) (A) (A) (A) (A) (A) (A) (A) (A) (A) (A) (A)
                 (A) (A) (A) (A) (A) (A) (A) (A) (A) (A) (A) (A)
                 (A) (A) (A) (A) (A) (A) (A) (A) (A) (A) (A) (A)
                 (A) (A) (A) (A) (A) (A) (A) (A) (A) (A) (A) (A)
                 (A) (A) (A) (A) (A) (A) (A) (A) (A) (A) (A) (A)
                 (A) (A) (A) (A) (A) (A) (A) (A) (A) (A) (A) (A)
                 (A) (A) (A) (A) (A) (A) (A) (A) (A) (A) (A) (A)
                 (A) (A) (A) (A) (A) (A) (A) (A) (A) (A) (A) (A)
                 (A) (A) (A) (A) (A) (A) (A) (A) (A) (A) (A) (A)
                 (A) (A) (A) (A) (A) (A) (A) (A) (A) (A) (A) (A)
                 (A) (A) (A) (A) (A) (A) (A) (A) (A) (A) (A) (A)
                 (A) (A) (A) (A) (A) (A) (A) (A) (A) (A) (A) (A)
                 (A) (A) (A) (A) (A) (A) (A) (A) (A) (A) (A) (A)
                 (A) (A) (A) (A) (A) (A) (A) (A) (A) (A) (A) (A)
                 (A) (A) (A) (A) (A) (A) (A) (A) (A) (A) (A) (A)
                 (A) (A) (A) (A) (A) (A) (A) (A) (A) (A) (A) (A)
                 (A) (A) (A) (A) (A) (A) (A) (A) (A) (A) (A) (A)
                 (A) (A) (A) (A) (A) (A) (A) (A) (A) (A) (A) (A)
                 (A) (A) (A) (A) (A) (A) (A) (A) (A) (A) (A) (A)
                 (A) (A) (A) (A) (A) (A) (A) (A) (A) (A) (A) (A)
                 (A) (A) (A) (A) (A) (A) (A) (A) (A) (A) (A) (A)
                 (A) (A) (A) (A) (A) (A) (A) (A) (A) (A) (A) (A)
                 (A) (A) (A) (A) (A) (A) (A) (A) (A) (A) (A) (A)
                 (A) (A) (A) (A) (A) (A) (A) (A) (A) (A) (A) (A)
                 (A) (A) (A) (A) (A) (A) (A) (A) (A) (A) (A) (A)
                 (A) (A) (A) (A) (A) (A) (A) (A) (A) (A) (A) (A)
                 (A) (A) (A) (A) (A) (A) (A) (A) (A) (A) (A) (A)
                 (A) (A) (A) (A) (A) (A) (A) (A) (A) (A) (A) (A)
                 (A) (A) (A) (A) (A) (A) (A) (A) (A) (A) (A) (A)
                 (A) (A) (A) (A) (A) (A) (A) (A) (A) (A) (A) (A)
                 (A) (A) (A) (A) (A) (A) (A) (A) (A) (A) (A) (A)
                 (A) (A) (A) (A) (A) (A) (A) (A) (A) (A) (A) (A)
                 (A) (A) (A) (A) (A) (A) (A) (A) (A) (A) (A) (A)
                 (A) (A) (A) (A) (A) (A) (A) (A) (A) (A) (A) (A)
                 (A) (A) (A) (A) (A) (A) (A) (A) (A) (A) (A) (A)
                 (A) (A) (A) (A) (A) (A) (A) (A) (A) (A) (A) (A)
                 (A) (A) (A) (A) (A) (A) (A) (A) (A) (A) (A) (A)
                 (A) (A) (A) (A) (A) (A) (A) (A) (A) (A) (A) (A)
                 (A) (A) (A) (A) (A) (A) (A) (A) (A) (A) (A) (A)
                 (A) (A) (A) (A) (A) (A) (A) (A) (A) (A) (A) (A)
                 (A) (A) (A) (A) (A) (A) (A) (A) (A) (A) (A) (A)
                 (A) (A) (A) (A) (A) (A) (A) (A) (A) (A) (A) (A)
                 (A) (A) (A) (A) (A) (A) (A) (A) (A) (A) (A) (A)
                 (A) (A) (A) (A) (A) (A) (A) (A) (A) (A) (A) (A)
                 (A) (A) (A) (A) (A) (A) (A) (A) (A) (A) (A) (A)
                 (A) (A) (A) (A) (A) (A) (A) (A) (A) (A) (A) (A)
                 (A) (A) (A) (A) (A) (A) (A) (A) (A) (A) (A) (A)
                 (A) (A) (A) (A) (A) (A) (A) (A) (A) (A) (A) (A)
                 (A) (A) (A) (A) (A) (A) (A) (A) (A) (A) (A) (A)
                 (A) (A) (A) (A) (A) (A) (A) (A) (A) (A) (A) (A)
                 (A) (A) (A) (A) (A) (A) (A) (A) (A) (A) (A) (A)
                 (A) (A) (A) (A) (A) (A) (A) (A) (A) (A) (A) (A)
                 (A) (A) (A) (A) (A) (A) (A) (A) (A) (A) (A) (A)
                 (A) (A) (A) (A) (A) (A) (A) (A) (A) (A) (A) (A)
                 (A) (A) (A) (A) (A) (A) (A) (A) (A) (A) (A) (A)
                 (A) (A) (A) (A) (A) (A) (A) (A) (A) (A) (A) (A)
                 (A) (A) (A) (A) (A) (A) (A) (A) (A) (A) (A) (A)
                 (A) (A) (A) (A) (A) (A) (A) (A) (A) (A) (A) (A)
                 (A) (A) (A) (A) (A) (A) (A) (A) (A) (A) (A) (A)
                 (A) (A) (A) (A) (A) (A) (A) (A) (A) (A) (A) (A)
                 (A) (A) (A) (A) (A) (A) (A) (A) (A) (A) (A) (A)
                 (A) (A) (A) (A) (A) (A) (A) (A) (A) (A) (A) (A)
                 (A) (A) (A) (A) (A) (A) (A) (A) (A) (A) (A) (A)
                 (A) (A) (A) (A) (A) (A) (A) (A) (A) (A) (A) (A)
                 (A) (A) (A) (A) (A) (A) (A) (A) (A) (A) (A) (A)
                 (A) (A) (A) (A) (A) (A) (A) (A) (A) (A) (A) (A)
                 (A) (A) (A) (A) (A) (A) (A) (A) (A) (A) (A) (A)
                 (A) (A) (A) (A) (A) (A) (A) (A) (A) (A) (A) (A)
                 (A) (A) (A) (A) (A) (A) (A) (A) (A) (A) (A) (A)
                 (A) (A) (A) (A) (A) (A) (A) (A) (A) (A) (A) (A)
                 (A) (A) (A) (A) (A) (A) (A) (A) (A) (A) (A) (A)
                 (A) (A) (A) (A) (A) (A) (A) (A) (A) (A) (A) (A)
                 (A) (A) (A) (A) (A) (A) (A) (A) (A) (A) (A) (A)
                 (A) (A) (A) (A) (A) (A) (A) (A) (A) (A) (A) (A)
                 (A) (A) (A) (A) (A) (A) (A) (A) (A) (A) (A) (A)
                 (A) (A) (A) (A) (A) (A) (A) (A) (A) (A) (A) (A)
                 (A) (A) (A) (A) (A) (A) (A) (A) (A) (A) (A) (A)
                 (A) (A) (A) (A) (A) (A) (A) (A) (A) (A) (A) (A)
                 (A) (A) (A) (A) (A) (A) (A) (A) (A) (A) (A) (A)
                 (A) (A) (A) (A) (A) (A) (A) (A) (A) (A) (A) (A)
                 (A) (A) (A) (A) (A) (A) (A) (A) (A) (A) (A) (A)
                 (A) (A) (A) (A) (A) (A) (A) (A) (A) (A) (A) (A)
                 (A) (A) (A) (A) (A) (A)
     8 initial guesses have been made.
 Convergence on wavefunction:    0.001000000000000
 Iteration     1 Dimension     8 NMult     0 NNew      8
 CISAX will form     8 AO SS matrices at one time.
 Iteration     2 Dimension    12 NMult     8 NNew      4
 Iteration     3 Dimension    16 NMult    12 NNew      4
 Iteration     4 Dimension    20 NMult    16 NNew      4
 Iteration     5 Dimension    24 NMult    20 NNew      4
 Iteration     6 Dimension    28 NMult    24 NNew      4
 Iteration     7 Dimension    32 NMult    28 NNew      4
 ***********************************************************************
 Excited states from <AA,BB:AA,BB> singles matrix:
 ***********************************************************************
 
 Ground to excited state transition densities written to RWF  633
 Ground to excited state transition electric dipole moments (Au):
       state          X           Y           Z        Dip. S.      Osc.
         1         1.1577     -2.1223      0.1146      5.8575      0.3018
 Ground to excited state transition velocity dipole moments (Au):
       state          X           Y           Z        Dip. S.      Osc.
         1        -0.0849      0.1597     -0.0079      0.0328      0.2828
 Ground to excited state transition magnetic dipole moments (Au):
       state          X           Y           Z
         1         0.4101     -0.0236     -3.5194
 Ground to excited state transition velocity quadrupole moments (Au):
       state          XX          YY          ZZ          XY          XZ          YZ
         1         2.2301      0.2239      0.0307     -2.1073      0.1769      0.1491
 <0|del|b> * <b|rxdel|0> + <0|del|b> * <b|delr+rdel|0>
 Rotatory Strengths (R) in cgs (10**-40 erg-esu-cm/Gauss)
       state          XX          YY          ZZ    R(velocity)    E-M Angle
         1        56.1511   -166.4595     10.5937    -33.2382       90.97
 1/2[<0|r|b>*<b|rxdel|0> + (<0|rxdel|b>*<b|r|0>)*]
 Rotatory Strengths (R) in cgs (10**-40 erg-esu-cm/Gauss)
       state          XX          YY          ZZ     R(length)
         1      -335.7440    -35.3559    285.2560    -28.6146
  1/2[<0|del|b>*<b|r|0> + (<0|r|b>*<b|del|0>)*] (Au)
       state          X           Y           Z        Dip. S.   Osc.(frdel)
         1        -0.0983     -0.3390     -0.0009      0.4382      0.2921

 Excitation energies and oscillator strengths:
 
 Excited State   1:      Singlet-A      2.1028 eV  589.61 nm  f=0.3018  <S**2>=0.000
     240 -> 242       -0.17126
     240 -> 243        0.21054
     241 -> 242        0.63266
     241 -> 243        0.13280
 This state for optimization and/or second-order correction.
 Total Energy, E(TD-HF/TD-KS) =  -2932.55395578    
 Copying the excited state density for this state as the 1-particle RhoCI density.
 SavETr:  write IOETrn=   770 NScale= 10 NData=  16 NLR=1 NState=    1 LETran=      28.

 **********************************************************************

            Population analysis using the SCF density.

 **********************************************************************

 Orbital symmetries:
       Occupied  (A) (A) (A) (A) (A) (A) (A) (A) (A) (A) (A) (A)
                 (A) (A) (A) (A) (A) (A) (A) (A) (A) (A) (A) (A)
                 (A) (A) (A) (A) (A) (A) (A) (A) (A) (A) (A) (A)
                 (A) (A) (A) (A) (A) (A) (A) (A) (A) (A) (A) (A)
                 (A) (A) (A) (A) (A) (A) (A) (A) (A) (A) (A) (A)
                 (A) (A) (A) (A) (A) (A) (A) (A) (A) (A) (A) (A)
                 (A) (A) (A) (A) (A) (A) (A) (A) (A) (A) (A) (A)
                 (A) (A) (A) (A) (A) (A) (A) (A) (A) (A) (A) (A)
                 (A) (A) (A) (A) (A) (A) (A) (A) (A) (A) (A) (A)
                 (A) (A) (A) (A) (A) (A) (A) (A) (A) (A) (A) (A)
                 (A) (A) (A) (A) (A) (A) (A) (A) (A) (A) (A) (A)
                 (A) (A) (A) (A) (A) (A) (A) (A) (A) (A) (A) (A)
                 (A) (A) (A) (A) (A) (A) (A) (A) (A) (A) (A) (A)
                 (A) (A) (A) (A) (A) (A) (A) (A) (A) (A) (A) (A)
                 (A) (A) (A) (A) (A) (A) (A) (A) (A) (A) (A) (A)
                 (A) (A) (A) (A) (A) (A) (A) (A) (A) (A) (A) (A)
                 (A) (A) (A) (A) (A) (A) (A) (A) (A) (A) (A) (A)
                 (A) (A) (A) (A) (A) (A) (A) (A) (A) (A) (A) (A)
                 (A) (A) (A) (A) (A) (A) (A) (A) (A) (A) (A) (A)
                 (A) (A) (A) (A) (A) (A) (A) (A) (A) (A) (A) (A)
                 (A)
       Virtual   (A) (A) (A) (A) (A) (A) (A) (A) (A) (A) (A) (A)
                 (A) (A) (A) (A) (A) (A) (A) (A) (A) (A) (A) (A)
                 (A) (A) (A) (A) (A) (A) (A) (A) (A) (A) (A) (A)
                 (A) (A) (A) (A) (A) (A) (A) (A) (A) (A) (A) (A)
                 (A) (A) (A) (A) (A) (A) (A) (A) (A) (A) (A) (A)
                 (A) (A) (A) (A) (A) (A) (A) (A) (A) (A) (A) (A)
                 (A) (A) (A) (A) (A) (A) (A) (A) (A) (A) (A) (A)
                 (A) (A) (A) (A) (A) (A) (A) (A) (A) (A) (A) (A)
                 (A) (A) (A) (A) (A) (A) (A) (A) (A) (A) (A) (A)
                 (A) (A) (A) (A) (A) (A) (A) (A) (A) (A) (A) (A)
                 (A) (A) (A) (A) (A) (A) (A) (A) (A) (A) (A) (A)
                 (A) (A) (A) (A) (A) (A) (A) (A) (A) (A) (A) (A)
                 (A) (A) (A) (A) (A) (A) (A) (A) (A) (A) (A) (A)
                 (A) (A) (A) (A) (A) (A) (A) (A) (A) (A) (A) (A)
                 (A) (A) (A) (A) (A) (A) (A) (A) (A) (A) (A) (A)
                 (A) (A) (A) (A) (A) (A) (A) (A) (A) (A) (A) (A)
                 (A) (A) (A) (A) (A) (A) (A) (A) (A) (A) (A) (A)
                 (A) (A) (A) (A) (A) (A) (A) (A) (A) (A) (A) (A)
                 (A) (A) (A) (A) (A) (A) (A) (A) (A) (A) (A) (A)
                 (A) (A) (A) (A) (A) (A) (A) (A) (A) (A) (A) (A)
                 (A) (A) (A) (A) (A) (A) (A) (A) (A) (A) (A) (A)
                 (A) (A) (A) (A) (A) (A) (A) (A) (A) (A) (A) (A)
                 (A) (A) (A) (A) (A) (A) (A) (A) (A) (A) (A) (A)
                 (A) (A) (A) (A) (A) (A) (A) (A) (A) (A) (A) (A)
                 (A) (A) (A) (A) (A) (A) (A) (A) (A) (A) (A) (A)
                 (A) (A) (A) (A) (A) (A) (A) (A) (A) (A) (A) (A)
                 (A) (A) (A) (A) (A) (A) (A) (A) (A) (A) (A) (A)
                 (A) (A) (A) (A) (A) (A) (A) (A) (A) (A) (A) (A)
                 (A) (A) (A) (A) (A) (A) (A) (A) (A) (A) (A) (A)
                 (A) (A) (A) (A) (A) (A) (A) (A) (A) (A) (A) (A)
                 (A) (A) (A) (A) (A) (A) (A) (A) (A) (A) (A) (A)
                 (A) (A) (A) (A) (A) (A) (A) (A) (A) (A) (A) (A)
                 (A) (A) (A) (A) (A) (A) (A) (A) (A) (A) (A) (A)
                 (A) (A) (A) (A) (A) (A) (A) (A) (A) (A) (A) (A)
                 (A) (A) (A) (A) (A) (A) (A) (A) (A) (A) (A) (A)
                 (A) (A) (A) (A) (A) (A) (A) (A) (A) (A) (A) (A)
                 (A) (A) (A) (A) (A) (A) (A) (A) (A) (A) (A) (A)
                 (A) (A) (A) (A) (A) (A) (A) (A) (A) (A) (A) (A)
                 (A) (A) (A) (A) (A) (A) (A) (A) (A) (A) (A) (A)
                 (A) (A) (A) (A) (A) (A) (A) (A) (A) (A) (A) (A)
                 (A) (A) (A) (A) (A) (A) (A) (A) (A) (A) (A) (A)
                 (A) (A) (A) (A) (A) (A) (A) (A) (A) (A) (A) (A)
                 (A) (A) (A) (A) (A) (A) (A) (A) (A) (A) (A) (A)
                 (A) (A) (A) (A) (A) (A) (A) (A) (A) (A) (A) (A)
                 (A) (A) (A) (A) (A) (A) (A) (A) (A) (A) (A) (A)
                 (A) (A) (A) (A) (A) (A) (A) (A) (A) (A) (A) (A)
                 (A) (A) (A) (A) (A) (A) (A) (A) (A) (A) (A) (A)
                 (A) (A) (A) (A) (A) (A) (A) (A) (A) (A) (A) (A)
                 (A) (A) (A) (A) (A) (A) (A) (A) (A) (A) (A) (A)
                 (A) (A) (A) (A) (A) (A) (A) (A) (A) (A) (A) (A)
                 (A) (A) (A) (A) (A) (A) (A) (A) (A) (A) (A) (A)
                 (A) (A) (A) (A) (A) (A) (A) (A) (A) (A) (A) (A)
                 (A) (A) (A) (A) (A) (A) (A) (A) (A) (A) (A) (A)
                 (A) (A) (A) (A) (A) (A) (A) (A) (A) (A) (A) (A)
                 (A) (A) (A) (A) (A) (A) (A) (A) (A) (A) (A) (A)
                 (A) (A) (A) (A) (A) (A) (A) (A) (A) (A) (A) (A)
                 (A) (A) (A) (A) (A) (A) (A) (A) (A) (A) (A) (A)
                 (A) (A) (A) (A) (A) (A) (A) (A) (A) (A) (A) (A)
                 (A) (A) (A) (A) (A) (A) (A) (A) (A) (A) (A) (A)
                 (A) (A) (A) (A) (A) (A) (A) (A) (A) (A) (A) (A)
                 (A) (A) (A) (A) (A) (A) (A) (A) (A) (A) (A) (A)
                 (A) (A) (A) (A) (A) (A) (A) (A) (A) (A) (A) (A)
                 (A) (A) (A) (A) (A) (A) (A) (A) (A) (A) (A) (A)
                 (A) (A) (A) (A) (A) (A) (A) (A) (A) (A) (A) (A)
                 (A) (A) (A) (A) (A) (A) (A) (A) (A) (A) (A) (A)
                 (A) (A) (A) (A) (A) (A) (A) (A) (A) (A) (A) (A)
                 (A) (A) (A) (A) (A) (A) (A) (A) (A) (A) (A) (A)
                 (A) (A) (A) (A) (A) (A) (A) (A) (A) (A) (A) (A)
                 (A) (A) (A) (A) (A) (A) (A) (A) (A) (A) (A) (A)
                 (A) (A) (A) (A) (A) (A) (A) (A) (A) (A) (A) (A)
                 (A) (A) (A) (A) (A) (A) (A) (A) (A) (A) (A) (A)
                 (A) (A) (A) (A) (A) (A) (A) (A) (A) (A) (A) (A)
                 (A) (A) (A) (A) (A) (A) (A) (A) (A) (A) (A) (A)
                 (A) (A) (A) (A) (A) (A) (A) (A) (A) (A) (A) (A)
                 (A) (A) (A) (A) (A) (A) (A) (A) (A) (A) (A) (A)
                 (A) (A) (A) (A) (A) (A) (A) (A) (A) (A) (A) (A)
                 (A) (A) (A) (A) (A) (A) (A) (A) (A) (A) (A) (A)
                 (A) (A) (A) (A) (A) (A) (A) (A) (A) (A) (A) (A)
                 (A) (A) (A) (A) (A) (A) (A) (A) (A) (A) (A) (A)
                 (A) (A) (A) (A) (A) (A) (A) (A) (A) (A) (A) (A)
                 (A) (A) (A) (A) (A) (A) (A) (A) (A) (A) (A) (A)
                 (A) (A) (A) (A) (A) (A) (A) (A) (A) (A) (A) (A)
                 (A) (A) (A) (A) (A) (A) (A) (A) (A) (A) (A) (A)
                 (A) (A) (A) (A) (A) (A) (A) (A) (A) (A) (A) (A)
                 (A) (A) (A) (A) (A) (A) (A) (A) (A) (A) (A) (A)
                 (A) (A) (A) (A) (A) (A) (A) (A) (A) (A) (A) (A)
                 (A) (A) (A) (A) (A) (A) (A) (A) (A) (A) (A) (A)
                 (A) (A) (A) (A) (A) (A) (A) (A) (A) (A) (A) (A)
                 (A) (A) (A) (A) (A) (A) (A) (A) (A) (A) (A) (A)
                 (A) (A) (A) (A) (A) (A) (A) (A) (A) (A) (A) (A)
                 (A) (A) (A) (A) (A) (A) (A) (A) (A) (A) (A) (A)
                 (A) (A) (A) (A) (A) (A)
 The electronic state is 1-A.
 Alpha  occ. eigenvalues --  -46.84477 -19.25083 -19.24111 -19.22028 -19.20494
 Alpha  occ. eigenvalues --  -19.18814 -14.41264 -14.39448 -14.39313 -14.38352
 Alpha  occ. eigenvalues --  -10.38897 -10.38586 -10.34087 -10.30928 -10.30834
 Alpha  occ. eigenvalues --  -10.30654 -10.30012 -10.29879 -10.29816 -10.28889
 Alpha  occ. eigenvalues --  -10.28871 -10.28829 -10.28782 -10.28684 -10.28388
 Alpha  occ. eigenvalues --  -10.28356 -10.28261 -10.28163 -10.28159 -10.28070
 Alpha  occ. eigenvalues --  -10.28034 -10.27943 -10.27821 -10.27790 -10.27784
 Alpha  occ. eigenvalues --  -10.27712 -10.27676 -10.27651 -10.27349 -10.27347
 Alpha  occ. eigenvalues --  -10.27182 -10.26982 -10.26878 -10.26699 -10.26580
 Alpha  occ. eigenvalues --  -10.26557 -10.26548 -10.26209 -10.26183 -10.26179
 Alpha  occ. eigenvalues --  -10.26117 -10.26111 -10.26020 -10.25934 -10.25528
 Alpha  occ. eigenvalues --  -10.25454 -10.25371 -10.25305 -10.25301 -10.24957
 Alpha  occ. eigenvalues --  -10.24865 -10.24537 -10.24361 -10.24212 -10.23844
 Alpha  occ. eigenvalues --   -3.13422  -1.88143  -1.87640  -1.87607  -1.19935
 Alpha  occ. eigenvalues --   -1.16117  -1.09809  -1.08638  -1.06807  -1.06217
 Alpha  occ. eigenvalues --   -1.04468  -1.03498  -1.01297  -0.94204  -0.91127
 Alpha  occ. eigenvalues --   -0.90588  -0.90385  -0.90066  -0.89663  -0.89377
 Alpha  occ. eigenvalues --   -0.88366  -0.88225  -0.87536  -0.86512  -0.85520
 Alpha  occ. eigenvalues --   -0.85072  -0.84391  -0.84285  -0.83153  -0.82828
 Alpha  occ. eigenvalues --   -0.81280  -0.80777  -0.80270  -0.78586  -0.78104
 Alpha  occ. eigenvalues --   -0.76940  -0.76727  -0.75853  -0.75443  -0.75257
 Alpha  occ. eigenvalues --   -0.74926  -0.74554  -0.73693  -0.73254  -0.72746
 Alpha  occ. eigenvalues --   -0.71970  -0.70683  -0.69219  -0.69136  -0.68775
 Alpha  occ. eigenvalues --   -0.67965  -0.66808  -0.65751  -0.65160  -0.64783
 Alpha  occ. eigenvalues --   -0.64335  -0.63603  -0.62792  -0.62735  -0.62033
 Alpha  occ. eigenvalues --   -0.61266  -0.60551  -0.60409  -0.60023  -0.59135
 Alpha  occ. eigenvalues --   -0.58845  -0.58224  -0.57985  -0.57426  -0.57193
 Alpha  occ. eigenvalues --   -0.56105  -0.55536  -0.54867  -0.54506  -0.54454
 Alpha  occ. eigenvalues --   -0.54317  -0.53582  -0.53333  -0.53190  -0.52961
 Alpha  occ. eigenvalues --   -0.52674  -0.52324  -0.52080  -0.52008  -0.51759
 Alpha  occ. eigenvalues --   -0.51524  -0.51205  -0.50897  -0.50677  -0.50526
 Alpha  occ. eigenvalues --   -0.50090  -0.49863  -0.49719  -0.49477  -0.49165
 Alpha  occ. eigenvalues --   -0.48876  -0.48797  -0.48680  -0.48339  -0.48058
 Alpha  occ. eigenvalues --   -0.47942  -0.47853  -0.47416  -0.47077  -0.46692
 Alpha  occ. eigenvalues --   -0.46424  -0.46314  -0.46254  -0.46145  -0.45984
 Alpha  occ. eigenvalues --   -0.45945  -0.45723  -0.45406  -0.45082  -0.45007
 Alpha  occ. eigenvalues --   -0.44986  -0.44563  -0.44217  -0.43967  -0.43848
 Alpha  occ. eigenvalues --   -0.43653  -0.43606  -0.43500  -0.43405  -0.43026
 Alpha  occ. eigenvalues --   -0.42975  -0.42680  -0.42551  -0.42446  -0.42381
 Alpha  occ. eigenvalues --   -0.42347  -0.41517  -0.41476  -0.41318  -0.41307
 Alpha  occ. eigenvalues --   -0.41055  -0.40928  -0.40522  -0.40326  -0.40184
 Alpha  occ. eigenvalues --   -0.39853  -0.39823  -0.39703  -0.39261  -0.39073
 Alpha  occ. eigenvalues --   -0.38960  -0.38630  -0.38224  -0.38080  -0.37847
 Alpha  occ. eigenvalues --   -0.37648  -0.37448  -0.37023  -0.36516  -0.36471
 Alpha  occ. eigenvalues --   -0.36157  -0.36062  -0.35729  -0.35664  -0.35528
 Alpha  occ. eigenvalues --   -0.35068  -0.34918  -0.34029  -0.33748  -0.33550
 Alpha  occ. eigenvalues --   -0.33286  -0.33038  -0.32992  -0.31017  -0.29999
 Alpha  occ. eigenvalues --   -0.29250  -0.28335  -0.27613  -0.27021  -0.23778
 Alpha  occ. eigenvalues --   -0.21465
 Alpha virt. eigenvalues --   -0.06837  -0.03899   0.01490   0.03910   0.04912
 Alpha virt. eigenvalues --    0.05982   0.06411   0.06959   0.07787   0.08252
 Alpha virt. eigenvalues --    0.08748   0.10205   0.10548   0.10893   0.11155
 Alpha virt. eigenvalues --    0.11726   0.12100   0.12383   0.12743   0.13074
 Alpha virt. eigenvalues --    0.13447   0.13668   0.13744   0.14051   0.14314
 Alpha virt. eigenvalues --    0.14389   0.14557   0.14848   0.15120   0.15342
 Alpha virt. eigenvalues --    0.15525   0.15572   0.15668   0.16100   0.16347
 Alpha virt. eigenvalues --    0.16601   0.16643   0.16838   0.17061   0.17189
 Alpha virt. eigenvalues --    0.17420   0.17493   0.17667   0.17750   0.17899
 Alpha virt. eigenvalues --    0.18046   0.18125   0.18658   0.18699   0.18782
 Alpha virt. eigenvalues --    0.19103   0.19503   0.19546   0.19672   0.19933
 Alpha virt. eigenvalues --    0.20051   0.20318   0.20388   0.20536   0.20616
 Alpha virt. eigenvalues --    0.20950   0.21080   0.21322   0.21381   0.21516
 Alpha virt. eigenvalues --    0.21605   0.21720   0.21916   0.22126   0.22188
 Alpha virt. eigenvalues --    0.22505   0.22636   0.22822   0.23418   0.23576
 Alpha virt. eigenvalues --    0.23827   0.23988   0.24103   0.24301   0.24336
 Alpha virt. eigenvalues --    0.24545   0.24916   0.25111   0.25287   0.25359
 Alpha virt. eigenvalues --    0.25506   0.25747   0.25950   0.26326   0.26743
 Alpha virt. eigenvalues --    0.26825   0.27006   0.27112   0.27265   0.27388
 Alpha virt. eigenvalues --    0.27598   0.27686   0.27779   0.28064   0.28228
 Alpha virt. eigenvalues --    0.28490   0.28619   0.28993   0.29189   0.29368
 Alpha virt. eigenvalues --    0.29631   0.29731   0.29841   0.30051   0.30301
 Alpha virt. eigenvalues --    0.30428   0.30701   0.30996   0.31155   0.31292
 Alpha virt. eigenvalues --    0.31395   0.31672   0.31892   0.32440   0.32542
 Alpha virt. eigenvalues --    0.33066   0.33411   0.33616   0.34062   0.34416
 Alpha virt. eigenvalues --    0.34926   0.34972   0.35557   0.35873   0.35951
 Alpha virt. eigenvalues --    0.36796   0.36884   0.37475   0.38039   0.38865
 Alpha virt. eigenvalues --    0.39570   0.39878   0.40674   0.40892   0.41407
 Alpha virt. eigenvalues --    0.41744   0.41842   0.42450   0.42714   0.43027
 Alpha virt. eigenvalues --    0.43355   0.43946   0.44401   0.45853   0.46708
 Alpha virt. eigenvalues --    0.46931   0.47929   0.48717   0.49333   0.50253
 Alpha virt. eigenvalues --    0.51669   0.51882   0.51937   0.52184   0.52727
 Alpha virt. eigenvalues --    0.52872   0.53111   0.53890   0.54310   0.54399
 Alpha virt. eigenvalues --    0.54922   0.55570   0.55800   0.56019   0.56060
 Alpha virt. eigenvalues --    0.56278   0.56643   0.56850   0.57129   0.57204
 Alpha virt. eigenvalues --    0.57559   0.57605   0.57981   0.58003   0.58169
 Alpha virt. eigenvalues --    0.58575   0.58784   0.58891   0.59199   0.59473
 Alpha virt. eigenvalues --    0.59628   0.59922   0.59969   0.60039   0.60396
 Alpha virt. eigenvalues --    0.60536   0.60693   0.60916   0.60968   0.61290
 Alpha virt. eigenvalues --    0.61424   0.61943   0.62222   0.62266   0.62467
 Alpha virt. eigenvalues --    0.62995   0.63276   0.63363   0.63526   0.63892
 Alpha virt. eigenvalues --    0.64025   0.64384   0.64764   0.65108   0.65153
 Alpha virt. eigenvalues --    0.65582   0.65836   0.65998   0.66084   0.66660
 Alpha virt. eigenvalues --    0.66842   0.67175   0.67427   0.67618   0.67767
 Alpha virt. eigenvalues --    0.67846   0.68067   0.68575   0.69000   0.69299
 Alpha virt. eigenvalues --    0.69602   0.69880   0.69954   0.70213   0.70440
 Alpha virt. eigenvalues --    0.70773   0.70953   0.71108   0.71255   0.71839
 Alpha virt. eigenvalues --    0.72173   0.72573   0.72915   0.73063   0.73222
 Alpha virt. eigenvalues --    0.73385   0.73929   0.74226   0.74728   0.74908
 Alpha virt. eigenvalues --    0.75019   0.75098   0.75246   0.75778   0.75881
 Alpha virt. eigenvalues --    0.76132   0.76238   0.76430   0.76831   0.77118
 Alpha virt. eigenvalues --    0.77282   0.77719   0.77925   0.78321   0.78449
 Alpha virt. eigenvalues --    0.78462   0.78957   0.79235   0.79358   0.79538
 Alpha virt. eigenvalues --    0.79957   0.80055   0.80480   0.80550   0.80880
 Alpha virt. eigenvalues --    0.80912   0.81105   0.81206   0.81737   0.82086
 Alpha virt. eigenvalues --    0.82497   0.82778   0.82847   0.83101   0.83232
 Alpha virt. eigenvalues --    0.83381   0.83732   0.83790   0.83928   0.83945
 Alpha virt. eigenvalues --    0.84301   0.84700   0.85111   0.85116   0.85353
 Alpha virt. eigenvalues --    0.85555   0.85764   0.85927   0.86027   0.86174
 Alpha virt. eigenvalues --    0.86469   0.86544   0.86605   0.86970   0.87144
 Alpha virt. eigenvalues --    0.87871   0.87918   0.88048   0.88209   0.88306
 Alpha virt. eigenvalues --    0.88840   0.88916   0.89154   0.89244   0.89350
 Alpha virt. eigenvalues --    0.89374   0.89695   0.90031   0.90104   0.90336
 Alpha virt. eigenvalues --    0.90539   0.90648   0.90949   0.91026   0.91264
 Alpha virt. eigenvalues --    0.91516   0.91631   0.91989   0.92136   0.92690
 Alpha virt. eigenvalues --    0.92865   0.93049   0.93321   0.93476   0.93846
 Alpha virt. eigenvalues --    0.93936   0.94479   0.94520   0.94602   0.94726
 Alpha virt. eigenvalues --    0.95019   0.95268   0.95606   0.95632   0.95737
 Alpha virt. eigenvalues --    0.96004   0.96133   0.96216   0.96266   0.96387
 Alpha virt. eigenvalues --    0.96963   0.97027   0.97348   0.97402   0.97754
 Alpha virt. eigenvalues --    0.98000   0.98384   0.98523   0.98698   0.99070
 Alpha virt. eigenvalues --    0.99105   0.99231   0.99573   0.99899   1.00058
 Alpha virt. eigenvalues --    1.00459   1.00818   1.00849   1.00949   1.01050
 Alpha virt. eigenvalues --    1.01262   1.01657   1.02030   1.02204   1.02468
 Alpha virt. eigenvalues --    1.02597   1.02759   1.02839   1.03054   1.03289
 Alpha virt. eigenvalues --    1.03589   1.03831   1.03932   1.04465   1.04474
 Alpha virt. eigenvalues --    1.04847   1.05089   1.05250   1.05410   1.05688
 Alpha virt. eigenvalues --    1.05960   1.06001   1.06296   1.06667   1.06771
 Alpha virt. eigenvalues --    1.06952   1.07209   1.07460   1.08864   1.09296
 Alpha virt. eigenvalues --    1.09372   1.09787   1.10124   1.10570   1.10670
 Alpha virt. eigenvalues --    1.11134   1.11807   1.12003   1.12236   1.12770
 Alpha virt. eigenvalues --    1.13496   1.13878   1.14243   1.15424   1.15793
 Alpha virt. eigenvalues --    1.15984   1.16271   1.16655   1.17159   1.17608
 Alpha virt. eigenvalues --    1.17752   1.19006   1.19576   1.19784   1.20387
 Alpha virt. eigenvalues --    1.20660   1.21760   1.22169   1.22711   1.23168
 Alpha virt. eigenvalues --    1.23905   1.23979   1.24337   1.24764   1.25686
 Alpha virt. eigenvalues --    1.25823   1.26112   1.26784   1.26998   1.27435
 Alpha virt. eigenvalues --    1.27528   1.27987   1.28992   1.29326   1.29803
 Alpha virt. eigenvalues --    1.30755   1.31185   1.31822   1.31930   1.32379
 Alpha virt. eigenvalues --    1.32892   1.33434   1.34224   1.34520   1.34893
 Alpha virt. eigenvalues --    1.35087   1.36246   1.36510   1.36913   1.37226
 Alpha virt. eigenvalues --    1.37878   1.38690   1.39643   1.39968   1.40194
 Alpha virt. eigenvalues --    1.40424   1.41082   1.42009   1.42089   1.42594
 Alpha virt. eigenvalues --    1.43197   1.43469   1.44418   1.44517   1.44614
 Alpha virt. eigenvalues --    1.45166   1.45855   1.46359   1.46824   1.47805
 Alpha virt. eigenvalues --    1.48179   1.48480   1.49033   1.49462   1.50376
 Alpha virt. eigenvalues --    1.50789   1.51149   1.51658   1.52310   1.52517
 Alpha virt. eigenvalues --    1.52644   1.52804   1.53446   1.54221   1.54243
 Alpha virt. eigenvalues --    1.54363   1.54970   1.55303   1.55538   1.56033
 Alpha virt. eigenvalues --    1.56348   1.57199   1.57488   1.58630   1.59328
 Alpha virt. eigenvalues --    1.59525   1.59952   1.60333   1.61191   1.61610
 Alpha virt. eigenvalues --    1.61785   1.62291   1.62298   1.62753   1.63058
 Alpha virt. eigenvalues --    1.64073   1.64648   1.64806   1.65078   1.65402
 Alpha virt. eigenvalues --    1.65897   1.66381   1.66685   1.66984   1.67412
 Alpha virt. eigenvalues --    1.67573   1.68004   1.68643   1.68990   1.69263
 Alpha virt. eigenvalues --    1.70147   1.70743   1.71180   1.71533   1.71685
 Alpha virt. eigenvalues --    1.71945   1.72437   1.73353   1.73638   1.73868
 Alpha virt. eigenvalues --    1.74034   1.74124   1.74532   1.75135   1.75236
 Alpha virt. eigenvalues --    1.75674   1.76411   1.76473   1.77035   1.77539
 Alpha virt. eigenvalues --    1.77695   1.78312   1.79017   1.79062   1.79258
 Alpha virt. eigenvalues --    1.79628   1.80874   1.81004   1.81254   1.81471
 Alpha virt. eigenvalues --    1.82014   1.82415   1.82451   1.83453   1.83991
 Alpha virt. eigenvalues --    1.84257   1.84512   1.84759   1.85308   1.85452
 Alpha virt. eigenvalues --    1.86019   1.86307   1.86633   1.86951   1.87101
 Alpha virt. eigenvalues --    1.87492   1.87813   1.87977   1.88623   1.88814
 Alpha virt. eigenvalues --    1.89185   1.89246   1.89402   1.89561   1.90004
 Alpha virt. eigenvalues --    1.90106   1.90307   1.90457   1.90812   1.90947
 Alpha virt. eigenvalues --    1.91071   1.91255   1.91831   1.91966   1.92356
 Alpha virt. eigenvalues --    1.92625   1.92773   1.93016   1.93219   1.93577
 Alpha virt. eigenvalues --    1.93932   1.94443   1.94713   1.95039   1.95052
 Alpha virt. eigenvalues --    1.95165   1.95385   1.95642   1.95787   1.96143
 Alpha virt. eigenvalues --    1.96482   1.96649   1.96757   1.96837   1.97140
 Alpha virt. eigenvalues --    1.97220   1.97855   1.98041   1.98063   1.98125
 Alpha virt. eigenvalues --    1.98493   1.98586   1.99118   1.99241   1.99606
 Alpha virt. eigenvalues --    1.99685   1.99713   2.00318   2.00499   2.01038
 Alpha virt. eigenvalues --    2.01213   2.01513   2.01782   2.02391   2.02483
 Alpha virt. eigenvalues --    2.02925   2.03325   2.03583   2.03915   2.03968
 Alpha virt. eigenvalues --    2.04801   2.05276   2.05495   2.05675   2.05741
 Alpha virt. eigenvalues --    2.06000   2.06225   2.06344   2.06912   2.07159
 Alpha virt. eigenvalues --    2.07612   2.07758   2.07989   2.08307   2.08833
 Alpha virt. eigenvalues --    2.08881   2.08928   2.10027   2.10475   2.10735
 Alpha virt. eigenvalues --    2.10828   2.10976   2.11251   2.11376   2.11457
 Alpha virt. eigenvalues --    2.12015   2.12291   2.12365   2.12533   2.12563
 Alpha virt. eigenvalues --    2.12824   2.12890   2.13259   2.13665   2.14115
 Alpha virt. eigenvalues --    2.14225   2.14583   2.14902   2.15005   2.15323
 Alpha virt. eigenvalues --    2.15525   2.15990   2.16438   2.16931   2.17679
 Alpha virt. eigenvalues --    2.17939   2.18098   2.18884   2.19390   2.19834
 Alpha virt. eigenvalues --    2.20091   2.20275   2.20880   2.21093   2.21241
 Alpha virt. eigenvalues --    2.21583   2.21718   2.21916   2.22315   2.22524
 Alpha virt. eigenvalues --    2.22736   2.23033   2.23670   2.24131   2.24520
 Alpha virt. eigenvalues --    2.24881   2.25515   2.25688   2.25980   2.26059
 Alpha virt. eigenvalues --    2.26549   2.26618   2.27153   2.27396   2.27604
 Alpha virt. eigenvalues --    2.28089   2.28204   2.28361   2.28871   2.29030
 Alpha virt. eigenvalues --    2.29333   2.29601   2.30180   2.30614   2.30726
 Alpha virt. eigenvalues --    2.30814   2.31305   2.31761   2.31965   2.32164
 Alpha virt. eigenvalues --    2.32324   2.32452   2.32702   2.32860   2.33505
 Alpha virt. eigenvalues --    2.34176   2.34293   2.34670   2.34889   2.35285
 Alpha virt. eigenvalues --    2.35981   2.36361   2.36495   2.37004   2.37668
 Alpha virt. eigenvalues --    2.37821   2.38007   2.38170   2.38747   2.38872
 Alpha virt. eigenvalues --    2.39075   2.39631   2.39796   2.40024   2.40597
 Alpha virt. eigenvalues --    2.40749   2.41570   2.41722   2.42233   2.42317
 Alpha virt. eigenvalues --    2.42796   2.43072   2.43225   2.43314   2.44066
 Alpha virt. eigenvalues --    2.44251   2.44598   2.44978   2.45013   2.45669
 Alpha virt. eigenvalues --    2.45910   2.46083   2.46380   2.46575   2.46672
 Alpha virt. eigenvalues --    2.47231   2.47261   2.47873   2.48389   2.48662
 Alpha virt. eigenvalues --    2.49274   2.49458   2.49813   2.50515   2.50553
 Alpha virt. eigenvalues --    2.50664   2.51124   2.51432   2.51547   2.51661
 Alpha virt. eigenvalues --    2.51921   2.52380   2.52492   2.52785   2.53332
 Alpha virt. eigenvalues --    2.53543   2.53986   2.54191   2.54431   2.54746
 Alpha virt. eigenvalues --    2.55091   2.55753   2.56114   2.56643   2.56717
 Alpha virt. eigenvalues --    2.57095   2.57804   2.58035   2.58795   2.58901
 Alpha virt. eigenvalues --    2.59494   2.59765   2.60095   2.60577   2.60674
 Alpha virt. eigenvalues --    2.61418   2.61615   2.61795   2.62762   2.63119
 Alpha virt. eigenvalues --    2.63558   2.63697   2.63879   2.64081   2.64463
 Alpha virt. eigenvalues --    2.65077   2.65315   2.65571   2.65625   2.66045
 Alpha virt. eigenvalues --    2.66182   2.66939   2.67231   2.68008   2.68331
 Alpha virt. eigenvalues --    2.68699   2.68907   2.69081   2.69550   2.69626
 Alpha virt. eigenvalues --    2.70128   2.70494   2.71284   2.71300   2.71517
 Alpha virt. eigenvalues --    2.72071   2.72501   2.72573   2.72989   2.73416
 Alpha virt. eigenvalues --    2.73616   2.73817   2.74130   2.74244   2.74474
 Alpha virt. eigenvalues --    2.74559   2.75703   2.76018   2.76107   2.76288
 Alpha virt. eigenvalues --    2.76496   2.76932   2.77577   2.77638   2.77840
 Alpha virt. eigenvalues --    2.77936   2.78200   2.78354   2.78724   2.78926
 Alpha virt. eigenvalues --    2.79135   2.80014   2.80217   2.80469   2.80645
 Alpha virt. eigenvalues --    2.81304   2.82084   2.82146   2.82243   2.82742
 Alpha virt. eigenvalues --    2.83016   2.83190   2.83494   2.83685   2.83927
 Alpha virt. eigenvalues --    2.84128   2.84273   2.84693   2.84719   2.85368
 Alpha virt. eigenvalues --    2.85464   2.85841   2.86257   2.86966   2.87444
 Alpha virt. eigenvalues --    2.87538   2.88055   2.88336   2.88993   2.89334
 Alpha virt. eigenvalues --    2.89500   2.89745   2.90157   2.91071   2.91153
 Alpha virt. eigenvalues --    2.91399   2.91994   2.92205   2.92520   2.92686
 Alpha virt. eigenvalues --    2.93058   2.93349   2.93905   2.94030   2.94092
 Alpha virt. eigenvalues --    2.94981   2.95077   2.95786   2.95972   2.96277
 Alpha virt. eigenvalues --    2.96353   2.96802   2.97216   2.97859   2.98085
 Alpha virt. eigenvalues --    2.98259   2.98717   2.98875   2.99769   3.00838
 Alpha virt. eigenvalues --    3.01510   3.01714   3.02385   3.02532   3.03034
 Alpha virt. eigenvalues --    3.03301   3.03914   3.03944   3.04421   3.05160
 Alpha virt. eigenvalues --    3.06111   3.06941   3.07395   3.07565   3.08427
 Alpha virt. eigenvalues --    3.08458   3.08618   3.09323   3.09863   3.10697
 Alpha virt. eigenvalues --    3.11182   3.12831   3.13389   3.13787   3.14301
 Alpha virt. eigenvalues --    3.14897   3.16497   3.16805   3.16903   3.17506
 Alpha virt. eigenvalues --    3.18666   3.19168   3.19502   3.20298   3.21985
 Alpha virt. eigenvalues --    3.22761   3.23113   3.23481   3.24451   3.25579
 Alpha virt. eigenvalues --    3.25710   3.26443   3.27470   3.28203   3.28963
 Alpha virt. eigenvalues --    3.29305   3.29596   3.29938   3.30467   3.32072
 Alpha virt. eigenvalues --    3.32432   3.33638   3.34077   3.34285   3.34985
 Alpha virt. eigenvalues --    3.36219   3.36335   3.36762   3.37171   3.37351
 Alpha virt. eigenvalues --    3.37856   3.38374   3.38529   3.39422   3.39894
 Alpha virt. eigenvalues --    3.40827   3.41369   3.42199   3.42430   3.42887
 Alpha virt. eigenvalues --    3.42923   3.43705   3.43940   3.45298   3.46464
 Alpha virt. eigenvalues --    3.47080   3.47509   3.47575   3.48312   3.50497
 Alpha virt. eigenvalues --    3.50891   3.50983   3.51108   3.52690   3.53779
 Alpha virt. eigenvalues --    3.54376   3.54799   3.54831   3.55067   3.55918
 Alpha virt. eigenvalues --    3.58551   3.58906   3.60282   3.60580   3.60601
 Alpha virt. eigenvalues --    3.60689   3.62181   3.63849   3.64257   3.64663
 Alpha virt. eigenvalues --    3.66861   3.67044   3.67437   3.70270   3.70490
 Alpha virt. eigenvalues --    3.76517   3.80604   3.80791   3.87521   4.09069
 Alpha virt. eigenvalues --    4.10951   4.15296   4.18700   4.21859   4.23321
 Alpha virt. eigenvalues --    4.25038   4.25330   4.25660   4.26553   4.28648
 Alpha virt. eigenvalues --    4.29858   4.30994   4.31434   4.32324   4.35972
 Alpha virt. eigenvalues --    4.36592   4.38142   4.38744   4.39526   4.39766
 Alpha virt. eigenvalues --    4.40505   4.42858   4.43055   4.44729   4.46275
 Alpha virt. eigenvalues --    4.46753   4.48516   4.49501   4.49583   4.50507
 Alpha virt. eigenvalues --    4.51426   4.51714   4.52159   4.53595   4.55771
 Alpha virt. eigenvalues --    4.57017   4.57685   4.58366   4.60247   4.60919
 Alpha virt. eigenvalues --    4.61289   4.61738   4.62948   4.64050   4.66228
 Alpha virt. eigenvalues --    4.66630   4.68276   4.70110   4.71569   4.72291
 Alpha virt. eigenvalues --    4.72756   4.75720   4.76066   4.79697   4.79985
 Alpha virt. eigenvalues --    4.83648   4.85310   4.87486   4.88925   4.89679
 Alpha virt. eigenvalues --    4.90952   4.95480   5.06893
          Condensed to atoms (all electrons):
 Mulliken charges:
               1
     1  Mg   0.807952
     2  C    0.027094
     3  C   -0.215625
     4  C   -0.165296
     5  C   -0.175495
     6  N   -0.681386
     7  C    0.312181
     8  C   -0.147802
     9  C   -0.168182
    10  C    0.406198
    11  C   -0.297151
    12  C   -0.189637
    13  C   -0.266555
    14  C    0.586377
    15  O   -0.378779
    16  O   -0.539340
    17  N   -0.713863
    18  C    0.332681
    19  C   -0.027595
    20  C    0.039247
    21  C    0.355489
    22  C   -0.373000
    23  C   -0.105297
    24  C   -0.227840
    25  N   -0.682315
    26  C    0.228443
    27  C    0.057003
    28  C    0.017747
    29  C    0.292383
    30  C   -0.361718
    31  C   -0.256642
    32  C   -0.287281
    33  N   -0.715957
    34  C    0.284555
    35  C    0.030834
    36  C    0.054192
    37  C    0.292156
    38  C   -0.372570
    39  C    0.295469
    40  O   -0.487734
    41  C   -0.307715
    42  C    0.653737
    43  O   -0.504366
    44  O   -0.477250
    45  C   -0.067009
    46  C    0.028670
    47  C   -0.146912
    48  C    0.100483
    49  C   -0.341274
    50  C   -0.215323
    51  C   -0.180621
    52  C   -0.181494
    53  C   -0.040359
    54  C   -0.311869
    55  C   -0.177790
    56  C   -0.173546
    57  C   -0.143534
    58  C   -0.082879
    59  C   -0.282245
    60  C   -0.152095
    61  C   -0.187411
    62  C   -0.134203
    63  C   -0.069674
    64  C   -0.310352
    65  C   -0.311432
    66  H    0.089642
    67  H    0.079167
    68  H    0.094869
    69  H    0.127931
    70  H    0.097049
    71  H    0.108770
    72  H    0.104868
    73  H    0.122567
    74  H    0.101402
    75  H    0.118484
    76  H    0.124098
    77  H    0.152350
    78  H    0.127689
    79  H    0.131933
    80  H    0.107511
    81  H    0.098440
    82  H    0.095651
    83  H    0.108958
    84  H    0.105193
    85  H    0.126234
    86  H    0.103544
    87  H    0.105693
    88  H    0.100290
    89  H    0.097613
    90  H    0.095637
    91  H    0.125516
    92  H    0.127227
    93  H    0.153607
    94  H    0.110610
    95  H    0.185329
    96  H    0.141512
    97  H    0.134038
    98  H    0.094498
    99  H    0.128742
   100  H    0.111307
   101  H    0.099629
   102  H    0.126118
   103  H    0.106764
   104  H    0.107443
   105  H    0.105666
   106  H    0.095003
   107  H    0.089100
   108  H    0.098467
   109  H    0.060167
   110  H    0.101358
   111  H    0.101125
   112  H    0.106505
   113  H    0.070129
   114  H    0.106290
   115  H    0.098501
   116  H    0.096093
   117  H    0.059433
   118  H    0.100065
   119  H    0.063746
   120  H    0.101793
   121  H    0.075705
   122  H    0.070245
   123  H    0.086062
   124  H    0.089390
   125  H    0.095886
   126  H    0.072565
   127  H    0.091481
   128  H    0.105563
   129  H    0.067322
   130  H    0.100211
   131  H    0.087722
   132  H    0.090769
   133  H    0.102475
   134  H    0.074657
   135  H    0.103697
   136  H    0.102684
   137  H    0.085722
 Sum of Mulliken charges =   0.00000
 Mulliken charges with hydrogens summed into heavy atoms:
               1
     1  Mg   0.807952
     2  C    0.027094
     3  C   -0.125983
     4  C   -0.086129
     5  C   -0.080625
     6  N   -0.681386
     7  C    0.312181
     8  C   -0.019871
     9  C   -0.071132
    10  C    0.406198
    11  C    0.039054
    12  C    0.030249
    13  C    0.009892
    14  C    0.586377
    15  O   -0.378779
    16  O   -0.539340
    17  N   -0.713863
    18  C    0.332681
    19  C   -0.027595
    20  C    0.039247
    21  C    0.355489
    22  C   -0.005867
    23  C   -0.006858
    24  C   -0.023231
    25  N   -0.682315
    26  C    0.228443
    27  C    0.057003
    28  C    0.017747
    29  C    0.292383
    30  C   -0.026747
    31  C   -0.050658
    32  C    0.031485
    33  N   -0.715957
    34  C    0.284555
    35  C    0.030834
    36  C    0.054192
    37  C    0.292156
    38  C    0.018873
    39  C    0.295469
    40  O   -0.487734
    41  C   -0.122385
    42  C    0.653737
    43  O   -0.504366
    44  O   -0.477250
    45  C    0.303040
    46  C    0.268719
    47  C   -0.047284
    48  C    0.100483
    49  C   -0.000949
    50  C   -0.014654
    51  C    0.006946
    52  C   -0.019970
    53  C    0.060766
    54  C   -0.028945
    55  C    0.016804
    56  C   -0.014048
    57  C    0.022005
    58  C   -0.007174
    59  C   -0.036547
    60  C    0.016356
    61  C    0.009633
    62  C    0.033330
    63  C    0.018048
    64  C   -0.042451
    65  C   -0.019329
 Electronic spatial extent (au):  <R**2>=         180699.2395
 Charge=              0.0000 electrons
 Dipole moment (field-independent basis, Debye):
    X=              0.0046    Y=              5.9929    Z=             -0.4416  Tot=              6.0092
 Quadrupole moment (field-independent basis, Debye-Ang):
   XX=           -323.4088   YY=           -399.1073   ZZ=           -400.3629
   XY=            -31.3023   XZ=             12.7107   YZ=              0.0648
 Traceless Quadrupole moment (field-independent basis, Debye-Ang):
   XX=             50.8842   YY=            -24.8143   ZZ=            -26.0699
   XY=            -31.3023   XZ=             12.7107   YZ=              0.0648
 Octapole moment (field-independent basis, Debye-Ang**2):
  XXX=           -759.4550  YYY=            183.5395  ZZZ=              8.2949  XYY=            -78.6986
  XXY=            172.5710  XXZ=           -187.9488  XZZ=             -7.3483  YZZ=            -22.3177
  YYZ=             49.7642  XYZ=            -45.1062
 Hexadecapole moment (field-independent basis, Debye-Ang**3):
 XXXX=        -213796.7369 YYYY=         -17634.5031 ZZZZ=          -4027.6426 XXXY=          -1913.2269
 XXXZ=           1518.4504 YYYX=          -1335.0054 YYYZ=            -34.2915 ZZZX=             52.2850
 ZZZY=           -118.6836 XXYY=         -40924.3991 XXZZ=         -39401.1597 YYZZ=          -3455.8864
 XXYZ=            -28.2222 YYXZ=             -9.4184 ZZXY=             48.6031
 N-N= 8.748369420105D+03 E-N=-2.431954727520D+04  KE= 2.905273781810D+03
 1\1\GINC-PEDRO-RYZENSSD\SP\RCAM-B3LYP TD-FC\6-31G(d,p)\C55H72Mg1N4O5\P
 ADAWAN\06-Jul-2019\0\\# td=(NStates=1) CAM-B3LYP/6-31G(d,p)\\TD\\0,1\M
 g,0,-7.2087514481,0.6076195101,0.1203897264\C,0,-4.9255071687,-1.96259
 74381,0.5164381765\C,0,-4.811341063,2.8009285402,0.9736837333\C,0,-9.3
 739121267,3.1373192274,-0.2849013498\C,0,-9.5814384575,-1.7962851395,-
 0.7514415733\N,0,-5.1676101856,0.4605158697,0.6418346018\C,0,-4.377267
 4328,-0.6790277248,0.7683748607\C,0,-2.9637553809,-0.4162310488,1.1103
 313873\C,0,-3.0134947879,1.0596086292,1.3376844991\C,0,-4.4694239373,1
 .5629770465,0.9486718971\C,0,-2.7243075129,1.3857308612,2.9686182707\C
 ,0,-1.9353269937,-0.7604313045,-0.0751635581\C,0,-0.4864960722,-0.6857
 529225,0.3728914184\C,0,0.5321543526,-0.676561169,-0.7261479953\O,0,0.
 2625574958,-1.088794287,-1.7358799197\O,0,1.8599478053,-0.4220095974,-
 0.2598027692\N,0,-7.205430991,2.6808236722,0.2519738929\C,0,-6.0959888
 779,3.3409350693,0.6764911827\C,0,-6.4098882419,4.71480577,0.699830670
 3\C,0,-7.8303457416,4.8672673582,0.4703454258\C,0,-8.2329075624,3.4486
 540607,0.1969722435\C,0,-5.4622141781,5.9232747934,1.0151462751\C,0,-8
 .6349412917,5.9804490786,0.3237593613\C,0,-8.3646503563,7.1477008887,0
 .8640226521\N,0,-9.1278550581,0.6164645076,-0.5401780515\C,0,-9.945790
 8388,1.7762475779,-0.6101873428\C,0,-11.247053802,1.4993182709,-1.0733
 790574\C,0,-11.3208844923,0.0787432384,-1.1431430283\C,0,-9.9800536861
 ,-0.4352154958,-0.8144864647\C,0,-12.2974285666,2.492069778,-1.3924660
 214\C,0,-12.3779123375,-0.8016175719,-1.6115619647\C,0,-12.2214896374,
 -1.1991223234,-3.1670818268\N,0,-7.378557324,-1.4616357772,-0.01889656
 67\C,0,-8.3115213919,-2.2958347556,-0.4699419494\C,0,-7.9192380694,-3.
 6418924567,-0.4088981671\C,0,-6.5249763817,-3.557710108,-0.0740591378\
 C,0,-6.2447570721,-2.2464629276,0.1333461388\C,0,-8.6536728347,-4.9018
 130237,-0.7220506835\C,0,-5.3358480551,-4.2375476383,0.2298558582\O,0,
 -5.2511539533,-5.4783123146,0.1232693576\C,0,-4.1808016596,-3.27638342
 81,0.574977363\C,0,-3.5715377847,-3.5935045718,1.7963000029\O,0,-3.791
 3707377,-3.1209088271,2.9302557067\O,0,-2.713922586,-4.6897436968,1.68
 92275037\C,0,-2.2624768356,-5.1259068198,2.9918641219\C,0,2.9157140831
 ,-0.5751953141,-1.2533265331\C,0,4.2148035694,-0.3377819545,-0.4916193
 109\C,0,5.227566241,0.3797642418,-0.8761973924\C,0,5.2434527683,1.3717
 698263,-2.1379079561\C,0,6.5309274255,0.5036422144,-0.0596724524\C,0,7
 .6545829962,-0.1595062975,-0.8712340739\C,0,9.0560774803,-0.1337785083
 ,-0.0206938822\C,0,10.1886594904,-0.4809951712,-0.8791188824\C,0,10.09
 28259828,-1.9555464907,-1.4046039254\C,0,11.482351112,-0.3606798488,0.
 03191406\C,0,12.8040853162,-0.3948635375,-0.7164916721\C,0,13.96917638
 6,-0.108292032,0.1711841859\C,0,15.3585419791,-0.2321769468,-0.4962678
 666\C,0,15.6999316621,-1.7375313869,-0.7849381115\C,0,16.4496590718,0.
 4731416742,0.4069552027\C,0,17.8740019896,0.5622176202,-0.1439002046\C
 ,0,18.7859489644,1.2642146385,0.7811885519\C,0,20.2017788471,1.2905093
 844,0.2766724304\C,0,20.4326346173,2.1687951767,-0.9923802307\C,0,21.2
 10111942,1.84133707,1.2884542088\H,0,-3.9875102355,3.5629018116,1.1189
 864855\H,0,-10.2891893116,3.8432651615,-0.4533707286\H,0,-10.534236713
 1,-2.4401033511,-0.8424008923\H,0,-2.5986863255,-1.022290543,2.0318438
 756\H,0,-2.2754511503,1.5674303256,0.6044010905\H,0,-1.6622506826,0.93
 03234852,3.0650002135\H,0,-2.7012351835,2.5321672742,3.134575623\H,0,-
 3.6594193846,0.850639748,3.5150539182\H,0,-2.2661290978,-1.7683367941,
 -0.5260865179\H,0,-2.2956412366,-0.2217649261,-0.9259926389\H,0,-0.228
 386356,0.2190365176,0.983438743\H,0,-0.3724050425,-1.4982243376,1.0652
 604812\H,0,-5.6887276482,6.7549641405,0.3462003292\H,0,-5.3779847879,6
 .3348868518,1.9746937665\H,0,-4.4780017562,5.6062717936,0.6933025059\H
 ,0,-9.6824602985,6.025148663,-0.2524754757\H,0,-9.1083620521,7.8554362
 825,0.6823878606\H,0,-7.626892155,7.3123976393,1.7217005556\H,0,-12.15
 94800531,2.8392942554,-2.5306360683\H,0,-13.2322128905,2.2075246437,-1
 .3738585774\H,0,-12.1104327744,3.4885075055,-0.8143126753\H,0,-12.1339
 881772,-1.6635558007,-0.8763725922\H,0,-13.4605547744,-0.3895256894,-1
 .4027958071\H,0,-13.2893452871,-1.73633832,-3.1417940639\H,0,-12.43372
 69369,-0.295384076,-3.9744209378\H,0,-11.3134976291,-1.8025351206,-3.5
 033589559\H,0,-8.8434039434,-5.1654372866,-1.7991631804\H,0,-8.0867980
 446,-5.7679067949,-0.3652061336\H,0,-9.6028201669,-4.7916141827,-0.107
 1125339\H,0,-3.5473754334,-3.4468279335,-0.3123065022\H,0,-1.939722138
 7,-4.3034667864,3.5189648118\H,0,-3.0767172803,-5.728404458,3.46639947
 88\H,0,-1.2752156331,-5.789508224,2.7461885718\H,0,2.9276320673,-1.534
 8753234,-1.5454085059\H,0,2.6014176194,0.0411483944,-2.0753006823\H,0,
 4.1230132069,-0.9754297582,0.4104642624\H,0,4.2993188954,1.7193706475,
 -2.5224306128\H,0,6.0230977215,2.2373739963,-1.9904255108\H,0,5.852832
 5909,0.5810492124,-2.8498037114\H,0,6.686350698,1.5745714571,0.1216648
 093\H,0,6.4633104504,0.0137433369,0.9974794646\H,0,7.3157489596,-1.273
 4865839,-1.1668880124\H,0,8.0620086368,0.3887420823,-1.7473676604\H,0,
 9.0607681284,0.9562635114,0.4861762498\H,0,8.9876072494,-0.6853540416,
 0.8641342771\H,0,10.2337509265,0.2269552332,-1.5673916287\H,0,9.239048
 8904,-2.1613941159,-2.0345493797\H,0,11.2339459503,-2.1233891228,-1.86
 5630807\H,0,10.1426971557,-2.9100429463,-0.8024796877\H,0,11.303047985
 7,0.561068337,0.4694684343\H,0,11.5082738808,-1.0837943407,0.890429664
 6\H,0,12.9235756765,-1.5330714683,-1.1910967773\H,0,13.0272964821,0.18
 40690979,-1.6039237537\H,0,13.9644178785,1.0388064366,0.5576231053\H,0
 ,14.1144441975,-0.7067702817,0.9229088074\H,0,15.2944027288,0.23347283
 23,-1.5117655346\H,0,16.0284202849,-2.4024405362,0.2366622123\H,0,14.6
 741604667,-2.2256049361,-1.217399155\H,0,16.5991495444,-1.7863241573,-
 1.5927607456\H,0,16.078013002,1.4937972134,0.5821747618\H,0,16.3933037
 776,-0.2428934644,1.3820309643\H,0,18.3723481735,-0.3827948269,-0.4628
 796284\H,0,17.9717842429,0.9605333722,-1.1361971955\H,0,18.4680475974,
 2.4233864963,0.99384739\H,0,18.9274899093,0.8508392649,1.7484648468\H,
 0,20.6041253252,0.3635625045,-0.2508380198\H,0,20.1591300196,3.2444780
 097,-0.8678703804\H,0,21.443958648,2.2351301658,-1.3414355069\H,0,19.9
 545693613,1.7183236432,-1.9427512441\H,0,21.1060965849,1.2289810072,2.
 1159512123\H,0,22.3078324895,1.8660778375,1.0675617225\H,0,20.90902063
 2,2.9017702603,1.6934297835\\Version=ES64L-G09RevD.01\State=1-A\HF=-29
 32.6312323\RMSD=9.087e-09\PG=C01 [X(C55H72Mg1N4O5)]\\@


 REALITY IS FOR PEOPLE WHO CAN'T FACE SCIENCE FICTION.
 Job cpu time:       0 days  7 hours  1 minutes 20.3 seconds.
 File lengths (MBytes):  RWF=   2106 Int=      0 D2E=      0 Chk=    163 Scr=      1
 Normal termination of Gaussian 09 at Sat Jul  6 15:40:50 2019.
