 Entering Gaussian System, Link 0=g16
 Input=Geometria-136-.com
 Output=Geometria-136-.log
 Initial command:
<<<<<<< HEAD
 /usr/local/g16/l1.exe "/home/padawan/israel-mol/chlorophyll-a/spectra/emi/Gau-29722.inp" -scrdir="/home/padawan/israel-mol/chlorophyll-a/spectra/emi/"
 Entering Link 1 = /usr/local/g16/l1.exe PID=     29724.
  
 Copyright (c) 1988,1990,1992,1993,1995,1998,2003,2009,2016,
            Gaussian, Inc.  All Rights Reserved.
  
 This is part of the Gaussian(R) 16 program.  It is based on
 the Gaussian(R) 09 system (copyright 2009, Gaussian, Inc.),
=======
 /usr/local/g09/l1.exe "/home/padawan/israel-mol/chlorophyll-a/spectra/emi/Gau-113436.inp" -scrdir="/home/padawan/israel-mol/chlorophyll-a/spectra/emi/"
 Entering Link 1 = /usr/local/g09/l1.exe PID=    113438.
  
 Copyright (c) 1988,1990,1992,1993,1995,1998,2003,2009,2013,
            Gaussian, Inc.  All Rights Reserved.
  
 This is part of the Gaussian(R) 09 program.  It is based on
>>>>>>> 8e03b5b5abfc0030b3aa597dc0de36371bfbd096
 the Gaussian(R) 03 system (copyright 2003, Gaussian, Inc.),
 the Gaussian(R) 98 system (copyright 1998, Gaussian, Inc.),
 the Gaussian(R) 94 system (copyright 1995, Gaussian, Inc.),
 the Gaussian 92(TM) system (copyright 1992, Gaussian, Inc.),
 the Gaussian 90(TM) system (copyright 1990, Gaussian, Inc.),
 the Gaussian 88(TM) system (copyright 1988, Gaussian, Inc.),
 the Gaussian 86(TM) system (copyright 1986, Carnegie Mellon
 University), and the Gaussian 82(TM) system (copyright 1983,
 Carnegie Mellon University). Gaussian is a federally registered
 trademark of Gaussian, Inc.
  
 This software contains proprietary and confidential information,
 including trade secrets, belonging to Gaussian, Inc.
  
 This software is provided under written license and may be
 used, copied, transmitted, or stored only in accord with that
 written license.
  
 The following legend is applicable only to US Government
 contracts under FAR:
  
                    RESTRICTED RIGHTS LEGEND
  
 Use, reproduction and disclosure by the US Government is
 subject to restrictions as set forth in subparagraphs (a)
 and (c) of the Commercial Computer Software - Restricted
 Rights clause in FAR 52.227-19.
  
 Gaussian, Inc.
 340 Quinnipiac St., Bldg. 40, Wallingford CT 06492
  
  
 ---------------------------------------------------------------
 Warning -- This program may not be used in any manner that
 competes with the business of Gaussian, Inc. or will provide
 assistance to any competitor of Gaussian, Inc.  The licensee
 of this program is prohibited from giving any competitor of
 Gaussian, Inc. access to this program.  By using this program,
 the user acknowledges that Gaussian, Inc. is engaged in the
 business of creating and licensing software in the field of
 computational chemistry and represents and warrants to the
 licensee that it is not a competitor of Gaussian, Inc. and that
 it will not use this program in any manner prohibited above.
 ---------------------------------------------------------------
  

 Cite this work as:
<<<<<<< HEAD
 Gaussian 16, Revision A.03,
 M. J. Frisch, G. W. Trucks, H. B. Schlegel, G. E. Scuseria, 
 M. A. Robb, J. R. Cheeseman, G. Scalmani, V. Barone, 
 G. A. Petersson, H. Nakatsuji, X. Li, M. Caricato, A. V. Marenich, 
 J. Bloino, B. G. Janesko, R. Gomperts, B. Mennucci, H. P. Hratchian, 
 J. V. Ortiz, A. F. Izmaylov, J. L. Sonnenberg, D. Williams-Young, 
 F. Ding, F. Lipparini, F. Egidi, J. Goings, B. Peng, A. Petrone, 
 T. Henderson, D. Ranasinghe, V. G. Zakrzewski, J. Gao, N. Rega, 
 G. Zheng, W. Liang, M. Hada, M. Ehara, K. Toyota, R. Fukuda, 
 J. Hasegawa, M. Ishida, T. Nakajima, Y. Honda, O. Kitao, H. Nakai, 
 T. Vreven, K. Throssell, J. A. Montgomery, Jr., J. E. Peralta, 
 F. Ogliaro, M. J. Bearpark, J. J. Heyd, E. N. Brothers, K. N. Kudin, 
 V. N. Staroverov, T. A. Keith, R. Kobayashi, J. Normand, 
 K. Raghavachari, A. P. Rendell, J. C. Burant, S. S. Iyengar, 
 J. Tomasi, M. Cossi, J. M. Millam, M. Klene, C. Adamo, R. Cammi, 
 J. W. Ochterski, R. L. Martin, K. Morokuma, O. Farkas, 
 J. B. Foresman, and D. J. Fox, Gaussian, Inc., Wallingford CT, 2016.
 
 ******************************************
 Gaussian 16:  ES64L-G16RevA.03 25-Dec-2016
                27-Jun-2019 
=======
 Gaussian 09, Revision D.01,
 M. J. Frisch, G. W. Trucks, H. B. Schlegel, G. E. Scuseria, 
 M. A. Robb, J. R. Cheeseman, G. Scalmani, V. Barone, B. Mennucci, 
 G. A. Petersson, H. Nakatsuji, M. Caricato, X. Li, H. P. Hratchian, 
 A. F. Izmaylov, J. Bloino, G. Zheng, J. L. Sonnenberg, M. Hada, 
 M. Ehara, K. Toyota, R. Fukuda, J. Hasegawa, M. Ishida, T. Nakajima, 
 Y. Honda, O. Kitao, H. Nakai, T. Vreven, J. A. Montgomery, Jr., 
 J. E. Peralta, F. Ogliaro, M. Bearpark, J. J. Heyd, E. Brothers, 
 K. N. Kudin, V. N. Staroverov, T. Keith, R. Kobayashi, J. Normand, 
 K. Raghavachari, A. Rendell, J. C. Burant, S. S. Iyengar, J. Tomasi, 
 M. Cossi, N. Rega, J. M. Millam, M. Klene, J. E. Knox, J. B. Cross, 
 V. Bakken, C. Adamo, J. Jaramillo, R. Gomperts, R. E. Stratmann, 
 O. Yazyev, A. J. Austin, R. Cammi, C. Pomelli, J. W. Ochterski, 
 R. L. Martin, K. Morokuma, V. G. Zakrzewski, G. A. Voth, 
 P. Salvador, J. J. Dannenberg, S. Dapprich, A. D. Daniels, 
 O. Farkas, J. B. Foresman, J. V. Ortiz, J. Cioslowski, 
 and D. J. Fox, Gaussian, Inc., Wallingford CT, 2013.
 
 ******************************************
 Gaussian 09:  ES64L-G09RevD.01 24-Apr-2013
                 3-Jul-2019 
>>>>>>> 8e03b5b5abfc0030b3aa597dc0de36371bfbd096
 ******************************************
 %nproc=4
 Will use up to    4 processors via shared memory.
 %Mem=2GB
 -------------------------------------
 # td=(NStates=1) CAM-B3LYP/6-31G(d,p)
 -------------------------------------
<<<<<<< HEAD
 1/38=1,172=1/1;
 2/12=2,17=6,18=5,40=1/2;
 3/5=1,6=6,7=101,11=9,25=1,30=1,74=-40/1,2,3,8;
=======
 1/38=1/1;
 2/12=2,17=6,18=5,40=1/2;
 3/5=1,6=6,7=101,11=9,16=1,25=1,30=1,74=-40/1,2,8,3;
>>>>>>> 8e03b5b5abfc0030b3aa597dc0de36371bfbd096
 4//1;
 5/5=2,38=5/2;
 8/6=1,10=2,108=1/1;
 9/41=1,42=1,70=2/14;
 6/7=2,8=2,9=2,10=2/1;
 99/5=1,9=1/99;
 --
 TD
 --
 Symbolic Z-matrix:
 Charge =  0 Multiplicity = 1
<<<<<<< HEAD
 12                   -7.23848   0.5775    0.16663 
 6                    -4.93326  -1.94572   0.53327 
 6                    -4.81509   2.82249   1.21699 
 6                    -9.30607   3.13829  -0.46494 
 6                    -9.61185  -1.77466  -0.71325 
 7                    -5.12445   0.50496   0.68772 
 6                    -4.27837  -0.76445   0.79768 
 6                    -2.90978  -0.44681   1.12902 
 6                    -3.15754   1.05123   1.53391 
 6                    -4.43412   1.47289   1.19596 
 6                    -2.89941   1.24206   3.09867 
 6                    -1.91332  -0.6061    0.01873 
 6                    -0.45192  -0.44135   0.48239 
 6                     0.46256  -0.70433  -0.6656 
 8                     0.1421   -1.01259  -1.74835 
 8                     1.75917  -0.57822  -0.20437 
 7                    -7.14953   2.61698   0.4003 
 6                    -6.02278   3.36388   0.80062 
 6                    -6.39939   4.81632   0.88707 
 6                    -7.64821   4.93674   0.39983 
 6                    -8.10599   3.51161   0.10013 
 6                    -5.50881   5.96905   1.27235 
 6                    -8.47512   6.09083   0.04635 
 6                    -8.45687   7.20393   0.71922 
 7                    -9.11422   0.62969  -0.54866 
 6                    -9.76654   1.83625  -0.79461 
 6                    -11.18626   1.55181  -1.20373 
 6                    -11.30591   0.18277  -1.24075 
 6                    -9.96032  -0.32875  -0.81361 
 6                    -12.16684   2.57186  -1.71237 
 6                    -12.38927  -0.67586  -1.79814 
 6                    -12.13068  -0.98713  -3.27151 
 7                    -7.29466  -1.39754   0.0199 
 6                    -8.35037  -2.24918  -0.43811 
 6                    -7.90658  -3.6618   -0.42922 
 6                    -6.67931  -3.53807  -0.00505 
 6                    -6.22476  -2.18409   0.19549 
 6                    -8.69355  -4.8353   -0.84557 
 6                    -5.37431  -4.32951   0.31341 
 8                    -5.22344  -5.6239    0.28041 
 6                    -4.24905  -3.3537    0.61643 
 6                    -3.52672  -3.71018   1.94619 
 8                    -3.62882  -3.10265   2.99127 
 8                    -2.8091   -4.80931   1.59879 
 6                    -2.18574  -5.51737   2.82094 
 6                     2.79357  -0.76354  -1.24729 
 6                     4.09729  -0.55108  -0.52853 
 6                     5.16594   0.20502  -0.94958 
 6                     5.12444   1.08254  -2.15442 
 6                     6.44612   0.26186  -0.12042 
 6                     7.67858  -0.20223  -0.9789 
 6                     8.94728  -0.23928  -0.13355 
 6                     10.30983  -0.76115  -0.83456 
 6                     10.25617  -2.19254  -1.13429 
 6                     11.49046  -0.21584  -0.03648 
 6                     12.77371  -0.36712  -0.7933 
 6                     13.99265   0.12847   0.0157 
 6                     15.4076  -0.07522  -0.48691 
 6                     15.61427  -1.58588  -0.90326 
 6                     16.48079   0.4638    0.42287 
 6                     17.8206   0.4338   -0.08363 
 6                     18.72365   1.3918    0.76913 
 6                     20.213    1.50207   0.19621 
 6                     20.39656   2.30682  -1.0183 
 6                     21.15137   2.08638   1.26927 
 1                    -3.99887   3.43656   1.41336 
 1                    -9.99829   3.87242  -0.6126 
 1                    -10.36698  -2.49009  -0.99408 
 1                    -2.5854   -0.92088   2.0238 
 1                    -2.2247    1.49457   1.07909 
 1                    -1.89852   1.04642   3.42534 
 1                    -3.00556   2.29468   3.36524 
 1                    -3.5876    0.67688   3.77885 
 1                    -2.13805  -1.58279  -0.54811 
 1                    -2.08556  -0.05126  -0.81216 
 1                    -0.27323   0.67158   0.75949 
 1                    -0.30949  -1.05568   1.18833 
 1                    -5.75879   6.90088   0.79154 
 1                    -5.73395   6.10397   2.34799 
 1                    -4.49254   5.5977    1.09755 
 1                    -9.13693   5.82209  -0.77588 
 1                    -9.13196   8.02917   0.25577 
 1                    -7.85626   7.55001   1.47679 
 1                    -11.80284   2.98418  -2.5413 
 1                    -13.10269   2.08304  -2.08822 
 1                    -12.38448   3.55606  -1.10007 
 1                    -12.47712  -1.50507  -1.22297 
 1                    -13.15598  -0.06901  -1.59179 
 1                    -13.06229  -1.73371  -3.61636 
 1                    -12.0896  -0.11483  -3.91446 
 1                    -11.10019  -1.61882  -3.32159 
 1                    -9.17746  -4.56542  -1.84939 
 1                    -7.88737  -5.75068  -0.82181 
 1                    -9.43982  -5.04527   0.10336 
 1                    -3.62321  -3.45989  -0.17135 
 1                    -1.22112  -4.82647   3.25296 
 1                    -2.88415  -5.49906   3.74494 
 1                    -1.8493   -6.42345   2.56345 
 1                     2.6129   -1.7531   -1.53695 
 1                     2.62349  -0.15807  -2.093 
 1                     4.14017  -1.11396   0.37597 
 1                     4.02505   1.00421  -2.50929 
 1                     5.48722   1.99421  -1.90788 
 1                     5.59834   0.76386  -3.04696 
 1                     6.6223    1.33947   0.05872 
 1                     6.20556  -0.4353    0.72192 
 1                     7.25038  -1.15802  -1.49845 
 1                     8.18087   0.40442  -1.9673 
 1                     9.07953   0.93784   0.16328 
 1                     8.82764  -0.93504   0.75256 
 1                     10.43602  -0.18168  -1.78538 
 1                     9.14447  -2.46801  -1.76003 
 1                     11.07482  -2.5394   -1.78909 
 1                     10.13643  -2.89064  -0.46614 
 1                     11.42572   0.80236   0.2504 
 1                     11.73355  -0.87465   0.9106 
 1                     12.71797  -1.42564  -0.95203 
 1                     12.70388  -0.18676  -1.89008 
 1                     13.71473   1.18834   0.37261 
 1                     14.11215  -0.27418   0.96337 
 1                     15.61769   0.47055  -1.37068 
 1                     15.59432  -2.17966   0.0368 
 1                     14.92905  -1.87997  -1.65235 
 1                     16.52114  -1.74256  -1.40328 
 1                     16.0235   1.28132   0.78086 
 1                     16.38697  -0.38869   1.2229 
 1                     18.32988  -0.65599  -0.10104 
 1                     17.56107   0.7715   -1.29251 
 1                     18.31315   2.45864   0.75621 
 1                     18.85618   0.86335   1.63863 
 1                     20.83902   0.60944  -0.0169 
 1                     20.08781   3.42052  -0.93331 
 1                     21.54326   2.44645  -1.3364 
 1                     20.03153   1.92152  -1.83344 
 1                     21.05311   1.49103   2.22121 
 1                     22.18878   2.36131   0.77299 
 1                     21.02279   3.22795   1.35167 
=======
 12                   -7.18248   0.58526   0.11732 
 6                    -4.8254   -1.94832   0.58731 
 6                    -4.77565   2.8407    1.17984 
 6                    -9.42557   3.03721  -0.34627 
 6                    -9.43981  -1.79472  -0.97679 
 7                    -5.06383   0.46827   0.7451 
 6                    -4.31165  -0.71837   0.79265 
 6                    -2.85293  -0.42164   1.32274 
 6                    -2.9977    1.14061   1.76516 
 6                    -4.36273   1.53104   1.12161 
 6                    -3.03617   1.2414    3.24203 
 6                    -1.88818  -0.55453   0.13377 
 6                    -0.47278  -0.32612   0.56071 
 6                     0.51932  -0.65621  -0.56596 
 8                     0.10779  -1.00783  -1.67782 
 8                     1.74808  -0.42292  -0.22204 
 7                    -7.10585   2.62966   0.32999 
 6                    -6.03566   3.34565   0.79554 
 6                    -6.3974    4.7599    0.66962 
 6                    -7.74254   4.80508   0.24883 
 6                    -8.12225   3.45267   0.00674 
 6                    -5.45352   5.891     1.01757 
 6                    -8.4569    5.98236  -0.0136 
 6                    -8.58414   7.18218   0.7789 
 7                    -9.08129   0.7046   -0.65294 
 6                    -9.82859   1.80666  -0.74941 
 6                    -11.15178   1.45906  -1.07991 
 6                    -11.22089   0.10439  -1.24302 
 6                    -9.97282  -0.42048  -0.91801 
 6                    -12.18842   2.45441  -1.32171 
 6                    -12.52262  -0.68155  -1.71583 
 6                    -12.52324  -1.01141  -3.20476 
 7                    -7.1278   -1.35285  -0.28543 
 6                    -8.15877  -2.28903  -0.59596 
 6                    -7.80276  -3.62676  -0.50269 
 6                    -6.42518  -3.52635  -0.12918 
 6                    -6.11417  -2.15123   0.06845 
 6                    -8.55874  -4.88374  -0.78879 
 6                    -5.29669  -4.38014   0.15388 
 8                    -5.1507   -5.61647   0.15181 
 6                    -4.16708  -3.3276    0.6923 
 6                    -3.50512  -3.7569    1.95731 
 8                    -3.69567  -3.16563   3.00753 
 8                    -2.60252  -4.68354   1.7938 
 6                    -2.07113  -5.17015   2.95074 
 6                     2.75139  -0.75228  -1.23441 
 6                     4.04879  -0.47386  -0.54466 
 6                     5.07678   0.2841   -0.91415 
 6                     4.99282   1.23279  -2.13652 
 6                     6.39398   0.40446  -0.20488 
 6                     7.61799  -0.21117  -1.0143 
 6                     8.85263  -0.1132   -0.1371 
 6                     10.19514  -0.51065  -0.88737 
 6                     9.99526  -1.97161  -1.39834 
 6                     11.46328  -0.39358  -0.06679 
 6                     12.80344  -0.49309  -0.78942 
 6                     13.97017  -0.15948   0.12626 
 6                     15.31466  -0.08407  -0.55672 
 6                     15.77896  -1.45073  -0.92147 
 6                     16.28871   0.53367   0.43201 
 6                     17.77475   0.61988  -0.15693 
 6                     18.78686   1.27984   0.77074 
 6                     20.13047   1.22627   0.32204 
 6                     20.33723   1.93769  -0.98994 
 6                     21.14358   1.84774   1.36382 
 1                    -4.07657   3.44983   1.61214 
 1                    -10.16797   3.8109   -0.73287 
 1                    -10.28766  -2.40931  -1.22656 
 1                    -2.65261  -1.04344   2.11614 
 1                    -2.15171   1.80727   1.24422 
 1                    -2.07434   1.1912    3.63541 
 1                    -3.28325   2.25026   3.64754 
 1                    -3.8201    0.58084   3.82123 
 1                    -1.99403  -1.50229  -0.22655 
 1                    -2.0896    0.14657  -0.62881 
 1                    -0.22998   0.67676   0.93704 
 1                    -0.13782  -0.95788   1.32106 
 1                    -5.79056   6.88979   0.8462 
 1                    -5.18386   5.93358   2.20009 
 1                    -4.3412    5.49157   0.44542 
 1                    -9.06712   5.96031  -0.96088 
 1                    -9.37244   8.01191   0.35995 
 1                    -8.04168   7.51534   1.70798 
 1                    -12.06241   3.26141  -2.0388 
 1                    -13.09275   1.82528  -1.34413 
 1                    -12.16637   3.11218  -0.51197 
 1                    -12.60279  -1.56088  -0.95902 
 1                    -13.35718  -0.13204  -1.24866 
 1                    -13.3481  -1.61467  -3.55325 
 1                    -12.52122  -0.11487  -3.71209 
 1                    -11.53678  -1.59227  -3.41603 
 1                    -9.12207  -4.84596  -1.97143 
 1                    -7.76754  -5.71671  -0.78549 
 1                    -9.21598  -5.19637   0.17889 
 1                    -3.32747  -3.24651  -0.03106 
 1                    -1.57578  -4.2494    3.47142 
 1                    -2.76073  -5.88144   3.60078 
 1                    -1.36969  -5.70494   2.44241 
 1                     2.54528  -1.90257  -1.57316 
 1                     2.68913  -0.00196  -1.95212 
 1                     4.29988  -1.08211   0.52357 
 1                     4.02957   1.49301  -2.51502 
 1                     5.29773   2.19707  -1.68447 
 1                     5.65974   1.03461  -3.11375 
 1                     6.59788   1.43197   0.09306 
 1                     6.07979  -0.36814   0.52735 
 1                     7.40329  -1.35525  -1.03246 
 1                     7.62934   0.12687  -2.05121 
 1                     8.94161   0.93413   0.24999 
 1                     8.82655  -0.71008   0.73587 
 1                     10.31408   0.25373  -1.76403 
 1                     9.24683  -1.92559  -2.30083 
 1                     10.81199  -2.45379  -1.94205 
 1                     9.75392  -2.74609  -0.55123 
 1                     11.31431   0.64618   0.59233 
 1                     11.38027  -1.31091   0.58595 
 1                     12.91418  -1.50252  -1.15693 
 1                     12.80242   0.06188  -1.70011 
 1                     13.80615   0.8976    0.56352 
 1                     13.97962  -0.81186   1.14332 
 1                     15.23738   0.58627  -1.36628 
 1                     16.2513  -2.19161  -0.11389 
 1                     15.05494  -1.89594  -1.67074 
 1                     16.70089  -1.39483  -1.6709 
 1                     15.91783   1.60752   0.62731 
 1                     16.28091  -0.19104   1.46898 
 1                     18.1348  -0.36484  -0.50529 
 1                     17.73956   1.17237  -1.03843 
 1                     18.45848   2.39661   0.802 
 1                     18.68225   0.8426    1.79689 
 1                     20.30604   0.22452   0.25392 
 1                     20.00201   2.94373  -0.9707 
 1                     21.38878   2.02647  -1.55404 
 1                     19.82137   1.37612  -1.902 
 1                     20.81091   1.41718   2.37705 
 1                     22.12334   1.62152   1.1874 
 1                     20.97648   3.07349   1.27216 
>>>>>>> 8e03b5b5abfc0030b3aa597dc0de36371bfbd096
 
 Stoichiometry    C55H72MgN4O5
 Framework group  C1[X(C55H72MgN4O5)]
 Deg. of freedom   405
 Full point group                 C1      NOp   1
 Largest Abelian subgroup         C1      NOp   1
 Largest concise Abelian subgroup C1      NOp   1
                         Standard orientation:                         
 ---------------------------------------------------------------------
 Center     Atomic      Atomic             Coordinates (Angstroms)
 Number     Number       Type             X           Y           Z
 ---------------------------------------------------------------------
<<<<<<< HEAD
      1         12           0       -7.239099    0.587499    0.173808
      2          6           0       -4.937831   -1.941781    0.523091
      3          6           0       -4.812339    2.821360    1.240003
      4          6           0       -9.302635    3.155834   -0.440123
      5          6           0       -9.616019   -1.754789   -0.722662
      6          7           0       -5.125232    0.508054    0.694581
      7          6           0       -4.281137   -0.763400    0.795781
      8          6           0       -2.912094   -0.450207    1.129464
      9          6           0       -3.157572    1.045362    1.544751
     10          6           0       -4.433460    1.471347    1.209613
     11          6           0       -2.899311    1.224891    3.110824
     12          6           0       -1.915767   -0.603302    0.018181
     13          6           0       -0.454161   -0.444056    0.483126
     14          6           0        0.460034   -0.700462   -0.666582
     15          8           0        0.139211   -1.000671   -1.751483
     16          8           0        1.756789   -0.579571   -0.204354
     17          7           0       -7.147000    2.625163    0.421675
     18          6           0       -6.019142    3.367507    0.827300
     19          6           0       -6.393502    4.819892    0.923820
     20          6           0       -7.642081    4.945648    0.437307
     21          6           0       -8.102047    3.523348    0.127652
     22          6           0       -5.501178    5.968531    1.317206
     23          6           0       -8.467159    6.103450    0.091794
     24          6           0       -8.447258    7.211805    0.772396
     25          7           0       -9.114678    0.647580   -0.541288
     26          6           0       -9.765097    1.856842   -0.778892
     27          6           0      -11.185207    1.577462   -1.190127
     28          6           0      -11.306983    0.208901   -1.236690
     29          6           0       -9.962233   -0.307678   -0.812985
     30          6           0      -12.164145    2.602544   -1.691744
     31          6           0      -12.391614   -0.644153   -1.800149
     32          6           0      -12.133345   -0.945555   -3.275626
     33          7           0       -7.298323   -1.386378    0.013318
     34          6           0       -8.355300   -2.233169   -0.450710
     35          6           0       -7.913706   -3.646508   -0.451614
     36          6           0       -6.686296   -3.527634   -0.026475
     37          6           0       -6.229660   -2.175789    0.183536
     38          6           0       -8.702451   -4.815850   -0.876204
     39          6           0       -5.382561   -4.323296    0.286601
     40          8           0       -5.233695   -5.617658    0.244595
     41          6           0       -4.255817   -3.351372    0.596514
     42          6           0       -3.534190   -3.718218    1.923834
     43          8           0       -3.635461   -3.117822    2.973106
     44          8           0       -2.818238   -4.816015    1.568853
     45          6           0       -2.196107   -5.533534    2.786103
     46          6           0        2.791017   -0.759241   -1.248437
     47          6           0        4.094987   -0.553814   -0.528095
     48          6           0        5.164853    0.203539   -0.943768
     49          6           0        5.124847    1.089494   -2.142468
     50          6           0        6.445029    0.252618   -0.114101
     51          6           0        7.676857   -0.207395   -0.975678
     52          6           0        8.945407   -0.252298   -0.130473
     53          6           0       10.307227   -0.771394   -0.834976
     54          6           0       10.251378   -2.200574   -1.144662
     55          6           0       11.488615   -0.233480   -0.033001
     56          6           0       12.771711   -0.381485   -0.790728
     57          6           0       13.991328    0.106570    0.021820
     58          6           0       15.406013   -0.095816   -0.482054
     59          6           0       15.610389   -1.603854   -0.908894
     60          6           0       16.479945    0.435192    0.431556
     61          6           0       17.819756    0.406643   -0.075011
     62          6           0       18.724205    1.357272    0.784488
     63          6           0       20.213784    1.469218    0.212502
     64          6           0       20.398725    2.282117   -0.996365
     65          6           0       21.152939    2.044587    1.289693
     66          1           0       -3.995188    3.432778    1.440721
     67          1           0       -9.993703    3.892047   -0.582733
     68          1           0      -10.372226   -2.467069   -1.008538
     69          1           0       -2.588552   -0.930995    2.020953
     70          1           0       -2.223992    1.490414    1.093114
     71          1           0       -1.898771    1.025426    3.436216
     72          1           0       -3.003857    2.275800    3.384703
     73          1           0       -3.588458    0.656064    3.786984
     74          1           0       -2.141943   -1.575674   -0.555462
     75          1           0       -2.087051   -0.042426   -0.808839
     76          1           0       -0.273772    0.666639    0.767980
     77          1           0       -0.312757   -1.063508    1.184786
     78          1           0       -5.749665    6.904072    0.842874
     79          1           0       -5.726226    6.096312    2.393736
     80          1           0       -4.485471    5.596831    1.139925
     81          1           0       -9.129296    5.841467   -0.732351
     82          1           0       -9.121021    8.041306    0.314634
     83          1           0       -7.846189    7.551674    1.532414
     84          1           0      -11.799425    3.020061   -2.517747
     85          1           0      -13.100717    2.117811   -2.071082
     86          1           0      -12.380329    3.582801   -1.072631
     87          1           0      -12.480812   -1.477205   -1.230771
     88          1           0      -13.157405   -0.037564   -1.589657
     89          1           0      -13.066077   -1.688265   -3.625756
     90          1           0      -12.090844   -0.068859   -3.912486
     91          1           0      -11.103827   -1.578476   -3.330001
     92          1           0       -9.185833   -4.538237   -1.878163
     93          1           0       -7.897696   -5.732622   -0.858738
     94          1           0       -9.449156   -5.031265    0.071170
     95          1           0       -3.630062   -3.453044   -0.191929
     96          1           0       -1.230464   -4.847161    3.223018
     97          1           0       -2.894587   -5.520579    3.710141
     98          1           0       -1.861050   -6.438327    2.522347
     99          1           0        2.608841   -1.746471   -1.544999
    100          1           0        2.621966   -0.147631   -2.089934
    101          1           0        4.136899   -1.123044    0.372472
    102          1           0        4.025375    1.015342   -2.497982
    103          1           0        5.489018    1.998860   -1.889549
    104          1           0        5.598344    0.776297   -3.037163
    105          1           0        6.622867    1.328680    0.072552
    106          1           0        6.203302   -0.450015    0.723341
    107          1           0        7.247237   -1.158873   -1.501908
    108          1           0        8.180200    0.405345   -1.959776
    109          1           0        9.079455    0.922521    0.174558
    110          1           0        8.824596   -0.954024    0.750758
    111          1           0       10.434418   -0.185507   -1.781725
    112          1           0        9.139317   -2.469959   -1.772418
    113          1           0       11.069558   -2.544138   -1.801788
    114          1           0       10.130477   -2.903123   -0.481400
    115          1           0       11.425423    0.782795    0.260954
    116          1           0       11.730574   -0.899252    0.909497
    117          1           0       12.714339   -1.438786   -0.956833
    118          1           0       12.702282   -0.193382   -1.886235
    119          1           0       13.715019    1.164359    0.386080
    120          1           0       14.110105   -0.302852    0.966679
    121          1           0       15.617043    0.455765   -1.361986
    122          1           0       15.589409   -2.204135    0.027009
    123          1           0       14.924787   -1.891661   -1.660083
    124          1           0       16.517068   -1.758461   -1.409906
    125          1           0       16.023881    1.250904    0.795192
    126          1           0       16.384716   -0.422699    1.225620
    127          1           0       18.327353   -0.683796   -0.099958
    128          1           0       17.560888    0.753154   -1.281535
    129          1           0       18.315362    2.424815    0.778962
    130          1           0       18.855821    0.822579    1.650307
    131          1           0       20.838440    0.577120   -0.006766
    132          1           0       20.091697    3.395673   -0.903647
    133          1           0       21.545673    2.422180   -1.313365
    134          1           0       20.033182    1.903074   -1.814201
    135          1           0       21.053658    1.442772    2.237455
    136          1           0       22.190833    2.321350    0.795441
    137          1           0       21.026128    3.185755    1.380020
 ---------------------------------------------------------------------
 Rotational constants (GHZ):           0.0634074           0.0060756           0.0057126
=======
      1         12           0       -7.181612    0.576896    0.124719
      2          6           0       -4.821680   -1.956474    0.581305
      3          6           0       -4.776613    2.829666    1.197025
      4          6           0       -9.427463    3.028734   -0.325917
      5          6           0       -9.437001   -1.800100   -0.979849
      6          7           0       -5.062543    0.459067    0.750928
      7          6           0       -4.309111   -0.727006    0.792363
      8          6           0       -2.850450   -0.431333    1.323200
      9          6           0       -2.996627    1.128602    1.773250
     10          6           0       -4.362369    1.520735    1.132247
     11          6           0       -3.034491    1.222193    3.250607
     12          6           0       -1.886129   -0.557455    0.133138
     13          6           0       -0.470765   -0.329643    0.560514
     14          6           0        0.521146   -0.653240   -0.568214
     15          8           0        0.109448   -0.999892   -1.681573
     16          8           0        1.749821   -0.420343   -0.223746
     17          7           0       -7.107002    2.620322    0.347261
     18          6           0       -6.037334    3.335156    0.815771
     19          6           0       -6.400595    4.749627    0.696873
     20          6           0       -7.745982    4.795449    0.276949
     21          6           0       -8.124405    3.443838    0.028486
     22          6           0       -5.457728    5.880009    1.049853
     23          6           0       -8.461694    5.973242    0.020558
     24          6           0       -8.589798    7.169080    0.818932
     25          7           0       -9.080914    0.698001   -0.644054
     26          6           0       -9.829401    1.799735   -0.734830
     27          6           0      -11.152393    1.452370   -1.066383
     28          6           0      -11.220176    0.098427   -1.236027
     29          6           0       -9.971406   -0.426715   -0.914149
     30          6           0      -12.190173    2.447794   -1.302865
     31          6           0      -12.521309   -0.686557   -1.712025
     32          6           0      -12.522302   -1.009206   -3.202529
     33          7           0       -7.125118   -1.359183   -0.287448
     34          6           0       -8.155259   -2.294917   -0.602025
     35          6           0       -7.797818   -3.632710   -0.515401
     36          6           0       -6.420164   -3.532676   -0.142068
     37          6           0       -6.110493   -2.158214    0.062082
     38          6           0       -8.552638   -4.889074   -0.807232
     39          6           0       -5.290662   -4.386659    0.136320
     40          8           0       -5.143391   -5.622807    0.128193
     41          6           0       -4.161883   -3.335564    0.679301
     42          6           0       -3.498874   -3.770304    1.941899
     43          8           0       -3.689535   -3.184331    2.995070
     44          8           0       -2.595393   -4.695204    1.773475
     45          6           0       -2.062941   -5.186861    2.927794
     46          6           0        2.752989   -0.743753   -1.238180
     47          6           0        4.050429   -0.467324   -0.547703
     48          6           0        5.077460    0.293486   -0.913998
     49          6           0        4.991928    1.247992   -2.131712
     50          6           0        6.394875    0.411774   -0.204772
     51          6           0        7.619132   -0.198658   -1.017746
     52          6           0        8.854086   -0.103652   -0.140663
     53          6           0       10.196652   -0.496068   -0.893490
     54          6           0        9.998039   -1.954741   -1.411443
     55          6           0       11.465061   -0.381663   -0.072948
     56          6           0       12.804974   -0.476277   -0.796689
     57          6           0       13.971796   -0.145890    0.120044
     58          6           0       15.315882   -0.065779   -0.563202
     59          6           0       15.781426   -1.430173   -0.934789
     60          6           0       16.289769    0.548174    0.428051
     61          6           0       17.775436    0.638787   -0.161166
     62          6           0       18.787301    1.295288    0.769212
     63          6           0       20.130754    1.245296    0.319621
     64          6           0       20.336143    1.963279   -0.988990
     65          6           0       21.143711    1.862757    1.363927
     66          1           0       -4.077960    3.437418    1.631932
     67          1           0      -10.170849    3.803519   -0.708413
     68          1           0      -10.284330   -2.414349   -1.232188
     69          1           0       -2.649103   -1.056763    2.113482
     70          1           0       -2.151573    1.798665    1.255145
     71          1           0       -2.072424    1.171090    3.643286
     72          1           0       -3.282428    2.228822    3.661120
     73          1           0       -3.817455    0.558026    3.826979
     74          1           0       -1.991168   -1.503567   -0.231715
     75          1           0       -2.088639    0.147125   -0.625940
     76          1           0       -0.228817    0.671653    0.941589
     77          1           0       -0.134783   -0.964735    1.317630
     78          1           0       -5.795880    6.879263    0.883489
     79          1           0       -5.187540    5.917134    2.232438
     80          1           0       -4.345263    5.484512    0.475249
     81          1           0       -9.072339    5.955152   -0.926521
     82          1           0       -9.379155    8.000008    0.404373
     83          1           0       -8.047241    7.498290    1.749355
     84          1           0      -12.065346    3.258390   -2.016093
     85          1           0      -13.093862    1.817841   -1.327903
     86          1           0      -12.168419    3.101658   -0.489960
     87          1           0      -12.600204   -1.569627   -0.959446
     88          1           0      -13.356222   -0.140189   -1.241800
     89          1           0      -13.346704   -1.611619   -3.553548
     90          1           0      -12.521450   -0.110208   -3.705517
     91          1           0      -11.535341   -1.588010   -3.417083
     92          1           0       -9.116570   -4.846143   -1.989412
     93          1           0       -7.760566   -5.721228   -0.808345
     94          1           0       -9.209089   -5.207076    0.159225
     95          1           0       -3.322707   -3.250096   -0.044052
     96          1           0       -1.568296   -4.268131    3.452696
     97          1           0       -2.751491   -5.902008    3.574708
     98          1           0       -1.361188   -5.718451    2.416544
     99          1           0        2.547916   -1.892601   -1.582401
    100          1           0        2.689607    0.009978   -1.952210
    101          1           0        4.302664   -1.080487    0.517448
    102          1           0        4.028232    1.509045   -2.508493
    103          1           0        5.296052    2.210391   -1.675145
    104          1           0        5.658592    1.055252   -3.110209
    105          1           0        6.597850    1.438034    0.098047
    106          1           0        6.081835   -0.364699    0.523853
    107          1           0        7.405608   -1.342862   -1.041356
    108          1           0        7.629632    0.144412   -2.053011
    109          1           0        8.942165    0.941879    0.251455
    110          1           0        8.829047   -0.704782    0.729413
    111          1           0       10.314379    0.272671   -1.766492
    112          1           0        9.249134   -1.905128   -2.313338
    113          1           0       10.815016   -2.433436   -1.957865
    114          1           0        9.757909   -2.733566   -0.567984
    115          1           0       11.315328    0.654735    0.591271
    116          1           0       11.383316   -1.302225    0.575373
    117          1           0       12.916594   -1.483794   -1.169144
    118          1           0       12.802952    0.083099   -1.704682
    119          1           0       13.806895    0.908887    0.562504
    120          1           0       13.982413   -0.803185    1.133927
    121          1           0       15.237519    0.608396   -1.369464
    122          1           0       16.254923   -2.174463   -0.131034
    123          1           0       15.057509   -1.872498   -1.685868
    124          1           0       16.702940   -1.369676   -1.684372
    125          1           0       15.917863    1.620680    0.628731
    126          1           0       16.283216   -0.181557    1.461502
    127          1           0       18.136343   -0.343865   -0.514467
    128          1           0       17.739251    1.195507   -1.039957
    129          1           0       18.457776    2.411559    0.806040
    130          1           0       18.683632    0.852974    1.793282
    131          1           0       20.307324    0.244066    0.246569
    132          1           0       19.999898    2.968861   -0.964716
    133          1           0       21.387338    2.055882   -1.553147
    134          1           0       19.820430    1.405598   -1.903514
    135          1           0       20.811974    1.426949    2.375211
    136          1           0       22.123629    1.638419    1.185951
    137          1           0       20.975298    3.088762    1.278283
 ---------------------------------------------------------------------
 Rotational constants (GHZ):      0.0648128      0.0061066      0.0057549
>>>>>>> 8e03b5b5abfc0030b3aa597dc0de36371bfbd096
 Standard basis: 6-31G(d,p) (6D, 7F)
 There are  1339 symmetry adapted cartesian basis functions of A   symmetry.
 There are  1339 symmetry adapted basis functions of A   symmetry.
  1339 basis functions,  2348 primitive gaussians,  1339 cartesian basis functions
   241 alpha electrons      241 beta electrons
<<<<<<< HEAD
       nuclear repulsion energy      8736.8498578097 Hartrees.
=======
       nuclear repulsion energy      8748.3301464181 Hartrees.
>>>>>>> 8e03b5b5abfc0030b3aa597dc0de36371bfbd096
 NAtoms=  137 NActive=  137 NUniq=  137 SFac= 1.00D+00 NAtFMM=   60 NAOKFM=T Big=T
 Integral buffers will be    131072 words long.
 Raffenetti 1 integral format.
 Two-electron integral symmetry is turned on.
 One-electron integrals computed using PRISM.
<<<<<<< HEAD
=======
 NBasis=  1339 RedAO= T EigKep=  3.32D-04  NBF=  1339
 NBsUse=  1339 1.00D-06 EigRej= -1.00D+00 NBFU=  1339
 ExpMin= 4.21D-02 ExpMax= 1.17D+04 ExpMxC= 1.76D+03 IAcc=2 IRadAn=         4 AccDes= 0.00D+00
 Harris functional with IExCor=20419 and IRadAn=       4 diagonalized for initial guess.
 HarFok:  IExCor=20419 AccDes= 0.00D+00 IRadAn=         4 IDoV= 1 UseB2=F ITyADJ=14
 ICtDFT=  3500011 ScaDFX=  1.000000  1.000000  1.000000  1.000000
 FoFCou: FMM=F IPFlag=           0 FMFlag=      100000 FMFlg1=        2001
         NFxFlg=           0 DoJE=T BraDBF=F KetDBF=T FulRan=T
         wScrn=  0.000000 ICntrl=     500 IOpCl=  0 I1Cent=   200000004 NGrid=           0
         NMat0=    1 NMatS0=      1 NMatT0=    0 NMatD0=    1 NMtDS0=    0 NMtDT0=    0
 Petite list used in FoFCou.
 Requested convergence on RMS density matrix=1.00D-08 within 128 cycles.
 Requested convergence on MAX density matrix=1.00D-06.
 Requested convergence on             energy=1.00D-06.
 No special actions if energy rises.
 SCF Done:  E(RCAM-B3LYP) =  -2932.71522392     A.U. after   18 cycles
            NFock= 18  Conv=0.55D-08     -V/T= 2.0096
 DoSCS=F DFT=T ScalE2(SS,OS)=  1.000000  1.000000
 ExpMin= 4.21D-02 ExpMax= 1.17D+04 ExpMxC= 1.76D+03 IAcc=3 IRadAn=         5 AccDes= 0.00D+00
 HarFok:  IExCor=  205 AccDes= 0.00D+00 IRadAn=         5 IDoV=-2 UseB2=F ITyADJ=14
 ICtDFT= 12500011 ScaDFX=  1.000000  1.000000  1.000000  1.000000
 Range of M.O.s used for correlation:    70  1339
 NBasis=  1339 NAE=   241 NBE=   241 NFC=    69 NFV=     0
 NROrb=   1270 NOA=   172 NOB=   172 NVA=  1098 NVB=  1098
 Would need an additional       2415464100000 words for in-memory AO integral storage.
 Orbital symmetries:
       Occupied  (A) (A) (A) (A) (A) (A) (A) (A) (A) (A) (A) (A)
                 (A) (A) (A) (A) (A) (A) (A) (A) (A) (A) (A) (A)
                 (A) (A) (A) (A) (A) (A) (A) (A) (A) (A) (A) (A)
                 (A) (A) (A) (A) (A) (A) (A) (A) (A) (A) (A) (A)
                 (A) (A) (A) (A) (A) (A) (A) (A) (A) (A) (A) (A)
                 (A) (A) (A) (A) (A) (A) (A) (A) (A) (A) (A) (A)
                 (A) (A) (A) (A) (A) (A) (A) (A) (A) (A) (A) (A)
                 (A) (A) (A) (A) (A) (A) (A) (A) (A) (A) (A) (A)
                 (A) (A) (A) (A) (A) (A) (A) (A) (A) (A) (A) (A)
                 (A) (A) (A) (A) (A) (A) (A) (A) (A) (A) (A) (A)
                 (A) (A) (A) (A) (A) (A) (A) (A) (A) (A) (A) (A)
                 (A) (A) (A) (A) (A) (A) (A) (A) (A) (A) (A) (A)
                 (A) (A) (A) (A) (A) (A) (A) (A) (A) (A) (A) (A)
                 (A) (A) (A) (A) (A) (A) (A) (A) (A) (A) (A) (A)
                 (A) (A) (A) (A) (A) (A) (A) (A) (A) (A) (A) (A)
                 (A) (A) (A) (A) (A) (A) (A) (A) (A) (A) (A) (A)
                 (A) (A) (A) (A) (A) (A) (A) (A) (A) (A) (A) (A)
                 (A) (A) (A) (A) (A) (A) (A) (A) (A) (A) (A) (A)
                 (A) (A) (A) (A) (A) (A) (A) (A) (A) (A) (A) (A)
                 (A) (A) (A) (A) (A) (A) (A) (A) (A) (A) (A) (A)
                 (A)
       Virtual   (A) (A) (A) (A) (A) (A) (A) (A) (A) (A) (A) (A)
                 (A) (A) (A) (A) (A) (A) (A) (A) (A) (A) (A) (A)
                 (A) (A) (A) (A) (A) (A) (A) (A) (A) (A) (A) (A)
                 (A) (A) (A) (A) (A) (A) (A) (A) (A) (A) (A) (A)
                 (A) (A) (A) (A) (A) (A) (A) (A) (A) (A) (A) (A)
                 (A) (A) (A) (A) (A) (A) (A) (A) (A) (A) (A) (A)
                 (A) (A) (A) (A) (A) (A) (A) (A) (A) (A) (A) (A)
                 (A) (A) (A) (A) (A) (A) (A) (A) (A) (A) (A) (A)
                 (A) (A) (A) (A) (A) (A) (A) (A) (A) (A) (A) (A)
                 (A) (A) (A) (A) (A) (A) (A) (A) (A) (A) (A) (A)
                 (A) (A) (A) (A) (A) (A) (A) (A) (A) (A) (A) (A)
                 (A) (A) (A) (A) (A) (A) (A) (A) (A) (A) (A) (A)
                 (A) (A) (A) (A) (A) (A) (A) (A) (A) (A) (A) (A)
                 (A) (A) (A) (A) (A) (A) (A) (A) (A) (A) (A) (A)
                 (A) (A) (A) (A) (A) (A) (A) (A) (A) (A) (A) (A)
                 (A) (A) (A) (A) (A) (A) (A) (A) (A) (A) (A) (A)
                 (A) (A) (A) (A) (A) (A) (A) (A) (A) (A) (A) (A)
                 (A) (A) (A) (A) (A) (A) (A) (A) (A) (A) (A) (A)
                 (A) (A) (A) (A) (A) (A) (A) (A) (A) (A) (A) (A)
                 (A) (A) (A) (A) (A) (A) (A) (A) (A) (A) (A) (A)
                 (A) (A) (A) (A) (A) (A) (A) (A) (A) (A) (A) (A)
                 (A) (A) (A) (A) (A) (A) (A) (A) (A) (A) (A) (A)
                 (A) (A) (A) (A) (A) (A) (A) (A) (A) (A) (A) (A)
                 (A) (A) (A) (A) (A) (A) (A) (A) (A) (A) (A) (A)
                 (A) (A) (A) (A) (A) (A) (A) (A) (A) (A) (A) (A)
                 (A) (A) (A) (A) (A) (A) (A) (A) (A) (A) (A) (A)
                 (A) (A) (A) (A) (A) (A) (A) (A) (A) (A) (A) (A)
                 (A) (A) (A) (A) (A) (A) (A) (A) (A) (A) (A) (A)
                 (A) (A) (A) (A) (A) (A) (A) (A) (A) (A) (A) (A)
                 (A) (A) (A) (A) (A) (A) (A) (A) (A) (A) (A) (A)
                 (A) (A) (A) (A) (A) (A) (A) (A) (A) (A) (A) (A)
                 (A) (A) (A) (A) (A) (A) (A) (A) (A) (A) (A) (A)
                 (A) (A) (A) (A) (A) (A) (A) (A) (A) (A) (A) (A)
                 (A) (A) (A) (A) (A) (A) (A) (A) (A) (A) (A) (A)
                 (A) (A) (A) (A) (A) (A) (A) (A) (A) (A) (A) (A)
                 (A) (A) (A) (A) (A) (A) (A) (A) (A) (A) (A) (A)
                 (A) (A) (A) (A) (A) (A) (A) (A) (A) (A) (A) (A)
                 (A) (A) (A) (A) (A) (A) (A) (A) (A) (A) (A) (A)
                 (A) (A) (A) (A) (A) (A) (A) (A) (A) (A) (A) (A)
                 (A) (A) (A) (A) (A) (A) (A) (A) (A) (A) (A) (A)
                 (A) (A) (A) (A) (A) (A) (A) (A) (A) (A) (A) (A)
                 (A) (A) (A) (A) (A) (A) (A) (A) (A) (A) (A) (A)
                 (A) (A) (A) (A) (A) (A) (A) (A) (A) (A) (A) (A)
                 (A) (A) (A) (A) (A) (A) (A) (A) (A) (A) (A) (A)
                 (A) (A) (A) (A) (A) (A) (A) (A) (A) (A) (A) (A)
                 (A) (A) (A) (A) (A) (A) (A) (A) (A) (A) (A) (A)
                 (A) (A) (A) (A) (A) (A) (A) (A) (A) (A) (A) (A)
                 (A) (A) (A) (A) (A) (A) (A) (A) (A) (A) (A) (A)
                 (A) (A) (A) (A) (A) (A) (A) (A) (A) (A) (A) (A)
                 (A) (A) (A) (A) (A) (A) (A) (A) (A) (A) (A) (A)
                 (A) (A) (A) (A) (A) (A) (A) (A) (A) (A) (A) (A)
                 (A) (A) (A) (A) (A) (A) (A) (A) (A) (A) (A) (A)
                 (A) (A) (A) (A) (A) (A) (A) (A) (A) (A) (A) (A)
                 (A) (A) (A) (A) (A) (A) (A) (A) (A) (A) (A) (A)
                 (A) (A) (A) (A) (A) (A) (A) (A) (A) (A) (A) (A)
                 (A) (A) (A) (A) (A) (A) (A) (A) (A) (A) (A) (A)
                 (A) (A) (A) (A) (A) (A) (A) (A) (A) (A) (A) (A)
                 (A) (A) (A) (A) (A) (A) (A) (A) (A) (A) (A) (A)
                 (A) (A) (A) (A) (A) (A) (A) (A) (A) (A) (A) (A)
                 (A) (A) (A) (A) (A) (A) (A) (A) (A) (A) (A) (A)
                 (A) (A) (A) (A) (A) (A) (A) (A) (A) (A) (A) (A)
                 (A) (A) (A) (A) (A) (A) (A) (A) (A) (A) (A) (A)
                 (A) (A) (A) (A) (A) (A) (A) (A) (A) (A) (A) (A)
                 (A) (A) (A) (A) (A) (A) (A) (A) (A) (A) (A) (A)
                 (A) (A) (A) (A) (A) (A) (A) (A) (A) (A) (A) (A)
                 (A) (A) (A) (A) (A) (A) (A) (A) (A) (A) (A) (A)
                 (A) (A) (A) (A) (A) (A) (A) (A) (A) (A) (A) (A)
                 (A) (A) (A) (A) (A) (A) (A) (A) (A) (A) (A) (A)
                 (A) (A) (A) (A) (A) (A) (A) (A) (A) (A) (A) (A)
                 (A) (A) (A) (A) (A) (A) (A) (A) (A) (A) (A) (A)
                 (A) (A) (A) (A) (A) (A) (A) (A) (A) (A) (A) (A)
                 (A) (A) (A) (A) (A) (A) (A) (A) (A) (A) (A) (A)
                 (A) (A) (A) (A) (A) (A) (A) (A) (A) (A) (A) (A)
                 (A) (A) (A) (A) (A) (A) (A) (A) (A) (A) (A) (A)
                 (A) (A) (A) (A) (A) (A) (A) (A) (A) (A) (A) (A)
                 (A) (A) (A) (A) (A) (A) (A) (A) (A) (A) (A) (A)
                 (A) (A) (A) (A) (A) (A) (A) (A) (A) (A) (A) (A)
                 (A) (A) (A) (A) (A) (A) (A) (A) (A) (A) (A) (A)
                 (A) (A) (A) (A) (A) (A) (A) (A) (A) (A) (A) (A)
                 (A) (A) (A) (A) (A) (A) (A) (A) (A) (A) (A) (A)
                 (A) (A) (A) (A) (A) (A) (A) (A) (A) (A) (A) (A)
                 (A) (A) (A) (A) (A) (A) (A) (A) (A) (A) (A) (A)
                 (A) (A) (A) (A) (A) (A) (A) (A) (A) (A) (A) (A)
                 (A) (A) (A) (A) (A) (A) (A) (A) (A) (A) (A) (A)
                 (A) (A) (A) (A) (A) (A) (A) (A) (A) (A) (A) (A)
                 (A) (A) (A) (A) (A) (A) (A) (A) (A) (A) (A) (A)
                 (A) (A) (A) (A) (A) (A) (A) (A) (A) (A) (A) (A)
                 (A) (A) (A) (A) (A) (A) (A) (A) (A) (A) (A) (A)
                 (A) (A) (A) (A) (A) (A) (A) (A) (A) (A) (A) (A)
                 (A) (A) (A) (A) (A) (A) (A) (A) (A) (A) (A) (A)
                 (A) (A) (A) (A) (A) (A) (A) (A) (A) (A) (A) (A)
                 (A) (A) (A) (A) (A) (A)
     8 initial guesses have been made.
 Convergence on wavefunction:    0.001000000000000
 Iteration     1 Dimension     8 NMult     0 NNew      8
 CISAX will form     8 AO SS matrices at one time.
 Iteration     2 Dimension    12 NMult     8 NNew      4
 Iteration     3 Dimension    16 NMult    12 NNew      4
 Iteration     4 Dimension    20 NMult    16 NNew      4
 Iteration     5 Dimension    24 NMult    20 NNew      4
 Iteration     6 Dimension    28 NMult    24 NNew      4
 Iteration     7 Dimension    32 NMult    28 NNew      4
 ***********************************************************************
 Excited states from <AA,BB:AA,BB> singles matrix:
 ***********************************************************************
 
 Ground to excited state transition densities written to RWF  633
 Ground to excited state transition electric dipole moments (Au):
       state          X           Y           Z        Dip. S.      Osc.
         1         0.3921      2.1553      0.3532      4.9237      0.2444
 Ground to excited state transition velocity dipole moments (Au):
       state          X           Y           Z        Dip. S.      Osc.
         1        -0.0277     -0.1554     -0.0263      0.0256      0.2292
 Ground to excited state transition magnetic dipole moments (Au):
       state          X           Y           Z
         1        -0.5896     -0.5819      3.9019
 Ground to excited state transition velocity quadrupole moments (Au):
       state          XX          YY          ZZ          XY          XZ          YZ
         1         0.7707     -0.2185     -0.0366      1.9612      0.3277     -0.1146
 <0|del|b> * <b|rxdel|0> + <0|del|b> * <b|delr+rdel|0>
 Rotatory Strengths (R) in cgs (10**-40 erg-esu-cm/Gauss)
       state          XX          YY          ZZ    R(velocity)    E-M Angle
         1       -62.0815   -149.9860    249.9872     12.6399       89.64
 1/2[<0|r|b>*<b|rxdel|0> + (<0|rxdel|b>*<b|r|0>)*]
 Rotatory Strengths (R) in cgs (10**-40 erg-esu-cm/Gauss)
       state          XX          YY          ZZ     R(length)
         1       163.4687    886.8555   -974.6428     25.2271
  1/2[<0|del|b>*<b|r|0> + (<0|r|b>*<b|del|0>)*] (Au)
       state          X           Y           Z        Dip. S.   Osc.(frdel)
         1        -0.0109     -0.3348     -0.0093      0.3550      0.2367

 Excitation energies and oscillator strengths:
 
 Excited State   1:      Singlet-A      2.0261 eV  611.93 nm  f=0.2444  <S**2>=0.000
     240 -> 243       -0.24204
     241 -> 242        0.65610
 This state for optimization and/or second-order correction.
 Total Energy, E(TD-HF/TD-KS) =  -2932.64076543    
 Copying the excited state density for this state as the 1-particle RhoCI density.
 SavETr:  write IOETrn=   770 NScale= 10 NData=  16 NLR=1 NState=    1 LETran=      28.

 **********************************************************************

            Population analysis using the SCF density.

 **********************************************************************

 Orbital symmetries:
       Occupied  (A) (A) (A) (A) (A) (A) (A) (A) (A) (A) (A) (A)
                 (A) (A) (A) (A) (A) (A) (A) (A) (A) (A) (A) (A)
                 (A) (A) (A) (A) (A) (A) (A) (A) (A) (A) (A) (A)
                 (A) (A) (A) (A) (A) (A) (A) (A) (A) (A) (A) (A)
                 (A) (A) (A) (A) (A) (A) (A) (A) (A) (A) (A) (A)
                 (A) (A) (A) (A) (A) (A) (A) (A) (A) (A) (A) (A)
                 (A) (A) (A) (A) (A) (A) (A) (A) (A) (A) (A) (A)
                 (A) (A) (A) (A) (A) (A) (A) (A) (A) (A) (A) (A)
                 (A) (A) (A) (A) (A) (A) (A) (A) (A) (A) (A) (A)
                 (A) (A) (A) (A) (A) (A) (A) (A) (A) (A) (A) (A)
                 (A) (A) (A) (A) (A) (A) (A) (A) (A) (A) (A) (A)
                 (A) (A) (A) (A) (A) (A) (A) (A) (A) (A) (A) (A)
                 (A) (A) (A) (A) (A) (A) (A) (A) (A) (A) (A) (A)
                 (A) (A) (A) (A) (A) (A) (A) (A) (A) (A) (A) (A)
                 (A) (A) (A) (A) (A) (A) (A) (A) (A) (A) (A) (A)
                 (A) (A) (A) (A) (A) (A) (A) (A) (A) (A) (A) (A)
                 (A) (A) (A) (A) (A) (A) (A) (A) (A) (A) (A) (A)
                 (A) (A) (A) (A) (A) (A) (A) (A) (A) (A) (A) (A)
                 (A) (A) (A) (A) (A) (A) (A) (A) (A) (A) (A) (A)
                 (A) (A) (A) (A) (A) (A) (A) (A) (A) (A) (A) (A)
                 (A)
       Virtual   (A) (A) (A) (A) (A) (A) (A) (A) (A) (A) (A) (A)
                 (A) (A) (A) (A) (A) (A) (A) (A) (A) (A) (A) (A)
                 (A) (A) (A) (A) (A) (A) (A) (A) (A) (A) (A) (A)
                 (A) (A) (A) (A) (A) (A) (A) (A) (A) (A) (A) (A)
                 (A) (A) (A) (A) (A) (A) (A) (A) (A) (A) (A) (A)
                 (A) (A) (A) (A) (A) (A) (A) (A) (A) (A) (A) (A)
                 (A) (A) (A) (A) (A) (A) (A) (A) (A) (A) (A) (A)
                 (A) (A) (A) (A) (A) (A) (A) (A) (A) (A) (A) (A)
                 (A) (A) (A) (A) (A) (A) (A) (A) (A) (A) (A) (A)
                 (A) (A) (A) (A) (A) (A) (A) (A) (A) (A) (A) (A)
                 (A) (A) (A) (A) (A) (A) (A) (A) (A) (A) (A) (A)
                 (A) (A) (A) (A) (A) (A) (A) (A) (A) (A) (A) (A)
                 (A) (A) (A) (A) (A) (A) (A) (A) (A) (A) (A) (A)
                 (A) (A) (A) (A) (A) (A) (A) (A) (A) (A) (A) (A)
                 (A) (A) (A) (A) (A) (A) (A) (A) (A) (A) (A) (A)
                 (A) (A) (A) (A) (A) (A) (A) (A) (A) (A) (A) (A)
                 (A) (A) (A) (A) (A) (A) (A) (A) (A) (A) (A) (A)
                 (A) (A) (A) (A) (A) (A) (A) (A) (A) (A) (A) (A)
                 (A) (A) (A) (A) (A) (A) (A) (A) (A) (A) (A) (A)
                 (A) (A) (A) (A) (A) (A) (A) (A) (A) (A) (A) (A)
                 (A) (A) (A) (A) (A) (A) (A) (A) (A) (A) (A) (A)
                 (A) (A) (A) (A) (A) (A) (A) (A) (A) (A) (A) (A)
                 (A) (A) (A) (A) (A) (A) (A) (A) (A) (A) (A) (A)
                 (A) (A) (A) (A) (A) (A) (A) (A) (A) (A) (A) (A)
                 (A) (A) (A) (A) (A) (A) (A) (A) (A) (A) (A) (A)
                 (A) (A) (A) (A) (A) (A) (A) (A) (A) (A) (A) (A)
                 (A) (A) (A) (A) (A) (A) (A) (A) (A) (A) (A) (A)
                 (A) (A) (A) (A) (A) (A) (A) (A) (A) (A) (A) (A)
                 (A) (A) (A) (A) (A) (A) (A) (A) (A) (A) (A) (A)
                 (A) (A) (A) (A) (A) (A) (A) (A) (A) (A) (A) (A)
                 (A) (A) (A) (A) (A) (A) (A) (A) (A) (A) (A) (A)
                 (A) (A) (A) (A) (A) (A) (A) (A) (A) (A) (A) (A)
                 (A) (A) (A) (A) (A) (A) (A) (A) (A) (A) (A) (A)
                 (A) (A) (A) (A) (A) (A) (A) (A) (A) (A) (A) (A)
                 (A) (A) (A) (A) (A) (A) (A) (A) (A) (A) (A) (A)
                 (A) (A) (A) (A) (A) (A) (A) (A) (A) (A) (A) (A)
                 (A) (A) (A) (A) (A) (A) (A) (A) (A) (A) (A) (A)
                 (A) (A) (A) (A) (A) (A) (A) (A) (A) (A) (A) (A)
                 (A) (A) (A) (A) (A) (A) (A) (A) (A) (A) (A) (A)
                 (A) (A) (A) (A) (A) (A) (A) (A) (A) (A) (A) (A)
                 (A) (A) (A) (A) (A) (A) (A) (A) (A) (A) (A) (A)
                 (A) (A) (A) (A) (A) (A) (A) (A) (A) (A) (A) (A)
                 (A) (A) (A) (A) (A) (A) (A) (A) (A) (A) (A) (A)
                 (A) (A) (A) (A) (A) (A) (A) (A) (A) (A) (A) (A)
                 (A) (A) (A) (A) (A) (A) (A) (A) (A) (A) (A) (A)
                 (A) (A) (A) (A) (A) (A) (A) (A) (A) (A) (A) (A)
                 (A) (A) (A) (A) (A) (A) (A) (A) (A) (A) (A) (A)
                 (A) (A) (A) (A) (A) (A) (A) (A) (A) (A) (A) (A)
                 (A) (A) (A) (A) (A) (A) (A) (A) (A) (A) (A) (A)
                 (A) (A) (A) (A) (A) (A) (A) (A) (A) (A) (A) (A)
                 (A) (A) (A) (A) (A) (A) (A) (A) (A) (A) (A) (A)
                 (A) (A) (A) (A) (A) (A) (A) (A) (A) (A) (A) (A)
                 (A) (A) (A) (A) (A) (A) (A) (A) (A) (A) (A) (A)
                 (A) (A) (A) (A) (A) (A) (A) (A) (A) (A) (A) (A)
                 (A) (A) (A) (A) (A) (A) (A) (A) (A) (A) (A) (A)
                 (A) (A) (A) (A) (A) (A) (A) (A) (A) (A) (A) (A)
                 (A) (A) (A) (A) (A) (A) (A) (A) (A) (A) (A) (A)
                 (A) (A) (A) (A) (A) (A) (A) (A) (A) (A) (A) (A)
                 (A) (A) (A) (A) (A) (A) (A) (A) (A) (A) (A) (A)
                 (A) (A) (A) (A) (A) (A) (A) (A) (A) (A) (A) (A)
                 (A) (A) (A) (A) (A) (A) (A) (A) (A) (A) (A) (A)
                 (A) (A) (A) (A) (A) (A) (A) (A) (A) (A) (A) (A)
                 (A) (A) (A) (A) (A) (A) (A) (A) (A) (A) (A) (A)
                 (A) (A) (A) (A) (A) (A) (A) (A) (A) (A) (A) (A)
                 (A) (A) (A) (A) (A) (A) (A) (A) (A) (A) (A) (A)
                 (A) (A) (A) (A) (A) (A) (A) (A) (A) (A) (A) (A)
                 (A) (A) (A) (A) (A) (A) (A) (A) (A) (A) (A) (A)
                 (A) (A) (A) (A) (A) (A) (A) (A) (A) (A) (A) (A)
                 (A) (A) (A) (A) (A) (A) (A) (A) (A) (A) (A) (A)
                 (A) (A) (A) (A) (A) (A) (A) (A) (A) (A) (A) (A)
                 (A) (A) (A) (A) (A) (A) (A) (A) (A) (A) (A) (A)
                 (A) (A) (A) (A) (A) (A) (A) (A) (A) (A) (A) (A)
                 (A) (A) (A) (A) (A) (A) (A) (A) (A) (A) (A) (A)
                 (A) (A) (A) (A) (A) (A) (A) (A) (A) (A) (A) (A)
                 (A) (A) (A) (A) (A) (A) (A) (A) (A) (A) (A) (A)
                 (A) (A) (A) (A) (A) (A) (A) (A) (A) (A) (A) (A)
                 (A) (A) (A) (A) (A) (A) (A) (A) (A) (A) (A) (A)
                 (A) (A) (A) (A) (A) (A) (A) (A) (A) (A) (A) (A)
                 (A) (A) (A) (A) (A) (A) (A) (A) (A) (A) (A) (A)
                 (A) (A) (A) (A) (A) (A) (A) (A) (A) (A) (A) (A)
                 (A) (A) (A) (A) (A) (A) (A) (A) (A) (A) (A) (A)
                 (A) (A) (A) (A) (A) (A) (A) (A) (A) (A) (A) (A)
                 (A) (A) (A) (A) (A) (A) (A) (A) (A) (A) (A) (A)
                 (A) (A) (A) (A) (A) (A) (A) (A) (A) (A) (A) (A)
                 (A) (A) (A) (A) (A) (A) (A) (A) (A) (A) (A) (A)
                 (A) (A) (A) (A) (A) (A) (A) (A) (A) (A) (A) (A)
                 (A) (A) (A) (A) (A) (A) (A) (A) (A) (A) (A) (A)
                 (A) (A) (A) (A) (A) (A) (A) (A) (A) (A) (A) (A)
                 (A) (A) (A) (A) (A) (A) (A) (A) (A) (A) (A) (A)
                 (A) (A) (A) (A) (A) (A) (A) (A) (A) (A) (A) (A)
                 (A) (A) (A) (A) (A) (A) (A) (A) (A) (A) (A) (A)
                 (A) (A) (A) (A) (A) (A)
 The electronic state is 1-A.
 Alpha  occ. eigenvalues --  -46.84146 -19.27161 -19.26840 -19.20091 -19.19896
 Alpha  occ. eigenvalues --  -19.19709 -14.41433 -14.39708 -14.39335 -14.38509
 Alpha  occ. eigenvalues --  -10.38497 -10.38441 -10.35188 -10.33519 -10.31191
 Alpha  occ. eigenvalues --  -10.30585 -10.30411 -10.30275 -10.29700 -10.29420
 Alpha  occ. eigenvalues --  -10.29346 -10.29126 -10.29120 -10.28981 -10.28872
 Alpha  occ. eigenvalues --  -10.28846 -10.28643 -10.28613 -10.28358 -10.28130
 Alpha  occ. eigenvalues --  -10.28114 -10.27822 -10.27647 -10.27478 -10.27358
 Alpha  occ. eigenvalues --  -10.27045 -10.27035 -10.26886 -10.26807 -10.26787
 Alpha  occ. eigenvalues --  -10.26689 -10.26632 -10.26539 -10.26465 -10.26355
 Alpha  occ. eigenvalues --  -10.26242 -10.26207 -10.26101 -10.26096 -10.26018
 Alpha  occ. eigenvalues --  -10.25652 -10.25637 -10.25578 -10.25575 -10.25527
 Alpha  occ. eigenvalues --  -10.25179 -10.25108 -10.25011 -10.24951 -10.24758
 Alpha  occ. eigenvalues --  -10.24700 -10.24686 -10.24665 -10.24560 -10.24359
 Alpha  occ. eigenvalues --   -3.13169  -1.87876  -1.87397  -1.87353  -1.21335
 Alpha  occ. eigenvalues --   -1.19480  -1.09289  -1.08922  -1.08020  -1.04340
 Alpha  occ. eigenvalues --   -1.03789  -1.02652  -1.02037  -0.92223  -0.91668
 Alpha  occ. eigenvalues --   -0.91439  -0.90398  -0.89895  -0.89042  -0.88916
 Alpha  occ. eigenvalues --   -0.88599  -0.87937  -0.87551  -0.87175  -0.86158
 Alpha  occ. eigenvalues --   -0.85146  -0.84557  -0.83936  -0.83153  -0.82137
 Alpha  occ. eigenvalues --   -0.81767  -0.81354  -0.80241  -0.79663  -0.78138
 Alpha  occ. eigenvalues --   -0.77797  -0.76571  -0.76246  -0.76111  -0.74814
 Alpha  occ. eigenvalues --   -0.74739  -0.74440  -0.74013  -0.73430  -0.72749
 Alpha  occ. eigenvalues --   -0.71347  -0.70711  -0.70144  -0.69666  -0.68259
 Alpha  occ. eigenvalues --   -0.67466  -0.66958  -0.65305  -0.64882  -0.64759
 Alpha  occ. eigenvalues --   -0.63702  -0.63285  -0.62954  -0.62667  -0.61934
 Alpha  occ. eigenvalues --   -0.61470  -0.60701  -0.59771  -0.59456  -0.59133
 Alpha  occ. eigenvalues --   -0.58380  -0.58057  -0.57669  -0.57445  -0.56976
 Alpha  occ. eigenvalues --   -0.56619  -0.55979  -0.55382  -0.54986  -0.54873
 Alpha  occ. eigenvalues --   -0.54643  -0.54266  -0.54095  -0.53683  -0.53499
 Alpha  occ. eigenvalues --   -0.52850  -0.52417  -0.52076  -0.51790  -0.51376
 Alpha  occ. eigenvalues --   -0.51036  -0.50674  -0.50554  -0.50513  -0.50289
 Alpha  occ. eigenvalues --   -0.50212  -0.49753  -0.49604  -0.49440  -0.49110
 Alpha  occ. eigenvalues --   -0.48954  -0.48523  -0.48394  -0.48237  -0.48006
 Alpha  occ. eigenvalues --   -0.47818  -0.47627  -0.47401  -0.47071  -0.46922
 Alpha  occ. eigenvalues --   -0.46774  -0.46531  -0.46395  -0.45847  -0.45748
 Alpha  occ. eigenvalues --   -0.45503  -0.45284  -0.45179  -0.44825  -0.44780
 Alpha  occ. eigenvalues --   -0.44622  -0.44466  -0.44317  -0.44147  -0.43943
 Alpha  occ. eigenvalues --   -0.43841  -0.43748  -0.43488  -0.43417  -0.43167
 Alpha  occ. eigenvalues --   -0.42883  -0.42794  -0.42498  -0.42430  -0.42302
 Alpha  occ. eigenvalues --   -0.42016  -0.41793  -0.41594  -0.41250  -0.41177
 Alpha  occ. eigenvalues --   -0.41136  -0.40829  -0.40751  -0.40541  -0.40348
 Alpha  occ. eigenvalues --   -0.39930  -0.39749  -0.39078  -0.38965  -0.38836
 Alpha  occ. eigenvalues --   -0.38802  -0.38744  -0.38419  -0.38257  -0.37698
 Alpha  occ. eigenvalues --   -0.37614  -0.37156  -0.37024  -0.36753  -0.36499
 Alpha  occ. eigenvalues --   -0.36419  -0.36244  -0.36175  -0.35958  -0.35660
 Alpha  occ. eigenvalues --   -0.35268  -0.35097  -0.34238  -0.34199  -0.33222
 Alpha  occ. eigenvalues --   -0.33105  -0.32661  -0.31978  -0.31323  -0.30525
 Alpha  occ. eigenvalues --   -0.29765  -0.29381  -0.27846  -0.26740  -0.23214
 Alpha  occ. eigenvalues --   -0.21682
 Alpha virt. eigenvalues --   -0.07036  -0.03253   0.01161   0.03339   0.05452
 Alpha virt. eigenvalues --    0.05507   0.06285   0.06714   0.07570   0.07851
 Alpha virt. eigenvalues --    0.08559   0.10711   0.11311   0.11669   0.11767
 Alpha virt. eigenvalues --    0.12241   0.12296   0.12742   0.12782   0.13120
 Alpha virt. eigenvalues --    0.13137   0.13366   0.13434   0.13815   0.14043
 Alpha virt. eigenvalues --    0.14124   0.14451   0.14699   0.15437   0.15490
 Alpha virt. eigenvalues --    0.15628   0.16009   0.16091   0.16245   0.16321
 Alpha virt. eigenvalues --    0.16558   0.16887   0.16969   0.17213   0.17281
 Alpha virt. eigenvalues --    0.17316   0.17556   0.17795   0.17997   0.18169
 Alpha virt. eigenvalues --    0.18319   0.18482   0.18531   0.18747   0.19115
 Alpha virt. eigenvalues --    0.19272   0.19361   0.19474   0.19589   0.19929
 Alpha virt. eigenvalues --    0.20019   0.20097   0.20240   0.20597   0.20687
 Alpha virt. eigenvalues --    0.20971   0.20992   0.21178   0.21219   0.21313
 Alpha virt. eigenvalues --    0.21816   0.21933   0.22068   0.22229   0.22324
 Alpha virt. eigenvalues --    0.22802   0.22813   0.23033   0.23121   0.23393
 Alpha virt. eigenvalues --    0.23424   0.23714   0.24078   0.24216   0.24304
 Alpha virt. eigenvalues --    0.24546   0.24719   0.24845   0.25079   0.25520
 Alpha virt. eigenvalues --    0.25568   0.25778   0.25965   0.26117   0.26183
 Alpha virt. eigenvalues --    0.26239   0.26687   0.27027   0.27281   0.27327
 Alpha virt. eigenvalues --    0.27535   0.28131   0.28229   0.28484   0.28612
 Alpha virt. eigenvalues --    0.28703   0.29040   0.29323   0.29443   0.29530
 Alpha virt. eigenvalues --    0.29703   0.29936   0.30193   0.30447   0.30591
 Alpha virt. eigenvalues --    0.30829   0.31081   0.31416   0.31627   0.32004
 Alpha virt. eigenvalues --    0.32240   0.32414   0.32687   0.32836   0.33146
 Alpha virt. eigenvalues --    0.33335   0.33650   0.33828   0.33950   0.34717
 Alpha virt. eigenvalues --    0.34990   0.35171   0.35356   0.35545   0.35872
 Alpha virt. eigenvalues --    0.36488   0.37294   0.37752   0.37840   0.38476
 Alpha virt. eigenvalues --    0.39383   0.39680   0.40142   0.40571   0.40826
 Alpha virt. eigenvalues --    0.41629   0.41939   0.42132   0.42577   0.42854
 Alpha virt. eigenvalues --    0.43616   0.43831   0.44898   0.45986   0.46225
 Alpha virt. eigenvalues --    0.47260   0.48011   0.48468   0.48968   0.49318
 Alpha virt. eigenvalues --    0.49769   0.50456   0.51123   0.52305   0.52417
 Alpha virt. eigenvalues --    0.52740   0.53260   0.53316   0.53626   0.53802
 Alpha virt. eigenvalues --    0.54395   0.54520   0.54804   0.55164   0.55406
 Alpha virt. eigenvalues --    0.56017   0.56135   0.56321   0.56608   0.57065
 Alpha virt. eigenvalues --    0.57152   0.57378   0.57695   0.57977   0.58374
 Alpha virt. eigenvalues --    0.58648   0.58702   0.58941   0.59284   0.59554
 Alpha virt. eigenvalues --    0.59614   0.60008   0.60082   0.60256   0.60378
 Alpha virt. eigenvalues --    0.60622   0.61025   0.61318   0.61601   0.61697
 Alpha virt. eigenvalues --    0.62044   0.62200   0.62416   0.62495   0.62820
 Alpha virt. eigenvalues --    0.63029   0.63206   0.63389   0.63657   0.63886
 Alpha virt. eigenvalues --    0.63983   0.64780   0.65068   0.65218   0.65326
 Alpha virt. eigenvalues --    0.65741   0.66274   0.66390   0.66632   0.66723
 Alpha virt. eigenvalues --    0.66820   0.67068   0.67712   0.67872   0.68072
 Alpha virt. eigenvalues --    0.68210   0.68594   0.68698   0.68803   0.69030
 Alpha virt. eigenvalues --    0.69240   0.69649   0.69781   0.70081   0.70404
 Alpha virt. eigenvalues --    0.70564   0.70826   0.70888   0.71213   0.71578
 Alpha virt. eigenvalues --    0.71737   0.72209   0.72257   0.72447   0.72737
 Alpha virt. eigenvalues --    0.72812   0.73044   0.73376   0.73767   0.73945
 Alpha virt. eigenvalues --    0.74413   0.74883   0.75074   0.75375   0.75567
 Alpha virt. eigenvalues --    0.75967   0.76098   0.76197   0.76596   0.76700
 Alpha virt. eigenvalues --    0.76951   0.77446   0.77597   0.77617   0.77952
 Alpha virt. eigenvalues --    0.78328   0.78444   0.78683   0.79014   0.79181
 Alpha virt. eigenvalues --    0.79657   0.79780   0.79918   0.80153   0.80240
 Alpha virt. eigenvalues --    0.80717   0.80864   0.81168   0.81190   0.81591
 Alpha virt. eigenvalues --    0.81846   0.82118   0.82403   0.82531   0.82807
 Alpha virt. eigenvalues --    0.83200   0.83559   0.83634   0.83908   0.84034
 Alpha virt. eigenvalues --    0.84091   0.84408   0.84584   0.84653   0.85022
 Alpha virt. eigenvalues --    0.85263   0.85474   0.85606   0.85841   0.86151
 Alpha virt. eigenvalues --    0.86348   0.86451   0.87168   0.87284   0.87391
 Alpha virt. eigenvalues --    0.87433   0.87497   0.87755   0.87976   0.88317
 Alpha virt. eigenvalues --    0.88570   0.88855   0.88941   0.88982   0.89334
 Alpha virt. eigenvalues --    0.89747   0.89853   0.90138   0.90258   0.90489
 Alpha virt. eigenvalues --    0.90767   0.90952   0.91134   0.91222   0.91581
 Alpha virt. eigenvalues --    0.91770   0.92194   0.92315   0.92351   0.92637
 Alpha virt. eigenvalues --    0.92650   0.92817   0.92951   0.93209   0.93282
 Alpha virt. eigenvalues --    0.93421   0.93713   0.94071   0.94274   0.94354
 Alpha virt. eigenvalues --    0.94589   0.94915   0.94960   0.95171   0.95423
 Alpha virt. eigenvalues --    0.95546   0.95805   0.95900   0.96541   0.96667
 Alpha virt. eigenvalues --    0.96822   0.97061   0.97312   0.97534   0.97555
 Alpha virt. eigenvalues --    0.97630   0.98019   0.98060   0.98489   0.98698
 Alpha virt. eigenvalues --    0.98888   0.98991   0.99442   0.99707   0.99869
 Alpha virt. eigenvalues --    0.99926   1.00013   1.00231   1.00522   1.00559
 Alpha virt. eigenvalues --    1.00647   1.00973   1.01312   1.01809   1.02273
 Alpha virt. eigenvalues --    1.02315   1.02491   1.02676   1.02721   1.02947
 Alpha virt. eigenvalues --    1.03276   1.03557   1.03743   1.03879   1.04118
 Alpha virt. eigenvalues --    1.04317   1.04567   1.04677   1.04864   1.05333
 Alpha virt. eigenvalues --    1.05521   1.06051   1.06175   1.06447   1.07080
 Alpha virt. eigenvalues --    1.07332   1.07435   1.07769   1.07939   1.08425
 Alpha virt. eigenvalues --    1.08998   1.09295   1.09928   1.10419   1.10551
 Alpha virt. eigenvalues --    1.11047   1.11512   1.11866   1.12449   1.12870
 Alpha virt. eigenvalues --    1.12976   1.13500   1.13953   1.14476   1.15243
 Alpha virt. eigenvalues --    1.15617   1.15865   1.16424   1.17606   1.17938
 Alpha virt. eigenvalues --    1.18312   1.18478   1.19226   1.19552   1.20042
 Alpha virt. eigenvalues --    1.20189   1.20810   1.21918   1.22316   1.23004
 Alpha virt. eigenvalues --    1.23848   1.24214   1.24757   1.25240   1.25682
 Alpha virt. eigenvalues --    1.26025   1.26274   1.26575   1.27177   1.27786
 Alpha virt. eigenvalues --    1.28152   1.28741   1.28999   1.29231   1.29535
 Alpha virt. eigenvalues --    1.30143   1.30906   1.31675   1.32167   1.33193
 Alpha virt. eigenvalues --    1.33478   1.34055   1.34486   1.34730   1.35746
 Alpha virt. eigenvalues --    1.36378   1.36478   1.36566   1.36918   1.37419
 Alpha virt. eigenvalues --    1.38062   1.38890   1.39443   1.39912   1.40322
 Alpha virt. eigenvalues --    1.41369   1.41783   1.41843   1.42222   1.42543
 Alpha virt. eigenvalues --    1.43454   1.43984   1.44537   1.44636   1.44917
 Alpha virt. eigenvalues --    1.45226   1.46139   1.46347   1.46719   1.46956
 Alpha virt. eigenvalues --    1.47177   1.47403   1.48864   1.49356   1.49894
 Alpha virt. eigenvalues --    1.50282   1.50898   1.51714   1.52182   1.52501
 Alpha virt. eigenvalues --    1.53380   1.53737   1.54176   1.54359   1.54640
 Alpha virt. eigenvalues --    1.55029   1.55869   1.56573   1.56842   1.57242
 Alpha virt. eigenvalues --    1.57561   1.58311   1.58592   1.58839   1.59003
 Alpha virt. eigenvalues --    1.59116   1.60262   1.60855   1.61366   1.61658
 Alpha virt. eigenvalues --    1.61746   1.62700   1.62810   1.63237   1.63421
 Alpha virt. eigenvalues --    1.63789   1.64176   1.64745   1.65285   1.65605
 Alpha virt. eigenvalues --    1.65619   1.65880   1.66224   1.66830   1.67256
 Alpha virt. eigenvalues --    1.67448   1.68033   1.68257   1.68629   1.69365
 Alpha virt. eigenvalues --    1.69617   1.69661   1.70292   1.70546   1.70987
 Alpha virt. eigenvalues --    1.71856   1.72187   1.73246   1.73441   1.73571
 Alpha virt. eigenvalues --    1.74298   1.74864   1.75180   1.75759   1.76132
 Alpha virt. eigenvalues --    1.77347   1.77581   1.77799   1.77804   1.78039
 Alpha virt. eigenvalues --    1.78458   1.78732   1.79196   1.79463   1.79741
 Alpha virt. eigenvalues --    1.80276   1.80599   1.80980   1.81464   1.81703
 Alpha virt. eigenvalues --    1.82352   1.82862   1.83085   1.83583   1.83810
 Alpha virt. eigenvalues --    1.84074   1.84478   1.84884   1.85404   1.85621
 Alpha virt. eigenvalues --    1.85995   1.86515   1.86645   1.86931   1.86963
 Alpha virt. eigenvalues --    1.87314   1.87769   1.88009   1.88228   1.88630
 Alpha virt. eigenvalues --    1.88651   1.88767   1.88951   1.89528   1.89682
 Alpha virt. eigenvalues --    1.89832   1.90148   1.90293   1.90782   1.90925
 Alpha virt. eigenvalues --    1.90984   1.91092   1.91520   1.91727   1.92028
 Alpha virt. eigenvalues --    1.92282   1.92629   1.92822   1.93019   1.93524
 Alpha virt. eigenvalues --    1.93542   1.93749   1.94119   1.94385   1.94580
 Alpha virt. eigenvalues --    1.95301   1.95399   1.95649   1.95939   1.96109
 Alpha virt. eigenvalues --    1.96555   1.96646   1.96793   1.97038   1.97091
 Alpha virt. eigenvalues --    1.97455   1.97677   1.97972   1.98335   1.98432
 Alpha virt. eigenvalues --    1.98766   1.99152   1.99504   1.99900   2.00173
 Alpha virt. eigenvalues --    2.00497   2.00939   2.01107   2.01276   2.01499
 Alpha virt. eigenvalues --    2.01633   2.02293   2.02632   2.02712   2.02951
 Alpha virt. eigenvalues --    2.03116   2.03316   2.03519   2.03822   2.04021
 Alpha virt. eigenvalues --    2.04297   2.04398   2.05285   2.05423   2.05629
 Alpha virt. eigenvalues --    2.05956   2.06164   2.06452   2.06726   2.07081
 Alpha virt. eigenvalues --    2.07375   2.07747   2.07817   2.08157   2.08442
 Alpha virt. eigenvalues --    2.08590   2.08910   2.09591   2.09705   2.10502
 Alpha virt. eigenvalues --    2.10755   2.10996   2.11045   2.11427   2.11622
 Alpha virt. eigenvalues --    2.11816   2.12482   2.12563   2.12609   2.12792
 Alpha virt. eigenvalues --    2.12879   2.13117   2.14110   2.14193   2.14735
 Alpha virt. eigenvalues --    2.14780   2.15281   2.15308   2.15638   2.16646
 Alpha virt. eigenvalues --    2.16801   2.16980   2.17215   2.18069   2.18258
 Alpha virt. eigenvalues --    2.18358   2.18590   2.18765   2.18819   2.18912
 Alpha virt. eigenvalues --    2.19409   2.19613   2.19892   2.20492   2.20738
 Alpha virt. eigenvalues --    2.21615   2.21759   2.22041   2.22491   2.22589
 Alpha virt. eigenvalues --    2.23015   2.23378   2.23427   2.23630   2.23905
 Alpha virt. eigenvalues --    2.24134   2.24491   2.25149   2.25234   2.25395
 Alpha virt. eigenvalues --    2.25811   2.26345   2.26458   2.26821   2.27000
 Alpha virt. eigenvalues --    2.27235   2.27770   2.27787   2.28493   2.28792
 Alpha virt. eigenvalues --    2.29645   2.29916   2.30063   2.30217   2.30421
 Alpha virt. eigenvalues --    2.30701   2.31747   2.31954   2.32154   2.32304
 Alpha virt. eigenvalues --    2.32446   2.33061   2.33130   2.33245   2.33741
 Alpha virt. eigenvalues --    2.34104   2.34446   2.34667   2.35511   2.35633
 Alpha virt. eigenvalues --    2.36027   2.36345   2.36929   2.37334   2.37499
 Alpha virt. eigenvalues --    2.37648   2.38016   2.38265   2.38329   2.38461
 Alpha virt. eigenvalues --    2.39324   2.39721   2.39807   2.40111   2.40691
 Alpha virt. eigenvalues --    2.40878   2.41108   2.41322   2.41593   2.41735
 Alpha virt. eigenvalues --    2.42103   2.42516   2.42640   2.42875   2.43210
 Alpha virt. eigenvalues --    2.43744   2.43893   2.44091   2.44191   2.44263
 Alpha virt. eigenvalues --    2.44692   2.45277   2.45429   2.45818   2.45926
 Alpha virt. eigenvalues --    2.46150   2.46326   2.46623   2.47028   2.47357
 Alpha virt. eigenvalues --    2.47674   2.47865   2.48332   2.48904   2.48983
 Alpha virt. eigenvalues --    2.49479   2.49873   2.50157   2.50516   2.50634
 Alpha virt. eigenvalues --    2.51202   2.51557   2.51912   2.52174   2.52613
 Alpha virt. eigenvalues --    2.53536   2.53591   2.53716   2.54269   2.55036
 Alpha virt. eigenvalues --    2.55253   2.55829   2.56270   2.56541   2.56951
 Alpha virt. eigenvalues --    2.57879   2.58125   2.58203   2.58279   2.58504
 Alpha virt. eigenvalues --    2.58659   2.59053   2.59702   2.60073   2.60242
 Alpha virt. eigenvalues --    2.60686   2.61189   2.61934   2.62307   2.62476
 Alpha virt. eigenvalues --    2.62813   2.63189   2.63535   2.63791   2.64130
 Alpha virt. eigenvalues --    2.64729   2.64779   2.65205   2.65615   2.66063
 Alpha virt. eigenvalues --    2.66522   2.67003   2.67410   2.67685   2.67841
 Alpha virt. eigenvalues --    2.68604   2.68802   2.69157   2.69573   2.69925
 Alpha virt. eigenvalues --    2.70348   2.70786   2.71051   2.71070   2.71319
 Alpha virt. eigenvalues --    2.71985   2.72088   2.72574   2.72864   2.72964
 Alpha virt. eigenvalues --    2.73472   2.73766   2.73827   2.74464   2.74555
 Alpha virt. eigenvalues --    2.74844   2.74986   2.75232   2.75779   2.75908
 Alpha virt. eigenvalues --    2.75972   2.76348   2.76396   2.77236   2.77660
 Alpha virt. eigenvalues --    2.78151   2.78450   2.79113   2.79342   2.79673
 Alpha virt. eigenvalues --    2.80065   2.80283   2.80412   2.80739   2.81310
 Alpha virt. eigenvalues --    2.81568   2.81868   2.82870   2.83266   2.83486
 Alpha virt. eigenvalues --    2.83666   2.83756   2.84343   2.84505   2.85084
 Alpha virt. eigenvalues --    2.85493   2.85785   2.86049   2.86224   2.86398
 Alpha virt. eigenvalues --    2.86806   2.87309   2.87615   2.87918   2.88447
 Alpha virt. eigenvalues --    2.88630   2.89704   2.89817   2.90081   2.90223
 Alpha virt. eigenvalues --    2.90807   2.91135   2.91203   2.91241   2.91526
 Alpha virt. eigenvalues --    2.91807   2.91980   2.92024   2.92675   2.92859
 Alpha virt. eigenvalues --    2.93092   2.93582   2.93717   2.94223   2.94701
 Alpha virt. eigenvalues --    2.94919   2.95083   2.95643   2.95984   2.96230
 Alpha virt. eigenvalues --    2.96847   2.97293   2.97340   2.98027   2.98137
 Alpha virt. eigenvalues --    2.99085   2.99326   3.00260   3.00423   3.00631
 Alpha virt. eigenvalues --    3.01044   3.01392   3.01576   3.02029   3.02668
 Alpha virt. eigenvalues --    3.02959   3.03311   3.04072   3.04437   3.04596
 Alpha virt. eigenvalues --    3.04921   3.05324   3.05627   3.05892   3.06817
 Alpha virt. eigenvalues --    3.07067   3.08286   3.08563   3.09027   3.09701
 Alpha virt. eigenvalues --    3.11085   3.11571   3.12579   3.13707   3.14807
 Alpha virt. eigenvalues --    3.14841   3.14984   3.15739   3.16160   3.17936
 Alpha virt. eigenvalues --    3.18115   3.18311   3.18470   3.19262   3.20281
 Alpha virt. eigenvalues --    3.20783   3.21769   3.21819   3.22031   3.22724
 Alpha virt. eigenvalues --    3.24858   3.25358   3.25573   3.26464   3.26565
 Alpha virt. eigenvalues --    3.28337   3.28468   3.28601   3.29764   3.31069
 Alpha virt. eigenvalues --    3.31411   3.31984   3.32669   3.33191   3.34726
 Alpha virt. eigenvalues --    3.35129   3.36196   3.36670   3.38069   3.38174
 Alpha virt. eigenvalues --    3.38546   3.38931   3.40076   3.40437   3.40892
 Alpha virt. eigenvalues --    3.42230   3.43957   3.44447   3.44453   3.45225
 Alpha virt. eigenvalues --    3.45487   3.45507   3.46076   3.47079   3.47283
 Alpha virt. eigenvalues --    3.48298   3.48649   3.49853   3.50131   3.50871
 Alpha virt. eigenvalues --    3.51028   3.51306   3.53035   3.53753   3.55524
 Alpha virt. eigenvalues --    3.55794   3.56098   3.56353   3.57603   3.57852
 Alpha virt. eigenvalues --    3.58938   3.59288   3.60273   3.62533   3.63285
 Alpha virt. eigenvalues --    3.63578   3.63586   3.63762   3.63916   3.64755
 Alpha virt. eigenvalues --    3.66412   3.67019   3.67183   3.67356   3.69958
 Alpha virt. eigenvalues --    3.70140   3.74200   3.74700   3.75722   4.07255
 Alpha virt. eigenvalues --    4.10484   4.17178   4.19404   4.21566   4.23275
 Alpha virt. eigenvalues --    4.23609   4.24429   4.24774   4.26733   4.27139
 Alpha virt. eigenvalues --    4.29172   4.30418   4.32421   4.32996   4.34480
 Alpha virt. eigenvalues --    4.35081   4.37582   4.38053   4.38973   4.40344
 Alpha virt. eigenvalues --    4.40490   4.41319   4.42988   4.45144   4.45209
 Alpha virt. eigenvalues --    4.46383   4.47588   4.48273   4.49207   4.50027
 Alpha virt. eigenvalues --    4.50334   4.51367   4.53585   4.55906   4.56627
 Alpha virt. eigenvalues --    4.56918   4.57033   4.59196   4.59711   4.59913
 Alpha virt. eigenvalues --    4.60062   4.61841   4.62575   4.63712   4.68539
 Alpha virt. eigenvalues --    4.69303   4.69763   4.70197   4.71395   4.72664
 Alpha virt. eigenvalues --    4.74927   4.75120   4.76176   4.81043   4.81523
 Alpha virt. eigenvalues --    4.83556   4.85075   4.87319   4.89345   4.89909
 Alpha virt. eigenvalues --    4.90561   4.92357   4.99823
          Condensed to atoms (all electrons):
 Mulliken charges:
               1
     1  Mg   0.823517
     2  C    0.101760
     3  C   -0.183191
     4  C   -0.161109
     5  C   -0.156838
     6  N   -0.628916
     7  C    0.249390
     8  C   -0.153236
     9  C   -0.146472
    10  C    0.353428
    11  C   -0.310289
    12  C   -0.149344
    13  C   -0.274654
    14  C    0.595662
    15  O   -0.503589
    16  O   -0.448757
    17  N   -0.725678
    18  C    0.330234
    19  C    0.026815
    20  C    0.036720
    21  C    0.317732
    22  C   -0.348928
    23  C   -0.139758
    24  C   -0.239540
    25  N   -0.692833
    26  C    0.343168
    27  C    0.014884
    28  C    0.014887
    29  C    0.205996
    30  C   -0.378549
    31  C   -0.239159
    32  C   -0.297926
    33  N   -0.733587
    34  C    0.223314
    35  C    0.121365
    36  C   -0.037078
    37  C    0.333780
    38  C   -0.378979
    39  C    0.360089
    40  O   -0.486905
    41  C   -0.346435
    42  C    0.619358
    43  O   -0.489165
    44  O   -0.400536
    45  C   -0.084485
    46  C    0.017979
    47  C   -0.130651
    48  C    0.111170
    49  C   -0.368177
    50  C   -0.218868
    51  C   -0.181234
    52  C   -0.162390
    53  C   -0.058994
    54  C   -0.319919
    55  C   -0.151949
    56  C   -0.178804
    57  C   -0.153352
    58  C   -0.040818
    59  C   -0.303320
    60  C   -0.159876
    61  C   -0.190758
    62  C   -0.147897
    63  C   -0.044385
    64  C   -0.310692
    65  C   -0.286967
    66  H    0.076472
    67  H    0.077089
    68  H    0.098084
    69  H    0.125441
    70  H    0.089589
    71  H    0.119004
    72  H    0.098971
    73  H    0.124908
    74  H    0.121188
    75  H    0.123533
    76  H    0.126324
    77  H    0.130379
    78  H    0.127447
    79  H    0.101731
    80  H    0.083805
    81  H    0.103071
    82  H    0.090994
    83  H    0.113645
    84  H    0.123937
    85  H    0.103619
    86  H    0.127481
    87  H    0.092449
    88  H    0.107320
    89  H    0.113138
    90  H    0.129640
    91  H    0.103792
    92  H    0.098538
    93  H    0.155837
    94  H    0.123351
    95  H    0.160059
    96  H    0.115463
    97  H    0.121664
    98  H    0.130075
    99  H    0.137486
   100  H    0.133141
   101  H    0.062866
   102  H    0.115320
   103  H    0.111550
   104  H    0.105484
   105  H    0.111410
   106  H    0.099388
   107  H    0.099158
   108  H    0.105503
   109  H    0.080945
   110  H    0.104588
   111  H    0.066772
   112  H    0.094994
   113  H    0.103532
   114  H    0.094166
   115  H    0.059365
   116  H    0.083011
   117  H    0.103156
   118  H    0.092389
   119  H    0.073888
   120  H    0.073529
   121  H    0.098505
   122  H    0.101995
   123  H    0.095071
   124  H    0.078345
   125  H    0.081803
   126  H    0.056462
   127  H    0.087330
   128  H    0.104076
   129  H    0.066470
   130  H    0.084790
   131  H    0.094726
   132  H    0.110553
   133  H    0.081637
   134  H    0.080190
   135  H    0.085627
   136  H    0.115505
   137  H    0.070975
 Sum of Mulliken charges =   0.00000
 Mulliken charges with hydrogens summed into heavy atoms:
               1
     1  Mg   0.823517
     2  C    0.101760
     3  C   -0.106719
     4  C   -0.084020
     5  C   -0.058754
     6  N   -0.628916
     7  C    0.249390
     8  C   -0.027794
     9  C   -0.056883
    10  C    0.353428
    11  C    0.032594
    12  C    0.095376
    13  C   -0.017951
    14  C    0.595662
    15  O   -0.503589
    16  O   -0.448757
    17  N   -0.725678
    18  C    0.330234
    19  C    0.026815
    20  C    0.036720
    21  C    0.317732
    22  C   -0.035946
    23  C   -0.036688
    24  C   -0.034901
    25  N   -0.692833
    26  C    0.343168
    27  C    0.014884
    28  C    0.014887
    29  C    0.205996
    30  C   -0.023512
    31  C   -0.039390
    32  C    0.048644
    33  N   -0.733587
    34  C    0.223314
    35  C    0.121365
    36  C   -0.037078
    37  C    0.333780
    38  C   -0.001254
    39  C    0.360089
    40  O   -0.486905
    41  C   -0.186376
    42  C    0.619358
    43  O   -0.489165
    44  O   -0.400536
    45  C    0.282717
    46  C    0.288606
    47  C   -0.067785
    48  C    0.111170
    49  C   -0.035824
    50  C   -0.008070
    51  C    0.023427
    52  C    0.023143
    53  C    0.007778
    54  C   -0.027227
    55  C   -0.009572
    56  C    0.016740
    57  C   -0.005935
    58  C    0.057687
    59  C   -0.027909
    60  C   -0.021611
    61  C    0.000648
    62  C    0.003364
    63  C    0.050341
    64  C   -0.038311
    65  C   -0.014860
 Electronic spatial extent (au):  <R**2>=         179158.8833
 Charge=              0.0000 electrons
 Dipole moment (field-independent basis, Debye):
    X=              2.2177    Y=              3.9929    Z=              0.0291  Tot=              4.5675
 Quadrupole moment (field-independent basis, Debye-Ang):
   XX=           -341.0249   YY=           -395.6087   ZZ=           -398.5908
   XY=            -24.4254   XZ=             -2.5113   YZ=             -2.4548
 Traceless Quadrupole moment (field-independent basis, Debye-Ang):
   XX=             37.3832   YY=            -17.2006   ZZ=            -20.1827
   XY=            -24.4254   XZ=             -2.5113   YZ=             -2.4548
 Octapole moment (field-independent basis, Debye-Ang**2):
  XXX=           -620.5781  YYY=            118.5685  ZZZ=              1.8234  XYY=            -43.0644
  XXY=            -65.0387  XXZ=           -354.1967  XZZ=            -15.1125  YZZ=            -17.6629
  YYZ=             52.2102  XYZ=            -59.7776
 Hexadecapole moment (field-independent basis, Debye-Ang**3):
 XXXX=        -219205.5294 YYYY=         -17586.1867 ZZZZ=          -4282.8186 XXXY=          -2233.2969
 XXXZ=          -1129.7505 YYYX=          -1110.3100 YYYZ=           -152.8034 ZZZX=            -80.8650
 ZZZY=            -68.8327 XXYY=         -40347.9871 XXZZ=         -38918.5642 YYZZ=          -3468.6805
 XXYZ=           -602.8805 YYXZ=           -104.8656 ZZXY=            -14.8618
 N-N= 8.748330146418D+03 E-N=-2.431915823749D+04  KE= 2.904903384981D+03
 1\1\GINC-PEDRO-RYZENSSD\SP\RCAM-B3LYP TD-FC\6-31G(d,p)\C55H72Mg1N4O5\P
 ADAWAN\03-Jul-2019\0\\# td=(NStates=1) CAM-B3LYP/6-31G(d,p)\\TD\\0,1\M
 g,0,-7.1824788209,0.5852572738,0.1173194193\C,0,-4.8253971577,-1.94831
 601,0.5873052632\C,0,-4.7756474936,2.8407025176,1.1798443493\C,0,-9.42
 55672922,3.0372092164,-0.3462674864\C,0,-9.4398142951,-1.7947249835,-0
 .9767941085\N,0,-5.0638298076,0.4682666448,0.7451049288\C,0,-4.3116508
 712,-0.7183716592,0.7926472879\C,0,-2.8529342988,-0.4216415899,1.32274
 26285\C,0,-2.9977032087,1.140606729,1.7651572464\C,0,-4.3627332682,1.5
 310438532,1.1216091908\C,0,-3.036168699,1.2413964277,3.2420256115\C,0,
 -1.8881822792,-0.5545307145,0.133767335\C,0,-0.4727847011,-0.326116958
 9,0.5607102003\C,0,0.5193230695,-0.6562091338,-0.5659619767\O,0,0.1077
 920193,-1.0078261902,-1.6778241141\O,0,1.7480766182,-0.4229196884,-0.2
 220389928\N,0,-7.105851033,2.6296585557,0.3299916947\C,0,-6.0356628453
 ,3.3456455404,0.7955430879\C,0,-6.3973969928,4.7599002794,0.669617649\
 C,0,-7.7425369607,4.8050811396,0.2488332746\C,0,-8.1222464962,3.452674
 4627,0.0067432206\C,0,-5.453523309,5.8910015661,1.0175665172\C,0,-8.45
 69034879,5.9823592696,-0.013604375\C,0,-8.5841423055,7.182184337,0.778
 9041402\N,0,-9.0812904016,0.7046033214,-0.6529393276\C,0,-9.8285891186
 ,1.8066606192,-0.7494112652\C,0,-11.151784275,1.4590642455,-1.07990971
 05\C,0,-11.2208944933,0.1043858027,-1.2430230163\C,0,-9.972822963,-0.4
 204840227,-0.9180068168\C,0,-12.1884176655,2.4544060116,-1.3217089457\
 C,0,-12.522616808,-0.6815455647,-1.7158323917\C,0,-12.5232398124,-1.01
 14135526,-3.2047555942\N,0,-7.1278022485,-1.3528548991,-0.2854332203\C
 ,0,-8.1587661164,-2.2890340755,-0.5959645517\C,0,-7.8027564212,-3.6267
 609436,-0.5026875461\C,0,-6.4251764017,-3.5263469717,-0.1291846504\C,0
 ,-6.1141740138,-2.1512334046,0.0684496492\C,0,-8.5587433417,-4.8837412
 165,-0.7887873571\C,0,-5.2966941397,-4.3801418977,0.1538782604\O,0,-5.
 1507039083,-5.61646613,0.1518122119\C,0,-4.1670802874,-3.3275985497,0.
 6922990952\C,0,-3.505121143,-3.7569009114,1.9573061035\O,0,-3.69567116
 77,-3.1656332995,3.0075334344\O,0,-2.6025214458,-4.6835430767,1.793797
 9607\C,0,-2.0711277007,-5.1701512442,2.9507400095\C,0,2.7513876505,-0.
 7522830229,-1.2344146419\C,0,4.0487869677,-0.4738555619,-0.5446646155\
 C,0,5.0767811625,0.2841046759,-0.9141511878\C,0,4.9928177048,1.2327859
 279,-2.1365178171\C,0,6.3939837312,0.4044622964,-0.2048769729\C,0,7.61
 79893368,-0.211171464,-1.0142983803\C,0,8.8526271353,-0.11319645,-0.13
 70955224\C,0,10.1951401385,-0.5106481365,-0.8873697075\C,0,9.995256225
 8,-1.9716080969,-1.3983432993\C,0,11.4632792048,-0.3935831391,-0.06678
 581\C,0,12.8034352512,-0.4930933604,-0.7894189648\C,0,13.970166485,-0.
 1594771505,0.1262596935\C,0,15.3146575907,-0.0840721363,-0.5567239122\
 C,0,15.7789595649,-1.4507327071,-0.9214717649\C,0,16.2887129772,0.5336
 677268,0.432007708\C,0,17.7747520646,0.6198833867,-0.1569315078\C,0,18
 .7868590554,1.2798362006,0.7707375068\C,0,20.1304717164,1.2262729608,0
 .3220369669\C,0,20.3372250763,1.9376920664,-0.9899399867\C,0,21.143575
 2883,1.8477377101,1.3638217456\H,0,-4.0765691414,3.4498305045,1.612135
 8005\H,0,-10.1679671894,3.8109019252,-0.7328686784\H,0,-10.2876620556,
 -2.4093102718,-1.2265593081\H,0,-2.6526117181,-1.0434426582,2.11614230
 54\H,0,-2.1517087761,1.80727431,1.2442150719\H,0,-2.0743418917,1.19119
 95729,3.6354072542\H,0,-3.2832533853,2.2502590834,3.6475369191\H,0,-3.
 8200954522,0.5808427683,3.8212345363\H,0,-1.9940318881,-1.5022901894,-
 0.2265465639\H,0,-2.0896006326,0.1465719076,-0.6288129209\H,0,-0.22997
 65151,0.6767622901,0.9370441035\H,0,-0.1378215842,-0.9578803032,1.3210
 560608\H,0,-5.7905578312,6.8897876229,0.8462003292\H,0,-5.1838553749,5
 .9335767208,2.2000863057\H,0,-4.3411980758,5.4915703234,0.4454177174\H
 ,0,-9.0671187644,5.9603121793,-0.9608763158\H,0,-9.3724384597,8.011911
 9301,0.3599456164\H,0,-8.0416836342,7.5153379333,1.7079791834\H,0,-12.
 0624103461,3.2614064666,-2.0387968844\H,0,-13.0927489441,1.8252764188,
 -1.3441256041\H,0,-12.1663683679,3.1121798727,-0.5119724412\H,0,-12.60
 27850569,-1.5608755327,-0.959020857\H,0,-13.3571844373,-0.1320399408,-
 1.2486603935\H,0,-13.3481011627,-1.6146661528,-3.553245209\H,0,-12.521
 2156858,-0.1148660242,-3.7120947052\H,0,-11.5367799573,-1.5922740945,-
 3.416030223\H,0,-9.1220718102,-4.8459553384,-1.9714304071\H,0,-7.76753
 61184,-5.7167116754,-0.7854881618\H,0,-9.215981483,-5.1963746588,0.178
 886066\H,0,-3.3274734432,-3.2465079015,-0.0310583773\H,0,-1.5757757441
 ,-4.2494013798,3.4714200573\H,0,-2.7607256812,-5.8814397616,3.60078291
 72\H,0,-1.36968508,-5.7049397672,2.4424081937\H,0,2.5452838325,-1.9025
 720931,-1.5731612811\H,0,2.6891263902,-0.001955916,-1.952118364\H,0,4.
 2998808937,-1.0821104262,0.5235655726\H,0,4.0295719207,1.4930080112,-2
 .5150198717\H,0,5.2977251842,2.1970699659,-1.6844749157\H,0,5.65974328
 19,1.034614569,-3.113750106\H,0,6.5978818511,1.4319671967,0.093061949\
 H,0,6.0797920986,-0.3681448519,0.5273524519\H,0,7.4032877135,-1.355254
 7607,-1.0324645701\H,0,7.6293353694,0.1268658947,-2.0512080444\H,0,8.9
 416062122,0.9341312981,0.2499926315\H,0,8.8265511438,-0.7100765139,0.7
 358714508\H,0,10.3140789593,0.2537279105,-1.7640312926\H,0,9.246829668
 5,-1.9255905356,-2.3008260074\H,0,10.8119937551,-2.4537921631,-1.94204
 84487\H,0,9.7539182778,-2.7460865507,-0.5512345632\H,0,11.3143091118,0
 .6461768479,0.5923307206\H,0,11.3802710805,-1.310907052,0.5859492165\H
 ,0,12.9141847374,-1.502518413,-1.1569333609\H,0,12.8024239949,0.061876
 8787,-1.7001133726\H,0,13.8061520519,0.8976023162,0.5635236954\H,0,13.
 9796207152,-0.8118607908,1.1433208486\H,0,15.2373770262,0.5862681118,-
 1.3662809861\H,0,16.2513025732,-2.191609453,-0.1138928432\H,0,15.05493
 85446,-1.8959419698,-1.6707444895\H,0,16.7008897184,-1.3948250074,-1.6
 708985594\H,0,15.9178269834,1.6075185856,0.6273092752\H,0,16.280912538
 5,-0.1910382789,1.4689796592\H,0,18.1348044191,-0.3648430317,-0.505293
 8698\H,0,17.7395610206,1.1723745564,-1.0384274185\H,0,18.4584766403,2.
 3966138191,0.8019982051\H,0,18.6822453848,0.8425984408,1.7968896893\H,
 0,20.3060355163,0.2245186001,0.2539224562\H,0,20.002014308,2.943727934
 7,-0.9707006635\H,0,21.3887831304,2.0264692997,-1.554036767\H,0,19.821
 366041,1.3761194227,-1.9019971687\H,0,20.8109070659,1.4171798271,2.377
 0473219\H,0,22.1233440407,1.621523382,1.1874037067\H,0,20.9764773776,3
 .073487432,1.2721576563\\Version=ES64L-G09RevD.01\State=1-A\HF=-2932.7
 152239\RMSD=5.488e-09\PG=C01 [X(C55H72Mg1N4O5)]\\@


 I WISH TO HAVE NO CONNECTION WITH ANY SHIP THAT DOES NOT SAIL FAST,
 FOR I INTEND TO GO IN HARM'S WAY.
     -- JOHN PAUL JONES, USN 1747-1792
 Job cpu time:       0 days  7 hours  7 minutes  6.9 seconds.
 File lengths (MBytes):  RWF=   2106 Int=      0 D2E=      0 Chk=    163 Scr=      1
 Normal termination of Gaussian 09 at Wed Jul  3 17:37:03 2019.
>>>>>>> 8e03b5b5abfc0030b3aa597dc0de36371bfbd096
