 Entering Gaussian System, Link 0=g16
 Input=Geometria-231-.com
 Output=Geometria-231-.log
 Initial command:
 /usr/local/g09/l1.exe "/home/padawan/israel-mol/chlorophyll-a/spectra/emi/Gau-122411.inp" -scrdir="/home/padawan/israel-mol/chlorophyll-a/spectra/emi/"
 Entering Link 1 = /usr/local/g09/l1.exe PID=    122413.
  
 Copyright (c) 1988,1990,1992,1993,1995,1998,2003,2009,2013,
            Gaussian, Inc.  All Rights Reserved.
  
 This is part of the Gaussian(R) 09 program.  It is based on
 the Gaussian(R) 03 system (copyright 2003, Gaussian, Inc.),
 the Gaussian(R) 98 system (copyright 1998, Gaussian, Inc.),
 the Gaussian(R) 94 system (copyright 1995, Gaussian, Inc.),
 the Gaussian 92(TM) system (copyright 1992, Gaussian, Inc.),
 the Gaussian 90(TM) system (copyright 1990, Gaussian, Inc.),
 the Gaussian 88(TM) system (copyright 1988, Gaussian, Inc.),
 the Gaussian 86(TM) system (copyright 1986, Carnegie Mellon
 University), and the Gaussian 82(TM) system (copyright 1983,
 Carnegie Mellon University). Gaussian is a federally registered
 trademark of Gaussian, Inc.
  
 This software contains proprietary and confidential information,
 including trade secrets, belonging to Gaussian, Inc.
  
 This software is provided under written license and may be
 used, copied, transmitted, or stored only in accord with that
 written license.
  
 The following legend is applicable only to US Government
 contracts under FAR:
  
                    RESTRICTED RIGHTS LEGEND
  
 Use, reproduction and disclosure by the US Government is
 subject to restrictions as set forth in subparagraphs (a)
 and (c) of the Commercial Computer Software - Restricted
 Rights clause in FAR 52.227-19.
  
 Gaussian, Inc.
 340 Quinnipiac St., Bldg. 40, Wallingford CT 06492
  
  
 ---------------------------------------------------------------
 Warning -- This program may not be used in any manner that
 competes with the business of Gaussian, Inc. or will provide
 assistance to any competitor of Gaussian, Inc.  The licensee
 of this program is prohibited from giving any competitor of
 Gaussian, Inc. access to this program.  By using this program,
 the user acknowledges that Gaussian, Inc. is engaged in the
 business of creating and licensing software in the field of
 computational chemistry and represents and warrants to the
 licensee that it is not a competitor of Gaussian, Inc. and that
 it will not use this program in any manner prohibited above.
 ---------------------------------------------------------------
  

 Cite this work as:
 Gaussian 09, Revision D.01,
 M. J. Frisch, G. W. Trucks, H. B. Schlegel, G. E. Scuseria, 
 M. A. Robb, J. R. Cheeseman, G. Scalmani, V. Barone, B. Mennucci, 
 G. A. Petersson, H. Nakatsuji, M. Caricato, X. Li, H. P. Hratchian, 
 A. F. Izmaylov, J. Bloino, G. Zheng, J. L. Sonnenberg, M. Hada, 
 M. Ehara, K. Toyota, R. Fukuda, J. Hasegawa, M. Ishida, T. Nakajima, 
 Y. Honda, O. Kitao, H. Nakai, T. Vreven, J. A. Montgomery, Jr., 
 J. E. Peralta, F. Ogliaro, M. Bearpark, J. J. Heyd, E. Brothers, 
 K. N. Kudin, V. N. Staroverov, T. Keith, R. Kobayashi, J. Normand, 
 K. Raghavachari, A. Rendell, J. C. Burant, S. S. Iyengar, J. Tomasi, 
 M. Cossi, N. Rega, J. M. Millam, M. Klene, J. E. Knox, J. B. Cross, 
 V. Bakken, C. Adamo, J. Jaramillo, R. Gomperts, R. E. Stratmann, 
 O. Yazyev, A. J. Austin, R. Cammi, C. Pomelli, J. W. Ochterski, 
 R. L. Martin, K. Morokuma, V. G. Zakrzewski, G. A. Voth, 
 P. Salvador, J. J. Dannenberg, S. Dapprich, A. D. Daniels, 
 O. Farkas, J. B. Foresman, J. V. Ortiz, J. Cioslowski, 
 and D. J. Fox, Gaussian, Inc., Wallingford CT, 2013.
 
 ******************************************
 Gaussian 09:  ES64L-G09RevD.01 24-Apr-2013
                 4-Jul-2019 
 ******************************************
 %nproc=4
 Will use up to    4 processors via shared memory.
 %Mem=2GB
 -------------------------------------
 # td=(NStates=1) CAM-B3LYP/6-31G(d,p)
 -------------------------------------
 1/38=1/1;
 2/12=2,17=6,18=5,40=1/2;
 3/5=1,6=6,7=101,11=9,16=1,25=1,30=1,74=-40/1,2,8,3;
 4//1;
 5/5=2,38=5/2;
 8/6=1,10=2,108=1/1;
 9/41=1,42=1,70=2/14;
 6/7=2,8=2,9=2,10=2/1;
 99/5=1,9=1/99;
 --
 TD
 --
 Symbolic Z-matrix:
 Charge =  0 Multiplicity = 1
 12                   -7.10981   0.70563   0.03754 
 6                    -4.87241  -2.02972   0.48522 
 6                    -4.68728   2.77074   1.10292 
 6                    -9.23932   3.13618  -0.33051 
 6                    -9.57995  -1.76071  -0.81409 
 7                    -5.1014    0.39747   0.7782 
 6                    -4.43706  -0.81456   0.76635 
 6                    -2.95152  -0.47452   1.23828 
 6                    -2.98442   0.96931   1.56866 
 6                    -4.33564   1.41009   1.17055 
 6                    -2.73923   1.32471   3.06283 
 6                    -1.92387  -0.776     0.04643 
 6                    -0.51706  -0.6772    0.53023 
 6                     0.5472   -0.8335   -0.65101 
 8                     0.1626   -1.20272  -1.85422 
 8                     1.78017  -0.62268  -0.24278 
 7                    -6.90498   2.70049   0.35813 
 6                    -5.86937   3.42378   0.64906 
 6                    -6.23921   4.77817   0.75585 
 6                    -7.5312    4.86244   0.36688 
 6                    -8.00898   3.56095   0.21265 
 6                    -5.32186   5.89961   0.93663 
 6                    -8.4263    6.03622   0.13824 
 6                    -8.26212   7.19924   0.7643 
 7                    -9.00905   0.69161  -0.44401 
 6                    -9.77803   1.90241  -0.63155 
 6                    -11.15521   1.56745  -1.0791 
 6                    -11.21452   0.23234  -1.2238 
 6                    -9.90138  -0.37123  -0.88725 
 6                    -12.29469   2.52324  -1.34858 
 6                    -12.32    -0.6036   -1.74978 
 6                    -12.27452  -1.01327  -3.23232 
 7                    -7.24593  -1.32856  -0.09477 
 6                    -8.30452  -2.13614  -0.51632 
 6                    -7.97446  -3.59468  -0.3986 
 6                    -6.59714  -3.56747  -0.07954 
 6                    -6.20756  -2.17431   0.14676 
 6                    -8.80237  -4.68047  -0.70179 
 6                    -5.43796  -4.42436   0.22562 
 8                    -5.3713   -5.62306   0.26124 
 6                    -4.2877   -3.38544   0.49624 
 6                    -3.55316  -3.80486   1.76027 
 8                    -3.7398   -3.14752   2.85478 
 8                    -2.77904  -4.92026   1.71257 
 6                    -2.1866   -5.29247   2.90581 
 6                     2.78124  -0.94732  -1.30263 
 6                     4.0856   -0.6363   -0.68314 
 6                     5.11222   0.24305  -1.04615 
 6                     5.00454   1.12356  -2.26387 
 6                     6.28462   0.25905  -0.18364 
 6                     7.63428  -0.29551  -0.97076 
 6                     8.85006  -0.12729  -0.11816 
 6                     10.19047  -0.60843  -0.82269 
 6                     10.06802  -2.0267   -1.31271 
 6                     11.34613  -0.22326   0.09313 
 6                     12.73132  -0.51772  -0.51706 
 6                     13.8635  -0.14224   0.40369 
 6                     15.29177  -0.09089  -0.40724 
 6                     15.62551  -1.43764  -0.73314 
 6                     16.37953   0.61389   0.55429 
 6                     17.71789   0.81763  -0.13423 
 6                     18.7658   1.49801   0.77496 
 6                     20.22163   1.55296   0.14442 
 6                     20.2365   2.31017  -1.13524 
 6                     21.20563   2.09601   1.1254 
 1                    -3.86728   3.4558    1.54303 
 1                    -9.81387   4.14007  -0.67729 
 1                    -10.26378  -2.56969  -0.99906 
 1                    -2.59946  -1.02885   2.23216 
 1                    -1.98379   1.54123   1.0264 
 1                    -1.94914   0.58687   3.62392 
 1                    -2.66224   2.39007   3.34427 
 1                    -3.69951   0.90586   3.65152 
 1                    -2.13325  -1.79915  -0.44799 
 1                    -2.21341  -0.08806  -0.81012 
 1                    -0.42445   0.40791   0.78416 
 1                    -0.34527  -1.36075   1.30418 
 1                    -5.6938    6.74032   0.23066 
 1                    -5.413     6.55441   1.97629 
 1                    -4.19505   5.61594   0.75374 
 1                    -9.18645   6.16971  -0.4897 
 1                    -8.98226   7.95046   0.84138 
 1                    -7.79607   7.27422   1.78974 
 1                    -12.16238   3.26115  -2.08668 
 1                    -13.1253   1.96674  -1.65752 
 1                    -12.49874   2.86351  -0.39888 
 1                    -12.35738  -1.54061  -1.14501 
 1                    -13.25069   0.08906  -1.60064 
 1                    -13.30245  -1.56046  -3.59559 
 1                    -12.15018  -0.00119  -3.82592 
 1                    -11.41847  -1.53713  -3.50031 
 1                    -9.307    -4.70814  -1.77656 
 1                    -8.46756  -5.62174  -0.58271 
 1                    -9.81704  -4.88932  -0.11707 
 1                    -3.54677  -3.67626  -0.19572 
 1                    -1.87345  -4.22307   3.17366 
 1                    -2.77039  -5.73572   3.52869 
 1                    -1.19912  -5.89591   2.58478 
 1                     2.65046  -1.99563  -1.66645 
 1                     2.66004  -0.20223  -2.10285 
 1                     4.31319  -1.10113   0.36318 
 1                     4.03468   1.29153  -2.74379 
 1                     5.58019   2.08341  -2.09956 
 1                     5.5603    0.69747  -3.12936 
 1                     6.60644   1.34081  -0.10676 
 1                     5.94523  -0.20185   0.70945 
 1                     7.34676  -1.25836  -1.124 
 1                     7.89867   0.07266  -1.94542 
 1                     9.12296   0.88375   0.33494 
 1                     8.58702  -0.76976   0.7341 
 1                     10.12602  -0.0822   -1.79639 
 1                     8.94051  -2.23394  -1.68935 
 1                     11.00922  -2.46656  -1.87357 
 1                     9.96941  -2.89175  -0.46212 
 1                     11.46647   0.81978   0.43822 
 1                     11.08753  -1.07937   0.84331 
 1                     12.93227  -1.61754  -0.72555 
 1                     12.88808  -0.12839  -1.48522 
 1                     13.83133   0.96346   0.66695 
 1                     13.90773  -0.89542   1.26155 
 1                     15.05546   0.78773  -1.27198 
 1                     15.95283  -2.05108   0.09735 
 1                     14.8823  -1.79774  -1.44585 
 1                     16.6083  -1.59197  -1.26876 
 1                     15.97145   1.67286   0.80661 
 1                     16.43678   0.21535   1.63413 
 1                     18.26359  -0.11775  -0.68909 
 1                     17.5553   1.41358  -0.9467 
 1                     18.40104   2.43183   1.0204 
 1                     18.79169   0.89028   1.83717 
 1                     20.59428   0.47972  -0.24656 
 1                     19.53834   3.34941  -1.05052 
 1                     21.32666   2.50585  -1.49148 
 1                     19.8419   1.60339  -1.89486 
 1                     21.54985   1.39157   1.87809 
 1                     22.16482   2.35531   0.54057 
 1                     20.68034   2.91437   1.62726 
 
 Stoichiometry    C55H72MgN4O5
 Framework group  C1[X(C55H72MgN4O5)]
 Deg. of freedom   405
 Full point group                 C1      NOp   1
 Largest Abelian subgroup         C1      NOp   1
 Largest concise Abelian subgroup C1      NOp   1
                         Standard orientation:                         
 ---------------------------------------------------------------------
 Center     Atomic      Atomic             Coordinates (Angstroms)
 Number     Number       Type             X           Y           Z
 ---------------------------------------------------------------------
      1         12           0       -7.104900    0.736463    0.047988
      2          6           0       -4.879846   -2.011967    0.476700
      3          6           0       -4.672198    2.783546    1.124915
      4          6           0       -9.223416    3.179094   -0.303118
      5          6           0       -9.586917   -1.712987   -0.817728
      6          7           0       -5.097463    0.414335    0.785326
      7          6           0       -4.438723   -0.800642    0.765303
      8          6           0       -2.951333   -0.470463    1.238406
      9          6           0       -2.977366    0.971360    1.578013
     10          6           0       -4.326792    1.420893    1.183630
     11          6           0       -2.729588    1.316081    3.074258
     12          6           0       -1.925833   -0.769058    0.043967
     13          6           0       -0.518278   -0.679828    0.527451
     14          6           0        0.544494   -0.833473   -0.655468
     15          8           0        0.157434   -1.193224   -1.860756
     16          8           0        1.778686   -0.630947   -0.246721
     17          7           0       -6.890674    2.728267    0.381174
     18          6           0       -5.851552    3.444916    0.676021
     19          6           0       -6.215083    4.800283    0.791700
     20          6           0       -7.506913    4.892979    0.404134
     21          6           0       -7.990783    3.594713    0.241924
     22          6           0       -5.292459    5.916310    0.979028
     23          6           0       -8.396743    6.072312    0.183594
     24          6           0       -8.226807    7.230532    0.816959
     25          7           0       -9.004491    0.734268   -0.432379
     26          6           0       -9.768003    1.949767   -0.611674
     27          6           0      -11.146997    1.624012   -1.060438
     28          6           0      -11.212550    0.290144   -1.213621
     29          6           0       -9.901984   -0.321601   -0.881808
     30          6           0      -12.282224    2.586748   -1.323055
     31          6           0      -12.322198   -0.537316   -1.744187
     32          6           0      -12.279557   -0.937719   -3.229345
     33          7           0       -7.250479   -1.296193   -0.097222
     34          6           0       -8.313044   -2.096178   -0.523208
     35          6           0       -7.989638   -3.556943   -0.415023
     36          6           0       -6.612005   -3.538117   -0.096714
     37          6           0       -6.215864   -2.148234    0.138214
     38          6           0       -8.822730   -4.636954   -0.724590
     39          6           0       -5.456587   -4.402262    0.202193
     40          8           0       -5.395427   -5.601460    0.230123
     41          6           0       -4.301384   -3.370408    0.478680
     42          6           0       -3.567975   -3.801262    1.739515
     43          8           0       -3.750887   -3.150080    2.838325
     44          8           0       -2.799037   -4.919888    1.684183
     45          6           0       -2.207561   -5.302443    2.874624
     46          6           0        2.777576   -0.953420   -1.309288
     47          6           0        4.083749   -0.652372   -0.688689
     48          6           0        5.114184    0.224545   -1.046766
     49          6           0        5.009783    1.113296   -2.258764
     50          6           0        6.287191    0.229634   -0.184952
     51          6           0        7.633779   -0.326093   -0.976493
     52          6           0        8.850859   -0.168920   -0.123645
     53          6           0       10.188592   -0.651717   -0.832123
     54          6           0       10.059299   -2.066255   -1.331108
     55          6           0       11.346594   -0.277728    0.085372
     56          6           0       12.730025   -0.574659   -0.527608
     57          6           0       13.864506   -0.210285    0.394767
     58          6           0       15.292481   -0.160340   -0.416765
     59          6           0       15.619813   -1.506502   -0.751483
     60          6           0       16.384095    0.533266    0.548520
     61          6           0       17.722937    0.735242   -0.139574
     62          6           0       18.774549    1.404964    0.773242
     63          6           0       20.230220    1.457234    0.142099
     64          6           0       20.247760    2.222530   -1.132714
     65          6           0       21.217336    1.989477    1.125870
     66          1           0       -3.848770    3.462003    1.568847
     67          1           0       -9.793557    4.187819   -0.643107
     68          1           0      -10.274587   -2.517607   -1.007403
     69          1           0       -2.601192   -1.032749    2.228492
     70          1           0       -1.974456    1.542117    1.038755
     71          1           0       -1.942551    0.571037    3.630099
     72          1           0       -2.647513    2.379254    3.362442
     73          1           0       -3.691419    0.897896    3.660900
     74          1           0       -2.140240   -1.788051   -0.456834
     75          1           0       -2.212751   -0.074334   -0.807981
     76          1           0       -0.420504    0.403197    0.788243
     77          1           0       -0.349152   -1.369090    1.296913
     78          1           0       -5.660967    6.763216    0.278688
     79          1           0       -5.379918    6.564865    2.022914
     80          1           0       -4.167088    5.628629    0.793582
     81          1           0       -9.156669    6.213308   -0.442976
     82          1           0       -8.943428    7.984552    0.899313
     83          1           0       -7.759764    7.296822    1.842541
     84          1           0      -12.146986    3.328734   -2.056516
     85          1           0      -13.115590    2.036061   -1.634984
     86          1           0      -12.484104    2.921873   -0.371066
     87          1           0      -12.363515   -1.477994   -1.145391
     88          1           0      -13.249598    0.158655   -1.590009
     89          1           0      -13.310220   -1.477836   -3.595419
     90          1           0      -12.150925    0.077548   -3.816551
     91          1           0      -11.426094   -1.463788   -3.501244
     92          1           0       -9.328167   -4.655435   -1.799181
     93          1           0       -8.492184   -5.580498   -0.611744
     94          1           0       -9.837984   -4.844863   -0.140545
     95          1           0       -3.562235   -3.660207   -0.215620
     96          1           0       -1.889312   -4.236225    3.149092
     97          1           0       -2.792989   -5.746962    3.495049
     98          1           0       -1.223075   -5.908356    2.549098
     99          1           0        2.641739   -1.998770   -1.679706
    100          1           0        2.659306   -0.202677   -2.104656
    101          1           0        4.309861   -1.124919    0.354488
    102          1           0        4.040406    1.288795   -2.736959
    103          1           0        5.589960    2.069420   -2.088708
    104          1           0        5.563028    0.690195   -3.127327
    105          1           0        6.614042    1.309388   -0.101374
    106          1           0        5.946244   -0.235389    0.705408
    107          1           0        7.341728   -1.286606   -1.135686
    108          1           0        7.899245    0.047074   -1.948952
    109          1           0        9.128711    0.837932    0.335724
    110          1           0        8.585403   -0.815608    0.724676
    111          1           0       10.125949   -0.118985   -1.802401
    112          1           0        8.930602   -2.265889   -1.708314
    113          1           0       10.998105   -2.506852   -1.895387
    114          1           0        9.957240   -2.936255   -0.485984
    115          1           0       11.471966    0.762521    0.437030
    116          1           0       11.084533   -1.137421    0.830248
    117          1           0       12.925770   -1.674043   -0.743248
    118          1           0       12.887967   -0.179885   -1.493367
    119          1           0       13.837608    0.893842    0.665109
    120          1           0       13.905817   -0.969129    1.247776
    121          1           0       15.059677    0.724865   -1.275723
    122          1           0       15.944829   -2.126729    0.074857
    123          1           0       14.874495   -1.858617   -1.465982
    124          1           0       16.601537   -1.661935   -1.288726
    125          1           0       15.981061    1.592470    0.807865
    126          1           0       16.440191    0.127584    1.625752
    127          1           0       18.263968   -0.199078   -0.700760
    128          1           0       17.562585    1.337108   -0.948113
    129          1           0       18.414257    2.338866    1.024883
    130          1           0       18.798313    0.790354    1.831539
    131          1           0       20.597675    0.384817   -0.255970
    132          1           0       19.554454    3.264410   -1.040890
    133          1           0       21.338586    2.415457   -1.488418
    134          1           0       19.849428    1.522443   -1.896560
    135          1           0       21.558784    1.278661    1.873818
    136          1           0       22.177336    2.248082    0.542071
    137          1           0       20.696139    2.807024    1.633299
 ---------------------------------------------------------------------
 Rotational constants (GHZ):      0.0638685      0.0061315      0.0057604
 Standard basis: 6-31G(d,p) (6D, 7F)
 There are  1339 symmetry adapted cartesian basis functions of A   symmetry.
 There are  1339 symmetry adapted basis functions of A   symmetry.
  1339 basis functions,  2348 primitive gaussians,  1339 cartesian basis functions
   241 alpha electrons      241 beta electrons
       nuclear repulsion energy      8749.0475228799 Hartrees.
 NAtoms=  137 NActive=  137 NUniq=  137 SFac= 1.00D+00 NAtFMM=   60 NAOKFM=T Big=T
 Integral buffers will be    131072 words long.
 Raffenetti 1 integral format.
 Two-electron integral symmetry is turned on.
 One-electron integrals computed using PRISM.
 NBasis=  1339 RedAO= T EigKep=  3.18D-04  NBF=  1339
 NBsUse=  1339 1.00D-06 EigRej= -1.00D+00 NBFU=  1339
 ExpMin= 4.21D-02 ExpMax= 1.17D+04 ExpMxC= 1.76D+03 IAcc=2 IRadAn=         4 AccDes= 0.00D+00
 Harris functional with IExCor=20419 and IRadAn=       4 diagonalized for initial guess.
 HarFok:  IExCor=20419 AccDes= 0.00D+00 IRadAn=         4 IDoV= 1 UseB2=F ITyADJ=14
 ICtDFT=  3500011 ScaDFX=  1.000000  1.000000  1.000000  1.000000
 FoFCou: FMM=F IPFlag=           0 FMFlag=      100000 FMFlg1=        2001
         NFxFlg=           0 DoJE=T BraDBF=F KetDBF=T FulRan=T
         wScrn=  0.000000 ICntrl=     500 IOpCl=  0 I1Cent=   200000004 NGrid=           0
         NMat0=    1 NMatS0=      1 NMatT0=    0 NMatD0=    1 NMtDS0=    0 NMtDT0=    0
 Petite list used in FoFCou.
 Requested convergence on RMS density matrix=1.00D-08 within 128 cycles.
 Requested convergence on MAX density matrix=1.00D-06.
 Requested convergence on             energy=1.00D-06.
 No special actions if energy rises.
 SCF Done:  E(RCAM-B3LYP) =  -2932.63300998     A.U. after   16 cycles
            NFock= 16  Conv=0.57D-08     -V/T= 2.0097
 DoSCS=F DFT=T ScalE2(SS,OS)=  1.000000  1.000000
 ExpMin= 4.21D-02 ExpMax= 1.17D+04 ExpMxC= 1.76D+03 IAcc=3 IRadAn=         5 AccDes= 0.00D+00
 HarFok:  IExCor=  205 AccDes= 0.00D+00 IRadAn=         5 IDoV=-2 UseB2=F ITyADJ=14
 ICtDFT= 12500011 ScaDFX=  1.000000  1.000000  1.000000  1.000000
 Range of M.O.s used for correlation:    70  1339
 NBasis=  1339 NAE=   241 NBE=   241 NFC=    69 NFV=     0
 NROrb=   1270 NOA=   172 NOB=   172 NVA=  1098 NVB=  1098
 Would need an additional       2415464100000 words for in-memory AO integral storage.
 Orbital symmetries:
       Occupied  (A) (A) (A) (A) (A) (A) (A) (A) (A) (A) (A) (A)
                 (A) (A) (A) (A) (A) (A) (A) (A) (A) (A) (A) (A)
                 (A) (A) (A) (A) (A) (A) (A) (A) (A) (A) (A) (A)
                 (A) (A) (A) (A) (A) (A) (A) (A) (A) (A) (A) (A)
                 (A) (A) (A) (A) (A) (A) (A) (A) (A) (A) (A) (A)
                 (A) (A) (A) (A) (A) (A) (A) (A) (A) (A) (A) (A)
                 (A) (A) (A) (A) (A) (A) (A) (A) (A) (A) (A) (A)
                 (A) (A) (A) (A) (A) (A) (A) (A) (A) (A) (A) (A)
                 (A) (A) (A) (A) (A) (A) (A) (A) (A) (A) (A) (A)
                 (A) (A) (A) (A) (A) (A) (A) (A) (A) (A) (A) (A)
                 (A) (A) (A) (A) (A) (A) (A) (A) (A) (A) (A) (A)
                 (A) (A) (A) (A) (A) (A) (A) (A) (A) (A) (A) (A)
                 (A) (A) (A) (A) (A) (A) (A) (A) (A) (A) (A) (A)
                 (A) (A) (A) (A) (A) (A) (A) (A) (A) (A) (A) (A)
                 (A) (A) (A) (A) (A) (A) (A) (A) (A) (A) (A) (A)
                 (A) (A) (A) (A) (A) (A) (A) (A) (A) (A) (A) (A)
                 (A) (A) (A) (A) (A) (A) (A) (A) (A) (A) (A) (A)
                 (A) (A) (A) (A) (A) (A) (A) (A) (A) (A) (A) (A)
                 (A) (A) (A) (A) (A) (A) (A) (A) (A) (A) (A) (A)
                 (A) (A) (A) (A) (A) (A) (A) (A) (A) (A) (A) (A)
                 (A)
       Virtual   (A) (A) (A) (A) (A) (A) (A) (A) (A) (A) (A) (A)
                 (A) (A) (A) (A) (A) (A) (A) (A) (A) (A) (A) (A)
                 (A) (A) (A) (A) (A) (A) (A) (A) (A) (A) (A) (A)
                 (A) (A) (A) (A) (A) (A) (A) (A) (A) (A) (A) (A)
                 (A) (A) (A) (A) (A) (A) (A) (A) (A) (A) (A) (A)
                 (A) (A) (A) (A) (A) (A) (A) (A) (A) (A) (A) (A)
                 (A) (A) (A) (A) (A) (A) (A) (A) (A) (A) (A) (A)
                 (A) (A) (A) (A) (A) (A) (A) (A) (A) (A) (A) (A)
                 (A) (A) (A) (A) (A) (A) (A) (A) (A) (A) (A) (A)
                 (A) (A) (A) (A) (A) (A) (A) (A) (A) (A) (A) (A)
                 (A) (A) (A) (A) (A) (A) (A) (A) (A) (A) (A) (A)
                 (A) (A) (A) (A) (A) (A) (A) (A) (A) (A) (A) (A)
                 (A) (A) (A) (A) (A) (A) (A) (A) (A) (A) (A) (A)
                 (A) (A) (A) (A) (A) (A) (A) (A) (A) (A) (A) (A)
                 (A) (A) (A) (A) (A) (A) (A) (A) (A) (A) (A) (A)
                 (A) (A) (A) (A) (A) (A) (A) (A) (A) (A) (A) (A)
                 (A) (A) (A) (A) (A) (A) (A) (A) (A) (A) (A) (A)
                 (A) (A) (A) (A) (A) (A) (A) (A) (A) (A) (A) (A)
                 (A) (A) (A) (A) (A) (A) (A) (A) (A) (A) (A) (A)
                 (A) (A) (A) (A) (A) (A) (A) (A) (A) (A) (A) (A)
                 (A) (A) (A) (A) (A) (A) (A) (A) (A) (A) (A) (A)
                 (A) (A) (A) (A) (A) (A) (A) (A) (A) (A) (A) (A)
                 (A) (A) (A) (A) (A) (A) (A) (A) (A) (A) (A) (A)
                 (A) (A) (A) (A) (A) (A) (A) (A) (A) (A) (A) (A)
                 (A) (A) (A) (A) (A) (A) (A) (A) (A) (A) (A) (A)
                 (A) (A) (A) (A) (A) (A) (A) (A) (A) (A) (A) (A)
                 (A) (A) (A) (A) (A) (A) (A) (A) (A) (A) (A) (A)
                 (A) (A) (A) (A) (A) (A) (A) (A) (A) (A) (A) (A)
                 (A) (A) (A) (A) (A) (A) (A) (A) (A) (A) (A) (A)
                 (A) (A) (A) (A) (A) (A) (A) (A) (A) (A) (A) (A)
                 (A) (A) (A) (A) (A) (A) (A) (A) (A) (A) (A) (A)
                 (A) (A) (A) (A) (A) (A) (A) (A) (A) (A) (A) (A)
                 (A) (A) (A) (A) (A) (A) (A) (A) (A) (A) (A) (A)
                 (A) (A) (A) (A) (A) (A) (A) (A) (A) (A) (A) (A)
                 (A) (A) (A) (A) (A) (A) (A) (A) (A) (A) (A) (A)
                 (A) (A) (A) (A) (A) (A) (A) (A) (A) (A) (A) (A)
                 (A) (A) (A) (A) (A) (A) (A) (A) (A) (A) (A) (A)
                 (A) (A) (A) (A) (A) (A) (A) (A) (A) (A) (A) (A)
                 (A) (A) (A) (A) (A) (A) (A) (A) (A) (A) (A) (A)
                 (A) (A) (A) (A) (A) (A) (A) (A) (A) (A) (A) (A)
                 (A) (A) (A) (A) (A) (A) (A) (A) (A) (A) (A) (A)
                 (A) (A) (A) (A) (A) (A) (A) (A) (A) (A) (A) (A)
                 (A) (A) (A) (A) (A) (A) (A) (A) (A) (A) (A) (A)
                 (A) (A) (A) (A) (A) (A) (A) (A) (A) (A) (A) (A)
                 (A) (A) (A) (A) (A) (A) (A) (A) (A) (A) (A) (A)
                 (A) (A) (A) (A) (A) (A) (A) (A) (A) (A) (A) (A)
                 (A) (A) (A) (A) (A) (A) (A) (A) (A) (A) (A) (A)
                 (A) (A) (A) (A) (A) (A) (A) (A) (A) (A) (A) (A)
                 (A) (A) (A) (A) (A) (A) (A) (A) (A) (A) (A) (A)
                 (A) (A) (A) (A) (A) (A) (A) (A) (A) (A) (A) (A)
                 (A) (A) (A) (A) (A) (A) (A) (A) (A) (A) (A) (A)
                 (A) (A) (A) (A) (A) (A) (A) (A) (A) (A) (A) (A)
                 (A) (A) (A) (A) (A) (A) (A) (A) (A) (A) (A) (A)
                 (A) (A) (A) (A) (A) (A) (A) (A) (A) (A) (A) (A)
                 (A) (A) (A) (A) (A) (A) (A) (A) (A) (A) (A) (A)
                 (A) (A) (A) (A) (A) (A) (A) (A) (A) (A) (A) (A)
                 (A) (A) (A) (A) (A) (A) (A) (A) (A) (A) (A) (A)
                 (A) (A) (A) (A) (A) (A) (A) (A) (A) (A) (A) (A)
                 (A) (A) (A) (A) (A) (A) (A) (A) (A) (A) (A) (A)
                 (A) (A) (A) (A) (A) (A) (A) (A) (A) (A) (A) (A)
                 (A) (A) (A) (A) (A) (A) (A) (A) (A) (A) (A) (A)
                 (A) (A) (A) (A) (A) (A) (A) (A) (A) (A) (A) (A)
                 (A) (A) (A) (A) (A) (A) (A) (A) (A) (A) (A) (A)
                 (A) (A) (A) (A) (A) (A) (A) (A) (A) (A) (A) (A)
                 (A) (A) (A) (A) (A) (A) (A) (A) (A) (A) (A) (A)
                 (A) (A) (A) (A) (A) (A) (A) (A) (A) (A) (A) (A)
                 (A) (A) (A) (A) (A) (A) (A) (A) (A) (A) (A) (A)
                 (A) (A) (A) (A) (A) (A) (A) (A) (A) (A) (A) (A)
                 (A) (A) (A) (A) (A) (A) (A) (A) (A) (A) (A) (A)
                 (A) (A) (A) (A) (A) (A) (A) (A) (A) (A) (A) (A)
                 (A) (A) (A) (A) (A) (A) (A) (A) (A) (A) (A) (A)
                 (A) (A) (A) (A) (A) (A) (A) (A) (A) (A) (A) (A)
                 (A) (A) (A) (A) (A) (A) (A) (A) (A) (A) (A) (A)
                 (A) (A) (A) (A) (A) (A) (A) (A) (A) (A) (A) (A)
                 (A) (A) (A) (A) (A) (A) (A) (A) (A) (A) (A) (A)
                 (A) (A) (A) (A) (A) (A) (A) (A) (A) (A) (A) (A)
                 (A) (A) (A) (A) (A) (A) (A) (A) (A) (A) (A) (A)
                 (A) (A) (A) (A) (A) (A) (A) (A) (A) (A) (A) (A)
                 (A) (A) (A) (A) (A) (A) (A) (A) (A) (A) (A) (A)
                 (A) (A) (A) (A) (A) (A) (A) (A) (A) (A) (A) (A)
                 (A) (A) (A) (A) (A) (A) (A) (A) (A) (A) (A) (A)
                 (A) (A) (A) (A) (A) (A) (A) (A) (A) (A) (A) (A)
                 (A) (A) (A) (A) (A) (A) (A) (A) (A) (A) (A) (A)
                 (A) (A) (A) (A) (A) (A) (A) (A) (A) (A) (A) (A)
                 (A) (A) (A) (A) (A) (A) (A) (A) (A) (A) (A) (A)
                 (A) (A) (A) (A) (A) (A) (A) (A) (A) (A) (A) (A)
                 (A) (A) (A) (A) (A) (A) (A) (A) (A) (A) (A) (A)
                 (A) (A) (A) (A) (A) (A) (A) (A) (A) (A) (A) (A)
                 (A) (A) (A) (A) (A) (A) (A) (A) (A) (A) (A) (A)
                 (A) (A) (A) (A) (A) (A) (A) (A) (A) (A) (A) (A)
                 (A) (A) (A) (A) (A) (A) (A) (A) (A) (A) (A) (A)
                 (A) (A) (A) (A) (A) (A)
     8 initial guesses have been made.
 Convergence on wavefunction:    0.001000000000000
 Iteration     1 Dimension     8 NMult     0 NNew      8
 CISAX will form     8 AO SS matrices at one time.
 Iteration     2 Dimension    12 NMult     8 NNew      4
 Iteration     3 Dimension    16 NMult    12 NNew      4
 Iteration     4 Dimension    20 NMult    16 NNew      4
 Iteration     5 Dimension    24 NMult    20 NNew      4
 Iteration     6 Dimension    28 NMult    24 NNew      4
 ***********************************************************************
 Excited states from <AA,BB:AA,BB> singles matrix:
 ***********************************************************************
 
 Ground to excited state transition densities written to RWF  633
 Ground to excited state transition electric dipole moments (Au):
       state          X           Y           Z        Dip. S.      Osc.
         1        -0.3450     -2.3676     -0.3431      5.8422      0.2819
 Ground to excited state transition velocity dipole moments (Au):
       state          X           Y           Z        Dip. S.      Osc.
         1         0.0247      0.1667      0.0257      0.0291      0.2677
 Ground to excited state transition magnetic dipole moments (Au):
       state          X           Y           Z
         1         0.4127      0.4677     -3.5531
 Ground to excited state transition velocity quadrupole moments (Au):
       state          XX          YY          ZZ          XY          XZ          YZ
         1        -0.6800      0.3203      0.0429     -2.1051     -0.3158      0.1732
 <0|del|b> * <b|rxdel|0> + <0|del|b> * <b|delr+rdel|0>
 Rotatory Strengths (R) in cgs (10**-40 erg-esu-cm/Gauss)
       state          XX          YY          ZZ    R(velocity)    E-M Angle
         1       -70.9150   -110.8247    152.6426     -9.6990       90.28
 1/2[<0|r|b>*<b|rxdel|0> + (<0|rxdel|b>*<b|r|0>)*]
 Rotatory Strengths (R) in cgs (10**-40 erg-esu-cm/Gauss)
       state          XX          YY          ZZ     R(length)
         1       100.6907    783.1314   -862.1507      7.2238
  1/2[<0|del|b>*<b|r|0> + (<0|r|b>*<b|del|0>)*] (Au)
       state          X           Y           Z        Dip. S.   Osc.(frdel)
         1        -0.0085     -0.3947     -0.0088      0.4120      0.2747

 Excitation energies and oscillator strengths:
 
 Excited State   1:      Singlet-A      1.9692 eV  629.60 nm  f=0.2819  <S**2>=0.000
     240 -> 243       -0.22326
     241 -> 242        0.65979
 This state for optimization and/or second-order correction.
 Total Energy, E(TD-HF/TD-KS) =  -2932.56064181    
 Copying the excited state density for this state as the 1-particle RhoCI density.
 SavETr:  write IOETrn=   770 NScale= 10 NData=  16 NLR=1 NState=    1 LETran=      28.

 **********************************************************************

            Population analysis using the SCF density.

 **********************************************************************

 Orbital symmetries:
       Occupied  (A) (A) (A) (A) (A) (A) (A) (A) (A) (A) (A) (A)
                 (A) (A) (A) (A) (A) (A) (A) (A) (A) (A) (A) (A)
                 (A) (A) (A) (A) (A) (A) (A) (A) (A) (A) (A) (A)
                 (A) (A) (A) (A) (A) (A) (A) (A) (A) (A) (A) (A)
                 (A) (A) (A) (A) (A) (A) (A) (A) (A) (A) (A) (A)
                 (A) (A) (A) (A) (A) (A) (A) (A) (A) (A) (A) (A)
                 (A) (A) (A) (A) (A) (A) (A) (A) (A) (A) (A) (A)
                 (A) (A) (A) (A) (A) (A) (A) (A) (A) (A) (A) (A)
                 (A) (A) (A) (A) (A) (A) (A) (A) (A) (A) (A) (A)
                 (A) (A) (A) (A) (A) (A) (A) (A) (A) (A) (A) (A)
                 (A) (A) (A) (A) (A) (A) (A) (A) (A) (A) (A) (A)
                 (A) (A) (A) (A) (A) (A) (A) (A) (A) (A) (A) (A)
                 (A) (A) (A) (A) (A) (A) (A) (A) (A) (A) (A) (A)
                 (A) (A) (A) (A) (A) (A) (A) (A) (A) (A) (A) (A)
                 (A) (A) (A) (A) (A) (A) (A) (A) (A) (A) (A) (A)
                 (A) (A) (A) (A) (A) (A) (A) (A) (A) (A) (A) (A)
                 (A) (A) (A) (A) (A) (A) (A) (A) (A) (A) (A) (A)
                 (A) (A) (A) (A) (A) (A) (A) (A) (A) (A) (A) (A)
                 (A) (A) (A) (A) (A) (A) (A) (A) (A) (A) (A) (A)
                 (A) (A) (A) (A) (A) (A) (A) (A) (A) (A) (A) (A)
                 (A)
       Virtual   (A) (A) (A) (A) (A) (A) (A) (A) (A) (A) (A) (A)
                 (A) (A) (A) (A) (A) (A) (A) (A) (A) (A) (A) (A)
                 (A) (A) (A) (A) (A) (A) (A) (A) (A) (A) (A) (A)
                 (A) (A) (A) (A) (A) (A) (A) (A) (A) (A) (A) (A)
                 (A) (A) (A) (A) (A) (A) (A) (A) (A) (A) (A) (A)
                 (A) (A) (A) (A) (A) (A) (A) (A) (A) (A) (A) (A)
                 (A) (A) (A) (A) (A) (A) (A) (A) (A) (A) (A) (A)
                 (A) (A) (A) (A) (A) (A) (A) (A) (A) (A) (A) (A)
                 (A) (A) (A) (A) (A) (A) (A) (A) (A) (A) (A) (A)
                 (A) (A) (A) (A) (A) (A) (A) (A) (A) (A) (A) (A)
                 (A) (A) (A) (A) (A) (A) (A) (A) (A) (A) (A) (A)
                 (A) (A) (A) (A) (A) (A) (A) (A) (A) (A) (A) (A)
                 (A) (A) (A) (A) (A) (A) (A) (A) (A) (A) (A) (A)
                 (A) (A) (A) (A) (A) (A) (A) (A) (A) (A) (A) (A)
                 (A) (A) (A) (A) (A) (A) (A) (A) (A) (A) (A) (A)
                 (A) (A) (A) (A) (A) (A) (A) (A) (A) (A) (A) (A)
                 (A) (A) (A) (A) (A) (A) (A) (A) (A) (A) (A) (A)
                 (A) (A) (A) (A) (A) (A) (A) (A) (A) (A) (A) (A)
                 (A) (A) (A) (A) (A) (A) (A) (A) (A) (A) (A) (A)
                 (A) (A) (A) (A) (A) (A) (A) (A) (A) (A) (A) (A)
                 (A) (A) (A) (A) (A) (A) (A) (A) (A) (A) (A) (A)
                 (A) (A) (A) (A) (A) (A) (A) (A) (A) (A) (A) (A)
                 (A) (A) (A) (A) (A) (A) (A) (A) (A) (A) (A) (A)
                 (A) (A) (A) (A) (A) (A) (A) (A) (A) (A) (A) (A)
                 (A) (A) (A) (A) (A) (A) (A) (A) (A) (A) (A) (A)
                 (A) (A) (A) (A) (A) (A) (A) (A) (A) (A) (A) (A)
                 (A) (A) (A) (A) (A) (A) (A) (A) (A) (A) (A) (A)
                 (A) (A) (A) (A) (A) (A) (A) (A) (A) (A) (A) (A)
                 (A) (A) (A) (A) (A) (A) (A) (A) (A) (A) (A) (A)
                 (A) (A) (A) (A) (A) (A) (A) (A) (A) (A) (A) (A)
                 (A) (A) (A) (A) (A) (A) (A) (A) (A) (A) (A) (A)
                 (A) (A) (A) (A) (A) (A) (A) (A) (A) (A) (A) (A)
                 (A) (A) (A) (A) (A) (A) (A) (A) (A) (A) (A) (A)
                 (A) (A) (A) (A) (A) (A) (A) (A) (A) (A) (A) (A)
                 (A) (A) (A) (A) (A) (A) (A) (A) (A) (A) (A) (A)
                 (A) (A) (A) (A) (A) (A) (A) (A) (A) (A) (A) (A)
                 (A) (A) (A) (A) (A) (A) (A) (A) (A) (A) (A) (A)
                 (A) (A) (A) (A) (A) (A) (A) (A) (A) (A) (A) (A)
                 (A) (A) (A) (A) (A) (A) (A) (A) (A) (A) (A) (A)
                 (A) (A) (A) (A) (A) (A) (A) (A) (A) (A) (A) (A)
                 (A) (A) (A) (A) (A) (A) (A) (A) (A) (A) (A) (A)
                 (A) (A) (A) (A) (A) (A) (A) (A) (A) (A) (A) (A)
                 (A) (A) (A) (A) (A) (A) (A) (A) (A) (A) (A) (A)
                 (A) (A) (A) (A) (A) (A) (A) (A) (A) (A) (A) (A)
                 (A) (A) (A) (A) (A) (A) (A) (A) (A) (A) (A) (A)
                 (A) (A) (A) (A) (A) (A) (A) (A) (A) (A) (A) (A)
                 (A) (A) (A) (A) (A) (A) (A) (A) (A) (A) (A) (A)
                 (A) (A) (A) (A) (A) (A) (A) (A) (A) (A) (A) (A)
                 (A) (A) (A) (A) (A) (A) (A) (A) (A) (A) (A) (A)
                 (A) (A) (A) (A) (A) (A) (A) (A) (A) (A) (A) (A)
                 (A) (A) (A) (A) (A) (A) (A) (A) (A) (A) (A) (A)
                 (A) (A) (A) (A) (A) (A) (A) (A) (A) (A) (A) (A)
                 (A) (A) (A) (A) (A) (A) (A) (A) (A) (A) (A) (A)
                 (A) (A) (A) (A) (A) (A) (A) (A) (A) (A) (A) (A)
                 (A) (A) (A) (A) (A) (A) (A) (A) (A) (A) (A) (A)
                 (A) (A) (A) (A) (A) (A) (A) (A) (A) (A) (A) (A)
                 (A) (A) (A) (A) (A) (A) (A) (A) (A) (A) (A) (A)
                 (A) (A) (A) (A) (A) (A) (A) (A) (A) (A) (A) (A)
                 (A) (A) (A) (A) (A) (A) (A) (A) (A) (A) (A) (A)
                 (A) (A) (A) (A) (A) (A) (A) (A) (A) (A) (A) (A)
                 (A) (A) (A) (A) (A) (A) (A) (A) (A) (A) (A) (A)
                 (A) (A) (A) (A) (A) (A) (A) (A) (A) (A) (A) (A)
                 (A) (A) (A) (A) (A) (A) (A) (A) (A) (A) (A) (A)
                 (A) (A) (A) (A) (A) (A) (A) (A) (A) (A) (A) (A)
                 (A) (A) (A) (A) (A) (A) (A) (A) (A) (A) (A) (A)
                 (A) (A) (A) (A) (A) (A) (A) (A) (A) (A) (A) (A)
                 (A) (A) (A) (A) (A) (A) (A) (A) (A) (A) (A) (A)
                 (A) (A) (A) (A) (A) (A) (A) (A) (A) (A) (A) (A)
                 (A) (A) (A) (A) (A) (A) (A) (A) (A) (A) (A) (A)
                 (A) (A) (A) (A) (A) (A) (A) (A) (A) (A) (A) (A)
                 (A) (A) (A) (A) (A) (A) (A) (A) (A) (A) (A) (A)
                 (A) (A) (A) (A) (A) (A) (A) (A) (A) (A) (A) (A)
                 (A) (A) (A) (A) (A) (A) (A) (A) (A) (A) (A) (A)
                 (A) (A) (A) (A) (A) (A) (A) (A) (A) (A) (A) (A)
                 (A) (A) (A) (A) (A) (A) (A) (A) (A) (A) (A) (A)
                 (A) (A) (A) (A) (A) (A) (A) (A) (A) (A) (A) (A)
                 (A) (A) (A) (A) (A) (A) (A) (A) (A) (A) (A) (A)
                 (A) (A) (A) (A) (A) (A) (A) (A) (A) (A) (A) (A)
                 (A) (A) (A) (A) (A) (A) (A) (A) (A) (A) (A) (A)
                 (A) (A) (A) (A) (A) (A) (A) (A) (A) (A) (A) (A)
                 (A) (A) (A) (A) (A) (A) (A) (A) (A) (A) (A) (A)
                 (A) (A) (A) (A) (A) (A) (A) (A) (A) (A) (A) (A)
                 (A) (A) (A) (A) (A) (A) (A) (A) (A) (A) (A) (A)
                 (A) (A) (A) (A) (A) (A) (A) (A) (A) (A) (A) (A)
                 (A) (A) (A) (A) (A) (A) (A) (A) (A) (A) (A) (A)
                 (A) (A) (A) (A) (A) (A) (A) (A) (A) (A) (A) (A)
                 (A) (A) (A) (A) (A) (A) (A) (A) (A) (A) (A) (A)
                 (A) (A) (A) (A) (A) (A) (A) (A) (A) (A) (A) (A)
                 (A) (A) (A) (A) (A) (A) (A) (A) (A) (A) (A) (A)
                 (A) (A) (A) (A) (A) (A) (A) (A) (A) (A) (A) (A)
                 (A) (A) (A) (A) (A) (A) (A) (A) (A) (A) (A) (A)
                 (A) (A) (A) (A) (A) (A)
 The electronic state is 1-A.
 Alpha  occ. eigenvalues --  -46.83516 -19.28106 -19.27024 -19.21195 -19.20351
 Alpha  occ. eigenvalues --  -19.19895 -14.41382 -14.40211 -14.40021 -14.38469
 Alpha  occ. eigenvalues --  -10.40025 -10.39842 -10.35762 -10.32967 -10.30858
 Alpha  occ. eigenvalues --  -10.30843 -10.30252 -10.30077 -10.29752 -10.29638
 Alpha  occ. eigenvalues --  -10.29566 -10.29254 -10.29011 -10.28617 -10.28525
 Alpha  occ. eigenvalues --  -10.28443 -10.28396 -10.28117 -10.27728 -10.27555
 Alpha  occ. eigenvalues --  -10.27530 -10.27500 -10.27409 -10.27398 -10.27389
 Alpha  occ. eigenvalues --  -10.27210 -10.26935 -10.26902 -10.26873 -10.26834
 Alpha  occ. eigenvalues --  -10.26831 -10.26830 -10.26813 -10.26782 -10.26691
 Alpha  occ. eigenvalues --  -10.26548 -10.26521 -10.26427 -10.26347 -10.26315
 Alpha  occ. eigenvalues --  -10.26314 -10.26055 -10.26026 -10.25968 -10.25849
 Alpha  occ. eigenvalues --  -10.25730 -10.25691 -10.25678 -10.25636 -10.25262
 Alpha  occ. eigenvalues --  -10.25241 -10.24737 -10.24630 -10.24340 -10.24179
 Alpha  occ. eigenvalues --   -3.12729  -1.87420  -1.87003  -1.86889  -1.18591
 Alpha  occ. eigenvalues --   -1.18092  -1.12511  -1.06351  -1.05080  -1.04340
 Alpha  occ. eigenvalues --   -1.04189  -1.02937  -0.99685  -0.93895  -0.91695
 Alpha  occ. eigenvalues --   -0.90460  -0.89796  -0.89667  -0.89363  -0.89046
 Alpha  occ. eigenvalues --   -0.88733  -0.88469  -0.87736  -0.86936  -0.85839
 Alpha  occ. eigenvalues --   -0.85341  -0.84515  -0.84049  -0.83584  -0.83204
 Alpha  occ. eigenvalues --   -0.82304  -0.81700  -0.81001  -0.80422  -0.78419
 Alpha  occ. eigenvalues --   -0.77680  -0.77266  -0.77083  -0.76090  -0.75324
 Alpha  occ. eigenvalues --   -0.74874  -0.74565  -0.74135  -0.72547  -0.72002
 Alpha  occ. eigenvalues --   -0.71510  -0.69845  -0.69395  -0.68378  -0.68019
 Alpha  occ. eigenvalues --   -0.67251  -0.66808  -0.65465  -0.64723  -0.64346
 Alpha  occ. eigenvalues --   -0.63932  -0.63073  -0.62856  -0.62646  -0.61786
 Alpha  occ. eigenvalues --   -0.61142  -0.60804  -0.60063  -0.59779  -0.59553
 Alpha  occ. eigenvalues --   -0.58951  -0.58566  -0.57952  -0.57598  -0.57033
 Alpha  occ. eigenvalues --   -0.56747  -0.56226  -0.55902  -0.55449  -0.55377
 Alpha  occ. eigenvalues --   -0.54511  -0.54143  -0.53629  -0.53581  -0.53378
 Alpha  occ. eigenvalues --   -0.53070  -0.52649  -0.52550  -0.51703  -0.51599
 Alpha  occ. eigenvalues --   -0.51476  -0.51361  -0.51186  -0.50792  -0.50628
 Alpha  occ. eigenvalues --   -0.50425  -0.50192  -0.49969  -0.49898  -0.49762
 Alpha  occ. eigenvalues --   -0.49651  -0.49208  -0.49071  -0.48691  -0.48540
 Alpha  occ. eigenvalues --   -0.48307  -0.47943  -0.47844  -0.47196  -0.46814
 Alpha  occ. eigenvalues --   -0.46666  -0.46269  -0.46186  -0.45743  -0.45562
 Alpha  occ. eigenvalues --   -0.45315  -0.45141  -0.45028  -0.44865  -0.44620
 Alpha  occ. eigenvalues --   -0.44563  -0.44427  -0.44353  -0.44120  -0.44003
 Alpha  occ. eigenvalues --   -0.43772  -0.43592  -0.43529  -0.43520  -0.42839
 Alpha  occ. eigenvalues --   -0.42772  -0.42741  -0.42410  -0.42373  -0.42246
 Alpha  occ. eigenvalues --   -0.42171  -0.42077  -0.41583  -0.41298  -0.40992
 Alpha  occ. eigenvalues --   -0.40637  -0.40609  -0.40311  -0.39988  -0.39955
 Alpha  occ. eigenvalues --   -0.39718  -0.39513  -0.39394  -0.39349  -0.39196
 Alpha  occ. eigenvalues --   -0.38854  -0.38770  -0.38057  -0.37896  -0.37706
 Alpha  occ. eigenvalues --   -0.37494  -0.37233  -0.36984  -0.36439  -0.36346
 Alpha  occ. eigenvalues --   -0.36054  -0.35891  -0.35702  -0.35572  -0.35440
 Alpha  occ. eigenvalues --   -0.35359  -0.34997  -0.34680  -0.33212  -0.32835
 Alpha  occ. eigenvalues --   -0.32676  -0.32048  -0.31977  -0.30826  -0.30518
 Alpha  occ. eigenvalues --   -0.29712  -0.28740  -0.28542  -0.27528  -0.23403
 Alpha  occ. eigenvalues --   -0.21010
 Alpha virt. eigenvalues --   -0.06895  -0.02886   0.01326   0.03791   0.04493
 Alpha virt. eigenvalues --    0.04759   0.05417   0.05723   0.06695   0.07655
 Alpha virt. eigenvalues --    0.08231   0.10532   0.10967   0.11352   0.11597
 Alpha virt. eigenvalues --    0.11868   0.12108   0.12146   0.12810   0.12928
 Alpha virt. eigenvalues --    0.13067   0.13268   0.13583   0.13689   0.13856
 Alpha virt. eigenvalues --    0.14216   0.14345   0.14506   0.14955   0.15178
 Alpha virt. eigenvalues --    0.15513   0.15701   0.16110   0.16267   0.16424
 Alpha virt. eigenvalues --    0.16504   0.16631   0.16752   0.16953   0.17171
 Alpha virt. eigenvalues --    0.17260   0.17305   0.17929   0.18020   0.18185
 Alpha virt. eigenvalues --    0.18333   0.18509   0.18551   0.18777   0.18867
 Alpha virt. eigenvalues --    0.19135   0.19185   0.19334   0.19593   0.19753
 Alpha virt. eigenvalues --    0.19818   0.19976   0.20022   0.20207   0.20317
 Alpha virt. eigenvalues --    0.20815   0.20900   0.21252   0.21331   0.21413
 Alpha virt. eigenvalues --    0.21758   0.22003   0.22099   0.22293   0.22544
 Alpha virt. eigenvalues --    0.22755   0.22795   0.22933   0.23057   0.23267
 Alpha virt. eigenvalues --    0.23433   0.23782   0.23961   0.24042   0.24078
 Alpha virt. eigenvalues --    0.24145   0.24336   0.24827   0.25063   0.25308
 Alpha virt. eigenvalues --    0.25582   0.25737   0.25955   0.26063   0.26149
 Alpha virt. eigenvalues --    0.26238   0.26550   0.26820   0.26938   0.27310
 Alpha virt. eigenvalues --    0.27462   0.27780   0.27935   0.28613   0.28649
 Alpha virt. eigenvalues --    0.28726   0.29059   0.29245   0.29529   0.29697
 Alpha virt. eigenvalues --    0.29946   0.30118   0.30184   0.30419   0.30630
 Alpha virt. eigenvalues --    0.30836   0.31241   0.31481   0.31716   0.31798
 Alpha virt. eigenvalues --    0.32042   0.32625   0.32742   0.33069   0.33328
 Alpha virt. eigenvalues --    0.33400   0.33539   0.33752   0.33994   0.34449
 Alpha virt. eigenvalues --    0.34962   0.35213   0.35415   0.35874   0.35927
 Alpha virt. eigenvalues --    0.36553   0.36727   0.37018   0.37811   0.38490
 Alpha virt. eigenvalues --    0.38753   0.39095   0.39654   0.40330   0.40525
 Alpha virt. eigenvalues --    0.41253   0.41294   0.42093   0.42381   0.42696
 Alpha virt. eigenvalues --    0.43171   0.43657   0.44420   0.45698   0.46337
 Alpha virt. eigenvalues --    0.47390   0.47461   0.48366   0.48470   0.49225
 Alpha virt. eigenvalues --    0.49771   0.50605   0.51071   0.51977   0.52659
 Alpha virt. eigenvalues --    0.52882   0.53145   0.53483   0.54120   0.54402
 Alpha virt. eigenvalues --    0.54812   0.55081   0.55133   0.55322   0.55775
 Alpha virt. eigenvalues --    0.55962   0.56396   0.56758   0.56790   0.56896
 Alpha virt. eigenvalues --    0.57441   0.57724   0.57981   0.58065   0.58266
 Alpha virt. eigenvalues --    0.58376   0.58591   0.58704   0.59138   0.59414
 Alpha virt. eigenvalues --    0.59653   0.59775   0.60022   0.60154   0.60297
 Alpha virt. eigenvalues --    0.60515   0.60649   0.61090   0.61185   0.61393
 Alpha virt. eigenvalues --    0.61714   0.61823   0.62027   0.62334   0.62491
 Alpha virt. eigenvalues --    0.62734   0.63059   0.63327   0.63676   0.63780
 Alpha virt. eigenvalues --    0.64166   0.64445   0.64545   0.64723   0.65182
 Alpha virt. eigenvalues --    0.65392   0.65669   0.65953   0.66217   0.66300
 Alpha virt. eigenvalues --    0.66487   0.66513   0.67070   0.67259   0.67646
 Alpha virt. eigenvalues --    0.68033   0.68084   0.68442   0.68641   0.69068
 Alpha virt. eigenvalues --    0.69396   0.69635   0.69900   0.70088   0.70343
 Alpha virt. eigenvalues --    0.70573   0.70698   0.70974   0.71102   0.71475
 Alpha virt. eigenvalues --    0.71819   0.72114   0.72473   0.72786   0.73003
 Alpha virt. eigenvalues --    0.73175   0.73557   0.73784   0.73980   0.74167
 Alpha virt. eigenvalues --    0.74426   0.74905   0.75184   0.75483   0.75571
 Alpha virt. eigenvalues --    0.76101   0.76245   0.76316   0.76551   0.76798
 Alpha virt. eigenvalues --    0.77365   0.77844   0.77916   0.78133   0.78319
 Alpha virt. eigenvalues --    0.78383   0.78610   0.78974   0.79589   0.79875
 Alpha virt. eigenvalues --    0.80178   0.80318   0.80472   0.80816   0.80831
 Alpha virt. eigenvalues --    0.81156   0.81424   0.81880   0.82201   0.82479
 Alpha virt. eigenvalues --    0.82583   0.82967   0.82975   0.83271   0.83466
 Alpha virt. eigenvalues --    0.83555   0.83764   0.83977   0.84246   0.84402
 Alpha virt. eigenvalues --    0.84781   0.84918   0.85044   0.85182   0.85289
 Alpha virt. eigenvalues --    0.85513   0.85667   0.85866   0.85883   0.85918
 Alpha virt. eigenvalues --    0.86082   0.86166   0.86432   0.87118   0.87268
 Alpha virt. eigenvalues --    0.87637   0.87767   0.87823   0.87863   0.87965
 Alpha virt. eigenvalues --    0.88149   0.88365   0.88468   0.88659   0.89182
 Alpha virt. eigenvalues --    0.89508   0.89730   0.89784   0.89875   0.89964
 Alpha virt. eigenvalues --    0.90441   0.90538   0.90663   0.91057   0.91333
 Alpha virt. eigenvalues --    0.91578   0.91715   0.91829   0.92284   0.92644
 Alpha virt. eigenvalues --    0.92762   0.93270   0.93451   0.93589   0.93751
 Alpha virt. eigenvalues --    0.93863   0.94206   0.94451   0.94467   0.94581
 Alpha virt. eigenvalues --    0.94838   0.94974   0.95111   0.95399   0.95747
 Alpha virt. eigenvalues --    0.95769   0.96041   0.96217   0.96443   0.96496
 Alpha virt. eigenvalues --    0.96660   0.96808   0.97035   0.97220   0.97468
 Alpha virt. eigenvalues --    0.97649   0.97748   0.98128   0.98246   0.98530
 Alpha virt. eigenvalues --    0.98705   0.98836   0.99101   0.99324   0.99735
 Alpha virt. eigenvalues --    0.99912   1.00474   1.00612   1.01033   1.01069
 Alpha virt. eigenvalues --    1.01318   1.01497   1.01558   1.01602   1.01748
 Alpha virt. eigenvalues --    1.01916   1.02075   1.02249   1.02694   1.02960
 Alpha virt. eigenvalues --    1.03131   1.03316   1.03473   1.03603   1.03990
 Alpha virt. eigenvalues --    1.04319   1.04556   1.04700   1.04934   1.05166
 Alpha virt. eigenvalues --    1.05522   1.05537   1.05728   1.06557   1.07197
 Alpha virt. eigenvalues --    1.07431   1.07596   1.07807   1.08181   1.08331
 Alpha virt. eigenvalues --    1.08832   1.09439   1.09904   1.10095   1.10401
 Alpha virt. eigenvalues --    1.10836   1.11201   1.11643   1.11762   1.12359
 Alpha virt. eigenvalues --    1.12495   1.12747   1.12949   1.13315   1.13587
 Alpha virt. eigenvalues --    1.14656   1.15435   1.15968   1.16433   1.16995
 Alpha virt. eigenvalues --    1.18121   1.18707   1.19273   1.19590   1.19674
 Alpha virt. eigenvalues --    1.20605   1.21274   1.21801   1.22292   1.22341
 Alpha virt. eigenvalues --    1.22713   1.23357   1.24285   1.24648   1.25190
 Alpha virt. eigenvalues --    1.25356   1.26173   1.26634   1.26799   1.27184
 Alpha virt. eigenvalues --    1.28161   1.28471   1.28773   1.29375   1.30242
 Alpha virt. eigenvalues --    1.30473   1.30957   1.31621   1.32429   1.32629
 Alpha virt. eigenvalues --    1.33036   1.34076   1.34195   1.35037   1.35296
 Alpha virt. eigenvalues --    1.35776   1.36520   1.36830   1.37352   1.37799
 Alpha virt. eigenvalues --    1.38267   1.38433   1.38991   1.39398   1.39515
 Alpha virt. eigenvalues --    1.39915   1.40727   1.40833   1.41838   1.42048
 Alpha virt. eigenvalues --    1.42422   1.43146   1.43668   1.44039   1.44733
 Alpha virt. eigenvalues --    1.45130   1.45558   1.45938   1.46217   1.46739
 Alpha virt. eigenvalues --    1.46898   1.47637   1.47901   1.49151   1.50008
 Alpha virt. eigenvalues --    1.50529   1.50681   1.51173   1.51604   1.52376
 Alpha virt. eigenvalues --    1.52598   1.53150   1.53661   1.53902   1.54007
 Alpha virt. eigenvalues --    1.54398   1.54703   1.54915   1.55702   1.56301
 Alpha virt. eigenvalues --    1.56708   1.57064   1.57757   1.57812   1.58584
 Alpha virt. eigenvalues --    1.58823   1.59131   1.60092   1.60605   1.60779
 Alpha virt. eigenvalues --    1.61157   1.61326   1.61924   1.62057   1.62813
 Alpha virt. eigenvalues --    1.64099   1.64307   1.64759   1.64788   1.65462
 Alpha virt. eigenvalues --    1.66102   1.66418   1.66873   1.67509   1.67757
 Alpha virt. eigenvalues --    1.68257   1.68677   1.69046   1.69232   1.69679
 Alpha virt. eigenvalues --    1.70184   1.70938   1.71373   1.71582   1.72208
 Alpha virt. eigenvalues --    1.72826   1.73066   1.73493   1.73705   1.74061
 Alpha virt. eigenvalues --    1.74416   1.75389   1.75668   1.76156   1.76403
 Alpha virt. eigenvalues --    1.76844   1.77072   1.77413   1.77817   1.78063
 Alpha virt. eigenvalues --    1.78455   1.78638   1.78765   1.79093   1.79201
 Alpha virt. eigenvalues --    1.79977   1.80530   1.80864   1.80921   1.82168
 Alpha virt. eigenvalues --    1.82408   1.82639   1.83249   1.83279   1.83669
 Alpha virt. eigenvalues --    1.83889   1.84466   1.84723   1.84856   1.85209
 Alpha virt. eigenvalues --    1.85339   1.85519   1.85886   1.85962   1.86334
 Alpha virt. eigenvalues --    1.86423   1.86707   1.87298   1.87823   1.88112
 Alpha virt. eigenvalues --    1.88556   1.89020   1.89098   1.89554   1.89765
 Alpha virt. eigenvalues --    1.89982   1.90208   1.90316   1.90686   1.91047
 Alpha virt. eigenvalues --    1.91249   1.91365   1.91841   1.91916   1.92203
 Alpha virt. eigenvalues --    1.92511   1.92604   1.92781   1.93130   1.93216
 Alpha virt. eigenvalues --    1.93433   1.93522   1.94014   1.94275   1.94658
 Alpha virt. eigenvalues --    1.94894   1.94951   1.95366   1.95655   1.95835
 Alpha virt. eigenvalues --    1.95881   1.95964   1.96314   1.96611   1.96978
 Alpha virt. eigenvalues --    1.97600   1.97693   1.97939   1.98073   1.98495
 Alpha virt. eigenvalues --    1.98554   1.98711   1.99080   1.99408   1.99867
 Alpha virt. eigenvalues --    1.99987   2.00414   2.00746   2.00827   2.01112
 Alpha virt. eigenvalues --    2.01683   2.01913   2.01932   2.02315   2.02498
 Alpha virt. eigenvalues --    2.02797   2.03399   2.03676   2.03900   2.04146
 Alpha virt. eigenvalues --    2.04432   2.04610   2.04873   2.05167   2.05550
 Alpha virt. eigenvalues --    2.05695   2.06036   2.06070   2.06481   2.06643
 Alpha virt. eigenvalues --    2.06709   2.07105   2.07299   2.07869   2.08418
 Alpha virt. eigenvalues --    2.08684   2.08957   2.09433   2.09749   2.09773
 Alpha virt. eigenvalues --    2.10119   2.10770   2.10856   2.10976   2.11484
 Alpha virt. eigenvalues --    2.11622   2.11904   2.12038   2.12392   2.12704
 Alpha virt. eigenvalues --    2.13285   2.13493   2.13796   2.13865   2.14424
 Alpha virt. eigenvalues --    2.14628   2.15224   2.15257   2.15534   2.16026
 Alpha virt. eigenvalues --    2.16185   2.16491   2.16758   2.16980   2.17015
 Alpha virt. eigenvalues --    2.17423   2.17749   2.17981   2.18725   2.18898
 Alpha virt. eigenvalues --    2.19424   2.19574   2.19712   2.20052   2.20223
 Alpha virt. eigenvalues --    2.20421   2.20787   2.22017   2.22300   2.22711
 Alpha virt. eigenvalues --    2.23109   2.23585   2.23989   2.24036   2.24277
 Alpha virt. eigenvalues --    2.24477   2.24731   2.24952   2.25551   2.26272
 Alpha virt. eigenvalues --    2.26345   2.26719   2.27046   2.27105   2.27465
 Alpha virt. eigenvalues --    2.27736   2.28351   2.28723   2.28861   2.29281
 Alpha virt. eigenvalues --    2.29785   2.29983   2.30211   2.30499   2.30747
 Alpha virt. eigenvalues --    2.30867   2.31447   2.31806   2.32207   2.32608
 Alpha virt. eigenvalues --    2.33143   2.33383   2.33497   2.33858   2.34048
 Alpha virt. eigenvalues --    2.34251   2.34828   2.34954   2.35398   2.35519
 Alpha virt. eigenvalues --    2.35817   2.36149   2.36227   2.36984   2.37118
 Alpha virt. eigenvalues --    2.37407   2.37907   2.38196   2.38424   2.38612
 Alpha virt. eigenvalues --    2.38796   2.38950   2.39585   2.40028   2.40788
 Alpha virt. eigenvalues --    2.40807   2.41388   2.41593   2.41679   2.41991
 Alpha virt. eigenvalues --    2.42055   2.42426   2.42452   2.43447   2.43805
 Alpha virt. eigenvalues --    2.43879   2.44072   2.44417   2.44625   2.44681
 Alpha virt. eigenvalues --    2.44995   2.45034   2.45287   2.45841   2.46390
 Alpha virt. eigenvalues --    2.46532   2.46851   2.47283   2.47691   2.48165
 Alpha virt. eigenvalues --    2.48326   2.48459   2.48650   2.48909   2.49114
 Alpha virt. eigenvalues --    2.49727   2.49768   2.49915   2.50425   2.50601
 Alpha virt. eigenvalues --    2.50835   2.51666   2.52052   2.52172   2.52615
 Alpha virt. eigenvalues --    2.53034   2.53439   2.53841   2.54705   2.55196
 Alpha virt. eigenvalues --    2.55562   2.56350   2.56627   2.56977   2.57122
 Alpha virt. eigenvalues --    2.57515   2.57794   2.58480   2.58578   2.58882
 Alpha virt. eigenvalues --    2.59491   2.60161   2.60322   2.60629   2.60714
 Alpha virt. eigenvalues --    2.61199   2.61369   2.61580   2.62163   2.62473
 Alpha virt. eigenvalues --    2.62902   2.63171   2.63311   2.63989   2.64210
 Alpha virt. eigenvalues --    2.64377   2.64749   2.65478   2.65830   2.66285
 Alpha virt. eigenvalues --    2.66936   2.67167   2.67368   2.67888   2.68091
 Alpha virt. eigenvalues --    2.68242   2.68511   2.68589   2.69249   2.69399
 Alpha virt. eigenvalues --    2.69596   2.69876   2.70104   2.70329   2.70493
 Alpha virt. eigenvalues --    2.70966   2.71096   2.71426   2.72122   2.72719
 Alpha virt. eigenvalues --    2.72755   2.73170   2.73462   2.73501   2.74398
 Alpha virt. eigenvalues --    2.74691   2.74925   2.75478   2.75644   2.75835
 Alpha virt. eigenvalues --    2.76535   2.76642   2.77001   2.77186   2.77411
 Alpha virt. eigenvalues --    2.77733   2.77922   2.78092   2.78545   2.79052
 Alpha virt. eigenvalues --    2.79414   2.79544   2.79726   2.79966   2.80535
 Alpha virt. eigenvalues --    2.80756   2.80868   2.81070   2.81438   2.81685
 Alpha virt. eigenvalues --    2.82070   2.82466   2.83241   2.83740   2.83833
 Alpha virt. eigenvalues --    2.83949   2.84348   2.84615   2.84861   2.85192
 Alpha virt. eigenvalues --    2.85580   2.85818   2.86082   2.86641   2.86993
 Alpha virt. eigenvalues --    2.87336   2.87512   2.87785   2.88256   2.88543
 Alpha virt. eigenvalues --    2.89053   2.89675   2.90122   2.90548   2.90767
 Alpha virt. eigenvalues --    2.90952   2.91050   2.91201   2.91798   2.92168
 Alpha virt. eigenvalues --    2.92373   2.92678   2.92964   2.93003   2.93902
 Alpha virt. eigenvalues --    2.94020   2.94368   2.94692   2.94798   2.95507
 Alpha virt. eigenvalues --    2.96141   2.96589   2.96672   2.97137   2.97576
 Alpha virt. eigenvalues --    2.97816   2.98388   2.98989   2.99076   2.99837
 Alpha virt. eigenvalues --    3.00068   3.00622   3.01137   3.01525   3.02503
 Alpha virt. eigenvalues --    3.02842   3.03133   3.03528   3.04243   3.04351
 Alpha virt. eigenvalues --    3.04701   3.05426   3.06547   3.07514   3.08045
 Alpha virt. eigenvalues --    3.08702   3.09284   3.09689   3.10810   3.11098
 Alpha virt. eigenvalues --    3.11369   3.11765   3.12169   3.13302   3.13669
 Alpha virt. eigenvalues --    3.13926   3.14220   3.14959   3.15272   3.16762
 Alpha virt. eigenvalues --    3.17244   3.18131   3.19657   3.20842   3.22194
 Alpha virt. eigenvalues --    3.23095   3.23256   3.23646   3.24582   3.24763
 Alpha virt. eigenvalues --    3.25291   3.25307   3.26815   3.29103   3.29496
 Alpha virt. eigenvalues --    3.29554   3.29949   3.30237   3.30731   3.30831
 Alpha virt. eigenvalues --    3.32815   3.33497   3.33575   3.34150   3.34489
 Alpha virt. eigenvalues --    3.35660   3.36048   3.36514   3.36780   3.37406
 Alpha virt. eigenvalues --    3.38966   3.39173   3.39933   3.40054   3.40582
 Alpha virt. eigenvalues --    3.41644   3.41756   3.41945   3.42452   3.42977
 Alpha virt. eigenvalues --    3.43511   3.44303   3.45301   3.45640   3.46308
 Alpha virt. eigenvalues --    3.47722   3.47885   3.48247   3.48516   3.48721
 Alpha virt. eigenvalues --    3.49980   3.50135   3.50279   3.51186   3.51917
 Alpha virt. eigenvalues --    3.52928   3.53627   3.54121   3.55204   3.55739
 Alpha virt. eigenvalues --    3.56370   3.58038   3.58263   3.59383   3.60748
 Alpha virt. eigenvalues --    3.60788   3.61224   3.61629   3.63423   3.65767
 Alpha virt. eigenvalues --    3.65950   3.66499   3.66797   3.71586   3.72343
 Alpha virt. eigenvalues --    3.72510   3.79533   3.80291   3.81857   4.05593
 Alpha virt. eigenvalues --    4.06134   4.14654   4.20397   4.20615   4.21728
 Alpha virt. eigenvalues --    4.22998   4.24629   4.25223   4.26000   4.27822
 Alpha virt. eigenvalues --    4.29217   4.30218   4.31634   4.32327   4.33766
 Alpha virt. eigenvalues --    4.34188   4.35069   4.36676   4.37555   4.39567
 Alpha virt. eigenvalues --    4.39781   4.41112   4.43883   4.44033   4.44983
 Alpha virt. eigenvalues --    4.45968   4.46422   4.47537   4.48801   4.50625
 Alpha virt. eigenvalues --    4.50862   4.52001   4.53876   4.54282   4.56652
 Alpha virt. eigenvalues --    4.56784   4.57245   4.57859   4.58931   4.59592
 Alpha virt. eigenvalues --    4.60357   4.60852   4.62691   4.63461   4.66532
 Alpha virt. eigenvalues --    4.67388   4.68969   4.69705   4.72759   4.73057
 Alpha virt. eigenvalues --    4.75368   4.75881   4.77187   4.78834   4.81610
 Alpha virt. eigenvalues --    4.83523   4.83899   4.86437   4.88696   4.89186
 Alpha virt. eigenvalues --    4.90767   4.93642   5.08638
          Condensed to atoms (all electrons):
 Mulliken charges:
               1
     1  Mg   0.827430
     2  C    0.192490
     3  C   -0.204835
     4  C   -0.182925
     5  C   -0.150991
     6  N   -0.659090
     7  C    0.266962
     8  C   -0.165670
     9  C   -0.120902
    10  C    0.386874
    11  C   -0.312297
    12  C   -0.176161
    13  C   -0.242216
    14  C    0.589266
    15  O   -0.525285
    16  O   -0.443358
    17  N   -0.690756
    18  C    0.324878
    19  C    0.033790
    20  C    0.041468
    21  C    0.255031
    22  C   -0.386911
    23  C   -0.069037
    24  C   -0.261286
    25  N   -0.694655
    26  C    0.276386
    27  C    0.021288
    28  C    0.029546
    29  C    0.251615
    30  C   -0.358523
    31  C   -0.235393
    32  C   -0.288592
    33  N   -0.718704
    34  C    0.267000
    35  C    0.100656
    36  C   -0.035113
    37  C    0.272148
    38  C   -0.427950
    39  C    0.383372
    40  O   -0.442550
    41  C   -0.338195
    42  C    0.611754
    43  O   -0.512280
    44  O   -0.437993
    45  C   -0.064395
    46  C    0.010238
    47  C   -0.161987
    48  C    0.153551
    49  C   -0.381720
    50  C   -0.241641
    51  C   -0.203183
    52  C   -0.166817
    53  C   -0.058351
    54  C   -0.310769
    55  C   -0.159595
    56  C   -0.190196
    57  C   -0.171078
    58  C   -0.052126
    59  C   -0.300910
    60  C   -0.187540
    61  C   -0.164282
    62  C   -0.167548
    63  C   -0.046021
    64  C   -0.280229
    65  C   -0.293561
    66  H    0.072014
    67  H    0.084283
    68  H    0.103691
    69  H    0.119682
    70  H    0.076974
    71  H    0.091569
    72  H    0.120181
    73  H    0.102206
    74  H    0.103021
    75  H    0.116751
    76  H    0.128101
    77  H    0.138786
    78  H    0.121827
    79  H    0.094385
    80  H    0.104768
    81  H    0.102634
    82  H    0.100299
    83  H    0.094378
    84  H    0.128267
    85  H    0.112300
    86  H    0.139076
    87  H    0.102795
    88  H    0.088522
    89  H    0.090144
    90  H    0.089951
    91  H    0.122704
    92  H    0.118803
    93  H    0.157318
    94  H    0.112446
    95  H    0.170662
    96  H    0.121289
    97  H    0.142070
    98  H    0.103784
    99  H    0.148899
   100  H    0.131194
   101  H    0.072888
   102  H    0.124694
   103  H    0.111267
   104  H    0.123694
   105  H    0.099470
   106  H    0.112793
   107  H    0.121750
   108  H    0.101597
   109  H    0.087557
   110  H    0.090648
   111  H    0.083504
   112  H    0.098631
   113  H    0.104382
   114  H    0.065125
   115  H    0.099758
   116  H    0.094950
   117  H    0.086544
   118  H    0.096015
   119  H    0.075780
   120  H    0.091062
   121  H    0.059886
   122  H    0.115661
   123  H    0.107459
   124  H    0.087034
   125  H    0.074722
   126  H    0.084320
   127  H    0.066243
   128  H    0.111866
   129  H    0.102199
   130  H    0.063279
   131  H    0.062534
   132  H    0.068694
   133  H    0.090176
   134  H    0.105399
   135  H    0.105358
   136  H    0.083942
   137  H    0.101222
 Sum of Mulliken charges =   0.00000
 Mulliken charges with hydrogens summed into heavy atoms:
               1
     1  Mg   0.827430
     2  C    0.192490
     3  C   -0.132821
     4  C   -0.098643
     5  C   -0.047300
     6  N   -0.659090
     7  C    0.266962
     8  C   -0.045988
     9  C   -0.043928
    10  C    0.386874
    11  C    0.001658
    12  C    0.043611
    13  C    0.024671
    14  C    0.589266
    15  O   -0.525285
    16  O   -0.443358
    17  N   -0.690756
    18  C    0.324878
    19  C    0.033790
    20  C    0.041468
    21  C    0.255031
    22  C   -0.065931
    23  C    0.033597
    24  C   -0.066609
    25  N   -0.694655
    26  C    0.276386
    27  C    0.021288
    28  C    0.029546
    29  C    0.251615
    30  C    0.021120
    31  C   -0.044076
    32  C    0.014208
    33  N   -0.718704
    34  C    0.267000
    35  C    0.100656
    36  C   -0.035113
    37  C    0.272148
    38  C   -0.039383
    39  C    0.383372
    40  O   -0.442550
    41  C   -0.167533
    42  C    0.611754
    43  O   -0.512280
    44  O   -0.437993
    45  C    0.302748
    46  C    0.290331
    47  C   -0.089099
    48  C    0.153551
    49  C   -0.022066
    50  C   -0.029378
    51  C    0.020164
    52  C    0.011387
    53  C    0.025153
    54  C   -0.042631
    55  C    0.035114
    56  C   -0.007637
    57  C   -0.004237
    58  C    0.007760
    59  C    0.009244
    60  C   -0.028498
    61  C    0.013827
    62  C   -0.002070
    63  C    0.016513
    64  C   -0.015961
    65  C   -0.003039
 Electronic spatial extent (au):  <R**2>=         178878.9842
 Charge=              0.0000 electrons
 Dipole moment (field-independent basis, Debye):
    X=              1.4875    Y=              2.6456    Z=             -0.9725  Tot=              3.1871
 Quadrupole moment (field-independent basis, Debye-Ang):
   XX=           -328.8845   YY=           -393.7587   ZZ=           -402.2218
   XY=            -16.7485   XZ=             12.5542   YZ=             -1.8860
 Traceless Quadrupole moment (field-independent basis, Debye-Ang):
   XX=             46.0705   YY=            -18.8037   ZZ=            -27.2668
   XY=            -16.7485   XZ=             12.5542   YZ=             -1.8860
 Octapole moment (field-independent basis, Debye-Ang**2):
  XXX=           -750.7978  YYY=             51.8186  ZZZ=              8.6022  XYY=           -106.0123
  XXY=             -5.2617  XXZ=           -283.8956  XZZ=             -6.9903  YZZ=            -19.4470
  YYZ=             43.9595  XYZ=            -32.7157
 Hexadecapole moment (field-independent basis, Debye-Ang**3):
 XXXX=        -217211.2577 YYYY=         -18078.2655 ZZZZ=          -4164.1545 XXXY=          -2255.7328
 XXXZ=            809.2492 YYYX=           -889.9957 YYYZ=           -106.2892 ZZZX=            -19.9586
 ZZZY=           -126.2485 XXYY=         -39893.0583 XXZZ=         -39058.8634 YYZZ=          -3521.6489
 XXYZ=            159.2249 YYXZ=             52.2129 ZZXY=             -5.3639
 N-N= 8.749047522880D+03 E-N=-2.431991160950D+04  KE= 2.904456767530D+03
 1\1\GINC-PEDRO-RYZENSSD\SP\RCAM-B3LYP TD-FC\6-31G(d,p)\C55H72Mg1N4O5\P
 ADAWAN\04-Jul-2019\0\\# td=(NStates=1) CAM-B3LYP/6-31G(d,p)\\TD\\0,1\M
 g,0,-7.1098115542,0.705629311,0.0375414415\C,0,-4.8724118592,-2.029724
 1508,0.4852150542\C,0,-4.6872786568,2.7707355209,1.1029166566\C,0,-9.2
 393186674,3.1361791134,-0.3305059103\C,0,-9.5799483085,-1.7607115822,-
 0.8140878379\N,0,-5.101403565,0.3974695651,0.7781982381\C,0,-4.4370634
 124,-0.8145612781,0.7663546587\C,0,-2.9515241578,-0.4745168774,1.23828
 41826\C,0,-2.9844218806,0.9693095993,1.5686575965\C,0,-4.335640559,1.4
 10091758,1.1705540853\C,0,-2.739229005,1.3247147596,3.0628276917\C,0,-
 1.9238658476,-0.7760028617,0.0464286012\C,0,-0.5170591285,-0.677202067
 4,0.530227152\C,0,0.5471958568,-0.8334968626,-0.6510104815\O,0,0.16259
 74998,-1.2027156792,-1.8542217539\O,0,1.7801698275,-0.6226796644,-0.24
 2781067\N,0,-6.904980946,2.7004856384,0.358134509\C,0,-5.8693662156,3.
 4237833541,0.6490584394\C,0,-6.2392111742,4.7781721066,0.7558462718\C,
 0,-7.5311958266,4.8624368752,0.3668750788\C,0,-8.0089751691,3.56094528
 98,0.2126538117\C,0,-5.3218601427,5.8996124271,0.9366284233\C,0,-8.426
 3004276,6.0362246562,0.1382408095\C,0,-8.2621201033,7.1992360422,0.764
 3026801\N,0,-9.0090531779,0.6916120223,-0.4440084345\C,0,-9.7780340631
 ,1.9024101941,-0.631549479\C,0,-11.1552146181,1.5674450836,-1.07909962
 95\C,0,-11.2145238563,0.232338598,-1.2238010941\C,0,-9.9013758183,-0.3
 712290972,-0.8872537415\C,0,-12.2946882925,2.5232428953,-1.348581633\C
 ,0,-12.319996546,-0.6035977699,-1.7497757861\C,0,-12.2745249409,-1.013
 2737386,-3.2323183504\N,0,-7.2459340617,-1.3285624698,-0.0947741544\C,
 0,-8.3045206919,-2.136138786,-0.5163165869\C,0,-7.974463592,-3.5946777
 353,-0.398597137\C,0,-6.5971435985,-3.5674710841,-0.0795396859\C,0,-6.
 2075633527,-2.1743057119,0.1467574799\C,0,-8.8023677042,-4.6804708895,
 -0.7017886573\C,0,-5.4379582661,-4.4243563191,0.2256154341\O,0,-5.3712
 959675,-5.6230567891,0.261243155\C,0,-4.2877023496,-3.3854443342,0.496
 2394892\C,0,-3.5531559465,-3.8048557069,1.7602663995\O,0,-3.7397955802
 ,-3.1475214883,2.8547781589\O,0,-2.7790390976,-4.9202567481,1.71256983
 79\C,0,-2.1865992478,-5.2924734764,2.9058055161\C,0,2.7812406358,-0.94
 73225269,-1.3026314635\C,0,4.0856006491,-0.6363018065,-0.6831384628\C,
 0,5.1122247069,0.2430505705,-1.0461543881\C,0,5.0045388769,1.123555004
 8,-2.2638705524\C,0,6.2846227951,0.259047755,-0.1836448497\C,0,7.63428
 0966,-0.2955098979,-0.9707640269\C,0,8.8500568783,-0.1272878592,-0.118
 1636292\C,0,10.1904696715,-0.6084279145,-0.8226932398\C,0,10.068023502
 6,-2.0267036065,-1.3127147365\C,0,11.3461274896,-0.2232561064,0.093130
 1816\C,0,12.7313180395,-0.5177158227,-0.5170617291\C,0,13.863495818,-0
 .1422354263,0.4036874362\C,0,15.2917653014,-0.0908928184,-0.4072389637
 \C,0,15.6255142203,-1.4376413979,-0.733142932\C,0,16.3795320591,0.6138
 857486,0.5542899362\C,0,17.717886378,0.8176331617,-0.1342292375\C,0,18
 .7657969492,1.4980080178,0.7749579288\C,0,20.2216308323,1.5529556291,0
 .1444192051\C,0,20.2364950033,2.3101693141,-1.1352445172\C,0,21.205631
 4939,2.0960125376,1.1253979032\H,0,-3.8672782123,3.4558011015,1.543028
 8898\H,0,-9.8138717799,4.1400748425,-0.6772931208\H,0,-10.2637796674,-
 2.5696863094,-0.9990565579\H,0,-2.5994564025,-1.028851199,2.2321639076
 \H,0,-1.9837919844,1.5412277054,1.0264032907\H,0,-1.9491393714,0.58686
 91398,3.6239161051\H,0,-2.6622412841,2.3900730648,3.3442665921\H,0,-3.
 699513394,0.9058552695,3.6515175646\H,0,-2.1332458095,-1.7991498754,-0
 .4479887081\H,0,-2.2134130138,-0.0880615558,-0.8101210517\H,0,-0.42444
 5962,0.4079054044,0.784158815\H,0,-0.3452723292,-1.3607505903,1.304184
 3736\H,0,-5.6937981552,6.7403226764,0.2306587751\H,0,-5.4129982892,6.5
 54408804,1.9762939265\H,0,-4.1950534613,5.6159427607,0.7537385495\H,0,
 -9.1864506976,6.1697131194,-0.4896991981\H,0,-8.9822594418,7.950455784
 5,0.8413837602\H,0,-7.7960690727,7.2742238219,1.7897373592\H,0,-12.162
 3803431,3.2611464406,-2.0866816729\H,0,-13.1253021994,1.9667405653,-1.
 6575169432\H,0,-12.4987416053,2.8635050052,-0.3988811321\H,0,-12.35738
 05165,-1.5406135065,-1.1450094558\H,0,-13.2506937883,0.0890621694,-1.6
 006355911\H,0,-13.3024465973,-1.5604607323,-3.5955894434\H,0,-12.15017
 85821,-0.0011946571,-3.8259160873\H,0,-11.4184681261,-1.53712858,-3.50
 03086509\H,0,-9.307000303,-4.7081415571,-1.7765609202\H,0,-8.467556120
 4,-5.6217421784,-0.5827078838\H,0,-9.8170415891,-4.8893239537,-0.11707
 353\H,0,-3.5467653724,-3.6762608768,-0.195724844\H,0,-1.8734455111,-4.
 2230687466,3.1736602813\H,0,-2.7703866473,-5.7357151891,3.5286857075\H
 ,0,-1.1991180233,-5.8959088641,2.5847824311\H,0,2.6504643505,-1.995631
 399,-1.6664506101\H,0,2.6600434819,-0.202225943,-2.1028534375\H,0,4.31
 31922248,-1.1011323284,0.363179534\H,0,4.0346824317,1.2915278632,-2.74
 3792749\H,0,5.580193431,2.0834085998,-2.0995564238\H,0,5.5603033379,0.
 6974708546,-3.1293616672\H,0,6.6064427072,1.3408080808,-0.106758033\H,
 0,5.9452286423,-0.2018482222,0.7094506618\H,0,7.3467620609,-1.25835507
 07,-1.124003724\H,0,7.8986723031,0.0726604741,-1.9454174653\H,0,9.1229
 64348,0.8837462596,0.3349411263\H,0,8.5870171904,-0.7697624824,0.73410
 12738\H,0,10.1260201534,-0.0821956819,-1.796394529\H,0,8.9405090364,-2
 .2339413706,-1.6893548603\H,0,11.009223478,-2.4665634402,-1.8735716011
 \H,0,9.969409827,-2.8917511171,-0.4621156513\H,0,11.4664743283,0.81978
 42086,0.438215309\H,0,11.0875318066,-1.0793738987,0.8433149531\H,0,12.
 9322665456,-1.6175399152,-0.7255502226\H,0,12.8880825608,-0.1283921482
 ,-1.4852218835\H,0,13.8313345702,0.9634589019,0.6669540384\H,0,13.9077
 335265,-0.8954191466,1.2615526718\H,0,15.0554588344,0.7877282578,-1.27
 19815562\H,0,15.9528327262,-2.0510753996,0.0973482809\H,0,14.882301280
 8,-1.7977421498,-1.4458520003\H,0,16.6083004594,-1.5919747224,-1.26875
 83453\H,0,15.9714523459,1.6728551192,0.806607205\H,0,16.436778125,0.21
 53523601,1.6341261738\H,0,18.2635872974,-0.1177483222,-0.6890922496\H,
 0,17.5553025948,1.4135786768,-0.9466982456\H,0,18.4010408967,2.4318273
 404,1.0204000453\H,0,18.7916863289,0.8902832093,1.8371737177\H,0,20.59
 42843411,0.4797241206,-0.2465575918\H,0,19.5383379404,3.3494085028,-1.
 0505186453\H,0,21.3266569178,2.5058472375,-1.4914805114\H,0,19.8418980
 942,1.60339215,-1.8948564546\H,0,21.5498509603,1.3915672658,1.87808742
 59\H,0,22.1648181881,2.3553067604,0.5405690232\H,0,20.6803377637,2.914
 3715205,1.6272631668\\Version=ES64L-G09RevD.01\State=1-A\HF=-2932.6330
 1\RMSD=5.747e-09\PG=C01 [X(C55H72Mg1N4O5)]\\@


 THE TRULY SUCCESSFUL PERFORMANCE OF RESEARCHES IN
 INORGANIC CHEMISTRY IS POSSIBLE ONLY TO ONE WHO IS NOT
 ONLY A THEORETICAL CHEMIST, BUT ALSO AN ACCOMPLISHED
 ANALYST AND, MOREOVER, NOT MERELY A PRACTICALLY TRAINED,
 MECHANICAL WORKER, BUT A THINKING CREATIVE ARTIST.
   --  CLEMENS WINKLER, BER. 33, 1697(1900)
 Job cpu time:       0 days  6 hours 34 minutes 28.8 seconds.
 File lengths (MBytes):  RWF=   2106 Int=      0 D2E=      0 Chk=    163 Scr=      1
 Normal termination of Gaussian 09 at Thu Jul  4 15:14:48 2019.
