 Entering Gaussian System, Link 0=g16
 Input=Geometria-321-.com
 Output=Geometria-321-.log
 Initial command:
 /usr/local/g09/l1.exe "/home/padawan/israel-mol/chlorophyll-a/spectra/emi/Gau-14589.inp" -scrdir="/home/padawan/israel-mol/chlorophyll-a/spectra/emi/"
 Entering Link 1 = /usr/local/g09/l1.exe PID=     14591.
  
 Copyright (c) 1988,1990,1992,1993,1995,1998,2003,2009,2013,
            Gaussian, Inc.  All Rights Reserved.
  
 This is part of the Gaussian(R) 09 program.  It is based on
 the Gaussian(R) 03 system (copyright 2003, Gaussian, Inc.),
 the Gaussian(R) 98 system (copyright 1998, Gaussian, Inc.),
 the Gaussian(R) 94 system (copyright 1995, Gaussian, Inc.),
 the Gaussian 92(TM) system (copyright 1992, Gaussian, Inc.),
 the Gaussian 90(TM) system (copyright 1990, Gaussian, Inc.),
 the Gaussian 88(TM) system (copyright 1988, Gaussian, Inc.),
 the Gaussian 86(TM) system (copyright 1986, Carnegie Mellon
 University), and the Gaussian 82(TM) system (copyright 1983,
 Carnegie Mellon University). Gaussian is a federally registered
 trademark of Gaussian, Inc.
  
 This software contains proprietary and confidential information,
 including trade secrets, belonging to Gaussian, Inc.
  
 This software is provided under written license and may be
 used, copied, transmitted, or stored only in accord with that
 written license.
  
 The following legend is applicable only to US Government
 contracts under FAR:
  
                    RESTRICTED RIGHTS LEGEND
  
 Use, reproduction and disclosure by the US Government is
 subject to restrictions as set forth in subparagraphs (a)
 and (c) of the Commercial Computer Software - Restricted
 Rights clause in FAR 52.227-19.
  
 Gaussian, Inc.
 340 Quinnipiac St., Bldg. 40, Wallingford CT 06492
  
  
 ---------------------------------------------------------------
 Warning -- This program may not be used in any manner that
 competes with the business of Gaussian, Inc. or will provide
 assistance to any competitor of Gaussian, Inc.  The licensee
 of this program is prohibited from giving any competitor of
 Gaussian, Inc. access to this program.  By using this program,
 the user acknowledges that Gaussian, Inc. is engaged in the
 business of creating and licensing software in the field of
 computational chemistry and represents and warrants to the
 licensee that it is not a competitor of Gaussian, Inc. and that
 it will not use this program in any manner prohibited above.
 ---------------------------------------------------------------
  

 Cite this work as:
 Gaussian 09, Revision D.01,
 M. J. Frisch, G. W. Trucks, H. B. Schlegel, G. E. Scuseria, 
 M. A. Robb, J. R. Cheeseman, G. Scalmani, V. Barone, B. Mennucci, 
 G. A. Petersson, H. Nakatsuji, M. Caricato, X. Li, H. P. Hratchian, 
 A. F. Izmaylov, J. Bloino, G. Zheng, J. L. Sonnenberg, M. Hada, 
 M. Ehara, K. Toyota, R. Fukuda, J. Hasegawa, M. Ishida, T. Nakajima, 
 Y. Honda, O. Kitao, H. Nakai, T. Vreven, J. A. Montgomery, Jr., 
 J. E. Peralta, F. Ogliaro, M. Bearpark, J. J. Heyd, E. Brothers, 
 K. N. Kudin, V. N. Staroverov, T. Keith, R. Kobayashi, J. Normand, 
 K. Raghavachari, A. Rendell, J. C. Burant, S. S. Iyengar, J. Tomasi, 
 M. Cossi, N. Rega, J. M. Millam, M. Klene, J. E. Knox, J. B. Cross, 
 V. Bakken, C. Adamo, J. Jaramillo, R. Gomperts, R. E. Stratmann, 
 O. Yazyev, A. J. Austin, R. Cammi, C. Pomelli, J. W. Ochterski, 
 R. L. Martin, K. Morokuma, V. G. Zakrzewski, G. A. Voth, 
 P. Salvador, J. J. Dannenberg, S. Dapprich, A. D. Daniels, 
 O. Farkas, J. B. Foresman, J. V. Ortiz, J. Cioslowski, 
 and D. J. Fox, Gaussian, Inc., Wallingford CT, 2013.
 
 ******************************************
 Gaussian 09:  ES64L-G09RevD.01 24-Apr-2013
                 5-Jul-2019 
 ******************************************
 %nproc=4
 Will use up to    4 processors via shared memory.
 %Mem=2GB
 -------------------------------------
 # td=(NStates=1) CAM-B3LYP/6-31G(d,p)
 -------------------------------------
 1/38=1/1;
 2/12=2,17=6,18=5,40=1/2;
 3/5=1,6=6,7=101,11=9,16=1,25=1,30=1,74=-40/1,2,8,3;
 4//1;
 5/5=2,38=5/2;
 8/6=1,10=2,108=1/1;
 9/41=1,42=1,70=2/14;
 6/7=2,8=2,9=2,10=2/1;
 99/5=1,9=1/99;
 --
 TD
 --
 Symbolic Z-matrix:
 Charge =  0 Multiplicity = 1
 12                   -7.16471   0.57773   0.0418 
 6                    -4.86694  -1.93738   0.53444 
 6                    -4.86186   2.85107   1.04819 
 6                    -9.38148   3.03831  -0.40585 
 6                    -9.50479  -1.79236  -0.90273 
 7                    -5.08065   0.4135    0.59637 
 6                    -4.34692  -0.71895   0.76655 
 6                    -2.9846   -0.36159   1.30074 
 6                    -3.04723   1.11506   1.69186 
 6                    -4.42777   1.50794   1.1284 
 6                    -2.92145   1.44733   3.13322 
 6                    -1.89739  -0.61193   0.16519 
 6                    -0.47589  -0.49854   0.62727 
 6                     0.5591   -0.7332   -0.42454 
 8                     0.32057  -1.05541  -1.58157 
 8                     1.79806  -0.3933   -0.0086 
 7                    -7.02695   2.60404   0.19949 
 6                    -6.04151   3.41126   0.73085 
 6                    -6.44734   4.72083   0.73369 
 6                    -7.75856   4.79673   0.27446 
 6                    -8.13952   3.48981   0.02538 
 6                    -5.47444   5.89684   1.04528 
 6                    -8.66375   5.97784   0.25105 
 6                    -8.42689   7.17763   0.76447 
 7                    -9.15646   0.60718  -0.58908 
 6                    -9.87897   1.79836  -0.70202 
 6                    -11.20617   1.42239  -1.17408 
 6                    -11.26369   0.06882  -1.3019 
 6                    -9.91828  -0.34443  -0.87297 
 6                    -12.30595   2.41386  -1.38435 
 6                    -12.39571  -0.8469   -1.70401 
 6                    -12.4051  -1.08532  -3.30327 
 7                    -7.22303  -1.42354  -0.1797 
 6                    -8.32131  -2.25839  -0.5052 
 6                    -7.86078  -3.65955  -0.46581 
 6                    -6.55497  -3.59955  -0.05904 
 6                    -6.18335  -2.24393   0.15799 
 6                    -8.65315  -4.85331  -0.84033 
 6                    -5.34019  -4.34781   0.20195 
 8                    -5.16484  -5.59667   0.24386 
 6                    -4.10288  -3.25055   0.53809 
 6                    -3.54559  -3.67385   1.86162 
 8                    -3.6392   -3.13342   2.98794 
 8                    -2.7547   -4.73794   1.74209 
 6                    -2.30883  -5.24628   2.91224 
 6                     2.8878   -0.65452  -1.04446 
 6                     4.1918   -0.33523  -0.41381 
 6                     5.132     0.51707  -0.80613 
 6                     5.00128   1.36642  -2.0924 
 6                     6.42472   0.63305  -0.01514 
 6                     7.57342   0.00424  -0.85795 
 6                     8.93462  -0.09629  -0.10315 
 6                     10.07464  -0.40158  -0.97523 
 6                     10.05955  -1.85709  -1.42012 
 6                     11.40729  -0.15684  -0.05654 
 6                     12.86832  -0.46192  -0.63805 
 6                     14.00599  -0.20883   0.16676 
 6                     15.33161  -0.32295  -0.61903 
 6                     15.71572  -1.69373  -1.08826 
 6                     16.4783   0.27514   0.37678 
 6                     17.7869   0.51234  -0.29529 
 6                     18.86661   1.1652    0.74642 
 6                     20.2499   1.32861   0.23697 
 6                     20.32922   2.07495  -1.10405 
 6                     21.17524   1.82731   1.27511 
 1                    -4.02137   3.50735   1.60561 
 1                    -10.14892   3.92179  -0.65992 
 1                    -10.33742  -2.47682  -1.32552 
 1                    -2.63831  -1.03076   1.90194 
 1                    -2.25048   1.65875   1.16348 
 1                    -1.95537   1.10704   3.45589 
 1                    -3.15427   2.43107   3.35971 
 1                    -3.5767    0.64917   3.63737 
 1                    -2.12889  -1.65706  -0.37959 
 1                    -2.2306    0.11776  -0.40207 
 1                    -0.38011   0.41064   1.00112 
 1                    -0.42474  -1.17629   1.3646 
 1                    -5.56989   6.70711   0.27529 
 1                    -5.59661   6.18176   2.25725 
 1                    -4.31955   5.68665   0.98057 
 1                    -9.63565   6.03437  -0.27473 
 1                    -9.3956    7.94808   0.79855 
 1                    -7.39332   7.48424   1.22141 
 1                    -12.03767   2.88008  -2.50935 
 1                    -13.2818   1.91271  -1.40836 
 1                    -12.32226   3.24415  -0.7288 
 1                    -12.3803  -1.87334  -1.07455 
 1                    -13.29985  -0.43643  -1.53754 
 1                    -13.29947  -1.39681  -3.63986 
 1                    -12.18896  -0.22469  -4.03649 
 1                    -11.45236  -1.75916  -3.37352 
 1                    -8.61128  -4.91205  -2.0181 
 1                    -8.14191  -5.66976  -0.55508 
 1                    -9.85476  -4.78146  -0.69935 
 1                    -3.33279  -3.39005  -0.49868 
 1                    -1.65783  -4.65454   3.26909 
 1                    -3.12318  -5.51896   3.32815 
 1                    -1.66126  -6.10896   2.71173 
 1                     2.88215  -1.76025  -1.28326 
 1                     2.63163  -0.28455  -1.99704 
 1                     4.43499  -0.68942   0.39021 
 1                     3.9509    1.38547  -2.49316 
 1                     5.28362   2.3481   -1.71562 
 1                     5.77294   0.97497  -2.88411 
 1                     6.73726   1.78541   0.19198 
 1                     6.50013   0.09677   0.95929 
 1                     7.28853  -0.89628  -1.38218 
 1                     7.73359   0.55148  -1.75147 
 1                     9.10968   0.94284   0.43537 
 1                     8.82545  -0.89858   0.76928 
 1                     10.01582   0.3656   -1.91035 
 1                     9.13701  -2.10132  -1.92746 
 1                     10.8923  -1.95645  -2.25011 
 1                     10.34167  -2.48236  -0.3815 
 1                     11.41668   0.7722    0.25618 
 1                     11.53451  -0.87803   0.8679 
 1                     13.05781  -1.51759  -0.87558 
 1                     13.06089   0.10405  -1.59366 
 1                     14.14108   0.81211   0.70164 
 1                     14.01867  -0.87656   1.13078 
 1                     15.23877   0.3017   -1.29912 
 1                     15.92221  -2.52787  -0.20752 
 1                     15.08741  -2.27456  -1.78118 
 1                     16.63593  -1.91181  -1.56512 
 1                     16.19229   1.25457   0.73693 
 1                     16.64233  -0.3952    1.36521 
 1                     18.65576  -0.29625  -0.59032 
 1                     17.84701   1.17085  -1.17057 
 1                     18.43221   2.27484   1.04314 
 1                     18.93045   0.63286   1.56119 
 1                     20.50504   0.31272   0.03055 
 1                     20.02132   3.13715  -1.15208 
 1                     21.45145   1.98656  -1.25812 
 1                     19.74269   1.65763  -1.90894 
 1                     21.17894   0.89558   1.95832 
 1                     22.11168   1.8235    0.7206 
 1                     21.06503   2.92471   1.86113 
 
 Stoichiometry    C55H72MgN4O5
 Framework group  C1[X(C55H72MgN4O5)]
 Deg. of freedom   405
 Full point group                 C1      NOp   1
 Largest Abelian subgroup         C1      NOp   1
 Largest concise Abelian subgroup C1      NOp   1
                         Standard orientation:                         
 ---------------------------------------------------------------------
 Center     Atomic      Atomic             Coordinates (Angstroms)
 Number     Number       Type             X           Y           Z
 ---------------------------------------------------------------------
      1         12           0       -7.165872    0.577325    0.046043
      2          6           0       -4.868009   -1.939181    0.531050
      3          6           0       -4.862887    2.847771    1.058656
      4          6           0       -9.382737    3.039173   -0.394151
      5          6           0       -9.506079   -1.790044   -0.904983
      6          7           0       -5.081730    0.411514    0.599816
      7          6           0       -4.347967   -0.721420    0.766611
      8          6           0       -2.985562   -0.365589    1.301621
      9          6           0       -3.048146    1.109922    1.697021
     10          6           0       -4.428777    1.504416    1.134911
     11          6           0       -2.922148    1.438013    3.139323
     12          6           0       -1.898529   -0.612633    0.165185
     13          6           0       -0.476951   -0.500575    0.627371
     14          6           0        0.557872   -0.732174   -0.425267
     15          8           0        0.319175   -1.051040   -1.583195
     16          8           0        1.796898   -0.393467   -0.008534
     17          7           0       -7.028111    2.603171    0.209573
     18          6           0       -6.042597    3.408865    0.743114
     19          6           0       -6.448437    4.718412    0.749814
     20          6           0       -7.759724    4.795632    0.290997
     21          6           0       -8.140710    3.489433    0.038193
     22          6           0       -5.475493    5.893529    1.064652
     23          6           0       -8.664933    5.976796    0.271150
     24          6           0       -8.427998    7.175102    0.788004
     25          7           0       -9.157719    0.608590   -0.584450
     26          6           0       -9.880263    1.800081   -0.693825
     27          6           0      -11.207527    1.425468   -1.166771
     28          6           0      -11.265054    0.072275   -1.298499
     29          6           0       -9.919574   -0.342202   -0.870975
     30          6           0      -12.307347    2.417534   -1.373999
     31          6           0      -12.397133   -0.842292   -1.703087
     32          6           0      -12.406759   -1.076082   -3.303023
     33          7           0       -7.224213   -1.423295   -0.181243
     34          6           0       -8.322536   -2.257208   -0.508983
     35          6           0       -7.861988   -3.658475   -0.473727
     36          6           0       -6.556114   -3.599641   -0.066978
     37          6           0       -6.184474   -2.244650    0.153914
     38          6           0       -8.654405   -4.851147   -0.851578
     39          6           0       -5.341286   -4.348637    0.191661
     40          8           0       -5.165916   -5.597617    0.229928
     41          6           0       -4.103940   -3.252345    0.530787
     42          6           0       -3.546436   -3.679470    1.852994
     43          8           0       -3.639879   -3.142300    2.980893
     44          8           0       -2.755556   -4.743199    1.730271
     45          6           0       -2.309508   -5.254919    2.898870
     46          6           0        2.886481   -0.651685   -1.045309
     47          6           0        4.190575   -0.334208   -0.413943
     48          6           0        5.130703    0.519232   -0.803937
     49          6           0        4.999781    1.372301   -2.087727
     50          6           0        6.423543    0.632931   -0.012810
     51          6           0        7.572128    0.006578   -0.857616
     52          6           0        8.933434   -0.096129   -0.103317
     53          6           0       10.073326   -0.398876   -0.976447
     54          6           0       10.058186   -1.853092   -1.425542
     55          6           0       11.406120   -0.156786   -0.057262
     56          6           0       12.867062   -0.460169   -0.639875
     57          6           0       14.004851   -0.209401    0.165498
     58          6           0       15.330351   -0.321228   -0.620825
     59          6           0       15.714405   -1.690642   -1.094077
     60          6           0       16.477191    0.273986    0.376539
     61          6           0       17.785687    0.513142   -0.295039
     62          6           0       18.865545    1.162997    0.748382
     63          6           0       20.248762    1.327891    0.239199
     64          6           0       20.327872    2.078102   -1.099667
     65          6           0       21.174251    1.823585    1.278642
     66          1           0       -4.022325    3.502435    1.617839
     67          1           0      -10.150216    3.923381   -0.645544
     68          1           0      -10.338764   -2.473277   -1.329628
     69          1           0       -2.639177   -1.036499    1.900829
     70          1           0       -2.251481    1.655142    1.170093
     71          1           0       -1.956018    1.096804    3.460854
     72          1           0       -3.154945    2.421092    3.368688
     73          1           0       -3.577318    0.638394    3.641252
     74          1           0       -2.130095   -1.656183   -0.382584
     75          1           0       -2.231833    0.118689   -0.399911
     76          1           0       -0.381128    0.407520    1.003839
     77          1           0       -0.425688   -1.180454    1.362732
     78          1           0       -5.571067    6.706021    0.297029
     79          1           0       -5.597481    6.174939    2.277463
     80          1           0       -4.320611    5.683536    0.999160
     81          1           0       -9.636905    6.034839   -0.254316
     82          1           0       -9.396713    7.945433    0.824458
     83          1           0       -7.394363    7.480398    1.245670
     84          1           0      -12.039242    2.887006   -2.497695
     85          1           0      -13.283195    1.916440   -1.399318
     86          1           0      -12.323569    3.245924   -0.716056
     87          1           0      -12.381617   -1.870544   -1.076604
     88          1           0      -13.301246   -0.432312   -1.535290
     89          1           0      -13.301176   -1.386608   -3.640385
     90          1           0      -12.190743   -0.213328   -4.033784
     91          1           0      -11.454027   -1.749707   -3.375369
     92          1           0       -8.612713   -4.906482   -2.029512
     93          1           0       -8.143116   -5.668414   -0.568762
     94          1           0       -9.855987   -4.779722   -0.710206
     95          1           0       -3.334007   -3.388838   -0.506499
     96          1           0       -1.658461   -4.664212    3.257335
     97          1           0       -3.123793   -5.528814    3.314113
     98          1           0       -1.661964   -6.117011    2.695764
     99          1           0        2.880801   -1.756714   -1.287314
    100          1           0        2.630162   -0.278963   -1.996783
    101          1           0        4.433894   -0.690721    0.389015
    102          1           0        3.949346    1.392499   -2.488264
    103          1           0        5.282176    2.352884   -1.708145
    104          1           0        5.771330    0.983150   -2.880678
    105          1           0        6.736104    1.784697    0.197597
    106          1           0        6.499113    0.093840    0.960047
    107          1           0        7.287157   -0.892423   -1.384403
    108          1           0        7.732148    0.556401   -1.749568
    109          1           0        9.108575    0.941447    0.438185
    110          1           0        8.824410   -0.900932    0.766811
    111          1           0       10.014358    0.371003   -1.909331
    112          1           0        9.135566   -2.095862   -1.933449
    113          1           0       10.890809   -1.950048   -2.255947
    114          1           0       10.340464   -2.481366   -0.388781
    115          1           0       11.415546    0.771344    0.258146
    116          1           0       11.533480   -0.880651    0.865069
    117          1           0       13.056522   -1.515145   -0.880479
    118          1           0       13.059479    0.108567   -1.593871
    119          1           0       14.140009    0.809994    0.703304
    120          1           0       14.017688   -0.879913    1.127576
    121          1           0       15.237400    0.305382   -1.299094
    122          1           0       15.921033   -2.527332   -0.215790
    123          1           0       15.085993   -2.269473   -1.788576
    124          1           0       16.634544   -1.907333   -1.571706
    125          1           0       16.191230    1.252368    0.739564
    126          1           0       16.641374   -0.399211    1.362997
    127          1           0       18.654503   -0.294582   -0.592547
    128          1           0       17.845657    1.174185   -1.168424
    129          1           0       18.431187    2.271766    1.048386
    130          1           0       18.929517    0.628294    1.561599
    131          1           0       20.503871    0.312599    0.029803
    132          1           0       20.019947    3.140436   -1.144573
    133          1           0       21.450074    1.990168   -1.254159
    134          1           0       19.741216    1.663110   -1.905668
    135          1           0       21.178069    0.889884    1.959144
    136          1           0       22.110611    1.821397    0.723974
    137          1           0       21.064119    2.919291    1.867846
 ---------------------------------------------------------------------
 Rotational constants (GHZ):      0.0649728      0.0060716      0.0057190
 Standard basis: 6-31G(d,p) (6D, 7F)
 There are  1339 symmetry adapted cartesian basis functions of A   symmetry.
 There are  1339 symmetry adapted basis functions of A   symmetry.
  1339 basis functions,  2348 primitive gaussians,  1339 cartesian basis functions
   241 alpha electrons      241 beta electrons
       nuclear repulsion energy      8743.7373245087 Hartrees.
 NAtoms=  137 NActive=  137 NUniq=  137 SFac= 1.00D+00 NAtFMM=   60 NAOKFM=T Big=T
 Integral buffers will be    131072 words long.
 Raffenetti 1 integral format.
 Two-electron integral symmetry is turned on.
 One-electron integrals computed using PRISM.
 NBasis=  1339 RedAO= T EigKep=  2.59D-04  NBF=  1339
 NBsUse=  1339 1.00D-06 EigRej= -1.00D+00 NBFU=  1339
 ExpMin= 4.21D-02 ExpMax= 1.17D+04 ExpMxC= 1.76D+03 IAcc=2 IRadAn=         4 AccDes= 0.00D+00
 Harris functional with IExCor=20419 and IRadAn=       4 diagonalized for initial guess.
 HarFok:  IExCor=20419 AccDes= 0.00D+00 IRadAn=         4 IDoV= 1 UseB2=F ITyADJ=14
 ICtDFT=  3500011 ScaDFX=  1.000000  1.000000  1.000000  1.000000
 FoFCou: FMM=F IPFlag=           0 FMFlag=      100000 FMFlg1=        2001
         NFxFlg=           0 DoJE=T BraDBF=F KetDBF=T FulRan=T
         wScrn=  0.000000 ICntrl=     500 IOpCl=  0 I1Cent=   200000004 NGrid=           0
         NMat0=    1 NMatS0=      1 NMatT0=    0 NMatD0=    1 NMtDS0=    0 NMtDT0=    0
 Petite list used in FoFCou.
 Requested convergence on RMS density matrix=1.00D-08 within 128 cycles.
 Requested convergence on MAX density matrix=1.00D-06.
 Requested convergence on             energy=1.00D-06.
 No special actions if energy rises.
 SCF Done:  E(RCAM-B3LYP) =  -2932.54316616     A.U. after   18 cycles
            NFock= 18  Conv=0.54D-08     -V/T= 2.0090
 DoSCS=F DFT=T ScalE2(SS,OS)=  1.000000  1.000000
 ExpMin= 4.21D-02 ExpMax= 1.17D+04 ExpMxC= 1.76D+03 IAcc=3 IRadAn=         5 AccDes= 0.00D+00
 HarFok:  IExCor=  205 AccDes= 0.00D+00 IRadAn=         5 IDoV=-2 UseB2=F ITyADJ=14
 ICtDFT= 12500011 ScaDFX=  1.000000  1.000000  1.000000  1.000000
 Range of M.O.s used for correlation:    70  1339
 NBasis=  1339 NAE=   241 NBE=   241 NFC=    69 NFV=     0
 NROrb=   1270 NOA=   172 NOB=   172 NVA=  1098 NVB=  1098
 Would need an additional       2415464100000 words for in-memory AO integral storage.
 Orbital symmetries:
       Occupied  (A) (A) (A) (A) (A) (A) (A) (A) (A) (A) (A) (A)
                 (A) (A) (A) (A) (A) (A) (A) (A) (A) (A) (A) (A)
                 (A) (A) (A) (A) (A) (A) (A) (A) (A) (A) (A) (A)
                 (A) (A) (A) (A) (A) (A) (A) (A) (A) (A) (A) (A)
                 (A) (A) (A) (A) (A) (A) (A) (A) (A) (A) (A) (A)
                 (A) (A) (A) (A) (A) (A) (A) (A) (A) (A) (A) (A)
                 (A) (A) (A) (A) (A) (A) (A) (A) (A) (A) (A) (A)
                 (A) (A) (A) (A) (A) (A) (A) (A) (A) (A) (A) (A)
                 (A) (A) (A) (A) (A) (A) (A) (A) (A) (A) (A) (A)
                 (A) (A) (A) (A) (A) (A) (A) (A) (A) (A) (A) (A)
                 (A) (A) (A) (A) (A) (A) (A) (A) (A) (A) (A) (A)
                 (A) (A) (A) (A) (A) (A) (A) (A) (A) (A) (A) (A)
                 (A) (A) (A) (A) (A) (A) (A) (A) (A) (A) (A) (A)
                 (A) (A) (A) (A) (A) (A) (A) (A) (A) (A) (A) (A)
                 (A) (A) (A) (A) (A) (A) (A) (A) (A) (A) (A) (A)
                 (A) (A) (A) (A) (A) (A) (A) (A) (A) (A) (A) (A)
                 (A) (A) (A) (A) (A) (A) (A) (A) (A) (A) (A) (A)
                 (A) (A) (A) (A) (A) (A) (A) (A) (A) (A) (A) (A)
                 (A) (A) (A) (A) (A) (A) (A) (A) (A) (A) (A) (A)
                 (A) (A) (A) (A) (A) (A) (A) (A) (A) (A) (A) (A)
                 (A)
       Virtual   (A) (A) (A) (A) (A) (A) (A) (A) (A) (A) (A) (A)
                 (A) (A) (A) (A) (A) (A) (A) (A) (A) (A) (A) (A)
                 (A) (A) (A) (A) (A) (A) (A) (A) (A) (A) (A) (A)
                 (A) (A) (A) (A) (A) (A) (A) (A) (A) (A) (A) (A)
                 (A) (A) (A) (A) (A) (A) (A) (A) (A) (A) (A) (A)
                 (A) (A) (A) (A) (A) (A) (A) (A) (A) (A) (A) (A)
                 (A) (A) (A) (A) (A) (A) (A) (A) (A) (A) (A) (A)
                 (A) (A) (A) (A) (A) (A) (A) (A) (A) (A) (A) (A)
                 (A) (A) (A) (A) (A) (A) (A) (A) (A) (A) (A) (A)
                 (A) (A) (A) (A) (A) (A) (A) (A) (A) (A) (A) (A)
                 (A) (A) (A) (A) (A) (A) (A) (A) (A) (A) (A) (A)
                 (A) (A) (A) (A) (A) (A) (A) (A) (A) (A) (A) (A)
                 (A) (A) (A) (A) (A) (A) (A) (A) (A) (A) (A) (A)
                 (A) (A) (A) (A) (A) (A) (A) (A) (A) (A) (A) (A)
                 (A) (A) (A) (A) (A) (A) (A) (A) (A) (A) (A) (A)
                 (A) (A) (A) (A) (A) (A) (A) (A) (A) (A) (A) (A)
                 (A) (A) (A) (A) (A) (A) (A) (A) (A) (A) (A) (A)
                 (A) (A) (A) (A) (A) (A) (A) (A) (A) (A) (A) (A)
                 (A) (A) (A) (A) (A) (A) (A) (A) (A) (A) (A) (A)
                 (A) (A) (A) (A) (A) (A) (A) (A) (A) (A) (A) (A)
                 (A) (A) (A) (A) (A) (A) (A) (A) (A) (A) (A) (A)
                 (A) (A) (A) (A) (A) (A) (A) (A) (A) (A) (A) (A)
                 (A) (A) (A) (A) (A) (A) (A) (A) (A) (A) (A) (A)
                 (A) (A) (A) (A) (A) (A) (A) (A) (A) (A) (A) (A)
                 (A) (A) (A) (A) (A) (A) (A) (A) (A) (A) (A) (A)
                 (A) (A) (A) (A) (A) (A) (A) (A) (A) (A) (A) (A)
                 (A) (A) (A) (A) (A) (A) (A) (A) (A) (A) (A) (A)
                 (A) (A) (A) (A) (A) (A) (A) (A) (A) (A) (A) (A)
                 (A) (A) (A) (A) (A) (A) (A) (A) (A) (A) (A) (A)
                 (A) (A) (A) (A) (A) (A) (A) (A) (A) (A) (A) (A)
                 (A) (A) (A) (A) (A) (A) (A) (A) (A) (A) (A) (A)
                 (A) (A) (A) (A) (A) (A) (A) (A) (A) (A) (A) (A)
                 (A) (A) (A) (A) (A) (A) (A) (A) (A) (A) (A) (A)
                 (A) (A) (A) (A) (A) (A) (A) (A) (A) (A) (A) (A)
                 (A) (A) (A) (A) (A) (A) (A) (A) (A) (A) (A) (A)
                 (A) (A) (A) (A) (A) (A) (A) (A) (A) (A) (A) (A)
                 (A) (A) (A) (A) (A) (A) (A) (A) (A) (A) (A) (A)
                 (A) (A) (A) (A) (A) (A) (A) (A) (A) (A) (A) (A)
                 (A) (A) (A) (A) (A) (A) (A) (A) (A) (A) (A) (A)
                 (A) (A) (A) (A) (A) (A) (A) (A) (A) (A) (A) (A)
                 (A) (A) (A) (A) (A) (A) (A) (A) (A) (A) (A) (A)
                 (A) (A) (A) (A) (A) (A) (A) (A) (A) (A) (A) (A)
                 (A) (A) (A) (A) (A) (A) (A) (A) (A) (A) (A) (A)
                 (A) (A) (A) (A) (A) (A) (A) (A) (A) (A) (A) (A)
                 (A) (A) (A) (A) (A) (A) (A) (A) (A) (A) (A) (A)
                 (A) (A) (A) (A) (A) (A) (A) (A) (A) (A) (A) (A)
                 (A) (A) (A) (A) (A) (A) (A) (A) (A) (A) (A) (A)
                 (A) (A) (A) (A) (A) (A) (A) (A) (A) (A) (A) (A)
                 (A) (A) (A) (A) (A) (A) (A) (A) (A) (A) (A) (A)
                 (A) (A) (A) (A) (A) (A) (A) (A) (A) (A) (A) (A)
                 (A) (A) (A) (A) (A) (A) (A) (A) (A) (A) (A) (A)
                 (A) (A) (A) (A) (A) (A) (A) (A) (A) (A) (A) (A)
                 (A) (A) (A) (A) (A) (A) (A) (A) (A) (A) (A) (A)
                 (A) (A) (A) (A) (A) (A) (A) (A) (A) (A) (A) (A)
                 (A) (A) (A) (A) (A) (A) (A) (A) (A) (A) (A) (A)
                 (A) (A) (A) (A) (A) (A) (A) (A) (A) (A) (A) (A)
                 (A) (A) (A) (A) (A) (A) (A) (A) (A) (A) (A) (A)
                 (A) (A) (A) (A) (A) (A) (A) (A) (A) (A) (A) (A)
                 (A) (A) (A) (A) (A) (A) (A) (A) (A) (A) (A) (A)
                 (A) (A) (A) (A) (A) (A) (A) (A) (A) (A) (A) (A)
                 (A) (A) (A) (A) (A) (A) (A) (A) (A) (A) (A) (A)
                 (A) (A) (A) (A) (A) (A) (A) (A) (A) (A) (A) (A)
                 (A) (A) (A) (A) (A) (A) (A) (A) (A) (A) (A) (A)
                 (A) (A) (A) (A) (A) (A) (A) (A) (A) (A) (A) (A)
                 (A) (A) (A) (A) (A) (A) (A) (A) (A) (A) (A) (A)
                 (A) (A) (A) (A) (A) (A) (A) (A) (A) (A) (A) (A)
                 (A) (A) (A) (A) (A) (A) (A) (A) (A) (A) (A) (A)
                 (A) (A) (A) (A) (A) (A) (A) (A) (A) (A) (A) (A)
                 (A) (A) (A) (A) (A) (A) (A) (A) (A) (A) (A) (A)
                 (A) (A) (A) (A) (A) (A) (A) (A) (A) (A) (A) (A)
                 (A) (A) (A) (A) (A) (A) (A) (A) (A) (A) (A) (A)
                 (A) (A) (A) (A) (A) (A) (A) (A) (A) (A) (A) (A)
                 (A) (A) (A) (A) (A) (A) (A) (A) (A) (A) (A) (A)
                 (A) (A) (A) (A) (A) (A) (A) (A) (A) (A) (A) (A)
                 (A) (A) (A) (A) (A) (A) (A) (A) (A) (A) (A) (A)
                 (A) (A) (A) (A) (A) (A) (A) (A) (A) (A) (A) (A)
                 (A) (A) (A) (A) (A) (A) (A) (A) (A) (A) (A) (A)
                 (A) (A) (A) (A) (A) (A) (A) (A) (A) (A) (A) (A)
                 (A) (A) (A) (A) (A) (A) (A) (A) (A) (A) (A) (A)
                 (A) (A) (A) (A) (A) (A) (A) (A) (A) (A) (A) (A)
                 (A) (A) (A) (A) (A) (A) (A) (A) (A) (A) (A) (A)
                 (A) (A) (A) (A) (A) (A) (A) (A) (A) (A) (A) (A)
                 (A) (A) (A) (A) (A) (A) (A) (A) (A) (A) (A) (A)
                 (A) (A) (A) (A) (A) (A) (A) (A) (A) (A) (A) (A)
                 (A) (A) (A) (A) (A) (A) (A) (A) (A) (A) (A) (A)
                 (A) (A) (A) (A) (A) (A) (A) (A) (A) (A) (A) (A)
                 (A) (A) (A) (A) (A) (A) (A) (A) (A) (A) (A) (A)
                 (A) (A) (A) (A) (A) (A) (A) (A) (A) (A) (A) (A)
                 (A) (A) (A) (A) (A) (A) (A) (A) (A) (A) (A) (A)
                 (A) (A) (A) (A) (A) (A) (A) (A) (A) (A) (A) (A)
                 (A) (A) (A) (A) (A) (A) (A) (A) (A) (A) (A) (A)
                 (A) (A) (A) (A) (A) (A)
     8 initial guesses have been made.
 Convergence on wavefunction:    0.001000000000000
 Iteration     1 Dimension     8 NMult     0 NNew      8
 CISAX will form     8 AO SS matrices at one time.
 Iteration     2 Dimension    12 NMult     8 NNew      4
 Iteration     3 Dimension    16 NMult    12 NNew      4
 Iteration     4 Dimension    20 NMult    16 NNew      4
 Iteration     5 Dimension    24 NMult    20 NNew      4
 Iteration     6 Dimension    28 NMult    24 NNew      4
 ***********************************************************************
 Excited states from <AA,BB:AA,BB> singles matrix:
 ***********************************************************************
 
 Ground to excited state transition densities written to RWF  633
 Ground to excited state transition electric dipole moments (Au):
       state          X           Y           Z        Dip. S.      Osc.
         1        -0.4736     -2.2170     -0.4152      5.3119      0.2697
 Ground to excited state transition velocity dipole moments (Au):
       state          X           Y           Z        Dip. S.      Osc.
         1         0.0346      0.1625      0.0313      0.0286      0.2502
 Ground to excited state transition magnetic dipole moments (Au):
       state          X           Y           Z
         1         0.4261      0.5727     -3.4728
 Ground to excited state transition velocity quadrupole moments (Au):
       state          XX          YY          ZZ          XY          XZ          YZ
         1        -0.9949      0.3523      0.0209     -2.0732     -0.4272      0.1479
 <0|del|b> * <b|rxdel|0> + <0|del|b> * <b|delr+rdel|0>
 Rotatory Strengths (R) in cgs (10**-40 erg-esu-cm/Gauss)
       state          XX          YY          ZZ    R(velocity)    E-M Angle
         1       -51.2748   -110.9817    154.4824     -2.5913       90.08
 1/2[<0|r|b>*<b|rxdel|0> + (<0|rxdel|b>*<b|r|0>)*]
 Rotatory Strengths (R) in cgs (10**-40 erg-esu-cm/Gauss)
       state          XX          YY          ZZ     R(length)
         1       142.7020    897.8572  -1019.5651      6.9980
  1/2[<0|del|b>*<b|r|0> + (<0|r|b>*<b|del|0>)*] (Au)
       state          X           Y           Z        Dip. S.   Osc.(frdel)
         1        -0.0164     -0.3603     -0.0130      0.3897      0.2598

 Excitation energies and oscillator strengths:
 
 Excited State   1:      Singlet-A      2.0727 eV  598.18 nm  f=0.2697  <S**2>=0.000
     240 -> 242       -0.12959
     240 -> 243       -0.19147
     241 -> 242        0.64601
     241 -> 243       -0.14594
 This state for optimization and/or second-order correction.
 Total Energy, E(TD-HF/TD-KS) =  -2932.46699648    
 Copying the excited state density for this state as the 1-particle RhoCI density.
 SavETr:  write IOETrn=   770 NScale= 10 NData=  16 NLR=1 NState=    1 LETran=      28.

 **********************************************************************

            Population analysis using the SCF density.

 **********************************************************************

 Orbital symmetries:
       Occupied  (A) (A) (A) (A) (A) (A) (A) (A) (A) (A) (A) (A)
                 (A) (A) (A) (A) (A) (A) (A) (A) (A) (A) (A) (A)
                 (A) (A) (A) (A) (A) (A) (A) (A) (A) (A) (A) (A)
                 (A) (A) (A) (A) (A) (A) (A) (A) (A) (A) (A) (A)
                 (A) (A) (A) (A) (A) (A) (A) (A) (A) (A) (A) (A)
                 (A) (A) (A) (A) (A) (A) (A) (A) (A) (A) (A) (A)
                 (A) (A) (A) (A) (A) (A) (A) (A) (A) (A) (A) (A)
                 (A) (A) (A) (A) (A) (A) (A) (A) (A) (A) (A) (A)
                 (A) (A) (A) (A) (A) (A) (A) (A) (A) (A) (A) (A)
                 (A) (A) (A) (A) (A) (A) (A) (A) (A) (A) (A) (A)
                 (A) (A) (A) (A) (A) (A) (A) (A) (A) (A) (A) (A)
                 (A) (A) (A) (A) (A) (A) (A) (A) (A) (A) (A) (A)
                 (A) (A) (A) (A) (A) (A) (A) (A) (A) (A) (A) (A)
                 (A) (A) (A) (A) (A) (A) (A) (A) (A) (A) (A) (A)
                 (A) (A) (A) (A) (A) (A) (A) (A) (A) (A) (A) (A)
                 (A) (A) (A) (A) (A) (A) (A) (A) (A) (A) (A) (A)
                 (A) (A) (A) (A) (A) (A) (A) (A) (A) (A) (A) (A)
                 (A) (A) (A) (A) (A) (A) (A) (A) (A) (A) (A) (A)
                 (A) (A) (A) (A) (A) (A) (A) (A) (A) (A) (A) (A)
                 (A) (A) (A) (A) (A) (A) (A) (A) (A) (A) (A) (A)
                 (A)
       Virtual   (A) (A) (A) (A) (A) (A) (A) (A) (A) (A) (A) (A)
                 (A) (A) (A) (A) (A) (A) (A) (A) (A) (A) (A) (A)
                 (A) (A) (A) (A) (A) (A) (A) (A) (A) (A) (A) (A)
                 (A) (A) (A) (A) (A) (A) (A) (A) (A) (A) (A) (A)
                 (A) (A) (A) (A) (A) (A) (A) (A) (A) (A) (A) (A)
                 (A) (A) (A) (A) (A) (A) (A) (A) (A) (A) (A) (A)
                 (A) (A) (A) (A) (A) (A) (A) (A) (A) (A) (A) (A)
                 (A) (A) (A) (A) (A) (A) (A) (A) (A) (A) (A) (A)
                 (A) (A) (A) (A) (A) (A) (A) (A) (A) (A) (A) (A)
                 (A) (A) (A) (A) (A) (A) (A) (A) (A) (A) (A) (A)
                 (A) (A) (A) (A) (A) (A) (A) (A) (A) (A) (A) (A)
                 (A) (A) (A) (A) (A) (A) (A) (A) (A) (A) (A) (A)
                 (A) (A) (A) (A) (A) (A) (A) (A) (A) (A) (A) (A)
                 (A) (A) (A) (A) (A) (A) (A) (A) (A) (A) (A) (A)
                 (A) (A) (A) (A) (A) (A) (A) (A) (A) (A) (A) (A)
                 (A) (A) (A) (A) (A) (A) (A) (A) (A) (A) (A) (A)
                 (A) (A) (A) (A) (A) (A) (A) (A) (A) (A) (A) (A)
                 (A) (A) (A) (A) (A) (A) (A) (A) (A) (A) (A) (A)
                 (A) (A) (A) (A) (A) (A) (A) (A) (A) (A) (A) (A)
                 (A) (A) (A) (A) (A) (A) (A) (A) (A) (A) (A) (A)
                 (A) (A) (A) (A) (A) (A) (A) (A) (A) (A) (A) (A)
                 (A) (A) (A) (A) (A) (A) (A) (A) (A) (A) (A) (A)
                 (A) (A) (A) (A) (A) (A) (A) (A) (A) (A) (A) (A)
                 (A) (A) (A) (A) (A) (A) (A) (A) (A) (A) (A) (A)
                 (A) (A) (A) (A) (A) (A) (A) (A) (A) (A) (A) (A)
                 (A) (A) (A) (A) (A) (A) (A) (A) (A) (A) (A) (A)
                 (A) (A) (A) (A) (A) (A) (A) (A) (A) (A) (A) (A)
                 (A) (A) (A) (A) (A) (A) (A) (A) (A) (A) (A) (A)
                 (A) (A) (A) (A) (A) (A) (A) (A) (A) (A) (A) (A)
                 (A) (A) (A) (A) (A) (A) (A) (A) (A) (A) (A) (A)
                 (A) (A) (A) (A) (A) (A) (A) (A) (A) (A) (A) (A)
                 (A) (A) (A) (A) (A) (A) (A) (A) (A) (A) (A) (A)
                 (A) (A) (A) (A) (A) (A) (A) (A) (A) (A) (A) (A)
                 (A) (A) (A) (A) (A) (A) (A) (A) (A) (A) (A) (A)
                 (A) (A) (A) (A) (A) (A) (A) (A) (A) (A) (A) (A)
                 (A) (A) (A) (A) (A) (A) (A) (A) (A) (A) (A) (A)
                 (A) (A) (A) (A) (A) (A) (A) (A) (A) (A) (A) (A)
                 (A) (A) (A) (A) (A) (A) (A) (A) (A) (A) (A) (A)
                 (A) (A) (A) (A) (A) (A) (A) (A) (A) (A) (A) (A)
                 (A) (A) (A) (A) (A) (A) (A) (A) (A) (A) (A) (A)
                 (A) (A) (A) (A) (A) (A) (A) (A) (A) (A) (A) (A)
                 (A) (A) (A) (A) (A) (A) (A) (A) (A) (A) (A) (A)
                 (A) (A) (A) (A) (A) (A) (A) (A) (A) (A) (A) (A)
                 (A) (A) (A) (A) (A) (A) (A) (A) (A) (A) (A) (A)
                 (A) (A) (A) (A) (A) (A) (A) (A) (A) (A) (A) (A)
                 (A) (A) (A) (A) (A) (A) (A) (A) (A) (A) (A) (A)
                 (A) (A) (A) (A) (A) (A) (A) (A) (A) (A) (A) (A)
                 (A) (A) (A) (A) (A) (A) (A) (A) (A) (A) (A) (A)
                 (A) (A) (A) (A) (A) (A) (A) (A) (A) (A) (A) (A)
                 (A) (A) (A) (A) (A) (A) (A) (A) (A) (A) (A) (A)
                 (A) (A) (A) (A) (A) (A) (A) (A) (A) (A) (A) (A)
                 (A) (A) (A) (A) (A) (A) (A) (A) (A) (A) (A) (A)
                 (A) (A) (A) (A) (A) (A) (A) (A) (A) (A) (A) (A)
                 (A) (A) (A) (A) (A) (A) (A) (A) (A) (A) (A) (A)
                 (A) (A) (A) (A) (A) (A) (A) (A) (A) (A) (A) (A)
                 (A) (A) (A) (A) (A) (A) (A) (A) (A) (A) (A) (A)
                 (A) (A) (A) (A) (A) (A) (A) (A) (A) (A) (A) (A)
                 (A) (A) (A) (A) (A) (A) (A) (A) (A) (A) (A) (A)
                 (A) (A) (A) (A) (A) (A) (A) (A) (A) (A) (A) (A)
                 (A) (A) (A) (A) (A) (A) (A) (A) (A) (A) (A) (A)
                 (A) (A) (A) (A) (A) (A) (A) (A) (A) (A) (A) (A)
                 (A) (A) (A) (A) (A) (A) (A) (A) (A) (A) (A) (A)
                 (A) (A) (A) (A) (A) (A) (A) (A) (A) (A) (A) (A)
                 (A) (A) (A) (A) (A) (A) (A) (A) (A) (A) (A) (A)
                 (A) (A) (A) (A) (A) (A) (A) (A) (A) (A) (A) (A)
                 (A) (A) (A) (A) (A) (A) (A) (A) (A) (A) (A) (A)
                 (A) (A) (A) (A) (A) (A) (A) (A) (A) (A) (A) (A)
                 (A) (A) (A) (A) (A) (A) (A) (A) (A) (A) (A) (A)
                 (A) (A) (A) (A) (A) (A) (A) (A) (A) (A) (A) (A)
                 (A) (A) (A) (A) (A) (A) (A) (A) (A) (A) (A) (A)
                 (A) (A) (A) (A) (A) (A) (A) (A) (A) (A) (A) (A)
                 (A) (A) (A) (A) (A) (A) (A) (A) (A) (A) (A) (A)
                 (A) (A) (A) (A) (A) (A) (A) (A) (A) (A) (A) (A)
                 (A) (A) (A) (A) (A) (A) (A) (A) (A) (A) (A) (A)
                 (A) (A) (A) (A) (A) (A) (A) (A) (A) (A) (A) (A)
                 (A) (A) (A) (A) (A) (A) (A) (A) (A) (A) (A) (A)
                 (A) (A) (A) (A) (A) (A) (A) (A) (A) (A) (A) (A)
                 (A) (A) (A) (A) (A) (A) (A) (A) (A) (A) (A) (A)
                 (A) (A) (A) (A) (A) (A) (A) (A) (A) (A) (A) (A)
                 (A) (A) (A) (A) (A) (A) (A) (A) (A) (A) (A) (A)
                 (A) (A) (A) (A) (A) (A) (A) (A) (A) (A) (A) (A)
                 (A) (A) (A) (A) (A) (A) (A) (A) (A) (A) (A) (A)
                 (A) (A) (A) (A) (A) (A) (A) (A) (A) (A) (A) (A)
                 (A) (A) (A) (A) (A) (A) (A) (A) (A) (A) (A) (A)
                 (A) (A) (A) (A) (A) (A) (A) (A) (A) (A) (A) (A)
                 (A) (A) (A) (A) (A) (A) (A) (A) (A) (A) (A) (A)
                 (A) (A) (A) (A) (A) (A) (A) (A) (A) (A) (A) (A)
                 (A) (A) (A) (A) (A) (A) (A) (A) (A) (A) (A) (A)
                 (A) (A) (A) (A) (A) (A) (A) (A) (A) (A) (A) (A)
                 (A) (A) (A) (A) (A) (A) (A) (A) (A) (A) (A) (A)
                 (A) (A) (A) (A) (A) (A) (A) (A) (A) (A) (A) (A)
                 (A) (A) (A) (A) (A) (A)
 The electronic state is 1-A.
 Alpha  occ. eigenvalues --  -46.84380 -19.26119 -19.25433 -19.21486 -19.20312
 Alpha  occ. eigenvalues --  -19.20293 -14.41222 -14.39799 -14.39591 -14.38378
 Alpha  occ. eigenvalues --  -10.39403 -10.38860 -10.36834 -10.32139 -10.31241
 Alpha  occ. eigenvalues --  -10.30615 -10.30516 -10.30329 -10.30203 -10.30057
 Alpha  occ. eigenvalues --  -10.29518 -10.28600 -10.28393 -10.28305 -10.28221
 Alpha  occ. eigenvalues --  -10.28087 -10.28086 -10.27841 -10.27774 -10.27690
 Alpha  occ. eigenvalues --  -10.27687 -10.27598 -10.27317 -10.27256 -10.27239
 Alpha  occ. eigenvalues --  -10.27022 -10.27010 -10.26954 -10.26832 -10.26804
 Alpha  occ. eigenvalues --  -10.26709 -10.26598 -10.26559 -10.26542 -10.26531
 Alpha  occ. eigenvalues --  -10.26207 -10.26174 -10.26133 -10.25904 -10.25849
 Alpha  occ. eigenvalues --  -10.25825 -10.25823 -10.25700 -10.25662 -10.25561
 Alpha  occ. eigenvalues --  -10.25289 -10.25288 -10.25208 -10.25101 -10.25009
 Alpha  occ. eigenvalues --  -10.24859 -10.24726 -10.24473 -10.24100 -10.23711
 Alpha  occ. eigenvalues --   -3.13348  -1.88064  -1.87600  -1.87506  -1.19953
 Alpha  occ. eigenvalues --   -1.16760  -1.09375  -1.07584  -1.07511  -1.05683
 Alpha  occ. eigenvalues --   -1.04136  -1.03098  -1.02032  -0.92765  -0.91643
 Alpha  occ. eigenvalues --   -0.91231  -0.91017  -0.90254  -0.89183  -0.89141
 Alpha  occ. eigenvalues --   -0.88863  -0.88443  -0.87937  -0.87466  -0.86349
 Alpha  occ. eigenvalues --   -0.85179  -0.84853  -0.83981  -0.83450  -0.82464
 Alpha  occ. eigenvalues --   -0.81976  -0.81473  -0.81075  -0.80272  -0.79350
 Alpha  occ. eigenvalues --   -0.77747  -0.77088  -0.76214  -0.76083  -0.75854
 Alpha  occ. eigenvalues --   -0.75401  -0.75009  -0.74687  -0.73476  -0.72957
 Alpha  occ. eigenvalues --   -0.72010  -0.70731  -0.70349  -0.69667  -0.68520
 Alpha  occ. eigenvalues --   -0.67249  -0.66396  -0.65664  -0.65126  -0.64774
 Alpha  occ. eigenvalues --   -0.64158  -0.63768  -0.63444  -0.61966  -0.61911
 Alpha  occ. eigenvalues --   -0.61817  -0.60739  -0.60569  -0.60167  -0.59657
 Alpha  occ. eigenvalues --   -0.59218  -0.58665  -0.58361  -0.57782  -0.57107
 Alpha  occ. eigenvalues --   -0.57012  -0.56252  -0.55574  -0.55418  -0.55130
 Alpha  occ. eigenvalues --   -0.54704  -0.54310  -0.54002  -0.53820  -0.53431
 Alpha  occ. eigenvalues --   -0.53212  -0.52945  -0.52370  -0.51948  -0.51912
 Alpha  occ. eigenvalues --   -0.51844  -0.51622  -0.50934  -0.50810  -0.50697
 Alpha  occ. eigenvalues --   -0.50510  -0.49892  -0.49802  -0.49651  -0.49234
 Alpha  occ. eigenvalues --   -0.49117  -0.48991  -0.48642  -0.48620  -0.48272
 Alpha  occ. eigenvalues --   -0.47870  -0.47800  -0.47767  -0.47530  -0.47341
 Alpha  occ. eigenvalues --   -0.47013  -0.46814  -0.46658  -0.45978  -0.45931
 Alpha  occ. eigenvalues --   -0.45663  -0.45614  -0.45474  -0.45237  -0.44637
 Alpha  occ. eigenvalues --   -0.44485  -0.44100  -0.44042  -0.43941  -0.43820
 Alpha  occ. eigenvalues --   -0.43733  -0.43715  -0.43376  -0.43072  -0.43027
 Alpha  occ. eigenvalues --   -0.42848  -0.42611  -0.42517  -0.42464  -0.42380
 Alpha  occ. eigenvalues --   -0.42147  -0.42057  -0.41859  -0.41717  -0.41421
 Alpha  occ. eigenvalues --   -0.41296  -0.41020  -0.40819  -0.40322  -0.40124
 Alpha  occ. eigenvalues --   -0.39593  -0.39551  -0.39376  -0.39249  -0.39170
 Alpha  occ. eigenvalues --   -0.38608  -0.38573  -0.38389  -0.38322  -0.38186
 Alpha  occ. eigenvalues --   -0.37629  -0.37324  -0.37184  -0.37164  -0.36986
 Alpha  occ. eigenvalues --   -0.36500  -0.36113  -0.35952  -0.35771  -0.35573
 Alpha  occ. eigenvalues --   -0.35440  -0.35386  -0.34546  -0.33713  -0.33414
 Alpha  occ. eigenvalues --   -0.33318  -0.32933  -0.32494  -0.31104  -0.30581
 Alpha  occ. eigenvalues --   -0.30065  -0.29957  -0.28698  -0.26727  -0.23960
 Alpha  occ. eigenvalues --   -0.20884
 Alpha virt. eigenvalues --   -0.06708  -0.03290   0.00738   0.03786   0.05329
 Alpha virt. eigenvalues --    0.06095   0.06149   0.06751   0.06872   0.07476
 Alpha virt. eigenvalues --    0.08477   0.10257   0.10925   0.11456   0.11725
 Alpha virt. eigenvalues --    0.11799   0.12181   0.12280   0.12387   0.13223
 Alpha virt. eigenvalues --    0.13325   0.13556   0.13711   0.14073   0.14091
 Alpha virt. eigenvalues --    0.14383   0.14613   0.14777   0.15067   0.15335
 Alpha virt. eigenvalues --    0.15351   0.15841   0.15845   0.16134   0.16354
 Alpha virt. eigenvalues --    0.16532   0.16710   0.16953   0.17028   0.17226
 Alpha virt. eigenvalues --    0.17360   0.17606   0.17691   0.17795   0.18333
 Alpha virt. eigenvalues --    0.18540   0.18643   0.18811   0.19084   0.19160
 Alpha virt. eigenvalues --    0.19267   0.19379   0.19501   0.19669   0.20008
 Alpha virt. eigenvalues --    0.20106   0.20213   0.20373   0.20594   0.20661
 Alpha virt. eigenvalues --    0.20792   0.20800   0.21126   0.21309   0.21321
 Alpha virt. eigenvalues --    0.21432   0.21825   0.21975   0.22051   0.22512
 Alpha virt. eigenvalues --    0.22646   0.23250   0.23287   0.23476   0.23729
 Alpha virt. eigenvalues --    0.23868   0.24262   0.24491   0.24698   0.24782
 Alpha virt. eigenvalues --    0.25244   0.25254   0.25471   0.25639   0.25885
 Alpha virt. eigenvalues --    0.26134   0.26330   0.26451   0.26464   0.26743
 Alpha virt. eigenvalues --    0.26977   0.27275   0.27399   0.27535   0.27629
 Alpha virt. eigenvalues --    0.28011   0.28118   0.28278   0.28430   0.28527
 Alpha virt. eigenvalues --    0.28594   0.28817   0.28978   0.29294   0.29371
 Alpha virt. eigenvalues --    0.29515   0.29770   0.29836   0.30189   0.30414
 Alpha virt. eigenvalues --    0.30568   0.31079   0.31202   0.31325   0.31611
 Alpha virt. eigenvalues --    0.31654   0.31889   0.32287   0.32627   0.32780
 Alpha virt. eigenvalues --    0.33064   0.33515   0.33716   0.34273   0.34566
 Alpha virt. eigenvalues --    0.34617   0.35085   0.35240   0.35496   0.35872
 Alpha virt. eigenvalues --    0.36819   0.37125   0.37431   0.38788   0.39527
 Alpha virt. eigenvalues --    0.39940   0.40257   0.40554   0.40589   0.40690
 Alpha virt. eigenvalues --    0.41148   0.41748   0.42160   0.42718   0.43059
 Alpha virt. eigenvalues --    0.43731   0.43868   0.44211   0.45267   0.46444
 Alpha virt. eigenvalues --    0.46951   0.47881   0.48119   0.48778   0.49407
 Alpha virt. eigenvalues --    0.50377   0.50991   0.51812   0.52076   0.52832
 Alpha virt. eigenvalues --    0.53054   0.53279   0.53631   0.53943   0.54492
 Alpha virt. eigenvalues --    0.54694   0.54912   0.55139   0.55685   0.55776
 Alpha virt. eigenvalues --    0.56154   0.56268   0.56395   0.56733   0.56927
 Alpha virt. eigenvalues --    0.57211   0.57290   0.57620   0.57767   0.57923
 Alpha virt. eigenvalues --    0.58132   0.58831   0.58902   0.58985   0.59380
 Alpha virt. eigenvalues --    0.59533   0.59742   0.59807   0.60024   0.60202
 Alpha virt. eigenvalues --    0.60602   0.60791   0.60894   0.61119   0.61368
 Alpha virt. eigenvalues --    0.61941   0.61990   0.62087   0.62242   0.62524
 Alpha virt. eigenvalues --    0.62776   0.63390   0.63734   0.63859   0.63981
 Alpha virt. eigenvalues --    0.64037   0.64371   0.64456   0.64794   0.64818
 Alpha virt. eigenvalues --    0.65487   0.66026   0.66393   0.66569   0.66763
 Alpha virt. eigenvalues --    0.67075   0.67339   0.67403   0.67610   0.68151
 Alpha virt. eigenvalues --    0.68221   0.68346   0.68712   0.69009   0.69169
 Alpha virt. eigenvalues --    0.69389   0.69992   0.70237   0.70447   0.70516
 Alpha virt. eigenvalues --    0.70697   0.70997   0.71480   0.71593   0.71934
 Alpha virt. eigenvalues --    0.71961   0.72355   0.72476   0.72567   0.72825
 Alpha virt. eigenvalues --    0.72955   0.73217   0.73292   0.74115   0.74294
 Alpha virt. eigenvalues --    0.74394   0.74802   0.75008   0.75320   0.75596
 Alpha virt. eigenvalues --    0.76200   0.76312   0.76432   0.76942   0.77139
 Alpha virt. eigenvalues --    0.77175   0.77239   0.77835   0.78308   0.78518
 Alpha virt. eigenvalues --    0.78769   0.78884   0.78967   0.79339   0.79725
 Alpha virt. eigenvalues --    0.79939   0.80401   0.80670   0.80764   0.80889
 Alpha virt. eigenvalues --    0.80926   0.81170   0.81419   0.81632   0.81672
 Alpha virt. eigenvalues --    0.81896   0.82089   0.82265   0.82722   0.82775
 Alpha virt. eigenvalues --    0.83432   0.83522   0.83703   0.83859   0.84002
 Alpha virt. eigenvalues --    0.84136   0.84315   0.84404   0.84720   0.85076
 Alpha virt. eigenvalues --    0.85280   0.85617   0.85978   0.86234   0.86430
 Alpha virt. eigenvalues --    0.86517   0.86616   0.86883   0.87017   0.87328
 Alpha virt. eigenvalues --    0.87356   0.87389   0.87937   0.88137   0.88431
 Alpha virt. eigenvalues --    0.88619   0.88936   0.89177   0.89289   0.89594
 Alpha virt. eigenvalues --    0.89714   0.89966   0.90131   0.90468   0.90600
 Alpha virt. eigenvalues --    0.91185   0.91337   0.91523   0.91931   0.92135
 Alpha virt. eigenvalues --    0.92307   0.92437   0.92773   0.92795   0.93112
 Alpha virt. eigenvalues --    0.93353   0.93384   0.93621   0.93838   0.93941
 Alpha virt. eigenvalues --    0.93972   0.94181   0.94270   0.94515   0.94641
 Alpha virt. eigenvalues --    0.94856   0.94959   0.95549   0.95998   0.96293
 Alpha virt. eigenvalues --    0.96499   0.96685   0.96905   0.96961   0.97134
 Alpha virt. eigenvalues --    0.97212   0.97256   0.97453   0.97795   0.97928
 Alpha virt. eigenvalues --    0.98145   0.98603   0.98855   0.99143   0.99333
 Alpha virt. eigenvalues --    0.99490   0.99587   0.99893   0.99956   1.00253
 Alpha virt. eigenvalues --    1.00621   1.00878   1.01373   1.01469   1.02296
 Alpha virt. eigenvalues --    1.02437   1.02500   1.02799   1.02850   1.02931
 Alpha virt. eigenvalues --    1.03261   1.03639   1.03924   1.04238   1.04400
 Alpha virt. eigenvalues --    1.04538   1.04978   1.05187   1.05459   1.05759
 Alpha virt. eigenvalues --    1.05818   1.06167   1.06384   1.06591   1.06600
 Alpha virt. eigenvalues --    1.06861   1.07232   1.07548   1.07707   1.08030
 Alpha virt. eigenvalues --    1.08685   1.09033   1.09236   1.09538   1.09793
 Alpha virt. eigenvalues --    1.10203   1.10432   1.10536   1.10914   1.11277
 Alpha virt. eigenvalues --    1.11826   1.11966   1.12317   1.12718   1.13534
 Alpha virt. eigenvalues --    1.13861   1.14169   1.14594   1.15586   1.15761
 Alpha virt. eigenvalues --    1.16665   1.16686   1.17045   1.17775   1.18070
 Alpha virt. eigenvalues --    1.18595   1.19084   1.19706   1.20338   1.20519
 Alpha virt. eigenvalues --    1.20974   1.21857   1.22648   1.23324   1.23663
 Alpha virt. eigenvalues --    1.23835   1.24284   1.24482   1.24688   1.25516
 Alpha virt. eigenvalues --    1.26147   1.27009   1.27630   1.27796   1.28762
 Alpha virt. eigenvalues --    1.28919   1.28995   1.29806   1.30298   1.30899
 Alpha virt. eigenvalues --    1.31593   1.32141   1.33184   1.33224   1.33416
 Alpha virt. eigenvalues --    1.34212   1.34679   1.34955   1.35789   1.36520
 Alpha virt. eigenvalues --    1.36697   1.37406   1.37658   1.38097   1.38247
 Alpha virt. eigenvalues --    1.38544   1.38883   1.39336   1.39660   1.40466
 Alpha virt. eigenvalues --    1.41238   1.41424   1.41596   1.41768   1.42120
 Alpha virt. eigenvalues --    1.42717   1.42811   1.43985   1.44607   1.45036
 Alpha virt. eigenvalues --    1.45201   1.45314   1.45878   1.46080   1.46644
 Alpha virt. eigenvalues --    1.46719   1.47328   1.47583   1.48040   1.49914
 Alpha virt. eigenvalues --    1.50298   1.50649   1.51247   1.52046   1.52272
 Alpha virt. eigenvalues --    1.52999   1.53361   1.53970   1.54459   1.54729
 Alpha virt. eigenvalues --    1.54924   1.55767   1.56206   1.56419   1.56824
 Alpha virt. eigenvalues --    1.57092   1.57641   1.59153   1.59508   1.59629
 Alpha virt. eigenvalues --    1.59771   1.60122   1.60598   1.60618   1.61408
 Alpha virt. eigenvalues --    1.61696   1.61931   1.62131   1.62370   1.62734
 Alpha virt. eigenvalues --    1.63087   1.63684   1.64438   1.64731   1.65312
 Alpha virt. eigenvalues --    1.65881   1.66576   1.67310   1.67652   1.68198
 Alpha virt. eigenvalues --    1.68387   1.68890   1.69136   1.69379   1.69492
 Alpha virt. eigenvalues --    1.69582   1.70905   1.71129   1.71613   1.72015
 Alpha virt. eigenvalues --    1.72469   1.72744   1.73360   1.73509   1.74088
 Alpha virt. eigenvalues --    1.74139   1.74785   1.75020   1.75654   1.75716
 Alpha virt. eigenvalues --    1.76095   1.76889   1.77082   1.77201   1.77673
 Alpha virt. eigenvalues --    1.78273   1.78931   1.79304   1.79547   1.79934
 Alpha virt. eigenvalues --    1.80500   1.80871   1.81160   1.81484   1.81661
 Alpha virt. eigenvalues --    1.82080   1.82223   1.82401   1.83230   1.83952
 Alpha virt. eigenvalues --    1.84129   1.84308   1.84574   1.84713   1.85360
 Alpha virt. eigenvalues --    1.86006   1.86189   1.86477   1.86575   1.86827
 Alpha virt. eigenvalues --    1.87153   1.87261   1.87521   1.88121   1.88300
 Alpha virt. eigenvalues --    1.88607   1.88613   1.88850   1.89299   1.89365
 Alpha virt. eigenvalues --    1.89679   1.89940   1.90192   1.90270   1.90636
 Alpha virt. eigenvalues --    1.90973   1.91153   1.91200   1.91534   1.92095
 Alpha virt. eigenvalues --    1.92335   1.92566   1.92933   1.93004   1.93352
 Alpha virt. eigenvalues --    1.93741   1.93901   1.94172   1.94351   1.94452
 Alpha virt. eigenvalues --    1.94871   1.94969   1.95507   1.95620   1.95783
 Alpha virt. eigenvalues --    1.96152   1.96281   1.96723   1.97091   1.97158
 Alpha virt. eigenvalues --    1.97752   1.97973   1.98057   1.98610   1.98766
 Alpha virt. eigenvalues --    1.98838   1.99071   1.99333   1.99442   1.99938
 Alpha virt. eigenvalues --    2.00166   2.00195   2.00413   2.00819   2.01825
 Alpha virt. eigenvalues --    2.01964   2.02108   2.02182   2.02606   2.03111
 Alpha virt. eigenvalues --    2.03200   2.03658   2.04040   2.04204   2.04334
 Alpha virt. eigenvalues --    2.05036   2.05267   2.05662   2.05987   2.06057
 Alpha virt. eigenvalues --    2.06287   2.06724   2.07065   2.07310   2.07487
 Alpha virt. eigenvalues --    2.07888   2.08395   2.08442   2.08661   2.09062
 Alpha virt. eigenvalues --    2.09301   2.09454   2.09705   2.10058   2.10575
 Alpha virt. eigenvalues --    2.10928   2.11078   2.11855   2.12065   2.12217
 Alpha virt. eigenvalues --    2.12468   2.12772   2.13071   2.13170   2.13756
 Alpha virt. eigenvalues --    2.13791   2.13878   2.14263   2.14715   2.14934
 Alpha virt. eigenvalues --    2.15195   2.15748   2.16018   2.16062   2.16187
 Alpha virt. eigenvalues --    2.16712   2.17131   2.17715   2.17849   2.18292
 Alpha virt. eigenvalues --    2.18916   2.19091   2.19325   2.19442   2.19897
 Alpha virt. eigenvalues --    2.19972   2.20510   2.20662   2.21436   2.21742
 Alpha virt. eigenvalues --    2.22049   2.22171   2.22620   2.22709   2.23496
 Alpha virt. eigenvalues --    2.23653   2.24032   2.24190   2.24956   2.25612
 Alpha virt. eigenvalues --    2.25864   2.25925   2.26007   2.26701   2.26794
 Alpha virt. eigenvalues --    2.26844   2.27368   2.27887   2.28174   2.28412
 Alpha virt. eigenvalues --    2.28759   2.28873   2.29145   2.29698   2.29736
 Alpha virt. eigenvalues --    2.30165   2.30433   2.30590   2.30705   2.31439
 Alpha virt. eigenvalues --    2.31636   2.32503   2.32724   2.33207   2.33365
 Alpha virt. eigenvalues --    2.33555   2.33767   2.33871   2.34388   2.34519
 Alpha virt. eigenvalues --    2.35249   2.35290   2.35344   2.35614   2.35673
 Alpha virt. eigenvalues --    2.36319   2.36628   2.36788   2.37152   2.37382
 Alpha virt. eigenvalues --    2.37751   2.38298   2.38704   2.39506   2.39679
 Alpha virt. eigenvalues --    2.39933   2.40234   2.40389   2.40987   2.41099
 Alpha virt. eigenvalues --    2.41454   2.41752   2.41970   2.42269   2.42506
 Alpha virt. eigenvalues --    2.42616   2.43288   2.43653   2.43879   2.44485
 Alpha virt. eigenvalues --    2.44897   2.45001   2.45439   2.45656   2.46065
 Alpha virt. eigenvalues --    2.46429   2.46484   2.46901   2.47165   2.47397
 Alpha virt. eigenvalues --    2.47911   2.48216   2.48264   2.48584   2.48940
 Alpha virt. eigenvalues --    2.49256   2.49759   2.50402   2.50689   2.50775
 Alpha virt. eigenvalues --    2.51111   2.51407   2.51639   2.51926   2.52439
 Alpha virt. eigenvalues --    2.52874   2.52904   2.53874   2.53956   2.54244
 Alpha virt. eigenvalues --    2.54417   2.55045   2.55484   2.56026   2.56467
 Alpha virt. eigenvalues --    2.56817   2.57100   2.57181   2.57315   2.57843
 Alpha virt. eigenvalues --    2.57918   2.58354   2.59023   2.59115   2.59500
 Alpha virt. eigenvalues --    2.59995   2.60075   2.60508   2.61054   2.61222
 Alpha virt. eigenvalues --    2.61459   2.61830   2.62278   2.62565   2.62642
 Alpha virt. eigenvalues --    2.63045   2.63479   2.63739   2.64714   2.64863
 Alpha virt. eigenvalues --    2.65303   2.65557   2.66030   2.66323   2.66776
 Alpha virt. eigenvalues --    2.67047   2.67211   2.67901   2.68455   2.68823
 Alpha virt. eigenvalues --    2.69250   2.69351   2.70197   2.70486   2.70576
 Alpha virt. eigenvalues --    2.70747   2.70992   2.71390   2.71814   2.72033
 Alpha virt. eigenvalues --    2.72548   2.72661   2.72962   2.73110   2.73849
 Alpha virt. eigenvalues --    2.74008   2.74064   2.74168   2.74889   2.75050
 Alpha virt. eigenvalues --    2.75675   2.76035   2.76199   2.76710   2.77010
 Alpha virt. eigenvalues --    2.77085   2.77475   2.77654   2.77679   2.78040
 Alpha virt. eigenvalues --    2.78603   2.79071   2.79099   2.79842   2.79957
 Alpha virt. eigenvalues --    2.80322   2.80672   2.80849   2.81191   2.81367
 Alpha virt. eigenvalues --    2.81671   2.82364   2.82459   2.82681   2.82895
 Alpha virt. eigenvalues --    2.83441   2.83789   2.84459   2.84704   2.84992
 Alpha virt. eigenvalues --    2.85627   2.85640   2.85831   2.86151   2.86694
 Alpha virt. eigenvalues --    2.87302   2.87451   2.87743   2.88233   2.88343
 Alpha virt. eigenvalues --    2.88950   2.89107   2.89317   2.89428   2.89868
 Alpha virt. eigenvalues --    2.90735   2.90847   2.91205   2.91730   2.91906
 Alpha virt. eigenvalues --    2.92337   2.92649   2.93497   2.94018   2.94038
 Alpha virt. eigenvalues --    2.94358   2.95174   2.95343   2.96147   2.96289
 Alpha virt. eigenvalues --    2.97015   2.97654   2.97961   2.98613   2.98771
 Alpha virt. eigenvalues --    2.99132   2.99493   2.99834   3.00399   3.00647
 Alpha virt. eigenvalues --    3.01634   3.01845   3.02267   3.02565   3.02845
 Alpha virt. eigenvalues --    3.03341   3.03948   3.04470   3.04537   3.05560
 Alpha virt. eigenvalues --    3.06042   3.06306   3.06920   3.07440   3.07708
 Alpha virt. eigenvalues --    3.07970   3.09203   3.09566   3.09815   3.09954
 Alpha virt. eigenvalues --    3.10714   3.11061   3.11224   3.11689   3.11768
 Alpha virt. eigenvalues --    3.11901   3.12805   3.13846   3.15089   3.15347
 Alpha virt. eigenvalues --    3.15820   3.16469   3.17782   3.18206   3.18374
 Alpha virt. eigenvalues --    3.18795   3.19741   3.21385   3.21627   3.22271
 Alpha virt. eigenvalues --    3.22385   3.22831   3.22923   3.23687   3.24506
 Alpha virt. eigenvalues --    3.24992   3.25232   3.26291   3.27026   3.27092
 Alpha virt. eigenvalues --    3.29274   3.30015   3.31138   3.31182   3.31744
 Alpha virt. eigenvalues --    3.32375   3.32734   3.33481   3.34025   3.34528
 Alpha virt. eigenvalues --    3.35236   3.35704   3.38006   3.38752   3.39218
 Alpha virt. eigenvalues --    3.39768   3.41123   3.41694   3.41897   3.42413
 Alpha virt. eigenvalues --    3.43200   3.43721   3.44146   3.44923   3.45405
 Alpha virt. eigenvalues --    3.46581   3.48092   3.48568   3.48719   3.50504
 Alpha virt. eigenvalues --    3.50529   3.50866   3.51012   3.52299   3.52897
 Alpha virt. eigenvalues --    3.54098   3.54343   3.55880   3.57450   3.58052
 Alpha virt. eigenvalues --    3.58540   3.59390   3.60978   3.62384   3.62408
 Alpha virt. eigenvalues --    3.62597   3.62711   3.63055   3.64706   3.66137
 Alpha virt. eigenvalues --    3.67771   3.68011   3.69423   3.70001   3.73560
 Alpha virt. eigenvalues --    3.74945   3.82462   3.83388   3.83957   3.85135
 Alpha virt. eigenvalues --    3.90741   3.96474   4.03597   4.05715   4.06228
 Alpha virt. eigenvalues --    4.08501   4.18519   4.19592   4.21680   4.23824
 Alpha virt. eigenvalues --    4.24342   4.25400   4.25595   4.26859   4.27844
 Alpha virt. eigenvalues --    4.29141   4.29706   4.31685   4.32430   4.33437
 Alpha virt. eigenvalues --    4.34771   4.35411   4.36686   4.38839   4.39104
 Alpha virt. eigenvalues --    4.41908   4.43382   4.43576   4.44306   4.46558
 Alpha virt. eigenvalues --    4.46772   4.47054   4.47488   4.49462   4.49866
 Alpha virt. eigenvalues --    4.50497   4.52825   4.53112   4.55338   4.56044
 Alpha virt. eigenvalues --    4.57465   4.58371   4.59222   4.59670   4.59784
 Alpha virt. eigenvalues --    4.60181   4.61020   4.61460   4.63295   4.69132
 Alpha virt. eigenvalues --    4.69917   4.70002   4.70532   4.72287   4.73620
 Alpha virt. eigenvalues --    4.75452   4.76208   4.76377   4.81284   4.83416
 Alpha virt. eigenvalues --    4.84193   4.84649   4.86128   4.88362   4.89659
 Alpha virt. eigenvalues --    4.90789   4.93643   5.01991
          Condensed to atoms (all electrons):
 Mulliken charges:
               1
     1  Mg   0.815702
     2  C    0.073240
     3  C   -0.227343
     4  C   -0.190231
     5  C   -0.199727
     6  N   -0.645948
     7  C    0.338855
     8  C   -0.138615
     9  C   -0.147910
    10  C    0.308115
    11  C   -0.296456
    12  C   -0.193235
    13  C   -0.249490
    14  C    0.612517
    15  O   -0.484568
    16  O   -0.492965
    17  N   -0.724207
    18  C    0.375235
    19  C   -0.004347
    20  C    0.044831
    21  C    0.274775
    22  C   -0.371290
    23  C   -0.054050
    24  C   -0.257557
    25  N   -0.663599
    26  C    0.278118
    27  C    0.025099
    28  C    0.030859
    29  C    0.292787
    30  C   -0.361252
    31  C   -0.249976
    32  C   -0.308033
    33  N   -0.745561
    34  C    0.316089
    35  C    0.033636
    36  C    0.070303
    37  C    0.295799
    38  C   -0.371800
    39  C    0.327009
    40  O   -0.472003
    41  C   -0.341981
    42  C    0.631295
    43  O   -0.508235
    44  O   -0.422049
    45  C   -0.035345
    46  C    0.003623
    47  C   -0.073241
    48  C    0.100487
    49  C   -0.352673
    50  C   -0.226924
    51  C   -0.189746
    52  C   -0.142920
    53  C   -0.063283
    54  C   -0.280822
    55  C   -0.165558
    56  C   -0.193163
    57  C   -0.166142
    58  C   -0.021345
    59  C   -0.322137
    60  C   -0.183428
    61  C   -0.178620
    62  C   -0.145782
    63  C   -0.081435
    64  C   -0.305797
    65  C   -0.280233
    66  H    0.062559
    67  H    0.087910
    68  H    0.097196
    69  H    0.108111
    70  H    0.108642
    71  H    0.108354
    72  H    0.118931
    73  H    0.116719
    74  H    0.094069
    75  H    0.122284
    76  H    0.139278
    77  H    0.142371
    78  H    0.128889
    79  H    0.096594
    80  H    0.103917
    81  H    0.095277
    82  H    0.083451
    83  H    0.104547
    84  H    0.094960
    85  H    0.115130
    86  H    0.128687
    87  H    0.093136
    88  H    0.114245
    89  H    0.117434
    90  H    0.105839
    91  H    0.097052
    92  H    0.126566
    93  H    0.157860
    94  H    0.119181
    95  H    0.153018
    96  H    0.115291
    97  H    0.124811
    98  H    0.100229
    99  H    0.122798
   100  H    0.141798
   101  H    0.057372
   102  H    0.115581
   103  H    0.121197
   104  H    0.110341
   105  H    0.082876
   106  H    0.108919
   107  H    0.101560
   108  H    0.096572
   109  H    0.075397
   110  H    0.075841
   111  H    0.070222
   112  H    0.105851
   113  H    0.095207
   114  H    0.086338
   115  H    0.102906
   116  H    0.077953
   117  H    0.105611
   118  H    0.073319
   119  H    0.067276
   120  H    0.068149
   121  H    0.097183
   122  H    0.068699
   123  H    0.101984
   124  H    0.118188
   125  H    0.106120
   126  H    0.081871
   127  H    0.063101
   128  H    0.098237
   129  H    0.042310
   130  H    0.092713
   131  H    0.096022
   132  H    0.101121
   133  H    0.085170
   134  H    0.103928
   135  H    0.091661
   136  H    0.099162
   137  H    0.089552
 Sum of Mulliken charges =   0.00000
 Mulliken charges with hydrogens summed into heavy atoms:
               1
     1  Mg   0.815702
     2  C    0.073240
     3  C   -0.164784
     4  C   -0.102321
     5  C   -0.102531
     6  N   -0.645948
     7  C    0.338855
     8  C   -0.030505
     9  C   -0.039268
    10  C    0.308115
    11  C    0.047548
    12  C    0.023118
    13  C    0.032159
    14  C    0.612517
    15  O   -0.484568
    16  O   -0.492965
    17  N   -0.724207
    18  C    0.375235
    19  C   -0.004347
    20  C    0.044831
    21  C    0.274775
    22  C   -0.041890
    23  C    0.041227
    24  C   -0.069559
    25  N   -0.663599
    26  C    0.278118
    27  C    0.025099
    28  C    0.030859
    29  C    0.292787
    30  C   -0.022475
    31  C   -0.042595
    32  C    0.012293
    33  N   -0.745561
    34  C    0.316089
    35  C    0.033636
    36  C    0.070303
    37  C    0.295799
    38  C    0.031808
    39  C    0.327009
    40  O   -0.472003
    41  C   -0.188963
    42  C    0.631295
    43  O   -0.508235
    44  O   -0.422049
    45  C    0.304986
    46  C    0.268220
    47  C   -0.015869
    48  C    0.100487
    49  C   -0.005553
    50  C   -0.035128
    51  C    0.008385
    52  C    0.008317
    53  C    0.006940
    54  C    0.006574
    55  C    0.015301
    56  C   -0.014233
    57  C   -0.030717
    58  C    0.075838
    59  C   -0.033266
    60  C    0.004563
    61  C   -0.017282
    62  C   -0.010759
    63  C    0.014587
    64  C   -0.015578
    65  C    0.000142
 Electronic spatial extent (au):  <R**2>=         180255.2416
 Charge=              0.0000 electrons
 Dipole moment (field-independent basis, Debye):
    X=              0.6383    Y=              2.2038    Z=             -0.9902  Tot=              2.4989
 Quadrupole moment (field-independent basis, Debye-Ang):
   XX=           -320.6189   YY=           -399.0943   ZZ=           -400.5540
   XY=             -6.4537   XZ=             12.3475   YZ=              0.7518
 Traceless Quadrupole moment (field-independent basis, Debye-Ang):
   XX=             52.8035   YY=            -25.6719   ZZ=            -27.1316
   XY=             -6.4537   XZ=             12.3475   YZ=              0.7518
 Octapole moment (field-independent basis, Debye-Ang**2):
  XXX=           -762.7438  YYY=             55.6165  ZZZ=             -7.3759  XYY=            -29.0764
  XXY=            -95.9304  XXZ=           -295.6560  XZZ=              3.6048  YZZ=            -32.8840
  YYZ=             25.6405  XYZ=            -47.9784
 Hexadecapole moment (field-independent basis, Debye-Ang**3):
 XXXX=        -214740.0187 YYYY=         -17971.0604 ZZZZ=          -4201.0292 XXXY=          -1035.8218
 XXXZ=           1450.5052 YYYX=           -468.6148 YYYZ=           -184.8103 ZZZX=             18.3455
 ZZZY=           -108.1013 XXYY=         -40612.0611 XXZZ=         -39372.2411 YYZZ=          -3549.6954
 XXYZ=              5.1196 YYXZ=            126.6492 ZZXY=             65.3288
 N-N= 8.743737324509D+03 E-N=-2.431038581342D+04  KE= 2.906379539576D+03
 1\1\GINC-PEDRO-RYZENSSD\SP\RCAM-B3LYP TD-FC\6-31G(d,p)\C55H72Mg1N4O5\P
 ADAWAN\05-Jul-2019\0\\# td=(NStates=1) CAM-B3LYP/6-31G(d,p)\\TD\\0,1\M
 g,0,-7.1647070437,0.5777265208,0.0418018676\C,0,-4.8669413121,-1.93738
 49169,0.5344399767\C,0,-4.8618561145,2.8510735547,1.048191184\C,0,-9.3
 814828838,3.0383093264,-0.405853445\C,0,-9.5047907928,-1.7923647475,-0
 .9027267018\N,0,-5.0806514897,0.4135011682,0.5963700553\C,0,-4.3469243
 985,-0.7189517172,0.7665546787\C,0,-2.9845974651,-0.3615855843,1.30074
 04282\C,0,-3.0472281612,1.1150641747,1.6918599167\C,0,-4.4277697719,1.
 507941543,1.1283998699\C,0,-2.9214472268,1.4473270208,3.1332247314\C,0
 ,-1.8973932003,-0.611926454,0.1651904773\C,0,-0.4758850111,-0.49854420
 16,0.627266856\C,0,0.5590970469,-0.7331968326,-0.4245378343\O,0,0.3205
 732974,-1.0554109487,-1.5815744891\O,0,1.7980616167,-0.3932967261,-0.0
 085976487\N,0,-7.0269531432,2.6040359934,0.1994886444\C,0,-6.041513430
 3,3.411262102,0.7308466183\C,0,-6.4473419873,4.720826372,0.7336940566\
 C,0,-7.7585585629,4.7967303045,0.2744558369\C,0,-8.1395182234,3.489808
 1761,0.0253750838\C,0,-5.4744354002,5.8968421501,1.0452792884\C,0,-8.6
 63754173,5.9778388176,0.2510520906\C,0,-8.42688658,7.177633882,0.76447
 26971\N,0,-9.1564579184,0.6071835795,-0.589082942\C,0,-9.8789741571,1.
 7983597891,-0.7020165258\C,0,-11.2061697136,1.4223905782,-1.1740791274
 \C,0,-11.2636887728,0.0688222463,-1.3018989039\C,0,-9.9182775085,-0.34
 44264169,-0.8729723133\C,0,-12.3059494186,2.4138619572,-1.3843452093\C
 ,0,-12.3957141177,-0.8469021003,-1.7040112096\C,0,-12.4050979982,-1.08
 53209433,-3.3032654451\N,0,-7.2230317715,-1.4235419678,-0.1797026473\C
 ,0,-8.321312371,-2.2583910112,-0.5051954747\C,0,-7.8607822238,-3.65955
 42229,-0.4658138587\C,0,-6.554969381,-3.5995542924,-0.0590376357\C,0,-
 6.1833509315,-2.2439326746,0.1579886031\C,0,-8.6531527827,-4.853308173
 2,-0.8403325117\C,0,-5.3401884891,-4.3478086644,0.2019530679\O,0,-5.16
 48353214,-5.5966741508,0.2438614168\C,0,-4.1028838678,-3.2505508449,0.
 5380936747\C,0,-3.5455851894,-3.6738526066,1.8616165346\O,0,-3.6391955
 202,-3.1334200782,2.9879414752\O,0,-2.7546966634,-4.7379385163,1.74209
 27902\C,0,-2.308831471,-5.246278857,2.9122361591\C,0,2.8878012918,-0.6
 545232469,-1.044455646\C,0,4.1918012691,-0.3352316995,-0.4138115302\C,
 0,5.1319966841,0.5170679722,-0.8061303857\C,0,5.0012785509,1.366419291
 2,-2.0924034056\C,0,6.4247168045,0.6330451547,-0.015137999\C,0,7.57342
 48804,0.0042400771,-0.8579527458\C,0,8.9346153341,-0.0962947599,-0.103
 152128\C,0,10.0746380883,-0.4015772294,-0.9752284933\C,0,10.0595526555
 ,-1.8570866448,-1.4201154765\C,0,11.4072936063,-0.1568394647,-0.056544
 7859\C,0,12.8683217399,-0.4619202431,-0.6380538283\C,0,14.0059900674,-
 0.208832086,0.1667637439\C,0,15.3316092858,-0.3229460237,-0.6190301428
 \C,0,15.7157232412,-1.6937270065,-1.0882584435\C,0,16.4783019361,0.275
 1418742,0.3767821854\C,0,17.7869032797,0.5123426327,-0.2952853431\C,0,
 18.8666070302,1.1652047375,0.7464150745\C,0,20.2499036596,1.3286131948
 ,0.23696846\C,0,20.3292242762,2.0749457918,-1.1040513978\C,0,21.175238
 4546,1.8273056669,1.2751128747\H,0,-4.0213736219,3.507346256,1.6056051
 474\H,0,-10.1489152842,3.9217930143,-0.6599213836\H,0,-10.3374170311,-
 2.4768170225,-1.3255192041\H,0,-2.6383102879,-1.03076139,1.9019408853\
 H,0,-2.2504786531,1.6587494575,1.1634769981\H,0,-1.9553699945,1.107041
 157,3.4558893024\H,0,-3.154270487,2.4310671642,3.3597081362\H,0,-3.576
 7011128,0.649169601,3.6373661494\H,0,-2.1288853734,-1.657055666,-0.379
 5918684\H,0,-2.230604733,0.1177590263,-0.4020702466\H,0,-0.3801115286,
 0.4106356775,1.0011205112\H,0,-0.424740276,-1.1762921444,1.3646004152\
 H,0,-5.569885764,6.707109355,0.2752932385\H,0,-5.5966066501,6.18176153
 93,2.2572520223\H,0,-4.3195459106,5.6866498314,0.9805712327\H,0,-9.635
 6456171,6.0343695851,-0.274727701\H,0,-9.395600776,7.9480755465,0.7985
 494767\H,0,-7.3933187977,7.484244824,1.2214105266\H,0,-12.0376678719,2
 .8800783338,-2.5093539401\H,0,-13.281797849,1.9127051617,-1.4083620277
 \H,0,-12.3222639575,3.24415307,-0.7288041244\H,0,-12.3803028087,-1.873
 3367788,-1.0745524101\H,0,-13.2998487038,-0.4364303798,-1.5375392814\H
 ,0,-13.2994662992,-1.3968143676,-3.6398638709\H,0,-12.1889624604,-0.22
 46870063,-4.0364871444\H,0,-11.4523615155,-1.7591607832,-3.3735159716\
 H,0,-8.6112807311,-4.9120519481,-2.0180950736\H,0,-8.1419135562,-5.669
 7569799,-0.5550751205\H,0,-9.8547553604,-4.7814631676,-0.6993517578\H,
 0,-3.3327939753,-3.3900522559,-0.498675139\H,0,-1.6578339499,-4.654541
 8939,3.2690898243\H,0,-3.1231819268,-5.518963514,3.3281456535\H,0,-1.6
 612642379,-6.1089601692,2.7117251254\H,0,2.8821475189,-1.7602478607,-1
 .2832622912\H,0,2.6316306407,-0.2845541758,-1.9970428565\H,0,4.4349944
 05,-0.6894211573,0.3902122372\H,0,3.9509040539,1.3854672571,-2.4931576
 855\H,0,5.2836237741,2.3480950684,-1.71561803\H,0,5.7729446021,0.97496
 86044,-2.8841071417\H,0,6.7372557885,1.7854125413,0.191981841\H,0,6.50
 01341328,0.0967716398,0.9592856453\H,0,7.2885262373,-0.8962788631,-1.3
 821795416\H,0,7.7335857945,0.5514783559,-1.7514680704\H,0,9.1096830199
 ,0.9428421692,0.4353711693\H,0,8.8254510338,-0.8985753637,0.7692847922
 \H,0,10.0158191333,0.3655990976,-1.9103459241\H,0,9.1370086864,-2.1013
 181083,-1.9274586707\H,0,10.8923017859,-1.9564524291,-2.2501092548\H,0
 ,10.3416670527,-2.482360178,-0.3814975895\H,0,11.4166793488,0.77219945
 01,0.2561771052\H,0,11.5345065041,-0.8780337647,0.8678974113\H,0,13.05
 78090998,-1.5175899202,-0.8755752251\H,0,13.0608898415,0.1040510961,-1
 .5936627276\H,0,14.1410755443,0.8121137674,0.7016375068\H,0,14.0186746
 206,-0.8765572604,1.1307795945\H,0,15.2387671652,0.301699655,-1.299124
 2704\H,0,15.9222096639,-2.5278730794,-0.2075222061\H,0,15.0874117919,-
 2.2745598316,-1.7811755327\H,0,16.6359332227,-1.9118067056,-1.56511798
 13\H,0,16.1922944301,1.254573291,0.7369302373\H,0,16.6423286801,-0.395
 198695,1.3652092821\H,0,18.6557565144,-0.296246172,-0.5903223726\H,0,1
 7.8470117657,1.1708544043,-1.1705706329\H,0,18.432214014,2.2748416419,
 1.0431423195\H,0,18.9304502053,0.6328574667,1.5611861189\H,0,20.505035
 4162,0.3127174199,0.030550119\H,0,20.0213162382,3.1371472766,-1.152078
 8013\H,0,21.451449397,1.9865553083,-1.258117175\H,0,19.7426881732,1.65
 76275736,-1.9089378628\H,0,21.1789438696,0.8955776669,1.9583154487\H,0
 ,22.1116828746,1.8235035801,0.720597026\H,0,21.0650262325,2.9247125546
 ,1.8611265532\\Version=ES64L-G09RevD.01\State=1-A\HF=-2932.5431662\RMS
 D=5.387e-09\PG=C01 [X(C55H72Mg1N4O5)]\\@


 Age does not diminish the extreme disappointment of
 having a scoop of ice cream fall from the cone.
 -- Jim Fiebig
 Job cpu time:       0 days  6 hours 47 minutes 55.7 seconds.
 File lengths (MBytes):  RWF=   2106 Int=      0 D2E=      0 Chk=    163 Scr=      1
 Normal termination of Gaussian 09 at Fri Jul  5 12:57:50 2019.
