 Entering Gaussian System, Link 0=g16
 Input=Geometria-492-.com
 Output=Geometria-492-.log
 Initial command:
<<<<<<< HEAD
 /usr/local/g16/l1.exe "/home/padawan/israel-mol/chlorophyll-a/spectra/emi/Gau-31687.inp" -scrdir="/home/padawan/israel-mol/chlorophyll-a/spectra/emi/"
=======
 /usr/local/g09/l1.exe "/home/padawan/israel-mol/chlorophyll-a/spectra/emi/Gau-32118.inp" -scrdir="/home/padawan/israel-mol/chlorophyll-a/spectra/emi/"
 Entering Link 1 = /usr/local/g09/l1.exe PID=     32120.
  
 Copyright (c) 1988,1990,1992,1993,1995,1998,2003,2009,2013,
            Gaussian, Inc.  All Rights Reserved.
  
 This is part of the Gaussian(R) 09 program.  It is based on
 the Gaussian(R) 03 system (copyright 2003, Gaussian, Inc.),
 the Gaussian(R) 98 system (copyright 1998, Gaussian, Inc.),
 the Gaussian(R) 94 system (copyright 1995, Gaussian, Inc.),
 the Gaussian 92(TM) system (copyright 1992, Gaussian, Inc.),
 the Gaussian 90(TM) system (copyright 1990, Gaussian, Inc.),
 the Gaussian 88(TM) system (copyright 1988, Gaussian, Inc.),
 the Gaussian 86(TM) system (copyright 1986, Carnegie Mellon
 University), and the Gaussian 82(TM) system (copyright 1983,
 Carnegie Mellon University). Gaussian is a federally registered
 trademark of Gaussian, Inc.
  
 This software contains proprietary and confidential information,
 including trade secrets, belonging to Gaussian, Inc.
  
 This software is provided under written license and may be
 used, copied, transmitted, or stored only in accord with that
 written license.
  
 The following legend is applicable only to US Government
 contracts under FAR:
  
                    RESTRICTED RIGHTS LEGEND
  
 Use, reproduction and disclosure by the US Government is
 subject to restrictions as set forth in subparagraphs (a)
 and (c) of the Commercial Computer Software - Restricted
 Rights clause in FAR 52.227-19.
  
 Gaussian, Inc.
 340 Quinnipiac St., Bldg. 40, Wallingford CT 06492
  
  
 ---------------------------------------------------------------
 Warning -- This program may not be used in any manner that
 competes with the business of Gaussian, Inc. or will provide
 assistance to any competitor of Gaussian, Inc.  The licensee
 of this program is prohibited from giving any competitor of
 Gaussian, Inc. access to this program.  By using this program,
 the user acknowledges that Gaussian, Inc. is engaged in the
 business of creating and licensing software in the field of
 computational chemistry and represents and warrants to the
 licensee that it is not a competitor of Gaussian, Inc. and that
 it will not use this program in any manner prohibited above.
 ---------------------------------------------------------------
  

 Cite this work as:
 Gaussian 09, Revision D.01,
 M. J. Frisch, G. W. Trucks, H. B. Schlegel, G. E. Scuseria, 
 M. A. Robb, J. R. Cheeseman, G. Scalmani, V. Barone, B. Mennucci, 
 G. A. Petersson, H. Nakatsuji, M. Caricato, X. Li, H. P. Hratchian, 
 A. F. Izmaylov, J. Bloino, G. Zheng, J. L. Sonnenberg, M. Hada, 
 M. Ehara, K. Toyota, R. Fukuda, J. Hasegawa, M. Ishida, T. Nakajima, 
 Y. Honda, O. Kitao, H. Nakai, T. Vreven, J. A. Montgomery, Jr., 
 J. E. Peralta, F. Ogliaro, M. Bearpark, J. J. Heyd, E. Brothers, 
 K. N. Kudin, V. N. Staroverov, T. Keith, R. Kobayashi, J. Normand, 
 K. Raghavachari, A. Rendell, J. C. Burant, S. S. Iyengar, J. Tomasi, 
 M. Cossi, N. Rega, J. M. Millam, M. Klene, J. E. Knox, J. B. Cross, 
 V. Bakken, C. Adamo, J. Jaramillo, R. Gomperts, R. E. Stratmann, 
 O. Yazyev, A. J. Austin, R. Cammi, C. Pomelli, J. W. Ochterski, 
 R. L. Martin, K. Morokuma, V. G. Zakrzewski, G. A. Voth, 
 P. Salvador, J. J. Dannenberg, S. Dapprich, A. D. Daniels, 
 O. Farkas, J. B. Foresman, J. V. Ortiz, J. Cioslowski, 
 and D. J. Fox, Gaussian, Inc., Wallingford CT, 2013.
 
 ******************************************
 Gaussian 09:  ES64L-G09RevD.01 24-Apr-2013
                 7-Jul-2019 
 ******************************************
 %nproc=4
 Will use up to    4 processors via shared memory.
 %Mem=2GB
 -------------------------------------
 # td=(NStates=1) CAM-B3LYP/6-31G(d,p)
 -------------------------------------
 1/38=1/1;
 2/12=2,17=6,18=5,40=1/2;
 3/5=1,6=6,7=101,11=9,16=1,25=1,30=1,74=-40/1,2,8,3;
 4//1;
 5/5=2,38=5/2;
 8/6=1,10=2,108=1/1;
 9/41=1,42=1,70=2/14;
 6/7=2,8=2,9=2,10=2/1;
 99/5=1,9=1/99;
 --
 TD
 --
 Symbolic Z-matrix:
 Charge =  0 Multiplicity = 1
 12                   -7.11888   0.55864   0.19057 
 6                    -4.96005  -1.89171   0.54367 
 6                    -4.79401   3.01981   1.23761 
 6                    -9.45787   3.02816  -0.35672 
 6                    -9.43652  -1.78195  -0.79716 
 7                    -5.02026   0.4981    0.72969 
 6                    -4.35846  -0.63422   0.81055 
 6                    -2.85248  -0.39372   1.15681 
 6                    -3.00178   1.05566   1.59732 
 6                    -4.41791   1.56385   1.22918 
 6                    -3.04381   1.26827   3.12922 
 6                    -1.88664  -0.67012   0.04165 
 6                    -0.44908  -0.43151   0.43046 
 6                     0.54902  -0.63535  -0.7116 
 8                     0.24561  -0.99184  -1.86658 
 8                     1.78728  -0.49367  -0.30998 
 7                    -7.09603   2.60182   0.32793 
 6                    -6.02143   3.45788   0.72486 
 6                    -6.48075   4.81287   0.71973 
 6                    -7.69475   4.86377   0.37403 
 6                    -8.1473    3.43443   0.09775 
 6                    -5.57697   5.84354   1.09667 
 6                    -8.60258   5.92251   0.08326 
 6                    -8.42129   7.11657   0.71349 
 7                    -9.08681   0.63652  -0.43833 
 6                    -9.81541   1.77188  -0.68617 
 6                    -11.11524   1.40714  -1.09975 
 6                    -11.21561   0.01736  -1.23186 
 6                    -9.89553  -0.40953  -0.83317 
 6                    -12.25195   2.44022  -1.38425 
 6                    -12.28923  -0.79532  -1.66519 
 6                    -12.46152  -1.09612  -3.24525 
 7                    -7.19602  -1.40679  -0.15612 
 6                    -8.2687   -2.28016  -0.53118 
 6                    -7.78785  -3.65934  -0.49429 
 6                    -6.47434  -3.55961  -0.2141 
 6                    -6.2055   -2.18082   0.06371 
 6                    -8.55589  -4.85061  -0.90849 
 6                    -5.24698  -4.32345   0.2554 
 8                    -5.08656  -5.51307   0.30405 
 6                    -4.12715  -3.29618   0.55875 
 6                    -3.43766  -3.63719   1.85545 
 8                    -3.66461  -3.05487   2.86836 
 8                    -2.61908  -4.62584   1.77806 
 6                    -2.10032  -5.19254   3.02787 
 6                     2.83406  -0.67433  -1.36402 
 6                     4.091    -0.32078  -0.55412 
 6                     5.14531   0.48873  -0.95377 
 6                     5.06353   1.48822  -2.24408 
 6                     6.35965   0.43104  -0.11001 
 6                     7.58723  -0.05815  -0.86555 
 6                     8.80019  -0.13565  -0.04237 
 6                     10.14346  -0.61763  -0.77639 
 6                     10.0327  -2.02015  -1.27802 
 6                     11.46029  -0.41242   0.0562 
 6                     12.78543  -0.62503  -0.64118 
 6                     13.97581  -0.27567   0.21294 
 6                     15.33166  -0.20119  -0.55608 
 6                     15.74596  -1.63953  -0.86219 
 6                     16.32656   0.45087   0.3785 
 6                     17.71639   0.43643  -0.14872 
 6                     18.67576   1.21263   0.74719 
 6                     20.08207   1.34769   0.25981 
 6                     20.19684   2.12593  -1.12653 
 6                     21.03047   1.9239    1.33434 
 1                    -3.95488   3.77631   1.29398 
 1                    -9.99998   3.88132  -0.60377 
 1                    -10.30054  -2.56961  -0.9696 
 1                    -2.89082  -0.93778   2.13212 
 1                    -2.16626   1.77273   1.38777 
 1                    -2.02891   1.15708   3.39894 
 1                    -3.42345   2.25286   3.25584 
 1                    -3.64988   0.41047   3.57013 
 1                    -2.0195   -1.82543  -0.36893 
 1                    -2.26444   0.09294  -0.69496 
 1                    -0.41739   0.67228   0.84164 
 1                    -0.1266   -1.29309   1.16519 
 1                    -5.77825   6.75716   0.29639 
 1                    -5.55364   6.21017   2.20012 
 1                    -4.51459   5.49415   0.79123 
 1                    -9.41081   5.88706  -0.72589 
 1                    -9.03778   8.06344   0.63625 
 1                    -7.67178   7.26159   1.68465 
 1                    -11.90602   3.43463  -2.01776 
 1                    -13.09924   2.00726  -2.03818 
 1                    -12.73032   2.78327  -0.19867 
 1                    -12.28342  -1.95385  -1.24921 
 1                    -12.98684  -0.18493  -1.24869 
 1                    -13.20295  -1.70058  -3.35617 
 1                    -12.31086   0.04368  -3.58143 
 1                    -11.54542  -1.35669  -3.58875 
 1                    -9.02422  -4.59231  -1.83959 
 1                    -7.92472  -5.87843  -1.02232 
 1                    -9.22063  -4.85187   0.00821 
 1                    -3.44695  -3.42704  -0.43631 
 1                    -1.37491  -4.51109   3.48001 
 1                    -3.01811  -5.46568   3.71358 
 1                    -1.25205  -5.96067   2.57115 
 1                     2.79147  -1.66472  -1.54305 
 1                     2.44542  -0.07062  -2.21987 
 1                     4.32017  -1.04497   0.11994 
 1                     3.96503   1.05119  -2.57568 
 1                     5.20007   2.54185  -2.00661 
 1                     5.80385   1.12654  -2.8702 
 1                     6.56856   1.53202   0.32926 
 1                     6.34783  -0.2889    0.7295 
 1                     7.43881  -1.09339  -1.36884 
 1                     7.75      0.5669   -1.67478 
 1                     9.10178   0.75216   0.40423 
 1                     8.8897   -0.93264   0.8563 
 1                     10.30183   0.11158  -1.62396 
 1                     9.2258   -2.34877  -1.95161 
 1                     11.01995  -2.21275  -1.88058 
 1                     9.99473  -2.58487  -0.34572 
 1                     11.29326   0.55793   0.31141 
 1                     11.19208  -1.09707   0.94689 
 1                     13.00441  -1.72163  -0.86657 
 1                     12.52278  -0.0496   -1.70917 
 1                     13.91335   0.80494   0.43949 
 1                     13.89898  -0.85008   1.0016 
 1                     15.21533   0.44447  -1.5585 
 1                     16.00478  -2.25319  -0.09748 
 1                     14.85462  -2.12294  -1.46034 
 1                     16.7091  -1.68772  -1.3756 
 1                     16.12421   1.41534   0.77698 
 1                     16.31417  -0.19238   1.24353 
 1                     18.31404  -0.56477  -0.11483 
 1                     17.80649   0.81013  -1.20894 
 1                     18.40491   2.07573   0.73451 
 1                     18.78213   0.76859   1.66862 
 1                     20.47775   0.37988   0.01426 
 1                     19.96153   3.14465  -0.88032 
 1                     21.28226   2.1136   -1.35193 
 1                     19.60018   1.81019  -1.82792 
 1                     20.8119   1.39897   2.37926 
 1                     22.22599   1.67543   1.03452 
 1                     20.80745   2.99819   1.44422 
 
 Stoichiometry    C55H72MgN4O5
 Framework group  C1[X(C55H72MgN4O5)]
 Deg. of freedom   405
 Full point group                 C1      NOp   1
 Largest Abelian subgroup         C1      NOp   1
 Largest concise Abelian subgroup C1      NOp   1
                         Standard orientation:                         
 ---------------------------------------------------------------------
 Center     Atomic      Atomic             Coordinates (Angstroms)
 Number     Number       Type             X           Y           Z
 ---------------------------------------------------------------------
      1         12           0       -7.119281    0.545473    0.192688
      2          6           0       -4.955705   -1.901356    0.541176
      3          6           0       -4.798751    3.009343    1.243002
      4          6           0       -9.463109    3.011434   -0.349895
      5          6           0       -9.432789   -1.797911   -0.798113
      6          7           0       -5.020378    0.488032    0.731079
      7          6           0       -4.356410   -0.643164    0.809904
      8          6           0       -2.850791   -0.400368    1.156092
      9          6           0       -3.002700    1.048010    1.598993
     10          6           0       -4.419897    1.554110    1.232105
     11          6           0       -3.044658    1.258066    3.131252
     12          6           0       -1.884769   -0.673139    0.040196
     13          6           0       -0.447545   -0.432431    0.428953
     14          6           0        0.550588   -0.632534   -0.713731
     15          8           0        0.247499   -0.987739   -1.869200
     16          8           0        1.788705   -0.489158   -0.312260
     17          7           0       -7.100255    2.588460    0.333348
     18          6           0       -6.027158    3.445912    0.731329
     19          6           0       -6.489038    4.800035    0.728535
     20          6           0       -7.703245    4.849195    0.383279
     21          6           0       -8.153169    3.419455    0.104834
     22          6           0       -5.587096    5.831806    1.106868
     23          6           0       -8.613163    5.906689    0.094496
     24          6           0       -8.433939    7.100065    0.726602
     25          7           0       -9.087546    0.620634   -0.435483
     26          6           0       -9.818367    1.755011   -0.681273
     27          6           0      -11.117634    1.388481   -1.095044
     28          6           0      -11.215416   -0.001273   -1.229370
     29          6           0       -9.894399   -0.426306   -0.831768
     30          6           0      -12.256389    2.419870   -1.377523
     31          6           0      -12.287628   -0.815278   -1.663683
     32          6           0      -12.459832   -1.113856   -3.244177
     33          7           0       -7.192802   -1.419541   -0.157152
     34          6           0       -8.263940   -2.294337   -0.533295
     35          6           0       -7.780476   -3.672663   -0.498779
     36          6           0       -6.467067   -3.570894   -0.218833
     37          6           0       -6.200755   -2.192044    0.061126
     38          6           0       -8.546384   -4.864708   -0.914673
     39          6           0       -5.238117   -4.333162    0.249061
     40          8           0       -5.075428   -5.522552    0.295739
     41          6           0       -4.120138   -3.304263    0.553728
     42          6           0       -3.429615   -3.646065    1.849666
     43          8           0       -3.657350   -3.065816    2.863589
     44          8           0       -2.609187   -4.633035    1.770431
     45          6           0       -2.088969   -5.200776    3.019167
     46          6           0        2.835497   -0.666130   -1.366908
     47          6           0        4.092019   -0.311514   -0.556817
     48          6           0        5.144668    0.500631   -0.955478
     49          6           0        5.060607    1.502054   -2.244149
     50          6           0        6.359376    0.443888   -0.112183
     51          6           0        7.587645   -0.041756   -0.868891
     52          6           0        8.801007   -0.118291   -0.046198
     53          6           0       10.144965   -0.596540   -0.781406
     54          6           0       10.036703   -1.998459   -1.285271
     55          6           0       11.461654   -0.390178    0.051110
     56          6           0       12.786985   -0.599152   -0.647016
     57          6           0       13.976956   -0.248921    0.207309
     58          6           0       15.332429   -0.170636   -0.562004
     59          6           0       15.749355   -1.607690   -0.870555
     60          6           0       16.326377    0.481800    0.373333
     61          6           0       17.716069    0.470840   -0.154334
     62          6           0       18.674244    1.247411    0.742534
     63          6           0       20.080145    1.385918    0.254951
     64          6           0       20.193021    2.166618   -1.130168
     65          6           0       21.027789    1.962186    1.330121
     66          1           0       -3.961036    3.767342    1.300344
     67          1           0      -10.006909    3.863964   -0.595399
     68          1           0      -10.295368   -2.586919   -0.971571
     69          1           0       -2.887793   -0.946078    2.130541
     70          1           0       -2.168600    1.767002    1.390348
     71          1           0       -2.029465    1.148360    3.400483
     72          1           0       -3.426121    2.241730    3.259571
     73          1           0       -3.648967    0.398405    3.570954
     74          1           0       -2.015570   -1.828034   -0.372210
     75          1           0       -2.264235    0.090392   -0.695063
     76          1           0       -0.417812    0.670751    0.841915
     77          1           0       -0.123207   -1.294591    1.162195
     78          1           0       -5.790352    6.746342    0.308118
     79          1           0       -5.564129    6.196704    2.210894
     80          1           0       -4.524150    5.484926    0.800539
     81          1           0       -9.421578    5.871017   -0.714463
     82          1           0       -9.052254    8.045888    0.651085
     83          1           0       -7.684408    7.244940    1.697767
     84          1           0      -11.912537    3.415955   -2.009539
     85          1           0      -13.103053    1.986363   -2.031894
     86          1           0      -12.735045    2.760090   -0.191251
     87          1           0      -12.279496   -1.974474   -1.249580
     88          1           0      -12.986259   -0.206883   -1.245988
     89          1           0      -13.200144   -1.719542   -3.355844
     90          1           0      -12.311435    0.026771   -3.578562
     91          1           0      -11.543343   -1.372134   -3.588373
     92          1           0       -9.015486   -4.605794   -1.845210
     93          1           0       -7.913302   -5.891146   -1.030358
     94          1           0       -9.210838   -4.868711    0.002224
     95          1           0       -3.439996   -3.432227   -0.441743
     96          1           0       -1.364707   -4.518679    3.472191
     97          1           0       -3.006031   -5.476756    3.704720
     98          1           0       -1.239389   -5.966551    2.560952
     99          1           0        2.794730   -1.656312   -1.547526
    100          1           0        2.445458   -0.061783   -2.221660
    101          1           0        4.322768   -1.036353    0.115993
    102          1           0        3.962826    1.063483   -2.576119
    103          1           0        5.195215    2.555559   -2.005017
    104          1           0        5.801412    1.142791   -2.871075
    105          1           0        6.566335    1.544543    0.328796
    106          1           0        6.349176   -0.277431    0.726166
    107          1           0        7.441036   -1.076463   -1.373803
    108          1           0        7.748984    0.584904   -1.677156
    109          1           0        9.101053    0.769368    0.401739
    110          1           0        8.892297   -0.916561    0.851155
    111          1           0       10.301687    0.134340   -1.627843
    112          1           0        9.230217   -2.327518   -1.959147
    113          1           0       11.024135   -2.188210   -1.888443
    114          1           0       10.000090   -2.564753   -0.353877
    115          1           0       11.292863    0.579434    0.307944
    116          1           0       11.195017   -1.076773    0.940772
    117          1           0       13.007972   -1.694973   -0.874245
    118          1           0       12.522911   -0.022503   -1.713995
    119          1           0       13.912525    0.831204    0.435627
    120          1           0       13.901461   -0.824754    0.995061
    121          1           0       15.214575    0.476429   -1.563340
    122          1           0       16.009573   -2.222087   -0.106922
    123          1           0       14.858751   -2.091823   -1.469223
    124          1           0       16.712431   -1.653229   -1.384338
    125          1           0       16.122324    1.445240    0.773435
    126          1           0       16.315469   -0.162867    1.237321
    127          1           0       18.315631   -0.529278   -0.122248
    128          1           0       17.805138    0.846426   -1.213980
    129          1           0       18.401760    2.110019    0.731337
    130          1           0       18.781735    0.802087    1.663214
    131          1           0       20.477588    0.419266    0.007715
    132          1           0       19.955857    3.184489   -0.882239
    133          1           0       21.278394    2.156705   -1.355910
    134          1           0       19.596748    1.850884   -1.831882
    135          1           0       20.810527    1.435158    2.374257
    136          1           0       22.223686    1.716469    1.029537
    137          1           0       20.802766    3.035878    1.441811
 ---------------------------------------------------------------------
 Rotational constants (GHZ):      0.0652108      0.0061295      0.0057741
 Standard basis: 6-31G(d,p) (6D, 7F)
 There are  1339 symmetry adapted cartesian basis functions of A   symmetry.
 There are  1339 symmetry adapted basis functions of A   symmetry.
  1339 basis functions,  2348 primitive gaussians,  1339 cartesian basis functions
   241 alpha electrons      241 beta electrons
       nuclear repulsion energy      8771.0405948160 Hartrees.
 NAtoms=  137 NActive=  137 NUniq=  137 SFac= 1.00D+00 NAtFMM=   60 NAOKFM=T Big=T
 Integral buffers will be    131072 words long.
 Raffenetti 1 integral format.
 Two-electron integral symmetry is turned on.
 One-electron integrals computed using PRISM.
 NBasis=  1339 RedAO= T EigKep=  2.93D-04  NBF=  1339
 NBsUse=  1339 1.00D-06 EigRej= -1.00D+00 NBFU=  1339
 ExpMin= 4.21D-02 ExpMax= 1.17D+04 ExpMxC= 1.76D+03 IAcc=2 IRadAn=         4 AccDes= 0.00D+00
 Harris functional with IExCor=20419 and IRadAn=       4 diagonalized for initial guess.
 HarFok:  IExCor=20419 AccDes= 0.00D+00 IRadAn=         4 IDoV= 1 UseB2=F ITyADJ=14
 ICtDFT=  3500011 ScaDFX=  1.000000  1.000000  1.000000  1.000000
 FoFCou: FMM=F IPFlag=           0 FMFlag=      100000 FMFlg1=        2001
         NFxFlg=           0 DoJE=T BraDBF=F KetDBF=T FulRan=T
         wScrn=  0.000000 ICntrl=     500 IOpCl=  0 I1Cent=   200000004 NGrid=           0
         NMat0=    1 NMatS0=      1 NMatT0=    0 NMatD0=    1 NMtDS0=    0 NMtDT0=    0
 Petite list used in FoFCou.
 Requested convergence on RMS density matrix=1.00D-08 within 128 cycles.
 Requested convergence on MAX density matrix=1.00D-06.
 Requested convergence on             energy=1.00D-06.
 No special actions if energy rises.
 SCF Done:  E(RCAM-B3LYP) =  -2932.54374699     A.U. after   16 cycles
            NFock= 16  Conv=0.56D-08     -V/T= 2.0090
 DoSCS=F DFT=T ScalE2(SS,OS)=  1.000000  1.000000
 ExpMin= 4.21D-02 ExpMax= 1.17D+04 ExpMxC= 1.76D+03 IAcc=3 IRadAn=         5 AccDes= 0.00D+00
 HarFok:  IExCor=  205 AccDes= 0.00D+00 IRadAn=         5 IDoV=-2 UseB2=F ITyADJ=14
 ICtDFT= 12500011 ScaDFX=  1.000000  1.000000  1.000000  1.000000
 Range of M.O.s used for correlation:    70  1339
 NBasis=  1339 NAE=   241 NBE=   241 NFC=    69 NFV=     0
 NROrb=   1270 NOA=   172 NOB=   172 NVA=  1098 NVB=  1098
 Would need an additional       2415464100000 words for in-memory AO integral storage.
 Orbital symmetries:
       Occupied  (A) (A) (A) (A) (A) (A) (A) (A) (A) (A) (A) (A)
                 (A) (A) (A) (A) (A) (A) (A) (A) (A) (A) (A) (A)
                 (A) (A) (A) (A) (A) (A) (A) (A) (A) (A) (A) (A)
                 (A) (A) (A) (A) (A) (A) (A) (A) (A) (A) (A) (A)
                 (A) (A) (A) (A) (A) (A) (A) (A) (A) (A) (A) (A)
                 (A) (A) (A) (A) (A) (A) (A) (A) (A) (A) (A) (A)
                 (A) (A) (A) (A) (A) (A) (A) (A) (A) (A) (A) (A)
                 (A) (A) (A) (A) (A) (A) (A) (A) (A) (A) (A) (A)
                 (A) (A) (A) (A) (A) (A) (A) (A) (A) (A) (A) (A)
                 (A) (A) (A) (A) (A) (A) (A) (A) (A) (A) (A) (A)
                 (A) (A) (A) (A) (A) (A) (A) (A) (A) (A) (A) (A)
                 (A) (A) (A) (A) (A) (A) (A) (A) (A) (A) (A) (A)
                 (A) (A) (A) (A) (A) (A) (A) (A) (A) (A) (A) (A)
                 (A) (A) (A) (A) (A) (A) (A) (A) (A) (A) (A) (A)
                 (A) (A) (A) (A) (A) (A) (A) (A) (A) (A) (A) (A)
                 (A) (A) (A) (A) (A) (A) (A) (A) (A) (A) (A) (A)
                 (A) (A) (A) (A) (A) (A) (A) (A) (A) (A) (A) (A)
                 (A) (A) (A) (A) (A) (A) (A) (A) (A) (A) (A) (A)
                 (A) (A) (A) (A) (A) (A) (A) (A) (A) (A) (A) (A)
                 (A) (A) (A) (A) (A) (A) (A) (A) (A) (A) (A) (A)
                 (A)
       Virtual   (A) (A) (A) (A) (A) (A) (A) (A) (A) (A) (A) (A)
                 (A) (A) (A) (A) (A) (A) (A) (A) (A) (A) (A) (A)
                 (A) (A) (A) (A) (A) (A) (A) (A) (A) (A) (A) (A)
                 (A) (A) (A) (A) (A) (A) (A) (A) (A) (A) (A) (A)
                 (A) (A) (A) (A) (A) (A) (A) (A) (A) (A) (A) (A)
                 (A) (A) (A) (A) (A) (A) (A) (A) (A) (A) (A) (A)
                 (A) (A) (A) (A) (A) (A) (A) (A) (A) (A) (A) (A)
                 (A) (A) (A) (A) (A) (A) (A) (A) (A) (A) (A) (A)
                 (A) (A) (A) (A) (A) (A) (A) (A) (A) (A) (A) (A)
                 (A) (A) (A) (A) (A) (A) (A) (A) (A) (A) (A) (A)
                 (A) (A) (A) (A) (A) (A) (A) (A) (A) (A) (A) (A)
                 (A) (A) (A) (A) (A) (A) (A) (A) (A) (A) (A) (A)
                 (A) (A) (A) (A) (A) (A) (A) (A) (A) (A) (A) (A)
                 (A) (A) (A) (A) (A) (A) (A) (A) (A) (A) (A) (A)
                 (A) (A) (A) (A) (A) (A) (A) (A) (A) (A) (A) (A)
                 (A) (A) (A) (A) (A) (A) (A) (A) (A) (A) (A) (A)
                 (A) (A) (A) (A) (A) (A) (A) (A) (A) (A) (A) (A)
                 (A) (A) (A) (A) (A) (A) (A) (A) (A) (A) (A) (A)
                 (A) (A) (A) (A) (A) (A) (A) (A) (A) (A) (A) (A)
                 (A) (A) (A) (A) (A) (A) (A) (A) (A) (A) (A) (A)
                 (A) (A) (A) (A) (A) (A) (A) (A) (A) (A) (A) (A)
                 (A) (A) (A) (A) (A) (A) (A) (A) (A) (A) (A) (A)
                 (A) (A) (A) (A) (A) (A) (A) (A) (A) (A) (A) (A)
                 (A) (A) (A) (A) (A) (A) (A) (A) (A) (A) (A) (A)
                 (A) (A) (A) (A) (A) (A) (A) (A) (A) (A) (A) (A)
                 (A) (A) (A) (A) (A) (A) (A) (A) (A) (A) (A) (A)
                 (A) (A) (A) (A) (A) (A) (A) (A) (A) (A) (A) (A)
                 (A) (A) (A) (A) (A) (A) (A) (A) (A) (A) (A) (A)
                 (A) (A) (A) (A) (A) (A) (A) (A) (A) (A) (A) (A)
                 (A) (A) (A) (A) (A) (A) (A) (A) (A) (A) (A) (A)
                 (A) (A) (A) (A) (A) (A) (A) (A) (A) (A) (A) (A)
                 (A) (A) (A) (A) (A) (A) (A) (A) (A) (A) (A) (A)
                 (A) (A) (A) (A) (A) (A) (A) (A) (A) (A) (A) (A)
                 (A) (A) (A) (A) (A) (A) (A) (A) (A) (A) (A) (A)
                 (A) (A) (A) (A) (A) (A) (A) (A) (A) (A) (A) (A)
                 (A) (A) (A) (A) (A) (A) (A) (A) (A) (A) (A) (A)
                 (A) (A) (A) (A) (A) (A) (A) (A) (A) (A) (A) (A)
                 (A) (A) (A) (A) (A) (A) (A) (A) (A) (A) (A) (A)
                 (A) (A) (A) (A) (A) (A) (A) (A) (A) (A) (A) (A)
                 (A) (A) (A) (A) (A) (A) (A) (A) (A) (A) (A) (A)
                 (A) (A) (A) (A) (A) (A) (A) (A) (A) (A) (A) (A)
                 (A) (A) (A) (A) (A) (A) (A) (A) (A) (A) (A) (A)
                 (A) (A) (A) (A) (A) (A) (A) (A) (A) (A) (A) (A)
                 (A) (A) (A) (A) (A) (A) (A) (A) (A) (A) (A) (A)
                 (A) (A) (A) (A) (A) (A) (A) (A) (A) (A) (A) (A)
                 (A) (A) (A) (A) (A) (A) (A) (A) (A) (A) (A) (A)
                 (A) (A) (A) (A) (A) (A) (A) (A) (A) (A) (A) (A)
                 (A) (A) (A) (A) (A) (A) (A) (A) (A) (A) (A) (A)
                 (A) (A) (A) (A) (A) (A) (A) (A) (A) (A) (A) (A)
                 (A) (A) (A) (A) (A) (A) (A) (A) (A) (A) (A) (A)
                 (A) (A) (A) (A) (A) (A) (A) (A) (A) (A) (A) (A)
                 (A) (A) (A) (A) (A) (A) (A) (A) (A) (A) (A) (A)
                 (A) (A) (A) (A) (A) (A) (A) (A) (A) (A) (A) (A)
                 (A) (A) (A) (A) (A) (A) (A) (A) (A) (A) (A) (A)
                 (A) (A) (A) (A) (A) (A) (A) (A) (A) (A) (A) (A)
                 (A) (A) (A) (A) (A) (A) (A) (A) (A) (A) (A) (A)
                 (A) (A) (A) (A) (A) (A) (A) (A) (A) (A) (A) (A)
                 (A) (A) (A) (A) (A) (A) (A) (A) (A) (A) (A) (A)
                 (A) (A) (A) (A) (A) (A) (A) (A) (A) (A) (A) (A)
                 (A) (A) (A) (A) (A) (A) (A) (A) (A) (A) (A) (A)
                 (A) (A) (A) (A) (A) (A) (A) (A) (A) (A) (A) (A)
                 (A) (A) (A) (A) (A) (A) (A) (A) (A) (A) (A) (A)
                 (A) (A) (A) (A) (A) (A) (A) (A) (A) (A) (A) (A)
                 (A) (A) (A) (A) (A) (A) (A) (A) (A) (A) (A) (A)
                 (A) (A) (A) (A) (A) (A) (A) (A) (A) (A) (A) (A)
                 (A) (A) (A) (A) (A) (A) (A) (A) (A) (A) (A) (A)
                 (A) (A) (A) (A) (A) (A) (A) (A) (A) (A) (A) (A)
                 (A) (A) (A) (A) (A) (A) (A) (A) (A) (A) (A) (A)
                 (A) (A) (A) (A) (A) (A) (A) (A) (A) (A) (A) (A)
                 (A) (A) (A) (A) (A) (A) (A) (A) (A) (A) (A) (A)
                 (A) (A) (A) (A) (A) (A) (A) (A) (A) (A) (A) (A)
                 (A) (A) (A) (A) (A) (A) (A) (A) (A) (A) (A) (A)
                 (A) (A) (A) (A) (A) (A) (A) (A) (A) (A) (A) (A)
                 (A) (A) (A) (A) (A) (A) (A) (A) (A) (A) (A) (A)
                 (A) (A) (A) (A) (A) (A) (A) (A) (A) (A) (A) (A)
                 (A) (A) (A) (A) (A) (A) (A) (A) (A) (A) (A) (A)
                 (A) (A) (A) (A) (A) (A) (A) (A) (A) (A) (A) (A)
                 (A) (A) (A) (A) (A) (A) (A) (A) (A) (A) (A) (A)
                 (A) (A) (A) (A) (A) (A) (A) (A) (A) (A) (A) (A)
                 (A) (A) (A) (A) (A) (A) (A) (A) (A) (A) (A) (A)
                 (A) (A) (A) (A) (A) (A) (A) (A) (A) (A) (A) (A)
                 (A) (A) (A) (A) (A) (A) (A) (A) (A) (A) (A) (A)
                 (A) (A) (A) (A) (A) (A) (A) (A) (A) (A) (A) (A)
                 (A) (A) (A) (A) (A) (A) (A) (A) (A) (A) (A) (A)
                 (A) (A) (A) (A) (A) (A) (A) (A) (A) (A) (A) (A)
                 (A) (A) (A) (A) (A) (A) (A) (A) (A) (A) (A) (A)
                 (A) (A) (A) (A) (A) (A) (A) (A) (A) (A) (A) (A)
                 (A) (A) (A) (A) (A) (A) (A) (A) (A) (A) (A) (A)
                 (A) (A) (A) (A) (A) (A) (A) (A) (A) (A) (A) (A)
                 (A) (A) (A) (A) (A) (A) (A) (A) (A) (A) (A) (A)
                 (A) (A) (A) (A) (A) (A) (A) (A) (A) (A) (A) (A)
                 (A) (A) (A) (A) (A) (A)
     8 initial guesses have been made.
 Convergence on wavefunction:    0.001000000000000
 Iteration     1 Dimension     8 NMult     0 NNew      8
 CISAX will form     8 AO SS matrices at one time.
 Iteration     2 Dimension    12 NMult     8 NNew      4
 Iteration     3 Dimension    16 NMult    12 NNew      4
 Iteration     4 Dimension    20 NMult    16 NNew      4
 Iteration     5 Dimension    24 NMult    20 NNew      4
 ***********************************************************************
 Excited states from <AA,BB:AA,BB> singles matrix:
 ***********************************************************************
 
 Ground to excited state transition densities written to RWF  633
 Ground to excited state transition electric dipole moments (Au):
       state          X           Y           Z        Dip. S.      Osc.
         1        -0.5559     -1.7878     -0.3749      3.6459      0.1841
 Ground to excited state transition velocity dipole moments (Au):
       state          X           Y           Z        Dip. S.      Osc.
         1         0.0395      0.1316      0.0277      0.0196      0.1730
 Ground to excited state transition magnetic dipole moments (Au):
       state          X           Y           Z
         1         0.4573      0.5278     -3.2094
 Ground to excited state transition velocity quadrupole moments (Au):
       state          XX          YY          ZZ          XY          XZ          YZ
         1        -1.1416      0.4048      0.0411     -1.6139     -0.3579      0.1473
 <0|del|b> * <b|rxdel|0> + <0|del|b> * <b|delr+rdel|0>
 Rotatory Strengths (R) in cgs (10**-40 erg-esu-cm/Gauss)
       state          XX          YY          ZZ    R(velocity)    E-M Angle
         1       -80.3114    -95.1257    161.5423     -4.6316       90.19
 1/2[<0|r|b>*<b|rxdel|0> + (<0|rxdel|b>*<b|r|0>)*]
 Rotatory Strengths (R) in cgs (10**-40 erg-esu-cm/Gauss)
       state          XX          YY          ZZ     R(length)
         1       179.7428    667.3172   -850.9630     -1.3010
  1/2[<0|del|b>*<b|r|0> + (<0|r|b>*<b|del|0>)*] (Au)
       state          X           Y           Z        Dip. S.   Osc.(frdel)
         1        -0.0220     -0.2353     -0.0104      0.2676      0.1784

 Excitation energies and oscillator strengths:
 
 Excited State   1:      Singlet-A      2.0607 eV  601.67 nm  f=0.1841  <S**2>=0.000
     240 -> 243        0.27682
     241 -> 242        0.64280
 This state for optimization and/or second-order correction.
 Total Energy, E(TD-HF/TD-KS) =  -2932.46801941    
 Copying the excited state density for this state as the 1-particle RhoCI density.
 SavETr:  write IOETrn=   770 NScale= 10 NData=  16 NLR=1 NState=    1 LETran=      28.

 **********************************************************************

            Population analysis using the SCF density.

 **********************************************************************

 Orbital symmetries:
       Occupied  (A) (A) (A) (A) (A) (A) (A) (A) (A) (A) (A) (A)
                 (A) (A) (A) (A) (A) (A) (A) (A) (A) (A) (A) (A)
                 (A) (A) (A) (A) (A) (A) (A) (A) (A) (A) (A) (A)
                 (A) (A) (A) (A) (A) (A) (A) (A) (A) (A) (A) (A)
                 (A) (A) (A) (A) (A) (A) (A) (A) (A) (A) (A) (A)
                 (A) (A) (A) (A) (A) (A) (A) (A) (A) (A) (A) (A)
                 (A) (A) (A) (A) (A) (A) (A) (A) (A) (A) (A) (A)
                 (A) (A) (A) (A) (A) (A) (A) (A) (A) (A) (A) (A)
                 (A) (A) (A) (A) (A) (A) (A) (A) (A) (A) (A) (A)
                 (A) (A) (A) (A) (A) (A) (A) (A) (A) (A) (A) (A)
                 (A) (A) (A) (A) (A) (A) (A) (A) (A) (A) (A) (A)
                 (A) (A) (A) (A) (A) (A) (A) (A) (A) (A) (A) (A)
                 (A) (A) (A) (A) (A) (A) (A) (A) (A) (A) (A) (A)
                 (A) (A) (A) (A) (A) (A) (A) (A) (A) (A) (A) (A)
                 (A) (A) (A) (A) (A) (A) (A) (A) (A) (A) (A) (A)
                 (A) (A) (A) (A) (A) (A) (A) (A) (A) (A) (A) (A)
                 (A) (A) (A) (A) (A) (A) (A) (A) (A) (A) (A) (A)
                 (A) (A) (A) (A) (A) (A) (A) (A) (A) (A) (A) (A)
                 (A) (A) (A) (A) (A) (A) (A) (A) (A) (A) (A) (A)
                 (A) (A) (A) (A) (A) (A) (A) (A) (A) (A) (A) (A)
                 (A)
       Virtual   (A) (A) (A) (A) (A) (A) (A) (A) (A) (A) (A) (A)
                 (A) (A) (A) (A) (A) (A) (A) (A) (A) (A) (A) (A)
                 (A) (A) (A) (A) (A) (A) (A) (A) (A) (A) (A) (A)
                 (A) (A) (A) (A) (A) (A) (A) (A) (A) (A) (A) (A)
                 (A) (A) (A) (A) (A) (A) (A) (A) (A) (A) (A) (A)
                 (A) (A) (A) (A) (A) (A) (A) (A) (A) (A) (A) (A)
                 (A) (A) (A) (A) (A) (A) (A) (A) (A) (A) (A) (A)
                 (A) (A) (A) (A) (A) (A) (A) (A) (A) (A) (A) (A)
                 (A) (A) (A) (A) (A) (A) (A) (A) (A) (A) (A) (A)
                 (A) (A) (A) (A) (A) (A) (A) (A) (A) (A) (A) (A)
                 (A) (A) (A) (A) (A) (A) (A) (A) (A) (A) (A) (A)
                 (A) (A) (A) (A) (A) (A) (A) (A) (A) (A) (A) (A)
                 (A) (A) (A) (A) (A) (A) (A) (A) (A) (A) (A) (A)
                 (A) (A) (A) (A) (A) (A) (A) (A) (A) (A) (A) (A)
                 (A) (A) (A) (A) (A) (A) (A) (A) (A) (A) (A) (A)
                 (A) (A) (A) (A) (A) (A) (A) (A) (A) (A) (A) (A)
                 (A) (A) (A) (A) (A) (A) (A) (A) (A) (A) (A) (A)
                 (A) (A) (A) (A) (A) (A) (A) (A) (A) (A) (A) (A)
                 (A) (A) (A) (A) (A) (A) (A) (A) (A) (A) (A) (A)
                 (A) (A) (A) (A) (A) (A) (A) (A) (A) (A) (A) (A)
                 (A) (A) (A) (A) (A) (A) (A) (A) (A) (A) (A) (A)
                 (A) (A) (A) (A) (A) (A) (A) (A) (A) (A) (A) (A)
                 (A) (A) (A) (A) (A) (A) (A) (A) (A) (A) (A) (A)
                 (A) (A) (A) (A) (A) (A) (A) (A) (A) (A) (A) (A)
                 (A) (A) (A) (A) (A) (A) (A) (A) (A) (A) (A) (A)
                 (A) (A) (A) (A) (A) (A) (A) (A) (A) (A) (A) (A)
                 (A) (A) (A) (A) (A) (A) (A) (A) (A) (A) (A) (A)
                 (A) (A) (A) (A) (A) (A) (A) (A) (A) (A) (A) (A)
                 (A) (A) (A) (A) (A) (A) (A) (A) (A) (A) (A) (A)
                 (A) (A) (A) (A) (A) (A) (A) (A) (A) (A) (A) (A)
                 (A) (A) (A) (A) (A) (A) (A) (A) (A) (A) (A) (A)
                 (A) (A) (A) (A) (A) (A) (A) (A) (A) (A) (A) (A)
                 (A) (A) (A) (A) (A) (A) (A) (A) (A) (A) (A) (A)
                 (A) (A) (A) (A) (A) (A) (A) (A) (A) (A) (A) (A)
                 (A) (A) (A) (A) (A) (A) (A) (A) (A) (A) (A) (A)
                 (A) (A) (A) (A) (A) (A) (A) (A) (A) (A) (A) (A)
                 (A) (A) (A) (A) (A) (A) (A) (A) (A) (A) (A) (A)
                 (A) (A) (A) (A) (A) (A) (A) (A) (A) (A) (A) (A)
                 (A) (A) (A) (A) (A) (A) (A) (A) (A) (A) (A) (A)
                 (A) (A) (A) (A) (A) (A) (A) (A) (A) (A) (A) (A)
                 (A) (A) (A) (A) (A) (A) (A) (A) (A) (A) (A) (A)
                 (A) (A) (A) (A) (A) (A) (A) (A) (A) (A) (A) (A)
                 (A) (A) (A) (A) (A) (A) (A) (A) (A) (A) (A) (A)
                 (A) (A) (A) (A) (A) (A) (A) (A) (A) (A) (A) (A)
                 (A) (A) (A) (A) (A) (A) (A) (A) (A) (A) (A) (A)
                 (A) (A) (A) (A) (A) (A) (A) (A) (A) (A) (A) (A)
                 (A) (A) (A) (A) (A) (A) (A) (A) (A) (A) (A) (A)
                 (A) (A) (A) (A) (A) (A) (A) (A) (A) (A) (A) (A)
                 (A) (A) (A) (A) (A) (A) (A) (A) (A) (A) (A) (A)
                 (A) (A) (A) (A) (A) (A) (A) (A) (A) (A) (A) (A)
                 (A) (A) (A) (A) (A) (A) (A) (A) (A) (A) (A) (A)
                 (A) (A) (A) (A) (A) (A) (A) (A) (A) (A) (A) (A)
                 (A) (A) (A) (A) (A) (A) (A) (A) (A) (A) (A) (A)
                 (A) (A) (A) (A) (A) (A) (A) (A) (A) (A) (A) (A)
                 (A) (A) (A) (A) (A) (A) (A) (A) (A) (A) (A) (A)
                 (A) (A) (A) (A) (A) (A) (A) (A) (A) (A) (A) (A)
                 (A) (A) (A) (A) (A) (A) (A) (A) (A) (A) (A) (A)
                 (A) (A) (A) (A) (A) (A) (A) (A) (A) (A) (A) (A)
                 (A) (A) (A) (A) (A) (A) (A) (A) (A) (A) (A) (A)
                 (A) (A) (A) (A) (A) (A) (A) (A) (A) (A) (A) (A)
                 (A) (A) (A) (A) (A) (A) (A) (A) (A) (A) (A) (A)
                 (A) (A) (A) (A) (A) (A) (A) (A) (A) (A) (A) (A)
                 (A) (A) (A) (A) (A) (A) (A) (A) (A) (A) (A) (A)
                 (A) (A) (A) (A) (A) (A) (A) (A) (A) (A) (A) (A)
                 (A) (A) (A) (A) (A) (A) (A) (A) (A) (A) (A) (A)
                 (A) (A) (A) (A) (A) (A) (A) (A) (A) (A) (A) (A)
                 (A) (A) (A) (A) (A) (A) (A) (A) (A) (A) (A) (A)
                 (A) (A) (A) (A) (A) (A) (A) (A) (A) (A) (A) (A)
                 (A) (A) (A) (A) (A) (A) (A) (A) (A) (A) (A) (A)
                 (A) (A) (A) (A) (A) (A) (A) (A) (A) (A) (A) (A)
                 (A) (A) (A) (A) (A) (A) (A) (A) (A) (A) (A) (A)
                 (A) (A) (A) (A) (A) (A) (A) (A) (A) (A) (A) (A)
                 (A) (A) (A) (A) (A) (A) (A) (A) (A) (A) (A) (A)
                 (A) (A) (A) (A) (A) (A) (A) (A) (A) (A) (A) (A)
                 (A) (A) (A) (A) (A) (A) (A) (A) (A) (A) (A) (A)
                 (A) (A) (A) (A) (A) (A) (A) (A) (A) (A) (A) (A)
                 (A) (A) (A) (A) (A) (A) (A) (A) (A) (A) (A) (A)
                 (A) (A) (A) (A) (A) (A) (A) (A) (A) (A) (A) (A)
                 (A) (A) (A) (A) (A) (A) (A) (A) (A) (A) (A) (A)
                 (A) (A) (A) (A) (A) (A) (A) (A) (A) (A) (A) (A)
                 (A) (A) (A) (A) (A) (A) (A) (A) (A) (A) (A) (A)
                 (A) (A) (A) (A) (A) (A) (A) (A) (A) (A) (A) (A)
                 (A) (A) (A) (A) (A) (A) (A) (A) (A) (A) (A) (A)
                 (A) (A) (A) (A) (A) (A) (A) (A) (A) (A) (A) (A)
                 (A) (A) (A) (A) (A) (A) (A) (A) (A) (A) (A) (A)
                 (A) (A) (A) (A) (A) (A) (A) (A) (A) (A) (A) (A)
                 (A) (A) (A) (A) (A) (A) (A) (A) (A) (A) (A) (A)
                 (A) (A) (A) (A) (A) (A) (A) (A) (A) (A) (A) (A)
                 (A) (A) (A) (A) (A) (A) (A) (A) (A) (A) (A) (A)
                 (A) (A) (A) (A) (A) (A) (A) (A) (A) (A) (A) (A)
                 (A) (A) (A) (A) (A) (A) (A) (A) (A) (A) (A) (A)
                 (A) (A) (A) (A) (A) (A)
 The electronic state is 1-A.
 Alpha  occ. eigenvalues --  -46.84129 -19.26691 -19.26047 -19.20717 -19.19957
 Alpha  occ. eigenvalues --  -19.19715 -14.41826 -14.39195 -14.38886 -14.38153
 Alpha  occ. eigenvalues --  -10.38705 -10.38680 -10.35565 -10.34203 -10.32167
 Alpha  occ. eigenvalues --  -10.31929 -10.30970 -10.29678 -10.29483 -10.29374
 Alpha  occ. eigenvalues --  -10.29161 -10.29011 -10.28785 -10.28473 -10.28297
 Alpha  occ. eigenvalues --  -10.28104 -10.28088 -10.27993 -10.27822 -10.27811
 Alpha  occ. eigenvalues --  -10.27735 -10.27400 -10.27323 -10.27316 -10.27160
 Alpha  occ. eigenvalues --  -10.27159 -10.27033 -10.26989 -10.26964 -10.26960
 Alpha  occ. eigenvalues --  -10.26913 -10.26908 -10.26877 -10.26197 -10.26074
 Alpha  occ. eigenvalues --  -10.25855 -10.25834 -10.25793 -10.25606 -10.25527
 Alpha  occ. eigenvalues --  -10.25301 -10.25267 -10.25157 -10.25051 -10.25045
 Alpha  occ. eigenvalues --  -10.25005 -10.24786 -10.24741 -10.24689 -10.24353
 Alpha  occ. eigenvalues --  -10.24190 -10.24062 -10.24034 -10.23157 -10.21476
 Alpha  occ. eigenvalues --   -3.13151  -1.87864  -1.87393  -1.87319  -1.20336
 Alpha  occ. eigenvalues --   -1.18089  -1.12189  -1.09826  -1.06937  -1.06091
 Alpha  occ. eigenvalues --   -1.04880  -1.02509  -1.01526  -0.91858  -0.91512
 Alpha  occ. eigenvalues --   -0.91404  -0.90458  -0.90219  -0.90000  -0.89145
 Alpha  occ. eigenvalues --   -0.88855  -0.88652  -0.87611  -0.87097  -0.86466
 Alpha  occ. eigenvalues --   -0.85503  -0.84348  -0.83556  -0.83341  -0.81853
 Alpha  occ. eigenvalues --   -0.81489  -0.81219  -0.80554  -0.80197  -0.78450
 Alpha  occ. eigenvalues --   -0.76972  -0.76780  -0.76642  -0.76525  -0.76054
 Alpha  occ. eigenvalues --   -0.75856  -0.75131  -0.74194  -0.73390  -0.71695
 Alpha  occ. eigenvalues --   -0.71048  -0.70830  -0.70177  -0.69140  -0.67662
 Alpha  occ. eigenvalues --   -0.66946  -0.65646  -0.64915  -0.64672  -0.64579
 Alpha  occ. eigenvalues --   -0.63684  -0.63337  -0.62947  -0.62802  -0.61959
 Alpha  occ. eigenvalues --   -0.61758  -0.60380  -0.59987  -0.59523  -0.58996
 Alpha  occ. eigenvalues --   -0.58603  -0.57631  -0.57406  -0.57232  -0.56945
 Alpha  occ. eigenvalues --   -0.56120  -0.55885  -0.55577  -0.55396  -0.55104
 Alpha  occ. eigenvalues --   -0.54746  -0.54454  -0.53964  -0.53845  -0.53464
 Alpha  occ. eigenvalues --   -0.53311  -0.53164  -0.52654  -0.52035  -0.51983
 Alpha  occ. eigenvalues --   -0.51697  -0.51612  -0.51220  -0.51090  -0.50938
 Alpha  occ. eigenvalues --   -0.50783  -0.50443  -0.50350  -0.50020  -0.49550
 Alpha  occ. eigenvalues --   -0.49270  -0.49168  -0.48924  -0.48676  -0.48510
 Alpha  occ. eigenvalues --   -0.48333  -0.48034  -0.47690  -0.47588  -0.47338
 Alpha  occ. eigenvalues --   -0.47080  -0.46728  -0.46627  -0.46068  -0.45975
 Alpha  occ. eigenvalues --   -0.45600  -0.45234  -0.45163  -0.44988  -0.44641
 Alpha  occ. eigenvalues --   -0.44602  -0.44501  -0.44227  -0.44095  -0.44022
 Alpha  occ. eigenvalues --   -0.43780  -0.43578  -0.43508  -0.43350  -0.43115
 Alpha  occ. eigenvalues --   -0.42980  -0.42721  -0.42464  -0.42300  -0.42239
 Alpha  occ. eigenvalues --   -0.41956  -0.41755  -0.41527  -0.41206  -0.41098
 Alpha  occ. eigenvalues --   -0.40894  -0.40801  -0.40567  -0.40394  -0.40101
 Alpha  occ. eigenvalues --   -0.39808  -0.39789  -0.39707  -0.38933  -0.38767
 Alpha  occ. eigenvalues --   -0.38448  -0.38300  -0.38138  -0.37991  -0.37728
 Alpha  occ. eigenvalues --   -0.37078  -0.36998  -0.36813  -0.36785  -0.36243
 Alpha  occ. eigenvalues --   -0.36200  -0.36045  -0.36015  -0.35742  -0.35568
 Alpha  occ. eigenvalues --   -0.35255  -0.34692  -0.34535  -0.34191  -0.33489
 Alpha  occ. eigenvalues --   -0.32972  -0.32644  -0.32306  -0.30880  -0.30170
 Alpha  occ. eigenvalues --   -0.29973  -0.29580  -0.28004  -0.26784  -0.23476
 Alpha  occ. eigenvalues --   -0.19553
 Alpha virt. eigenvalues --   -0.04673  -0.03628   0.01789   0.04588   0.04834
 Alpha virt. eigenvalues --    0.05749   0.06403   0.06797   0.07330   0.07656
 Alpha virt. eigenvalues --    0.08746   0.10621   0.10890   0.11697   0.11880
 Alpha virt. eigenvalues --    0.12104   0.12161   0.12229   0.12252   0.12818
 Alpha virt. eigenvalues --    0.12858   0.13000   0.13217   0.13349   0.13806
 Alpha virt. eigenvalues --    0.14415   0.14541   0.14872   0.15216   0.15397
 Alpha virt. eigenvalues --    0.15533   0.15584   0.15950   0.16037   0.16268
 Alpha virt. eigenvalues --    0.16324   0.16413   0.16555   0.16927   0.17092
 Alpha virt. eigenvalues --    0.17125   0.17307   0.17505   0.18103   0.18132
 Alpha virt. eigenvalues --    0.18280   0.18479   0.18682   0.19004   0.19096
 Alpha virt. eigenvalues --    0.19285   0.19295   0.19423   0.19780   0.19964
 Alpha virt. eigenvalues --    0.20133   0.20261   0.20534   0.20589   0.20817
 Alpha virt. eigenvalues --    0.20986   0.21175   0.21199   0.21384   0.21577
 Alpha virt. eigenvalues --    0.22012   0.22058   0.22367   0.22426   0.22588
 Alpha virt. eigenvalues --    0.22757   0.23021   0.23052   0.23236   0.23332
 Alpha virt. eigenvalues --    0.23676   0.23752   0.23788   0.24003   0.24127
 Alpha virt. eigenvalues --    0.24645   0.24720   0.25025   0.25102   0.25713
 Alpha virt. eigenvalues --    0.25916   0.25983   0.26050   0.26209   0.26749
 Alpha virt. eigenvalues --    0.26950   0.27080   0.27254   0.27404   0.27496
 Alpha virt. eigenvalues --    0.27721   0.28015   0.28356   0.28422   0.28682
 Alpha virt. eigenvalues --    0.28808   0.28833   0.29080   0.29341   0.29834
 Alpha virt. eigenvalues --    0.30129   0.30212   0.30288   0.30432   0.30666
 Alpha virt. eigenvalues --    0.31104   0.31377   0.31530   0.31744   0.31773
 Alpha virt. eigenvalues --    0.32289   0.32457   0.32798   0.33364   0.33446
 Alpha virt. eigenvalues --    0.33466   0.33624   0.34170   0.34322   0.34850
 Alpha virt. eigenvalues --    0.35090   0.35527   0.36111   0.36180   0.36545
 Alpha virt. eigenvalues --    0.37144   0.37439   0.37890   0.38467   0.39256
 Alpha virt. eigenvalues --    0.39451   0.39748   0.39875   0.41024   0.41307
 Alpha virt. eigenvalues --    0.41973   0.42515   0.42837   0.43036   0.43092
 Alpha virt. eigenvalues --    0.44057   0.44342   0.44447   0.46175   0.46325
 Alpha virt. eigenvalues --    0.46632   0.47303   0.48389   0.49279   0.49891
 Alpha virt. eigenvalues --    0.50976   0.51233   0.51718   0.52012   0.52668
 Alpha virt. eigenvalues --    0.53375   0.53612   0.54290   0.54304   0.54570
 Alpha virt. eigenvalues --    0.54902   0.55179   0.55381   0.55569   0.55792
 Alpha virt. eigenvalues --    0.56060   0.56125   0.56547   0.56628   0.57333
 Alpha virt. eigenvalues --    0.57379   0.57842   0.58028   0.58089   0.58182
 Alpha virt. eigenvalues --    0.58476   0.58673   0.58777   0.58818   0.59160
 Alpha virt. eigenvalues --    0.59380   0.59562   0.59754   0.60095   0.60202
 Alpha virt. eigenvalues --    0.60368   0.60545   0.60996   0.61354   0.61556
 Alpha virt. eigenvalues --    0.61698   0.61912   0.62243   0.62375   0.62687
 Alpha virt. eigenvalues --    0.63207   0.63362   0.63628   0.63755   0.63971
 Alpha virt. eigenvalues --    0.64140   0.64839   0.65072   0.65213   0.65486
 Alpha virt. eigenvalues --    0.65548   0.65746   0.66447   0.66770   0.66979
 Alpha virt. eigenvalues --    0.67035   0.67373   0.67543   0.67969   0.68155
 Alpha virt. eigenvalues --    0.68254   0.68562   0.68569   0.68958   0.69126
 Alpha virt. eigenvalues --    0.69330   0.69621   0.70117   0.70275   0.70435
 Alpha virt. eigenvalues --    0.70734   0.71110   0.71287   0.72010   0.72084
 Alpha virt. eigenvalues --    0.72150   0.72274   0.72287   0.72802   0.73098
 Alpha virt. eigenvalues --    0.73206   0.73477   0.73636   0.73818   0.73998
 Alpha virt. eigenvalues --    0.74191   0.74637   0.74816   0.75219   0.75273
 Alpha virt. eigenvalues --    0.75588   0.76332   0.76485   0.76659   0.76774
 Alpha virt. eigenvalues --    0.76976   0.77290   0.77573   0.77738   0.78065
 Alpha virt. eigenvalues --    0.78255   0.78337   0.78572   0.78941   0.79075
 Alpha virt. eigenvalues --    0.79772   0.79914   0.80180   0.80580   0.81008
 Alpha virt. eigenvalues --    0.81208   0.81421   0.81471   0.81576   0.81774
 Alpha virt. eigenvalues --    0.81922   0.82441   0.82573   0.82656   0.82910
 Alpha virt. eigenvalues --    0.83028   0.83556   0.83608   0.84054   0.84288
 Alpha virt. eigenvalues --    0.84604   0.84857   0.85112   0.85280   0.85451
 Alpha virt. eigenvalues --    0.85517   0.85613   0.85773   0.86222   0.86335
 Alpha virt. eigenvalues --    0.86616   0.86836   0.86878   0.87219   0.87480
 Alpha virt. eigenvalues --    0.87852   0.88205   0.88262   0.88385   0.88505
 Alpha virt. eigenvalues --    0.88794   0.88906   0.89053   0.89284   0.89493
 Alpha virt. eigenvalues --    0.90029   0.90540   0.90724   0.90890   0.90914
 Alpha virt. eigenvalues --    0.91032   0.91603   0.91671   0.91825   0.91977
 Alpha virt. eigenvalues --    0.92109   0.92270   0.92332   0.92371   0.92600
 Alpha virt. eigenvalues --    0.92896   0.93059   0.93158   0.93288   0.93636
 Alpha virt. eigenvalues --    0.93700   0.93878   0.94162   0.94540   0.94689
 Alpha virt. eigenvalues --    0.94930   0.95126   0.95275   0.95429   0.95659
 Alpha virt. eigenvalues --    0.95802   0.96147   0.96241   0.96612   0.97187
 Alpha virt. eigenvalues --    0.97381   0.97404   0.97674   0.98093   0.98137
 Alpha virt. eigenvalues --    0.98299   0.98462   0.98638   0.98711   0.99052
 Alpha virt. eigenvalues --    0.99133   0.99144   0.99368   0.99641   1.00161
 Alpha virt. eigenvalues --    1.00224   1.00484   1.00814   1.00898   1.01160
 Alpha virt. eigenvalues --    1.01367   1.01675   1.02075   1.02115   1.02364
 Alpha virt. eigenvalues --    1.02429   1.02688   1.03292   1.03362   1.03716
 Alpha virt. eigenvalues --    1.03771   1.04345   1.04721   1.04956   1.04975
 Alpha virt. eigenvalues --    1.05393   1.05666   1.05830   1.05947   1.06279
 Alpha virt. eigenvalues --    1.06688   1.07139   1.07294   1.07638   1.07758
 Alpha virt. eigenvalues --    1.07784   1.08626   1.08985   1.09161   1.09259
 Alpha virt. eigenvalues --    1.09350   1.09744   1.10113   1.10651   1.10833
 Alpha virt. eigenvalues --    1.11202   1.12114   1.12716   1.13062   1.13274
 Alpha virt. eigenvalues --    1.13605   1.14156   1.14452   1.14674   1.15007
 Alpha virt. eigenvalues --    1.15344   1.16403   1.16463   1.17201   1.17931
 Alpha virt. eigenvalues --    1.18195   1.18265   1.18433   1.19417   1.20169
 Alpha virt. eigenvalues --    1.20778   1.21586   1.21800   1.22444   1.22512
 Alpha virt. eigenvalues --    1.23528   1.23689   1.23857   1.24518   1.25835
 Alpha virt. eigenvalues --    1.26159   1.26582   1.26974   1.27176   1.27589
 Alpha virt. eigenvalues --    1.28413   1.28594   1.29020   1.29356   1.30094
 Alpha virt. eigenvalues --    1.30725   1.31045   1.31615   1.32218   1.32577
 Alpha virt. eigenvalues --    1.33617   1.33938   1.34157   1.34771   1.35058
 Alpha virt. eigenvalues --    1.36265   1.36428   1.37294   1.37723   1.38328
 Alpha virt. eigenvalues --    1.38834   1.39640   1.40150   1.40798   1.41331
 Alpha virt. eigenvalues --    1.41701   1.41923   1.42174   1.42477   1.43081
 Alpha virt. eigenvalues --    1.43291   1.43535   1.44220   1.44729   1.45140
 Alpha virt. eigenvalues --    1.45542   1.46542   1.46950   1.47682   1.47931
 Alpha virt. eigenvalues --    1.48419   1.49027   1.49530   1.50066   1.50583
 Alpha virt. eigenvalues --    1.51306   1.51940   1.52190   1.52549   1.53214
 Alpha virt. eigenvalues --    1.53697   1.54221   1.54510   1.54592   1.55039
 Alpha virt. eigenvalues --    1.55470   1.55872   1.56359   1.56898   1.58238
 Alpha virt. eigenvalues --    1.58775   1.59171   1.59483   1.59631   1.60187
 Alpha virt. eigenvalues --    1.60207   1.60779   1.61006   1.61308   1.62289
 Alpha virt. eigenvalues --    1.62508   1.62786   1.63381   1.63767   1.64330
 Alpha virt. eigenvalues --    1.64616   1.64762   1.65307   1.65629   1.66183
 Alpha virt. eigenvalues --    1.66544   1.66814   1.67726   1.67891   1.68320
 Alpha virt. eigenvalues --    1.68665   1.68949   1.69067   1.69516   1.69769
 Alpha virt. eigenvalues --    1.69845   1.70734   1.71244   1.71868   1.71901
 Alpha virt. eigenvalues --    1.71995   1.72798   1.73086   1.73652   1.73846
 Alpha virt. eigenvalues --    1.74375   1.74390   1.74685   1.75393   1.75472
 Alpha virt. eigenvalues --    1.76165   1.76321   1.77027   1.77381   1.77693
 Alpha virt. eigenvalues --    1.77830   1.78922   1.78969   1.80034   1.80262
 Alpha virt. eigenvalues --    1.80551   1.80797   1.81293   1.82106   1.82499
 Alpha virt. eigenvalues --    1.83529   1.83562   1.83724   1.84157   1.84845
 Alpha virt. eigenvalues --    1.85195   1.85428   1.85847   1.86026   1.86475
 Alpha virt. eigenvalues --    1.86589   1.86709   1.86869   1.87274   1.88019
 Alpha virt. eigenvalues --    1.88103   1.88175   1.88764   1.89066   1.89264
 Alpha virt. eigenvalues --    1.89362   1.89489   1.89815   1.89905   1.90401
 Alpha virt. eigenvalues --    1.90655   1.91143   1.91275   1.91542   1.91835
 Alpha virt. eigenvalues --    1.92117   1.92127   1.92555   1.92799   1.93050
 Alpha virt. eigenvalues --    1.93083   1.93655   1.93814   1.94078   1.94482
 Alpha virt. eigenvalues --    1.94755   1.94847   1.94922   1.95102   1.95360
 Alpha virt. eigenvalues --    1.95451   1.95917   1.96093   1.96443   1.96548
 Alpha virt. eigenvalues --    1.96691   1.96870   1.97219   1.97349   1.97626
 Alpha virt. eigenvalues --    1.97934   1.98471   1.98725   1.99015   1.99301
 Alpha virt. eigenvalues --    1.99345   1.99455   1.99783   2.00238   2.00260
 Alpha virt. eigenvalues --    2.00371   2.00925   2.01257   2.01379   2.01489
 Alpha virt. eigenvalues --    2.01666   2.01921   2.02424   2.03059   2.03531
 Alpha virt. eigenvalues --    2.03610   2.04052   2.04264   2.04405   2.04898
 Alpha virt. eigenvalues --    2.05219   2.05497   2.05586   2.05866   2.06026
 Alpha virt. eigenvalues --    2.06638   2.06888   2.06971   2.07289   2.07951
 Alpha virt. eigenvalues --    2.08311   2.08409   2.08815   2.09225   2.09412
 Alpha virt. eigenvalues --    2.09614   2.09679   2.10117   2.10471   2.10531
 Alpha virt. eigenvalues --    2.10859   2.10965   2.11002   2.11178   2.11456
 Alpha virt. eigenvalues --    2.11556   2.11617   2.12062   2.12145   2.12506
 Alpha virt. eigenvalues --    2.12759   2.13034   2.13097   2.13351   2.13483
 Alpha virt. eigenvalues --    2.13810   2.14863   2.14937   2.15026   2.15272
 Alpha virt. eigenvalues --    2.15484   2.16421   2.16534   2.17236   2.17569
 Alpha virt. eigenvalues --    2.17654   2.18093   2.18741   2.18981   2.19490
 Alpha virt. eigenvalues --    2.19698   2.20000   2.20072   2.20233   2.20794
 Alpha virt. eigenvalues --    2.21201   2.21606   2.21921   2.22277   2.22400
 Alpha virt. eigenvalues --    2.22689   2.22818   2.23815   2.24144   2.24556
 Alpha virt. eigenvalues --    2.24606   2.24828   2.25072   2.25347   2.26101
 Alpha virt. eigenvalues --    2.26332   2.26955   2.27046   2.27493   2.27823
 Alpha virt. eigenvalues --    2.28272   2.28701   2.28859   2.29533   2.29650
 Alpha virt. eigenvalues --    2.30160   2.30346   2.31403   2.31517   2.31934
 Alpha virt. eigenvalues --    2.32083   2.32260   2.32763   2.32895   2.33812
 Alpha virt. eigenvalues --    2.33987   2.34106   2.34687   2.35062   2.35436
 Alpha virt. eigenvalues --    2.35612   2.35809   2.36027   2.36176   2.36371
 Alpha virt. eigenvalues --    2.36493   2.36759   2.37563   2.37838   2.38212
 Alpha virt. eigenvalues --    2.38397   2.38742   2.39211   2.39281   2.39760
 Alpha virt. eigenvalues --    2.39934   2.40874   2.41167   2.41507   2.41809
 Alpha virt. eigenvalues --    2.42011   2.42445   2.42730   2.42815   2.43032
 Alpha virt. eigenvalues --    2.43488   2.44046   2.44226   2.44621   2.44720
 Alpha virt. eigenvalues --    2.45218   2.45299   2.45527   2.45865   2.45930
 Alpha virt. eigenvalues --    2.46485   2.46906   2.47386   2.47660   2.47823
 Alpha virt. eigenvalues --    2.48061   2.48315   2.48959   2.49154   2.49437
 Alpha virt. eigenvalues --    2.50025   2.50213   2.50397   2.50587   2.51002
 Alpha virt. eigenvalues --    2.51105   2.51393   2.51860   2.51985   2.52233
 Alpha virt. eigenvalues --    2.52499   2.53151   2.53512   2.53852   2.53895
 Alpha virt. eigenvalues --    2.54475   2.54976   2.55139   2.55503   2.56083
 Alpha virt. eigenvalues --    2.56189   2.56275   2.56706   2.56791   2.57326
 Alpha virt. eigenvalues --    2.57991   2.58029   2.58385   2.58967   2.59247
 Alpha virt. eigenvalues --    2.59394   2.59658   2.60060   2.60483   2.60574
 Alpha virt. eigenvalues --    2.60846   2.61553   2.61854   2.62403   2.62905
 Alpha virt. eigenvalues --    2.63310   2.63597   2.63762   2.64229   2.64356
 Alpha virt. eigenvalues --    2.64629   2.64781   2.65156   2.65735   2.65946
 Alpha virt. eigenvalues --    2.66202   2.66549   2.67292   2.67579   2.67690
 Alpha virt. eigenvalues --    2.67843   2.68440   2.68911   2.69002   2.69500
 Alpha virt. eigenvalues --    2.70182   2.70585   2.70910   2.71442   2.71551
 Alpha virt. eigenvalues --    2.72116   2.72523   2.72561   2.72882   2.73158
 Alpha virt. eigenvalues --    2.73502   2.73627   2.74158   2.74346   2.74679
 Alpha virt. eigenvalues --    2.75100   2.75502   2.75797   2.75878   2.76764
 Alpha virt. eigenvalues --    2.76861   2.77405   2.77617   2.78138   2.78487
 Alpha virt. eigenvalues --    2.78934   2.79218   2.79275   2.79453   2.79686
 Alpha virt. eigenvalues --    2.80067   2.80358   2.80731   2.80821   2.80941
 Alpha virt. eigenvalues --    2.81464   2.81871   2.82168   2.82352   2.82799
 Alpha virt. eigenvalues --    2.82848   2.83450   2.83688   2.83834   2.84393
 Alpha virt. eigenvalues --    2.84467   2.84814   2.84863   2.85096   2.86046
 Alpha virt. eigenvalues --    2.86343   2.86527   2.86625   2.87284   2.87621
 Alpha virt. eigenvalues --    2.88307   2.88903   2.89322   2.89613   2.90087
 Alpha virt. eigenvalues --    2.90328   2.90783   2.91489   2.92107   2.92567
 Alpha virt. eigenvalues --    2.92883   2.93105   2.93321   2.93854   2.94229
 Alpha virt. eigenvalues --    2.94373   2.94833   2.95210   2.95818   2.96193
 Alpha virt. eigenvalues --    2.96426   2.97066   2.97630   2.97933   2.98212
 Alpha virt. eigenvalues --    2.99071   2.99345   2.99407   3.00079   3.00207
 Alpha virt. eigenvalues --    3.00428   3.00672   3.01085   3.01875   3.02710
 Alpha virt. eigenvalues --    3.03255   3.03585   3.03796   3.04263   3.04465
 Alpha virt. eigenvalues --    3.04540   3.05188   3.05983   3.06069   3.06321
 Alpha virt. eigenvalues --    3.06719   3.07362   3.07567   3.07748   3.08815
 Alpha virt. eigenvalues --    3.09233   3.10367   3.10970   3.11541   3.11747
 Alpha virt. eigenvalues --    3.12435   3.14132   3.14310   3.14600   3.14832
 Alpha virt. eigenvalues --    3.15341   3.16899   3.17182   3.18617   3.19556
 Alpha virt. eigenvalues --    3.21218   3.21575   3.22066   3.22593   3.22909
 Alpha virt. eigenvalues --    3.23698   3.24044   3.24294   3.24331   3.25832
 Alpha virt. eigenvalues --    3.26957   3.28551   3.28800   3.28894   3.30019
 Alpha virt. eigenvalues --    3.30055   3.30412   3.30640   3.32084   3.32364
 Alpha virt. eigenvalues --    3.32820   3.33019   3.33730   3.34337   3.34843
 Alpha virt. eigenvalues --    3.35265   3.35669   3.36131   3.37067   3.37089
 Alpha virt. eigenvalues --    3.38813   3.39846   3.40026   3.40671   3.41535
 Alpha virt. eigenvalues --    3.41820   3.42263   3.42689   3.42782   3.43478
 Alpha virt. eigenvalues --    3.45068   3.45404   3.46366   3.46789   3.47469
 Alpha virt. eigenvalues --    3.47820   3.48717   3.49955   3.50472   3.50865
 Alpha virt. eigenvalues --    3.50987   3.51505   3.51844   3.53312   3.54095
 Alpha virt. eigenvalues --    3.55425   3.57641   3.58171   3.59777   3.60276
 Alpha virt. eigenvalues --    3.60831   3.61520   3.62423   3.64033   3.65659
 Alpha virt. eigenvalues --    3.65786   3.66348   3.69286   3.70542   3.70551
 Alpha virt. eigenvalues --    3.71066   3.71404   3.72514   3.74771   3.77436
 Alpha virt. eigenvalues --    3.81168   3.81511   3.84874   4.08601   4.09301
 Alpha virt. eigenvalues --    4.14625   4.16050   4.20957   4.22246   4.23866
 Alpha virt. eigenvalues --    4.24833   4.25327   4.25750   4.26865   4.28980
 Alpha virt. eigenvalues --    4.29681   4.30316   4.31680   4.32820   4.34143
 Alpha virt. eigenvalues --    4.35580   4.36444   4.39142   4.40011   4.40731
 Alpha virt. eigenvalues --    4.42409   4.43479   4.43845   4.45857   4.47186
 Alpha virt. eigenvalues --    4.47404   4.48375   4.48828   4.50984   4.51275
 Alpha virt. eigenvalues --    4.51448   4.52602   4.53978   4.54401   4.56558
 Alpha virt. eigenvalues --    4.57221   4.57558   4.58488   4.60869   4.61689
 Alpha virt. eigenvalues --    4.64687   4.64792   4.65085   4.65959   4.68597
 Alpha virt. eigenvalues --    4.69396   4.71673   4.72273   4.73577   4.74009
 Alpha virt. eigenvalues --    4.75677   4.76038   4.77171   4.81591   4.81846
 Alpha virt. eigenvalues --    4.86059   4.87283   4.88119   4.90380   4.90772
 Alpha virt. eigenvalues --    4.91365   4.97339   5.02066
          Condensed to atoms (all electrons):
 Mulliken charges:
               1
     1  Mg   0.812963
     2  C    0.046376
     3  C   -0.208839
     4  C   -0.146914
     5  C   -0.244394
     6  N   -0.608295
     7  C    0.255538
     8  C   -0.127309
     9  C   -0.205402
    10  C    0.321498
    11  C   -0.304291
    12  C   -0.142065
    13  C   -0.251934
    14  C    0.598809
    15  O   -0.510250
    16  O   -0.465512
    17  N   -0.703491
    18  C    0.287559
    19  C    0.091232
    20  C    0.053694
    21  C    0.248312
    22  C   -0.390387
    23  C   -0.094999
    24  C   -0.252212
    25  N   -0.694967
    26  C    0.336928
    27  C   -0.008812
    28  C    0.067289
    29  C    0.259793
    30  C   -0.347545
    31  C   -0.259933
    32  C   -0.294244
    33  N   -0.746706
    34  C    0.316017
    35  C    0.010639
    36  C   -0.012373
    37  C    0.352637
    38  C   -0.354709
    39  C    0.376516
    40  O   -0.445594
    41  C   -0.310782
    42  C    0.624160
    43  O   -0.477697
    44  O   -0.429621
    45  C   -0.087505
    46  C   -0.007357
    47  C   -0.117012
    48  C    0.084607
    49  C   -0.338067
    50  C   -0.220272
    51  C   -0.170063
    52  C   -0.161757
    53  C   -0.107432
    54  C   -0.286177
    55  C   -0.157314
    56  C   -0.174169
    57  C   -0.154841
    58  C   -0.062238
    59  C   -0.314278
    60  C   -0.159042
    61  C   -0.195925
    62  C   -0.132901
    63  C   -0.086590
    64  C   -0.314968
    65  C   -0.295069
    66  H    0.099273
    67  H    0.071111
    68  H    0.081243
    69  H    0.146069
    70  H    0.092830
    71  H    0.104689
    72  H    0.120876
    73  H    0.117297
    74  H    0.099227
    75  H    0.120054
    76  H    0.122505
    77  H    0.130088
    78  H    0.101376
    79  H    0.121062
    80  H    0.095386
    81  H    0.115219
    82  H    0.101787
    83  H    0.091959
    84  H    0.098361
    85  H    0.109383
    86  H    0.082539
    87  H    0.070380
    88  H    0.118986
    89  H    0.118283
    90  H    0.090725
    91  H    0.127091
    92  H    0.136559
    93  H    0.135828
    94  H    0.132320
    95  H    0.155664
    96  H    0.137073
    97  H    0.151223
    98  H    0.118481
    99  H    0.143596
   100  H    0.146102
   101  H    0.096339
   102  H    0.093962
   103  H    0.130478
   104  H    0.137331
   105  H    0.083788
   106  H    0.107873
   107  H    0.090352
   108  H    0.105003
   109  H    0.095931
   110  H    0.061366
   111  H    0.062324
   112  H    0.099770
   113  H    0.090184
   114  H    0.094664
   115  H    0.102881
   116  H    0.068536
   117  H    0.091384
   118  H    0.066057
   119  H    0.085106
   120  H    0.106329
   121  H    0.071991
   122  H    0.111798
   123  H    0.086746
   124  H    0.101804
   125  H    0.096625
   126  H    0.095359
   127  H    0.077576
   128  H    0.083491
   129  H    0.088974
   130  H    0.091932
   131  H    0.082258
   132  H    0.095779
   133  H    0.098533
   134  H    0.113197
   135  H    0.085331
   136  H    0.076915
   137  H    0.105071
 Sum of Mulliken charges =   0.00000
 Mulliken charges with hydrogens summed into heavy atoms:
               1
     1  Mg   0.812963
     2  C    0.046376
     3  C   -0.109566
     4  C   -0.075803
     5  C   -0.163151
     6  N   -0.608295
     7  C    0.255538
     8  C    0.018760
     9  C   -0.112572
    10  C    0.321498
    11  C    0.038571
    12  C    0.077217
    13  C    0.000659
    14  C    0.598809
    15  O   -0.510250
    16  O   -0.465512
    17  N   -0.703491
    18  C    0.287559
    19  C    0.091232
    20  C    0.053694
    21  C    0.248312
    22  C   -0.072563
    23  C    0.020220
    24  C   -0.058466
    25  N   -0.694967
    26  C    0.336928
    27  C   -0.008812
    28  C    0.067289
    29  C    0.259793
    30  C   -0.057262
    31  C   -0.070567
    32  C    0.041856
    33  N   -0.746706
    34  C    0.316017
    35  C    0.010639
    36  C   -0.012373
    37  C    0.352637
    38  C    0.049998
    39  C    0.376516
    40  O   -0.445594
    41  C   -0.155118
    42  C    0.624160
    43  O   -0.477697
    44  O   -0.429621
    45  C    0.319272
    46  C    0.282341
    47  C   -0.020673
    48  C    0.084607
    49  C    0.023704
    50  C   -0.028611
    51  C    0.025293
    52  C   -0.004460
    53  C   -0.045108
    54  C   -0.001559
    55  C    0.014104
    56  C   -0.016728
    57  C    0.036594
    58  C    0.009753
    59  C   -0.013930
    60  C    0.032942
    61  C   -0.034859
    62  C    0.048005
    63  C   -0.004332
    64  C   -0.007460
    65  C   -0.027751
 Electronic spatial extent (au):  <R**2>=         178558.2164
 Charge=              0.0000 electrons
 Dipole moment (field-independent basis, Debye):
    X=              4.2619    Y=              2.3314    Z=              0.8579  Tot=              4.9330
 Quadrupole moment (field-independent basis, Debye-Ang):
   XX=           -367.8964   YY=           -388.0768   ZZ=           -400.3417
   XY=             -7.6375   XZ=             12.8223   YZ=             -4.5489
 Traceless Quadrupole moment (field-independent basis, Debye-Ang):
   XX=             17.5419   YY=             -2.6385   ZZ=            -14.9034
   XY=             -7.6375   XZ=             12.8223   YZ=             -4.5489
 Octapole moment (field-independent basis, Debye-Ang**2):
  XXX=           -126.7625  YYY=             80.4121  ZZZ=             21.6012  XYY=            -57.6538
  XXY=            -37.8317  XXZ=            -73.8999  XZZ=             -7.0672  YZZ=            -42.6886
  YYZ=             46.7544  XYZ=            -51.8931
 Hexadecapole moment (field-independent basis, Debye-Ang**3):
 XXXX=        -224480.4599 YYYY=         -17477.8716 ZZZZ=          -4246.1904 XXXY=            -37.0119
 XXXZ=           2483.5246 YYYX=           -791.3977 YYYZ=           -137.6704 ZZZX=            -68.2376
 ZZZY=           -166.8147 XXYY=         -39897.4292 XXZZ=         -39064.9818 YYZZ=          -3389.8015
 XXYZ=           -191.8678 YYXZ=             95.7825 ZZXY=            121.6505
 N-N= 8.771040594816D+03 E-N=-2.436562886627D+04  KE= 2.906413338781D+03
 1\1\GINC-PEDRO-RYZENSSD\SP\RCAM-B3LYP TD-FC\6-31G(d,p)\C55H72Mg1N4O5\P
 ADAWAN\07-Jul-2019\0\\# td=(NStates=1) CAM-B3LYP/6-31G(d,p)\\TD\\0,1\M
 g,0,-7.1188824612,0.5586446126,0.1905667441\C,0,-4.9600506231,-1.89171
 03494,0.5436708998\C,0,-4.7940093298,3.0198104283,1.2376101259\C,0,-9.
 4578705226,3.0281583113,-0.3567185316\C,0,-9.4365239661,-1.7819537064,
 -0.7971561447\N,0,-5.0202554501,0.4980996281,0.7296933876\C,0,-4.35845
 55517,-0.6342232443,0.8105490781\C,0,-2.8524842538,-0.3937187976,1.156
 8060348\C,0,-3.0017836168,1.0556582341,1.5973204627\C,0,-4.4179087858,
 1.5638471335,1.2291799479\C,0,-3.043809463,1.268269115,3.1292243313\C,
 0,-1.8866421252,-0.6701222736,0.0416481231\C,0,-0.4490823308,-0.431507
 4979,0.430457175\C,0,0.5490160388,-0.6353470476,-0.7115965402\O,0,0.24
 56058007,-0.9918445921,-1.86658299\O,0,1.7872805386,-0.4936667631,-0.3
 099777867\N,0,-7.0960300509,2.6018157714,0.3279314886\C,0,-6.021431422
 1,3.4578767635,0.7248560192\C,0,-6.4807453276,4.812865576,0.7197326605
 \C,0,-7.6947521822,4.8637670082,0.3740257939\C,0,-8.1472990015,3.43443
 26386,0.0977523215\C,0,-5.5769656533,5.8435368196,1.0966744279\C,0,-8.
 6025780554,5.922513285,0.0832553109\C,0,-8.4212860199,7.1165677754,0.7
 134875986\N,0,-9.0868109537,0.6365165128,-0.4383278665\C,0,-9.81540780
 05,1.7718771408,-0.6861749416\C,0,-11.1152406207,1.407139053,-1.099751
 6947\C,0,-11.2156139653,0.0173570998,-1.2318619002\C,0,-9.8955252332,-
 0.4095329276,-0.8331683329\C,0,-12.2519540191,2.4402245935,-1.38424519
 93\C,0,-12.2892334696,-0.7953169418,-1.6651873272\C,0,-12.4615236408,-
 1.0961220234,-3.2452496436\N,0,-7.1960190702,-1.4067902926,-0.15612028
 9\C,0,-8.2686971095,-2.2801631884,-0.531178073\C,0,-7.7878549311,-3.65
 93442019,-0.494286706\C,0,-6.4743413182,-3.559610298,-0.2141031422\C,0
 ,-6.2055031467,-2.1808163629,0.0637091751\C,0,-8.5558930567,-4.8506079
 032,-0.9084893273\C,0,-5.2469791682,-4.3234462281,0.2553984124\O,0,-5.
 0865574936,-5.51306579,0.3040474354\C,0,-4.127146294,-3.2961754073,0.5
 587457399\C,0,-3.4376643973,-3.6371889402,1.8554459175\O,0,-3.66460806
 14,-3.0548722234,2.8683595171\O,0,-2.619083102,-4.6258373061,1.7780563
 865\C,0,-2.10032062,-5.1925434834,3.0278677223\C,0,2.8340559173,-0.674
 3252271,-1.3640176022\C,0,4.0910011891,-0.3207802543,-0.5541155606\C,0
 ,5.1453080152,0.4887251379,-0.9537651492\C,0,5.0635347765,1.4882214714
 ,-2.2440785732\C,0,6.3596502978,0.4310449547,-0.1100074859\C,0,7.58722
 62605,-0.0581461615,-0.8655535059\C,0,8.8001918918,-0.1356486953,-0.04
 23660494\C,0,10.143464971,-0.6176288346,-0.7763886094\C,0,10.032699970
 2,-2.0201529514,-1.2780212671\C,0,11.4602889058,-0.4124150223,0.056196
 4882\C,0,12.785433451,-0.6250265538,-0.6411841413\C,0,13.9758070491,-0
 .2756687697,0.2129383613\C,0,15.3316592908,-0.2011938485,-0.5560838482
 \C,0,15.7459562645,-1.639531587,-0.8621858363\C,0,16.3265567616,0.4508
 694469,0.3785023574\C,0,17.716386228,0.4364250409,-0.1487206867\C,0,18
 .6757579453,1.2126294799,0.7471851515\C,0,20.0820668759,1.347685102,0.
 2598107443\C,0,20.1968410379,2.1259308903,-1.1265336461\C,0,21.0304739
 782,1.9238953258,1.3343387973\H,0,-3.9548769722,3.7763131527,1.2939839
 853\H,0,-9.9999803907,3.8813189669,-0.6037657681\H,0,-10.3005433437,-2
 .5696063014,-0.9696036126\H,0,-2.8908155385,-0.9377820921,2.1321239036
 \H,0,-2.1662602312,1.7727308557,1.3877694273\H,0,-2.0289073482,1.15707
 61605,3.3989436079\H,0,-3.4234474047,2.2528593434,3.2558377492\H,0,-3.
 6498784305,0.4104657306,3.5701294257\H,0,-2.0195044353,-1.8254325037,-
 0.3689308023\H,0,-2.2644381163,0.0929365441,-0.6949595356\H,0,-0.41738
 52559,0.6722818421,0.8416445636\H,0,-0.126600462,-1.2930938246,1.16519
 04742\H,0,-5.7782466001,6.7571643605,0.2963853477\H,0,-5.5536423536,6.
 2101743805,2.2001163087\H,0,-4.5145854145,5.4941505815,0.7912322988\H,
 0,-9.4108131338,5.8870648546,-0.7258928175\H,0,-9.0377849944,8.0634370
 826,0.6362532471\H,0,-7.6717766435,7.2615925588,1.6846468502\H,0,-11.9
 060247076,3.4346337894,-2.0177647812\H,0,-13.0992395932,2.0072646177,-
 2.038175009\H,0,-12.7303247636,2.7832669814,-0.1986711111\H,0,-12.2834
 231207,-1.9538548306,-1.2492098759\H,0,-12.9868374026,-0.1849252293,-1
 .2486903965\H,0,-13.2029466473,-1.7005847447,-3.3561655011\H,0,-12.310
 8646507,0.0436798304,-3.5814316389\H,0,-11.5454208214,-1.3566905362,-3
 .5887474947\H,0,-9.0242220252,-4.5923099739,-1.8395872228\H,0,-7.92472
 1837,-5.878427847,-1.0223218452\H,0,-9.2206319481,-4.8518702083,0.0082
 089983\H,0,-3.4469453904,-3.4270359543,-0.4363089024\H,0,-1.3749056571
 ,-4.5110875485,3.4800109164\H,0,-3.0181114197,-5.4656781854,3.71358419
 73\H,0,-1.2520533168,-5.9606653397,2.571151068\H,0,2.7914684509,-1.664
 7183077,-1.5430482698\H,0,2.4454220198,-0.0706227827,-2.2198651387\H,0
 ,4.3201729229,-1.0449667119,0.1199352095\H,0,3.965025466,1.0511938298,
 -2.5756759373\H,0,5.2000654182,2.5418544443,-2.0066071289\H,0,5.803847
 6924,1.1265437619,-2.8701957506\H,0,6.5685589188,1.5320172017,0.329255
 5684\H,0,6.3478289023,-0.2888969271,0.729502667\H,0,7.4388112658,-1.09
 33885741,-1.3688382074\H,0,7.7499974356,0.5668998981,-1.6747804016\H,0
 ,9.1017822298,0.7521631013,0.404228055\H,0,8.8896974584,-0.9326387701,
 0.856303494\H,0,10.3018277342,0.1115836961,-1.6239572852\H,0,9.2257975
 653,-2.3487728538,-1.9516110859\H,0,11.0199545512,-2.2127480587,-1.880
 5823021\H,0,9.9947323592,-2.584870429,-0.3457240121\H,0,11.2932570066,
 0.557928023,0.3114126288\H,0,11.1920822616,-1.0970656679,0.9468853101\
 H,0,13.0044137603,-1.7216303242,-0.866574325\H,0,12.5227760301,-0.0496
 042694,-1.7091742787\H,0,13.913352772,0.8049430503,0.4394912921\H,0,13
 .8989826514,-0.8500846132,1.0015966762\H,0,15.215334822,0.4444739324,-
 1.558500208\H,0,16.0047779207,-2.2531856107,-0.097481202\H,0,14.854618
 5126,-2.1229446701,-1.4603434494\H,0,16.7091005395,-1.6877242973,-1.37
 55990294\H,0,16.1242076215,1.4153393676,0.7769842427\H,0,16.3141658638
 ,-0.1923784129,1.2435271139\H,0,18.3140423429,-0.5647730247,-0.1148348
 239\H,0,17.8064877133,0.8101283317,-1.2089444702\H,0,18.4049112837,2.0
 757317309,0.7345114564\H,0,18.7821253728,0.7685910401,1.668616862\H,0,
 20.477752688,0.3798841366,0.0142584898\H,0,19.9615302596,3.1446480267,
 -0.8803216256\H,0,21.2822624783,2.1135980126,-1.351926556\H,0,19.60018
 39228,1.8101928301,-1.827919761\H,0,20.8118971649,1.3989680059,2.37925
 7543\H,0,22.2259943057,1.6754287726,1.0345184181\H,0,20.8074504749,2.9
 981899023,1.444224863\\Version=ES64L-G09RevD.01\State=1-A\HF=-2932.543
 747\RMSD=5.611e-09\PG=C01 [X(C55H72Mg1N4O5)]\\@


 Time has a wonderful way of weeding out the trivial.
                                -- Richard Ben Sapir
 Job cpu time:       0 days  5 hours 41 minutes 16.0 seconds.
 File lengths (MBytes):  RWF=   2106 Int=      0 D2E=      0 Chk=    163 Scr=      1
 Normal termination of Gaussian 09 at Sun Jul  7 03:58:56 2019.
>>>>>>> 8e03b5b5abfc0030b3aa597dc0de36371bfbd096
