 Entering Gaussian System, Link 0=g16
 Input=Geometria-176-.com
 Output=Geometria-176-.log
 Initial command:
 /usr/local/g16/l1.exe "/home/padawan/israel-mol/chlorophyll-a/spectra/emi/Gau-9826.inp" -scrdir="/home/padawan/israel-mol/chlorophyll-a/spectra/emi/"
 Entering Link 1 = /usr/local/g16/l1.exe PID=      9828.
  
 Copyright (c) 1988,1990,1992,1993,1995,1998,2003,2009,2016,
            Gaussian, Inc.  All Rights Reserved.
  
 This is part of the Gaussian(R) 16 program.  It is based on
 the Gaussian(R) 09 system (copyright 2009, Gaussian, Inc.),
 the Gaussian(R) 03 system (copyright 2003, Gaussian, Inc.),
 the Gaussian(R) 98 system (copyright 1998, Gaussian, Inc.),
 the Gaussian(R) 94 system (copyright 1995, Gaussian, Inc.),
 the Gaussian 92(TM) system (copyright 1992, Gaussian, Inc.),
 the Gaussian 90(TM) system (copyright 1990, Gaussian, Inc.),
 the Gaussian 88(TM) system (copyright 1988, Gaussian, Inc.),
 the Gaussian 86(TM) system (copyright 1986, Carnegie Mellon
 University), and the Gaussian 82(TM) system (copyright 1983,
 Carnegie Mellon University). Gaussian is a federally registered
 trademark of Gaussian, Inc.
  
 This software contains proprietary and confidential information,
 including trade secrets, belonging to Gaussian, Inc.
  
 This software is provided under written license and may be
 used, copied, transmitted, or stored only in accord with that
 written license.
  
 The following legend is applicable only to US Government
 contracts under FAR:
  
                    RESTRICTED RIGHTS LEGEND
  
 Use, reproduction and disclosure by the US Government is
 subject to restrictions as set forth in subparagraphs (a)
 and (c) of the Commercial Computer Software - Restricted
 Rights clause in FAR 52.227-19.
  
 Gaussian, Inc.
 340 Quinnipiac St., Bldg. 40, Wallingford CT 06492
  
  
 ---------------------------------------------------------------
 Warning -- This program may not be used in any manner that
 competes with the business of Gaussian, Inc. or will provide
 assistance to any competitor of Gaussian, Inc.  The licensee
 of this program is prohibited from giving any competitor of
 Gaussian, Inc. access to this program.  By using this program,
 the user acknowledges that Gaussian, Inc. is engaged in the
 business of creating and licensing software in the field of
 computational chemistry and represents and warrants to the
 licensee that it is not a competitor of Gaussian, Inc. and that
 it will not use this program in any manner prohibited above.
 ---------------------------------------------------------------
  

 Cite this work as:
 Gaussian 16, Revision A.03,
 M. J. Frisch, G. W. Trucks, H. B. Schlegel, G. E. Scuseria, 
 M. A. Robb, J. R. Cheeseman, G. Scalmani, V. Barone, 
 G. A. Petersson, H. Nakatsuji, X. Li, M. Caricato, A. V. Marenich, 
 J. Bloino, B. G. Janesko, R. Gomperts, B. Mennucci, H. P. Hratchian, 
 J. V. Ortiz, A. F. Izmaylov, J. L. Sonnenberg, D. Williams-Young, 
 F. Ding, F. Lipparini, F. Egidi, J. Goings, B. Peng, A. Petrone, 
 T. Henderson, D. Ranasinghe, V. G. Zakrzewski, J. Gao, N. Rega, 
 G. Zheng, W. Liang, M. Hada, M. Ehara, K. Toyota, R. Fukuda, 
 J. Hasegawa, M. Ishida, T. Nakajima, Y. Honda, O. Kitao, H. Nakai, 
 T. Vreven, K. Throssell, J. A. Montgomery, Jr., J. E. Peralta, 
 F. Ogliaro, M. J. Bearpark, J. J. Heyd, E. N. Brothers, K. N. Kudin, 
 V. N. Staroverov, T. A. Keith, R. Kobayashi, J. Normand, 
 K. Raghavachari, A. P. Rendell, J. C. Burant, S. S. Iyengar, 
 J. Tomasi, M. Cossi, J. M. Millam, M. Klene, C. Adamo, R. Cammi, 
 J. W. Ochterski, R. L. Martin, K. Morokuma, O. Farkas, 
 J. B. Foresman, and D. J. Fox, Gaussian, Inc., Wallingford CT, 2016.
 
 ******************************************
 Gaussian 16:  ES64L-G16RevA.03 25-Dec-2016
                10-Sep-2019 
 ******************************************
 %nproc=4
 Will use up to    4 processors via shared memory.
 %Mem=3GB
 ----------------------------------------------------------------------
 # td=(NStates=1) iop(3/107=0140000000,3/108=0140000000) CAM-B3LYP/6-31
 G(d,p)
 ----------------------------------------------------------------------
 1/38=1,172=1/1;
 2/12=2,17=6,18=5,40=1/2;
 3/5=1,6=6,7=101,11=9,25=1,30=1,74=-40,107=140000000,108=140000000/1,2,3,8;
 4//1;
 5/5=2,38=5/2;
 8/6=1,10=2,108=1/1;
 9/41=1,42=1,70=2/14;
 6/7=2,8=2,9=2,10=2/1;
 99/5=1,9=1/99;
 --
 TD
 --
 Symbolic Z-matrix:
 Charge =  0 Multiplicity = 1
 12                   -7.17957   0.60418   0.22771 
 6                    -4.84555  -1.97675   0.49681 
 6                    -4.76344   2.8441    1.32994 
 6                    -9.41194   3.06929  -0.37192 
 6                    -9.64027  -1.67073  -0.79892 
 7                    -5.07566   0.41551   0.62519 
 6                    -4.31392  -0.68348   0.86378 
 6                    -2.97858  -0.48037   1.33888 
 6                    -3.11751   0.9639    1.72667 
 6                    -4.34391   1.52124   1.24017 
 6                    -3.02274   1.10757   3.27337 
 6                    -1.98225  -0.73601   0.10372 
 6                    -0.52623  -0.53255   0.56756 
 6                     0.44009  -0.68505  -0.58614 
 8                     0.19189  -0.89708  -1.73837 
 8                     1.76386  -0.47056  -0.09478 
 7                    -7.13482   2.61147   0.36219 
 6                    -6.01203   3.33379   0.70477 
 6                    -6.25702   4.82588   0.61712 
 6                    -7.63436   4.82598   0.26471 
 6                    -8.11811   3.49131   0.08927 
 6                    -5.27875   5.91876   0.94419 
 6                    -8.45578   6.15169   0.11617 
 6                    -8.17873   7.35347   0.63212 
 7                    -9.11457   0.7145   -0.43737 
 6                    -9.87103   1.79915  -0.65791 
 6                    -11.21257   1.49235  -1.07275 
 6                    -11.19672   0.19013  -1.28266 
 6                    -9.92056  -0.30498  -0.83587 
 6                    -12.1979   2.53239  -1.3715 
 6                    -12.31312  -0.71619  -1.8905 
 6                    -11.99246  -1.26944  -3.32482 
 7                    -7.32564  -1.35306  -0.09241 
 6                    -8.29111  -2.1537   -0.47452 
 6                    -7.87031  -3.57153  -0.56995 
 6                    -6.48057  -3.53568  -0.18579 
 6                    -6.22467  -2.13903   0.05322 
 6                    -8.72059  -4.88602  -0.8976 
 6                    -5.32327  -4.37998   0.15411 
 8                    -5.15498  -5.59805   0.21461 
 6                    -4.21256  -3.36498   0.52872 
 6                    -3.57535  -3.72295   1.88696 
 8                    -3.89079  -3.26903   2.94761 
 8                    -2.69937  -4.75915   1.62275 
 6                    -2.06557  -5.31717   2.90597 
 6                     2.76854  -0.5774   -1.12452 
 6                     4.11205  -0.44525  -0.34457 
 6                     5.06565   0.37351  -0.82773 
 6                     4.91172   1.24151  -2.08641 
 6                     6.35673   0.37301  -0.09877 
 6                     7.55519  -0.27259  -0.94145 
 6                     8.92291  -0.08455  -0.25031 
 6                     10.14412  -0.56658  -0.93589 
 6                     10.07249  -2.00836  -1.30177 
 6                     11.40224  -0.30801  -0.06706 
 6                     12.74096  -0.46115  -0.79166 
 6                     14.01445  -0.04029   0.13901 
 6                     15.34509  -0.14997  -0.56741 
 6                     15.65093  -1.68226  -1.05365 
 6                     16.4468   0.36356   0.3323 
 6                     17.86567   0.38366  -0.12489 
 6                     18.76128   1.34982   0.74655 
 6                     20.26303   1.3497    0.21441 
 6                     20.46486   2.15732  -1.01018 
 6                     21.13851   2.03462   1.34744 
 1                    -4.09107   3.35922   1.83837 
 1                    -10.23743   3.73597  -0.5995 
 1                    -10.20811  -2.459    -1.09923 
 1                    -2.62262  -1.16959   2.12383 
 1                    -2.26383   1.6065    1.30506 
 1                    -2.14112   0.66043   3.60854 
 1                    -2.88572   2.31598   3.26671 
 1                    -3.95782   0.78676   3.76339 
 1                    -2.12568  -1.70472  -0.52775 
 1                    -2.26064   0.02885  -0.54758 
 1                    -0.3435    0.40463   0.86814 
 1                    -0.34158  -1.33806   1.31369 
 1                    -5.60603   6.75003   0.19552 
 1                    -5.38892   6.39873   1.95873 
 1                    -4.40528   5.5448    0.71434 
 1                    -9.18951   6.07052  -0.69974 
 1                    -8.7308    8.29786   0.10438 
 1                    -7.52553   7.60791   1.53109 
 1                    -11.81135   3.16954  -2.09744 
 1                    -13.03096   1.91693  -1.83073 
 1                    -12.54817   3.28336  -0.45033 
 1                    -12.33791  -1.60421  -1.11219 
 1                    -13.22137  -0.10024  -1.77442 
 1                    -12.97245  -1.82566  -3.60198 
 1                    -12.23429  -0.28182  -3.97999 
 1                    -11.05994  -1.71407  -3.32383 
 1                    -9.18216  -4.81739  -1.91991 
 1                    -8.05774  -5.76373  -0.53901 
 1                    -9.44782  -4.72855  -0.07436 
 1                    -3.4487   -3.49077  -0.1506 
 1                    -1.78532  -4.49114   3.41878 
 1                    -2.97638  -5.67883   3.54867 
 1                    -1.4995   -6.13597   2.42464 
 1                     2.79569  -1.76863  -1.50081 
 1                     2.51514   0.14716  -2.0829 
 1                     4.26325  -0.83136   0.44133 
 1                     3.84354   1.25443  -2.59845 
 1                     5.39743   2.15294  -1.83201 
 1                     5.54034   0.83962  -2.81121 
 1                     6.58773   1.42572  -0.01387 
 1                     6.26587  -0.01041   0.83988 
 1                     7.44614  -1.2693   -1.13826 
 1                     7.33996   0.31754  -1.9227 
 1                     8.99576   0.86365   0.17251 
 1                     8.76838  -0.53096   0.81916 
 1                     10.35572  -0.06866  -1.77764 
 1                     8.89491  -2.07906  -1.85466 
 1                     10.91771  -2.44996  -2.04194 
 1                     10.08741  -2.70203  -0.34991 
 1                     11.23826   0.70188   0.35456 
 1                     11.41633  -1.08546   0.71023 
 1                     12.90033  -1.55662  -1.05869 
 1                     12.68933   0.02145  -1.88288 
 1                     13.81198   1.02218   0.26971 
 1                     14.11053  -0.68652   1.04449 
 1                     15.18235   0.34074  -1.52952 
 1                     15.56446  -2.27253   0.14581 
 1                     14.68682  -1.8421   -1.64973 
 1                     16.58873  -1.7209   -1.58458 
 1                     16.19074   1.44776   0.34041 
 1                     16.29124  -0.18865   1.31105 
 1                     18.37831  -0.52992  -0.11778 
 1                     17.99764   0.7191   -1.1235 
 1                     18.21254   2.16631   0.75452 
 1                     18.68485   1.12267   1.75221 
 1                     20.68445   0.28774   0.02708 
 1                     20.11872   3.25593  -0.77681 
 1                     21.4382   2.31592  -1.37154 
 1                     19.53678   1.92732  -1.80044 
 1                     21.27859   1.53184   2.36551 
 1                     22.04022   2.19849   1.03497 
 1                     20.81032   3.00489   1.72593 
 
 Stoichiometry    C55H72MgN4O5
 Framework group  C1[X(C55H72MgN4O5)]
 Deg. of freedom   405
 Full point group                 C1      NOp   1
 Largest Abelian subgroup         C1      NOp   1
 Largest concise Abelian subgroup C1      NOp   1
                         Standard orientation:                         
 ---------------------------------------------------------------------
 Center     Atomic      Atomic             Coordinates (Angstroms)
 Number     Number       Type             X           Y           Z
 ---------------------------------------------------------------------
      1         12           0       -7.177842    0.609980    0.233226
      2          6           0       -4.846358   -1.974580    0.489173
      3          6           0       -4.759396    2.841961    1.346441
      4          6           0       -9.407816    3.080279   -0.353840
      5          6           0       -9.640883   -1.657317   -0.804554
      6          7           0       -5.074087    0.417237    0.629561
      7          6           0       -4.313414   -0.683686    0.862576
      8          6           0       -2.977832   -0.484278    1.338559
      9          6           0       -3.115298    0.958160    1.733590
     10          6           0       -4.341187    1.519146    1.250002
     11          6           0       -3.020243    1.093995    3.280986
     12          6           0       -1.981865   -0.734718    0.102045
     13          6           0       -0.525597   -0.535023    0.566759
     14          6           0        0.440464   -0.682698   -0.587779
     15          8           0        0.191955   -0.888716   -1.741036
     16          8           0        1.764498   -0.471985   -0.095480
     17          7           0       -7.131089    2.616532    0.377752
     18          6           0       -6.007554    3.336007    0.723841
     19          6           0       -6.251072    4.828762    0.643692
     20          6           0       -7.628440    4.831996    0.291418
     21          6           0       -8.113531    3.498693    0.109334
     22          6           0       -5.271690    5.919022    0.976146
     23          6           0       -8.448556    6.159238    0.149597
     24          6           0       -8.170271    7.358152    0.671529
     25          7           0       -9.112788    0.725547   -0.431113
     26          6           0       -9.868196    1.812042   -0.646145
     27          6           0      -11.210067    1.508648   -1.062395
     28          6           0      -11.195530    0.207479   -1.278823
     29          6           0       -9.919822   -0.291124   -0.834635
     30          6           0      -12.194397    2.551147   -1.355835
     31          6           0      -12.312877   -0.694673   -1.891092
     32          6           0      -11.992898   -1.241048   -3.328199
     33          7           0       -7.325873   -1.345485   -0.096682
     34          6           0       -8.292177   -2.143248   -0.482705
     35          6           0       -7.872787   -3.560992   -0.585273
     36          6           0       -6.482975   -3.528442   -0.201071
     37          6           0       -6.225670   -2.133266    0.044906
     38          6           0       -8.724403   -4.872988   -0.919430
     39          6           0       -5.326484   -4.375585    0.134489
     40          8           0       -5.159395   -5.594104    0.188868
     41          6           0       -4.214734   -3.363577    0.514076
     42          6           0       -3.577765   -3.728974    1.870450
     43          8           0       -3.892662   -3.280064    2.933383
     44          8           0       -2.702829   -4.764709    1.600968
     45          6           0       -2.069470   -5.329770    2.881314
     46          6           0        2.768979   -0.574660   -1.125827
     47          6           0        4.112687   -0.447753   -0.345351
     48          6           0        5.067055    0.372476   -0.824491
     49          6           0        4.913877    1.246920   -2.078800
     50          6           0        6.358198    0.367039   -0.095667
     51          6           0        7.555939   -0.275512   -0.941686
     52          6           0        8.923908   -0.092296   -0.249737
     53          6           0       10.144579   -0.572093   -0.937835
     54          6           0       10.071489   -2.011951   -1.310923
     55          6           0       11.403036   -0.319122   -0.067843
     56          6           0       12.741537   -0.469957   -0.793317
     57          6           0       14.015526   -0.055030    0.139328
     58          6           0       15.345993   -0.162492   -0.567760
     59          6           0       15.650272   -1.692622   -1.061692
     60          6           0       16.448291    0.345440    0.334409
     61          6           0       17.867143    0.366424   -0.122803
     62          6           0       18.763779    1.327320    0.753379
     63          6           0       20.265484    1.328379    0.221106
     64          6           0       20.468007    2.141921   -0.999436
     65          6           0       21.141742    2.006738    1.357471
     66          1           0       -4.086468    3.353857    1.857379
     67          1           0      -10.232663    3.748899   -0.578006
     68          1           0      -10.209526   -2.443513   -1.108757
     69          1           0       -2.622482   -1.177774    2.120012
     70          1           0       -2.261013    1.602025    1.315130
     71          1           0       -2.139035    0.644300    3.613828
     72          1           0       -2.882023    2.302284    3.280368
     73          1           0       -3.955597    0.771661    3.769475
     74          1           0       -2.126304   -1.700111   -0.534261
     75          1           0       -2.259553    0.033671   -0.545395
     76          1           0       -0.341914    0.400455    0.872013
     77          1           0       -0.341684   -1.344451    1.308832
     78          1           0       -5.598217    6.754357    0.231675
     79          1           0       -5.381295    6.394014    1.993081
     80          1           0       -4.398607    5.545350    0.744342
     81          1           0       -9.182442    6.082888   -0.666645
     82          1           0       -8.721457    8.305715    0.148581
     83          1           0       -7.516744    7.607432    1.571707
     84          1           0      -11.807281    3.191540   -2.078609
     85          1           0      -13.028107    1.938822   -1.818066
     86          1           0      -12.543837    3.297837   -0.430881
     87          1           0      -12.338479   -1.586559   -1.117244
     88          1           0      -13.220515   -0.078418   -1.771848
     89          1           0      -12.973464   -1.794901   -3.608049
     90          1           0      -12.233809   -0.249919   -3.978385
     91          1           0      -11.060818   -1.686606   -3.329521
     92          1           0       -9.185993   -4.798774   -1.941335
     93          1           0       -8.062387   -5.753137   -0.565304
     94          1           0       -9.451399   -4.718920   -0.095341
     95          1           0       -3.451065   -3.486711   -0.165941
     96          1           0       -1.788362   -4.506601    3.398235
     97          1           0       -2.980590   -5.693743    3.522277
     98          1           0       -1.504259   -6.146716    2.395834
     99          1           0        2.794910   -1.764024   -1.508087
    100          1           0        2.516207    0.154941   -2.080545
    101          1           0        4.263568   -0.837946    0.438584
    102          1           0        3.845660    1.263462   -2.590667
    103          1           0        5.400505    2.156576   -1.819881
    104          1           0        5.542034    0.848036   -2.805657
    105          1           0        6.590244    1.419086   -0.005518
    106          1           0        6.267043   -0.020984    0.841059
    107          1           0        7.445883   -1.271117   -1.143470
    108          1           0        7.341207    0.319735   -1.919947
    109          1           0        8.997731    0.853698    0.177821
    110          1           0        8.769030   -0.543905    0.817497
    111          1           0       10.356599   -0.070175   -1.777103
    112          1           0        8.893789   -2.078712   -1.864058
    113          1           0       10.916206   -2.450675   -2.053377
    114          1           0       10.085806   -2.710400   -0.362557
    115          1           0       11.240085    0.688797    0.358854
    116          1           0       11.416419   -1.100474    0.705544
    117          1           0       12.899794   -1.564240   -1.065848
    118          1           0       12.690292    0.018147   -1.882107
    119          1           0       13.814121    1.006970    0.275368
    120          1           0       14.111042   -0.705877    1.041547
    121          1           0       15.183652    0.333194   -1.527386
    122          1           0       15.563322   -2.288807    0.134798
    123          1           0       14.685951   -1.848521   -1.658475
    124          1           0       16.587982   -1.729537   -1.592904
    125          1           0       16.193307    1.429839    0.347976
    126          1           0       16.292272   -0.211509    1.310397
    127          1           0       18.378878   -0.547690   -0.120320
    128          1           0       17.999350    0.706729   -1.119732
    129          1           0       18.215853    2.144297    0.765489
    130          1           0       18.687220    1.095205    1.757896
    131          1           0       20.685834    0.266949    0.028420
    132          1           0       20.122975    3.239684   -0.760538
    133          1           0       21.441470    2.301365   -1.360087
    134          1           0       19.539632    1.916802   -1.790755
    135          1           0       21.281416    1.498730    2.372999
    136          1           0       22.043589    2.171283    1.045744
    137          1           0       20.814549    2.975426    1.740848
 ---------------------------------------------------------------------
 Rotational constants (GHZ):           0.0637997           0.0061069           0.0057439
 Standard basis: 6-31G(d,p) (6D, 7F)
 There are  1339 symmetry adapted cartesian basis functions of A   symmetry.
 There are  1339 symmetry adapted basis functions of A   symmetry.
  1339 basis functions,  2348 primitive gaussians,  1339 cartesian basis functions
   241 alpha electrons      241 beta electrons
       nuclear repulsion energy      8746.0616428222 Hartrees.
 NAtoms=  137 NActive=  137 NUniq=  137 SFac= 1.00D+00 NAtFMM=   60 NAOKFM=T Big=T
 Integral buffers will be    131072 words long.
 Raffenetti 1 integral format.
 Two-electron integral symmetry is turned on.
 One-electron integrals computed using PRISM.
 NBasis=  1339 RedAO= T EigKep=  3.22D-04  NBF=  1339
 NBsUse=  1339 1.00D-06 EigRej= -1.00D+00 NBFU=  1339
 ExpMin= 4.21D-02 ExpMax= 1.17D+04 ExpMxC= 1.76D+03 IAcc=3 IRadAn=         5 AccDes= 0.00D+00
 Harris functional with IExCor=20419 and IRadAn=       5 diagonalized for initial guess.
 HarFok:  IExCor=20419 AccDes= 0.00D+00 IRadAn=         5 IDoV= 1 UseB2=F ITyADJ=14
 ICtDFT=  3500011 ScaDFX=  1.000000  1.000000  1.000000  1.000000
 FoFCou: FMM=F IPFlag=           0 FMFlag=      100000 FMFlg1=        2001
         NFxFlg=           0 DoJE=T BraDBF=F KetDBF=T FulRan=T
         wScrn=  0.000000 ICntrl=       500 IOpCl=  0 I1Cent=   200000004 NGrid=           0
         NMat0=    1 NMatS0=      1 NMatT0=    0 NMatD0=    1 NMtDS0=    0 NMtDT0=    0
 Petite list used in FoFCou.
 Requested convergence on RMS density matrix=1.00D-08 within 128 cycles.
 Requested convergence on MAX density matrix=1.00D-06.
 Requested convergence on             energy=1.00D-06.
 No special actions if energy rises.
 SCF Done:  E(RCAM-B3LYP) =  -2933.43305388     A.U. after   16 cycles
            NFock= 16  Conv=0.65D-08     -V/T= 2.0091
 DoSCS=F DFT=T ScalE2(SS,OS)=  1.000000  1.000000
 ExpMin= 4.21D-02 ExpMax= 1.17D+04 ExpMxC= 1.76D+03 IAcc=3 IRadAn=         5 AccDes= 0.00D+00
 HarFok:  IExCor=  205 AccDes= 0.00D+00 IRadAn=         5 IDoV=-2 UseB2=F ITyADJ=14
 ICtDFT= 12500011 ScaDFX=  1.000000  1.000000  1.000000  1.000000
 GSVD:  LWork=       -5313 too small for GESVD, short by       24840 words or       24840 for optimal perf.
 Range of M.O.s used for correlation:    70  1339
 NBasis=  1339 NAE=   241 NBE=   241 NFC=    69 NFV=     0
 NROrb=   1270 NOA=   172 NOB=   172 NVA=  1098 NVB=  1098
 Orbital symmetries:
       Occupied  (A) (A) (A) (A) (A) (A) (A) (A) (A) (A) (A) (A)
                 (A) (A) (A) (A) (A) (A) (A) (A) (A) (A) (A) (A)
                 (A) (A) (A) (A) (A) (A) (A) (A) (A) (A) (A) (A)
                 (A) (A) (A) (A) (A) (A) (A) (A) (A) (A) (A) (A)
                 (A) (A) (A) (A) (A) (A) (A) (A) (A) (A) (A) (A)
                 (A) (A) (A) (A) (A) (A) (A) (A) (A) (A) (A) (A)
                 (A) (A) (A) (A) (A) (A) (A) (A) (A) (A) (A) (A)
                 (A) (A) (A) (A) (A) (A) (A) (A) (A) (A) (A) (A)
                 (A) (A) (A) (A) (A) (A) (A) (A) (A) (A) (A) (A)
                 (A) (A) (A) (A) (A) (A) (A) (A) (A) (A) (A) (A)
                 (A) (A) (A) (A) (A) (A) (A) (A) (A) (A) (A) (A)
                 (A) (A) (A) (A) (A) (A) (A) (A) (A) (A) (A) (A)
                 (A) (A) (A) (A) (A) (A) (A) (A) (A) (A) (A) (A)
                 (A) (A) (A) (A) (A) (A) (A) (A) (A) (A) (A) (A)
                 (A) (A) (A) (A) (A) (A) (A) (A) (A) (A) (A) (A)
                 (A) (A) (A) (A) (A) (A) (A) (A) (A) (A) (A) (A)
                 (A) (A) (A) (A) (A) (A) (A) (A) (A) (A) (A) (A)
                 (A) (A) (A) (A) (A) (A) (A) (A) (A) (A) (A) (A)
                 (A) (A) (A) (A) (A) (A) (A) (A) (A) (A) (A) (A)
                 (A) (A) (A) (A) (A) (A) (A) (A) (A) (A) (A) (A)
                 (A)
       Virtual   (A) (A) (A) (A) (A) (A) (A) (A) (A) (A) (A) (A)
                 (A) (A) (A) (A) (A) (A) (A) (A) (A) (A) (A) (A)
                 (A) (A) (A) (A) (A) (A) (A) (A) (A) (A) (A) (A)
                 (A) (A) (A) (A) (A) (A) (A) (A) (A) (A) (A) (A)
                 (A) (A) (A) (A) (A) (A) (A) (A) (A) (A) (A) (A)
                 (A) (A) (A) (A) (A) (A) (A) (A) (A) (A) (A) (A)
                 (A) (A) (A) (A) (A) (A) (A) (A) (A) (A) (A) (A)
                 (A) (A) (A) (A) (A) (A) (A) (A) (A) (A) (A) (A)
                 (A) (A) (A) (A) (A) (A) (A) (A) (A) (A) (A) (A)
                 (A) (A) (A) (A) (A) (A) (A) (A) (A) (A) (A) (A)
                 (A) (A) (A) (A) (A) (A) (A) (A) (A) (A) (A) (A)
                 (A) (A) (A) (A) (A) (A) (A) (A) (A) (A) (A) (A)
                 (A) (A) (A) (A) (A) (A) (A) (A) (A) (A) (A) (A)
                 (A) (A) (A) (A) (A) (A) (A) (A) (A) (A) (A) (A)
                 (A) (A) (A) (A) (A) (A) (A) (A) (A) (A) (A) (A)
                 (A) (A) (A) (A) (A) (A) (A) (A) (A) (A) (A) (A)
                 (A) (A) (A) (A) (A) (A) (A) (A) (A) (A) (A) (A)
                 (A) (A) (A) (A) (A) (A) (A) (A) (A) (A) (A) (A)
                 (A) (A) (A) (A) (A) (A) (A) (A) (A) (A) (A) (A)
                 (A) (A) (A) (A) (A) (A) (A) (A) (A) (A) (A) (A)
                 (A) (A) (A) (A) (A) (A) (A) (A) (A) (A) (A) (A)
                 (A) (A) (A) (A) (A) (A) (A) (A) (A) (A) (A) (A)
                 (A) (A) (A) (A) (A) (A) (A) (A) (A) (A) (A) (A)
                 (A) (A) (A) (A) (A) (A) (A) (A) (A) (A) (A) (A)
                 (A) (A) (A) (A) (A) (A) (A) (A) (A) (A) (A) (A)
                 (A) (A) (A) (A) (A) (A) (A) (A) (A) (A) (A) (A)
                 (A) (A) (A) (A) (A) (A) (A) (A) (A) (A) (A) (A)
                 (A) (A) (A) (A) (A) (A) (A) (A) (A) (A) (A) (A)
                 (A) (A) (A) (A) (A) (A) (A) (A) (A) (A) (A) (A)
                 (A) (A) (A) (A) (A) (A) (A) (A) (A) (A) (A) (A)
                 (A) (A) (A) (A) (A) (A) (A) (A) (A) (A) (A) (A)
                 (A) (A) (A) (A) (A) (A) (A) (A) (A) (A) (A) (A)
                 (A) (A) (A) (A) (A) (A) (A) (A) (A) (A) (A) (A)
                 (A) (A) (A) (A) (A) (A) (A) (A) (A) (A) (A) (A)
                 (A) (A) (A) (A) (A) (A) (A) (A) (A) (A) (A) (A)
                 (A) (A) (A) (A) (A) (A) (A) (A) (A) (A) (A) (A)
                 (A) (A) (A) (A) (A) (A) (A) (A) (A) (A) (A) (A)
                 (A) (A) (A) (A) (A) (A) (A) (A) (A) (A) (A) (A)
                 (A) (A) (A) (A) (A) (A) (A) (A) (A) (A) (A) (A)
                 (A) (A) (A) (A) (A) (A) (A) (A) (A) (A) (A) (A)
                 (A) (A) (A) (A) (A) (A) (A) (A) (A) (A) (A) (A)
                 (A) (A) (A) (A) (A) (A) (A) (A) (A) (A) (A) (A)
                 (A) (A) (A) (A) (A) (A) (A) (A) (A) (A) (A) (A)
                 (A) (A) (A) (A) (A) (A) (A) (A) (A) (A) (A) (A)
                 (A) (A) (A) (A) (A) (A) (A) (A) (A) (A) (A) (A)
                 (A) (A) (A) (A) (A) (A) (A) (A) (A) (A) (A) (A)
                 (A) (A) (A) (A) (A) (A) (A) (A) (A) (A) (A) (A)
                 (A) (A) (A) (A) (A) (A) (A) (A) (A) (A) (A) (A)
                 (A) (A) (A) (A) (A) (A) (A) (A) (A) (A) (A) (A)
                 (A) (A) (A) (A) (A) (A) (A) (A) (A) (A) (A) (A)
                 (A) (A) (A) (A) (A) (A) (A) (A) (A) (A) (A) (A)
                 (A) (A) (A) (A) (A) (A) (A) (A) (A) (A) (A) (A)
                 (A) (A) (A) (A) (A) (A) (A) (A) (A) (A) (A) (A)
                 (A) (A) (A) (A) (A) (A) (A) (A) (A) (A) (A) (A)
                 (A) (A) (A) (A) (A) (A) (A) (A) (A) (A) (A) (A)
                 (A) (A) (A) (A) (A) (A) (A) (A) (A) (A) (A) (A)
                 (A) (A) (A) (A) (A) (A) (A) (A) (A) (A) (A) (A)
                 (A) (A) (A) (A) (A) (A) (A) (A) (A) (A) (A) (A)
                 (A) (A) (A) (A) (A) (A) (A) (A) (A) (A) (A) (A)
                 (A) (A) (A) (A) (A) (A) (A) (A) (A) (A) (A) (A)
                 (A) (A) (A) (A) (A) (A) (A) (A) (A) (A) (A) (A)
                 (A) (A) (A) (A) (A) (A) (A) (A) (A) (A) (A) (A)
                 (A) (A) (A) (A) (A) (A) (A) (A) (A) (A) (A) (A)
                 (A) (A) (A) (A) (A) (A) (A) (A) (A) (A) (A) (A)
                 (A) (A) (A) (A) (A) (A) (A) (A) (A) (A) (A) (A)
                 (A) (A) (A) (A) (A) (A) (A) (A) (A) (A) (A) (A)
                 (A) (A) (A) (A) (A) (A) (A) (A) (A) (A) (A) (A)
                 (A) (A) (A) (A) (A) (A) (A) (A) (A) (A) (A) (A)
                 (A) (A) (A) (A) (A) (A) (A) (A) (A) (A) (A) (A)
                 (A) (A) (A) (A) (A) (A) (A) (A) (A) (A) (A) (A)
                 (A) (A) (A) (A) (A) (A) (A) (A) (A) (A) (A) (A)
                 (A) (A) (A) (A) (A) (A) (A) (A) (A) (A) (A) (A)
                 (A) (A) (A) (A) (A) (A) (A) (A) (A) (A) (A) (A)
                 (A) (A) (A) (A) (A) (A) (A) (A) (A) (A) (A) (A)
                 (A) (A) (A) (A) (A) (A) (A) (A) (A) (A) (A) (A)
                 (A) (A) (A) (A) (A) (A) (A) (A) (A) (A) (A) (A)
                 (A) (A) (A) (A) (A) (A) (A) (A) (A) (A) (A) (A)
                 (A) (A) (A) (A) (A) (A) (A) (A) (A) (A) (A) (A)
                 (A) (A) (A) (A) (A) (A) (A) (A) (A) (A) (A) (A)
                 (A) (A) (A) (A) (A) (A) (A) (A) (A) (A) (A) (A)
                 (A) (A) (A) (A) (A) (A) (A) (A) (A) (A) (A) (A)
                 (A) (A) (A) (A) (A) (A) (A) (A) (A) (A) (A) (A)
                 (A) (A) (A) (A) (A) (A) (A) (A) (A) (A) (A) (A)
                 (A) (A) (A) (A) (A) (A) (A) (A) (A) (A) (A) (A)
                 (A) (A) (A) (A) (A) (A) (A) (A) (A) (A) (A) (A)
                 (A) (A) (A) (A) (A) (A) (A) (A) (A) (A) (A) (A)
                 (A) (A) (A) (A) (A) (A) (A) (A) (A) (A) (A) (A)
                 (A) (A) (A) (A) (A) (A) (A) (A) (A) (A) (A) (A)
                 (A) (A) (A) (A) (A) (A) (A) (A) (A) (A) (A) (A)
                 (A) (A) (A) (A) (A) (A) (A) (A) (A) (A) (A) (A)
                 (A) (A) (A) (A) (A) (A) (A) (A) (A) (A) (A) (A)
                 (A) (A) (A) (A) (A) (A)
     4 initial guesses have been made.
 Convergence on wavefunction:    0.001000000000000
 Iteration     1 Dimension     4 NMult     0 NNew      4
 CISAX will form     4 AO SS matrices at one time.
 New state      1 was old state      2
 Iteration     2 Dimension     6 NMult     4 NNew      2
 Iteration     3 Dimension     8 NMult     6 NNew      2
 Iteration     4 Dimension    10 NMult     8 NNew      2
 Iteration     5 Dimension    12 NMult    10 NNew      2
 Iteration     6 Dimension    14 NMult    12 NNew      2
 Iteration     7 Dimension    16 NMult    14 NNew      2
 Iteration     8 Dimension    18 NMult    16 NNew      2
 ***********************************************************************
 Excited states from <AA,BB:AA,BB> singles matrix:
 ***********************************************************************
 
 Ground to excited state transition densities written to RWF  633
 Ground to excited state transition electric dipole moments (Au):
       state          X           Y           Z        Dip. S.      Osc.
         1        -0.6583      2.4745      0.0780      6.5628      0.3006
 Ground to excited state transition velocity dipole moments (Au):
       state          X           Y           Z        Dip. S.      Osc.
         1         0.0421     -0.1657     -0.0072      0.0293      0.2843
 Ground to excited state transition magnetic dipole moments (Au):
       state          X           Y           Z
         1        -0.2999     -0.1956      3.2807
 Ground to excited state transition velocity quadrupole moments (Au):
       state          XX          YY          ZZ          XY          XZ          YZ
         1        -0.8642     -0.4195     -0.0105      2.0951      0.0806     -0.1405
 <0|del|b> * <b|rxdel|0> + <0|del|b> * <b|delr+rdel|0>
 Rotatory Strengths (R) in cgs (10**-40 erg-esu-cm/Gauss)
       state          XX          YY          ZZ    R(velocity)    E-M Angle
         1        37.3415   -139.2229     63.4883    -12.7977       90.38
 1/2[<0|r|b>*<b|rxdel|0> + (<0|rxdel|b>*<b|r|0>)*]
 Rotatory Strengths (R) in cgs (10**-40 erg-esu-cm/Gauss)
       state          XX          YY          ZZ     R(length)
         1      -139.6192    342.2282   -180.8640      7.2483
  1/2[<0|del|b>*<b|r|0> + (<0|r|b>*<b|del|0>)*] (Au)
       state          X           Y           Z        Dip. S.   Osc.(frdel)
         1        -0.0277     -0.4101     -0.0006      0.4384      0.2923

 Excitation energies and oscillator strengths:
 
 Excited State   1:      Singlet-A      1.8693 eV  663.26 nm  f=0.3006  <S**2>=0.000
     240 -> 243       -0.19717
     241 -> 242        0.67952
 This state for optimization and/or second-order correction.
 Total Energy, E(TD-HF/TD-DFT) =  -2933.36435791    
 Copying the excited state density for this state as the 1-particle RhoCI density.
 SavETr:  write IOETrn=   770 NScale= 10 NData=  16 NLR=1 NState=    1 LETran=      28.
 Hyperfine terms turned off by default for NAtoms > 100.

 **********************************************************************

            Population analysis using the SCF density.

 **********************************************************************

 Orbital symmetries:
       Occupied  (A) (A) (A) (A) (A) (A) (A) (A) (A) (A) (A) (A)
                 (A) (A) (A) (A) (A) (A) (A) (A) (A) (A) (A) (A)
                 (A) (A) (A) (A) (A) (A) (A) (A) (A) (A) (A) (A)
                 (A) (A) (A) (A) (A) (A) (A) (A) (A) (A) (A) (A)
                 (A) (A) (A) (A) (A) (A) (A) (A) (A) (A) (A) (A)
                 (A) (A) (A) (A) (A) (A) (A) (A) (A) (A) (A) (A)
                 (A) (A) (A) (A) (A) (A) (A) (A) (A) (A) (A) (A)
                 (A) (A) (A) (A) (A) (A) (A) (A) (A) (A) (A) (A)
                 (A) (A) (A) (A) (A) (A) (A) (A) (A) (A) (A) (A)
                 (A) (A) (A) (A) (A) (A) (A) (A) (A) (A) (A) (A)
                 (A) (A) (A) (A) (A) (A) (A) (A) (A) (A) (A) (A)
                 (A) (A) (A) (A) (A) (A) (A) (A) (A) (A) (A) (A)
                 (A) (A) (A) (A) (A) (A) (A) (A) (A) (A) (A) (A)
                 (A) (A) (A) (A) (A) (A) (A) (A) (A) (A) (A) (A)
                 (A) (A) (A) (A) (A) (A) (A) (A) (A) (A) (A) (A)
                 (A) (A) (A) (A) (A) (A) (A) (A) (A) (A) (A) (A)
                 (A) (A) (A) (A) (A) (A) (A) (A) (A) (A) (A) (A)
                 (A) (A) (A) (A) (A) (A) (A) (A) (A) (A) (A) (A)
                 (A) (A) (A) (A) (A) (A) (A) (A) (A) (A) (A) (A)
                 (A) (A) (A) (A) (A) (A) (A) (A) (A) (A) (A) (A)
                 (A)
       Virtual   (A) (A) (A) (A) (A) (A) (A) (A) (A) (A) (A) (A)
                 (A) (A) (A) (A) (A) (A) (A) (A) (A) (A) (A) (A)
                 (A) (A) (A) (A) (A) (A) (A) (A) (A) (A) (A) (A)
                 (A) (A) (A) (A) (A) (A) (A) (A) (A) (A) (A) (A)
                 (A) (A) (A) (A) (A) (A) (A) (A) (A) (A) (A) (A)
                 (A) (A) (A) (A) (A) (A) (A) (A) (A) (A) (A) (A)
                 (A) (A) (A) (A) (A) (A) (A) (A) (A) (A) (A) (A)
                 (A) (A) (A) (A) (A) (A) (A) (A) (A) (A) (A) (A)
                 (A) (A) (A) (A) (A) (A) (A) (A) (A) (A) (A) (A)
                 (A) (A) (A) (A) (A) (A) (A) (A) (A) (A) (A) (A)
                 (A) (A) (A) (A) (A) (A) (A) (A) (A) (A) (A) (A)
                 (A) (A) (A) (A) (A) (A) (A) (A) (A) (A) (A) (A)
                 (A) (A) (A) (A) (A) (A) (A) (A) (A) (A) (A) (A)
                 (A) (A) (A) (A) (A) (A) (A) (A) (A) (A) (A) (A)
                 (A) (A) (A) (A) (A) (A) (A) (A) (A) (A) (A) (A)
                 (A) (A) (A) (A) (A) (A) (A) (A) (A) (A) (A) (A)
                 (A) (A) (A) (A) (A) (A) (A) (A) (A) (A) (A) (A)
                 (A) (A) (A) (A) (A) (A) (A) (A) (A) (A) (A) (A)
                 (A) (A) (A) (A) (A) (A) (A) (A) (A) (A) (A) (A)
                 (A) (A) (A) (A) (A) (A) (A) (A) (A) (A) (A) (A)
                 (A) (A) (A) (A) (A) (A) (A) (A) (A) (A) (A) (A)
                 (A) (A) (A) (A) (A) (A) (A) (A) (A) (A) (A) (A)
                 (A) (A) (A) (A) (A) (A) (A) (A) (A) (A) (A) (A)
                 (A) (A) (A) (A) (A) (A) (A) (A) (A) (A) (A) (A)
                 (A) (A) (A) (A) (A) (A) (A) (A) (A) (A) (A) (A)
                 (A) (A) (A) (A) (A) (A) (A) (A) (A) (A) (A) (A)
                 (A) (A) (A) (A) (A) (A) (A) (A) (A) (A) (A) (A)
                 (A) (A) (A) (A) (A) (A) (A) (A) (A) (A) (A) (A)
                 (A) (A) (A) (A) (A) (A) (A) (A) (A) (A) (A) (A)
                 (A) (A) (A) (A) (A) (A) (A) (A) (A) (A) (A) (A)
                 (A) (A) (A) (A) (A) (A) (A) (A) (A) (A) (A) (A)
                 (A) (A) (A) (A) (A) (A) (A) (A) (A) (A) (A) (A)
                 (A) (A) (A) (A) (A) (A) (A) (A) (A) (A) (A) (A)
                 (A) (A) (A) (A) (A) (A) (A) (A) (A) (A) (A) (A)
                 (A) (A) (A) (A) (A) (A) (A) (A) (A) (A) (A) (A)
                 (A) (A) (A) (A) (A) (A) (A) (A) (A) (A) (A) (A)
                 (A) (A) (A) (A) (A) (A) (A) (A) (A) (A) (A) (A)
                 (A) (A) (A) (A) (A) (A) (A) (A) (A) (A) (A) (A)
                 (A) (A) (A) (A) (A) (A) (A) (A) (A) (A) (A) (A)
                 (A) (A) (A) (A) (A) (A) (A) (A) (A) (A) (A) (A)
                 (A) (A) (A) (A) (A) (A) (A) (A) (A) (A) (A) (A)
                 (A) (A) (A) (A) (A) (A) (A) (A) (A) (A) (A) (A)
                 (A) (A) (A) (A) (A) (A) (A) (A) (A) (A) (A) (A)
                 (A) (A) (A) (A) (A) (A) (A) (A) (A) (A) (A) (A)
                 (A) (A) (A) (A) (A) (A) (A) (A) (A) (A) (A) (A)
                 (A) (A) (A) (A) (A) (A) (A) (A) (A) (A) (A) (A)
                 (A) (A) (A) (A) (A) (A) (A) (A) (A) (A) (A) (A)
                 (A) (A) (A) (A) (A) (A) (A) (A) (A) (A) (A) (A)
                 (A) (A) (A) (A) (A) (A) (A) (A) (A) (A) (A) (A)
                 (A) (A) (A) (A) (A) (A) (A) (A) (A) (A) (A) (A)
                 (A) (A) (A) (A) (A) (A) (A) (A) (A) (A) (A) (A)
                 (A) (A) (A) (A) (A) (A) (A) (A) (A) (A) (A) (A)
                 (A) (A) (A) (A) (A) (A) (A) (A) (A) (A) (A) (A)
                 (A) (A) (A) (A) (A) (A) (A) (A) (A) (A) (A) (A)
                 (A) (A) (A) (A) (A) (A) (A) (A) (A) (A) (A) (A)
                 (A) (A) (A) (A) (A) (A) (A) (A) (A) (A) (A) (A)
                 (A) (A) (A) (A) (A) (A) (A) (A) (A) (A) (A) (A)
                 (A) (A) (A) (A) (A) (A) (A) (A) (A) (A) (A) (A)
                 (A) (A) (A) (A) (A) (A) (A) (A) (A) (A) (A) (A)
                 (A) (A) (A) (A) (A) (A) (A) (A) (A) (A) (A) (A)
                 (A) (A) (A) (A) (A) (A) (A) (A) (A) (A) (A) (A)
                 (A) (A) (A) (A) (A) (A) (A) (A) (A) (A) (A) (A)
                 (A) (A) (A) (A) (A) (A) (A) (A) (A) (A) (A) (A)
                 (A) (A) (A) (A) (A) (A) (A) (A) (A) (A) (A) (A)
                 (A) (A) (A) (A) (A) (A) (A) (A) (A) (A) (A) (A)
                 (A) (A) (A) (A) (A) (A) (A) (A) (A) (A) (A) (A)
                 (A) (A) (A) (A) (A) (A) (A) (A) (A) (A) (A) (A)
                 (A) (A) (A) (A) (A) (A) (A) (A) (A) (A) (A) (A)
                 (A) (A) (A) (A) (A) (A) (A) (A) (A) (A) (A) (A)
                 (A) (A) (A) (A) (A) (A) (A) (A) (A) (A) (A) (A)
                 (A) (A) (A) (A) (A) (A) (A) (A) (A) (A) (A) (A)
                 (A) (A) (A) (A) (A) (A) (A) (A) (A) (A) (A) (A)
                 (A) (A) (A) (A) (A) (A) (A) (A) (A) (A) (A) (A)
                 (A) (A) (A) (A) (A) (A) (A) (A) (A) (A) (A) (A)
                 (A) (A) (A) (A) (A) (A) (A) (A) (A) (A) (A) (A)
                 (A) (A) (A) (A) (A) (A) (A) (A) (A) (A) (A) (A)
                 (A) (A) (A) (A) (A) (A) (A) (A) (A) (A) (A) (A)
                 (A) (A) (A) (A) (A) (A) (A) (A) (A) (A) (A) (A)
                 (A) (A) (A) (A) (A) (A) (A) (A) (A) (A) (A) (A)
                 (A) (A) (A) (A) (A) (A) (A) (A) (A) (A) (A) (A)
                 (A) (A) (A) (A) (A) (A) (A) (A) (A) (A) (A) (A)
                 (A) (A) (A) (A) (A) (A) (A) (A) (A) (A) (A) (A)
                 (A) (A) (A) (A) (A) (A) (A) (A) (A) (A) (A) (A)
                 (A) (A) (A) (A) (A) (A) (A) (A) (A) (A) (A) (A)
                 (A) (A) (A) (A) (A) (A) (A) (A) (A) (A) (A) (A)
                 (A) (A) (A) (A) (A) (A) (A) (A) (A) (A) (A) (A)
                 (A) (A) (A) (A) (A) (A) (A) (A) (A) (A) (A) (A)
                 (A) (A) (A) (A) (A) (A) (A) (A) (A) (A) (A) (A)
                 (A) (A) (A) (A) (A) (A) (A) (A) (A) (A) (A) (A)
                 (A) (A) (A) (A) (A) (A) (A) (A) (A) (A) (A) (A)
                 (A) (A) (A) (A) (A) (A) (A) (A) (A) (A) (A) (A)
                 (A) (A) (A) (A) (A) (A)
 The electronic state is 1-A.
 Alpha  occ. eigenvalues --  -46.79901 -19.21500 -19.21170 -19.18030 -19.17502
 Alpha  occ. eigenvalues --  -19.16002 -14.37686 -14.35608 -14.35420 -14.34758
 Alpha  occ. eigenvalues --  -10.34727 -10.34360 -10.30503 -10.29243 -10.27442
 Alpha  occ. eigenvalues --  -10.26217 -10.26029 -10.25724 -10.25098 -10.24883
 Alpha  occ. eigenvalues --  -10.24882 -10.24608 -10.24246 -10.23462 -10.23343
 Alpha  occ. eigenvalues --  -10.23342 -10.23318 -10.23310 -10.23205 -10.23154
 Alpha  occ. eigenvalues --  -10.23099 -10.23085 -10.23047 -10.22951 -10.22906
 Alpha  occ. eigenvalues --  -10.22874 -10.22827 -10.22747 -10.22652 -10.22628
 Alpha  occ. eigenvalues --  -10.22569 -10.22490 -10.22474 -10.22231 -10.22143
 Alpha  occ. eigenvalues --  -10.22109 -10.21744 -10.21625 -10.21608 -10.21569
 Alpha  occ. eigenvalues --  -10.21555 -10.21428 -10.21374 -10.21100 -10.21071
 Alpha  occ. eigenvalues --  -10.21024 -10.20961 -10.20780 -10.20780 -10.20766
 Alpha  occ. eigenvalues --  -10.20416 -10.19301 -10.19276 -10.19046 -10.19037
 Alpha  occ. eigenvalues --   -3.08585  -1.83514  -1.83041  -1.83021  -1.11827
 Alpha  occ. eigenvalues --   -1.11593  -1.05061  -1.04535  -1.04084  -1.00102
 Alpha  occ. eigenvalues --   -0.99197  -0.98485  -0.97616  -0.86888  -0.86524
 Alpha  occ. eigenvalues --   -0.85548  -0.85274  -0.84813  -0.84122  -0.83589
 Alpha  occ. eigenvalues --   -0.82967  -0.82926  -0.82203  -0.81242  -0.80499
 Alpha  occ. eigenvalues --   -0.79626  -0.78908  -0.78379  -0.78128  -0.77504
 Alpha  occ. eigenvalues --   -0.76191  -0.75808  -0.75246  -0.74460  -0.73437
 Alpha  occ. eigenvalues --   -0.72969  -0.72582  -0.71821  -0.71691  -0.70892
 Alpha  occ. eigenvalues --   -0.70382  -0.69949  -0.69112  -0.68963  -0.67777
 Alpha  occ. eigenvalues --   -0.66859  -0.66156  -0.65049  -0.64476  -0.64067
 Alpha  occ. eigenvalues --   -0.63186  -0.61403  -0.60642  -0.60558  -0.59978
 Alpha  occ. eigenvalues --   -0.59895  -0.59531  -0.59247  -0.58022  -0.57902
 Alpha  occ. eigenvalues --   -0.56953  -0.56779  -0.56163  -0.55511  -0.55211
 Alpha  occ. eigenvalues --   -0.54964  -0.54149  -0.53736  -0.53441  -0.52946
 Alpha  occ. eigenvalues --   -0.52331  -0.51201  -0.51168  -0.50856  -0.50810
 Alpha  occ. eigenvalues --   -0.50639  -0.50274  -0.49824  -0.49475  -0.49345
 Alpha  occ. eigenvalues --   -0.49300  -0.48824  -0.48496  -0.48227  -0.47961
 Alpha  occ. eigenvalues --   -0.47415  -0.47050  -0.46921  -0.46791  -0.46737
 Alpha  occ. eigenvalues --   -0.46593  -0.46294  -0.46093  -0.45914  -0.45777
 Alpha  occ. eigenvalues --   -0.45541  -0.45305  -0.45257  -0.45064  -0.44944
 Alpha  occ. eigenvalues --   -0.44490  -0.44219  -0.44028  -0.43854  -0.43727
 Alpha  occ. eigenvalues --   -0.43599  -0.43448  -0.43231  -0.43093  -0.42580
 Alpha  occ. eigenvalues --   -0.42448  -0.42255  -0.42164  -0.41971  -0.41742
 Alpha  occ. eigenvalues --   -0.41574  -0.41490  -0.41254  -0.41218  -0.40769
 Alpha  occ. eigenvalues --   -0.40668  -0.40432  -0.40348  -0.40084  -0.39871
 Alpha  occ. eigenvalues --   -0.39713  -0.39578  -0.39465  -0.39343  -0.39097
 Alpha  occ. eigenvalues --   -0.38931  -0.38856  -0.38604  -0.38458  -0.38318
 Alpha  occ. eigenvalues --   -0.38227  -0.38049  -0.37682  -0.37455  -0.36932
 Alpha  occ. eigenvalues --   -0.36897  -0.36697  -0.36632  -0.36462  -0.36025
 Alpha  occ. eigenvalues --   -0.35804  -0.35012  -0.35001  -0.34639  -0.34556
 Alpha  occ. eigenvalues --   -0.34350  -0.34194  -0.34153  -0.33708  -0.33578
 Alpha  occ. eigenvalues --   -0.33414  -0.33322  -0.32865  -0.32550  -0.32219
 Alpha  occ. eigenvalues --   -0.32122  -0.31490  -0.31430  -0.30791  -0.30670
 Alpha  occ. eigenvalues --   -0.30592  -0.29759  -0.28978  -0.28020  -0.26938
 Alpha  occ. eigenvalues --   -0.26804  -0.26575  -0.26185  -0.24901  -0.21260
 Alpha  occ. eigenvalues --   -0.19267
 Alpha virt. eigenvalues --   -0.07298  -0.02851  -0.00267   0.02564   0.03679
 Alpha virt. eigenvalues --    0.04098   0.04339   0.04894   0.05328   0.05479
 Alpha virt. eigenvalues --    0.06783   0.08610   0.08956   0.09283   0.09458
 Alpha virt. eigenvalues --    0.09826   0.09907   0.09957   0.10457   0.10761
 Alpha virt. eigenvalues --    0.10892   0.11222   0.11596   0.11945   0.12067
 Alpha virt. eigenvalues --    0.12446   0.12604   0.12970   0.13238   0.13429
 Alpha virt. eigenvalues --    0.13640   0.13966   0.13993   0.14084   0.14130
 Alpha virt. eigenvalues --    0.14428   0.14740   0.14849   0.15009   0.15094
 Alpha virt. eigenvalues --    0.15244   0.15511   0.15575   0.16017   0.16113
 Alpha virt. eigenvalues --    0.16284   0.16503   0.16615   0.17068   0.17120
 Alpha virt. eigenvalues --    0.17128   0.17394   0.17651   0.17853   0.17941
 Alpha virt. eigenvalues --    0.17976   0.18092   0.18540   0.18726   0.18797
 Alpha virt. eigenvalues --    0.18864   0.18987   0.19179   0.19420   0.19675
 Alpha virt. eigenvalues --    0.19804   0.20023   0.20070   0.20285   0.20827
 Alpha virt. eigenvalues --    0.21009   0.21102   0.21248   0.21317   0.21711
 Alpha virt. eigenvalues --    0.21810   0.22085   0.22190   0.22233   0.22342
 Alpha virt. eigenvalues --    0.22402   0.22589   0.22699   0.22890   0.23075
 Alpha virt. eigenvalues --    0.23096   0.23284   0.23359   0.23626   0.23806
 Alpha virt. eigenvalues --    0.24071   0.24233   0.24286   0.24702   0.24881
 Alpha virt. eigenvalues --    0.25003   0.25250   0.25371   0.25516   0.25734
 Alpha virt. eigenvalues --    0.26041   0.26162   0.26347   0.26444   0.26542
 Alpha virt. eigenvalues --    0.26728   0.27207   0.27258   0.27666   0.27818
 Alpha virt. eigenvalues --    0.28259   0.28360   0.28777   0.28978   0.29104
 Alpha virt. eigenvalues --    0.29209   0.29467   0.29565   0.29954   0.30051
 Alpha virt. eigenvalues --    0.30497   0.30777   0.31095   0.31417   0.32031
 Alpha virt. eigenvalues --    0.32133   0.32446   0.32767   0.32906   0.33189
 Alpha virt. eigenvalues --    0.33532   0.33811   0.33981   0.34110   0.34860
 Alpha virt. eigenvalues --    0.35396   0.35517   0.35702   0.36339   0.37307
 Alpha virt. eigenvalues --    0.38217   0.38433   0.39003   0.39273   0.40067
 Alpha virt. eigenvalues --    0.40369   0.40394   0.40738   0.41504   0.42107
 Alpha virt. eigenvalues --    0.42744   0.43583   0.44115   0.45677   0.46553
 Alpha virt. eigenvalues --    0.47304   0.47508   0.48014   0.48320   0.48942
 Alpha virt. eigenvalues --    0.49990   0.50520   0.50593   0.50779   0.51362
 Alpha virt. eigenvalues --    0.51819   0.52074   0.52236   0.52489   0.52889
 Alpha virt. eigenvalues --    0.53055   0.53100   0.53145   0.53471   0.53796
 Alpha virt. eigenvalues --    0.54229   0.54412   0.54641   0.54912   0.54986
 Alpha virt. eigenvalues --    0.55488   0.55796   0.55898   0.56008   0.56215
 Alpha virt. eigenvalues --    0.56369   0.56886   0.57105   0.57358   0.57389
 Alpha virt. eigenvalues --    0.57679   0.57776   0.57966   0.58070   0.58300
 Alpha virt. eigenvalues --    0.58694   0.58952   0.59011   0.59254   0.59629
 Alpha virt. eigenvalues --    0.59762   0.60178   0.60220   0.60714   0.61055
 Alpha virt. eigenvalues --    0.61189   0.61308   0.61850   0.61927   0.62154
 Alpha virt. eigenvalues --    0.62492   0.62858   0.63143   0.63195   0.63456
 Alpha virt. eigenvalues --    0.63573   0.63812   0.64104   0.64230   0.64337
 Alpha virt. eigenvalues --    0.64955   0.65242   0.65330   0.65552   0.65727
 Alpha virt. eigenvalues --    0.65989   0.66125   0.66241   0.66809   0.67016
 Alpha virt. eigenvalues --    0.67535   0.67902   0.68134   0.68176   0.68634
 Alpha virt. eigenvalues --    0.68899   0.69120   0.69587   0.69643   0.69887
 Alpha virt. eigenvalues --    0.70137   0.70303   0.70553   0.70791   0.70859
 Alpha virt. eigenvalues --    0.71153   0.71307   0.71556   0.72153   0.72294
 Alpha virt. eigenvalues --    0.72365   0.72443   0.72974   0.72991   0.73358
 Alpha virt. eigenvalues --    0.73475   0.73637   0.74011   0.74297   0.74508
 Alpha virt. eigenvalues --    0.74907   0.75506   0.75644   0.75813   0.76207
 Alpha virt. eigenvalues --    0.76365   0.76445   0.76632   0.77095   0.77170
 Alpha virt. eigenvalues --    0.77588   0.78020   0.78290   0.78390   0.78580
 Alpha virt. eigenvalues --    0.78796   0.79027   0.79196   0.79575   0.80032
 Alpha virt. eigenvalues --    0.80072   0.80239   0.80509   0.80954   0.81182
 Alpha virt. eigenvalues --    0.81343   0.81554   0.81896   0.81971   0.82134
 Alpha virt. eigenvalues --    0.82337   0.82588   0.82748   0.82806   0.83317
 Alpha virt. eigenvalues --    0.83463   0.83624   0.83838   0.83933   0.84048
 Alpha virt. eigenvalues --    0.84211   0.84546   0.84800   0.84822   0.85069
 Alpha virt. eigenvalues --    0.85467   0.85703   0.85976   0.86083   0.86481
 Alpha virt. eigenvalues --    0.86588   0.86699   0.86994   0.87312   0.87490
 Alpha virt. eigenvalues --    0.87721   0.88107   0.88356   0.88526   0.88855
 Alpha virt. eigenvalues --    0.88912   0.88982   0.89068   0.89724   0.89900
 Alpha virt. eigenvalues --    0.90069   0.90315   0.90554   0.90929   0.91124
 Alpha virt. eigenvalues --    0.91246   0.91477   0.91671   0.92016   0.92236
 Alpha virt. eigenvalues --    0.92385   0.92833   0.92918   0.93122   0.93480
 Alpha virt. eigenvalues --    0.93582   0.93737   0.93978   0.94053   0.94159
 Alpha virt. eigenvalues --    0.94195   0.94500   0.94805   0.94878   0.95082
 Alpha virt. eigenvalues --    0.95197   0.95494   0.95674   0.95765   0.95882
 Alpha virt. eigenvalues --    0.96414   0.96602   0.96959   0.97118   0.97433
 Alpha virt. eigenvalues --    0.97553   0.97823   0.98189   0.98313   0.98443
 Alpha virt. eigenvalues --    0.98663   0.98866   0.99063   0.99209   0.99628
 Alpha virt. eigenvalues --    0.99678   0.99734   0.99921   1.00094   1.00223
 Alpha virt. eigenvalues --    1.00375   1.01141   1.01380   1.01757   1.01981
 Alpha virt. eigenvalues --    1.02213   1.02953   1.03030   1.03134   1.03255
 Alpha virt. eigenvalues --    1.03421   1.03810   1.03937   1.04483   1.04795
 Alpha virt. eigenvalues --    1.05271   1.05612   1.05906   1.06207   1.06410
 Alpha virt. eigenvalues --    1.06839   1.06967   1.07358   1.07890   1.08032
 Alpha virt. eigenvalues --    1.08137   1.08619   1.08869   1.09428   1.09866
 Alpha virt. eigenvalues --    1.10335   1.10482   1.11117   1.11307   1.11908
 Alpha virt. eigenvalues --    1.12195   1.12398   1.13218   1.13851   1.14294
 Alpha virt. eigenvalues --    1.14629   1.14983   1.15801   1.16943   1.17226
 Alpha virt. eigenvalues --    1.18167   1.18496   1.18721   1.18915   1.19325
 Alpha virt. eigenvalues --    1.19950   1.20413   1.20613   1.20768   1.22291
 Alpha virt. eigenvalues --    1.22669   1.22767   1.22849   1.23455   1.24146
 Alpha virt. eigenvalues --    1.24877   1.25198   1.25783   1.26266   1.26744
 Alpha virt. eigenvalues --    1.27338   1.28405   1.28621   1.28828   1.29451
 Alpha virt. eigenvalues --    1.30123   1.30224   1.30731   1.31730   1.31942
 Alpha virt. eigenvalues --    1.32404   1.32800   1.33209   1.33723   1.34116
 Alpha virt. eigenvalues --    1.34754   1.35018   1.35440   1.35830   1.36547
 Alpha virt. eigenvalues --    1.36912   1.37229   1.37566   1.38616   1.38684
 Alpha virt. eigenvalues --    1.39094   1.39495   1.39850   1.40603   1.40818
 Alpha virt. eigenvalues --    1.41680   1.41806   1.42596   1.42947   1.43521
 Alpha virt. eigenvalues --    1.43676   1.43893   1.44641   1.45607   1.46161
 Alpha virt. eigenvalues --    1.46321   1.46843   1.47315   1.47672   1.48360
 Alpha virt. eigenvalues --    1.49227   1.49720   1.50164   1.51035   1.51132
 Alpha virt. eigenvalues --    1.51267   1.51637   1.52080   1.52880   1.53011
 Alpha virt. eigenvalues --    1.54090   1.54505   1.54926   1.55330   1.55949
 Alpha virt. eigenvalues --    1.56184   1.56538   1.56936   1.57294   1.58099
 Alpha virt. eigenvalues --    1.58534   1.58851   1.59044   1.59434   1.60217
 Alpha virt. eigenvalues --    1.60570   1.60833   1.61628   1.62299   1.62473
 Alpha virt. eigenvalues --    1.62622   1.62764   1.63166   1.63387   1.64020
 Alpha virt. eigenvalues --    1.64133   1.64275   1.64635   1.65258   1.65393
 Alpha virt. eigenvalues --    1.65567   1.65864   1.66158   1.66791   1.67630
 Alpha virt. eigenvalues --    1.67832   1.67835   1.67986   1.68061   1.69297
 Alpha virt. eigenvalues --    1.69604   1.70473   1.70810   1.71401   1.71642
 Alpha virt. eigenvalues --    1.72103   1.72717   1.73172   1.73499   1.73797
 Alpha virt. eigenvalues --    1.74209   1.74457   1.74801   1.75586   1.75815
 Alpha virt. eigenvalues --    1.75976   1.76685   1.77142   1.77579   1.77995
 Alpha virt. eigenvalues --    1.78289   1.79169   1.79241   1.79684   1.80200
 Alpha virt. eigenvalues --    1.80464   1.80869   1.80903   1.81266   1.81456
 Alpha virt. eigenvalues --    1.81674   1.81996   1.82205   1.82576   1.82763
 Alpha virt. eigenvalues --    1.82970   1.83015   1.83255   1.83645   1.84260
 Alpha virt. eigenvalues --    1.84580   1.84770   1.84943   1.85123   1.85524
 Alpha virt. eigenvalues --    1.85729   1.85799   1.86071   1.86307   1.86549
 Alpha virt. eigenvalues --    1.87028   1.87138   1.87390   1.87482   1.87859
 Alpha virt. eigenvalues --    1.88190   1.88339   1.88470   1.88676   1.88882
 Alpha virt. eigenvalues --    1.89150   1.89604   1.89736   1.89926   1.90253
 Alpha virt. eigenvalues --    1.90473   1.90731   1.90960   1.91231   1.91354
 Alpha virt. eigenvalues --    1.91605   1.91748   1.92044   1.92843   1.93401
 Alpha virt. eigenvalues --    1.93651   1.93719   1.93916   1.93996   1.94359
 Alpha virt. eigenvalues --    1.94703   1.95051   1.95193   1.95558   1.95871
 Alpha virt. eigenvalues --    1.96377   1.96674   1.96835   1.97036   1.97284
 Alpha virt. eigenvalues --    1.98125   1.98171   1.98503   1.98626   1.98721
 Alpha virt. eigenvalues --    1.99029   1.99344   1.99591   1.99712   1.99757
 Alpha virt. eigenvalues --    2.00031   2.00219   2.00525   2.00619   2.01139
 Alpha virt. eigenvalues --    2.01363   2.01711   2.01967   2.02693   2.02834
 Alpha virt. eigenvalues --    2.02953   2.03101   2.03355   2.03598   2.03905
 Alpha virt. eigenvalues --    2.04211   2.04790   2.05030   2.05220   2.05545
 Alpha virt. eigenvalues --    2.05705   2.06731   2.06893   2.07063   2.07440
 Alpha virt. eigenvalues --    2.07602   2.07989   2.08238   2.08613   2.08991
 Alpha virt. eigenvalues --    2.09234   2.09550   2.09738   2.10556   2.10838
 Alpha virt. eigenvalues --    2.11025   2.11149   2.11518   2.11650   2.11802
 Alpha virt. eigenvalues --    2.12269   2.12868   2.12985   2.13124   2.13269
 Alpha virt. eigenvalues --    2.13735   2.14106   2.14797   2.14911   2.15310
 Alpha virt. eigenvalues --    2.15752   2.15909   2.16630   2.16689   2.16968
 Alpha virt. eigenvalues --    2.17878   2.18269   2.18428   2.18645   2.18861
 Alpha virt. eigenvalues --    2.19053   2.19260   2.19599   2.20198   2.20664
 Alpha virt. eigenvalues --    2.21214   2.21411   2.21876   2.22075   2.22237
 Alpha virt. eigenvalues --    2.22561   2.22903   2.23184   2.23363   2.23458
 Alpha virt. eigenvalues --    2.23794   2.24739   2.25419   2.25539   2.25658
 Alpha virt. eigenvalues --    2.26409   2.26539   2.26742   2.27064   2.27642
 Alpha virt. eigenvalues --    2.27722   2.28270   2.29018   2.29105   2.29512
 Alpha virt. eigenvalues --    2.29761   2.29797   2.30342   2.30361   2.30800
 Alpha virt. eigenvalues --    2.31090   2.31880   2.32408   2.32519   2.32848
 Alpha virt. eigenvalues --    2.32994   2.33148   2.33556   2.34071   2.34268
 Alpha virt. eigenvalues --    2.34768   2.34883   2.35131   2.35218   2.35283
 Alpha virt. eigenvalues --    2.35470   2.36426   2.36518   2.36731   2.37021
 Alpha virt. eigenvalues --    2.37255   2.37573   2.38252   2.38512   2.38608
 Alpha virt. eigenvalues --    2.39145   2.39457   2.39687   2.39726   2.40020
 Alpha virt. eigenvalues --    2.40495   2.41133   2.41210   2.41649   2.42087
 Alpha virt. eigenvalues --    2.42232   2.42354   2.42798   2.42848   2.43618
 Alpha virt. eigenvalues --    2.44133   2.44438   2.44853   2.44999   2.45386
 Alpha virt. eigenvalues --    2.45422   2.45479   2.45837   2.46121   2.46252
 Alpha virt. eigenvalues --    2.46602   2.47177   2.47456   2.47748   2.48017
 Alpha virt. eigenvalues --    2.48416   2.48758   2.48944   2.49095   2.49927
 Alpha virt. eigenvalues --    2.50210   2.50776   2.51308   2.51630   2.51877
 Alpha virt. eigenvalues --    2.51911   2.52429   2.52615   2.53244   2.53507
 Alpha virt. eigenvalues --    2.54014   2.54222   2.54686   2.54876   2.56021
 Alpha virt. eigenvalues --    2.56235   2.56364   2.56566   2.56876   2.57270
 Alpha virt. eigenvalues --    2.57497   2.57857   2.58268   2.59154   2.59277
 Alpha virt. eigenvalues --    2.59538   2.59965   2.60293   2.60813   2.60986
 Alpha virt. eigenvalues --    2.61336   2.61481   2.62184   2.62643   2.62767
 Alpha virt. eigenvalues --    2.62922   2.63521   2.63799   2.64232   2.64311
 Alpha virt. eigenvalues --    2.64425   2.64849   2.65325   2.65505   2.65721
 Alpha virt. eigenvalues --    2.66449   2.66824   2.66961   2.67023   2.68221
 Alpha virt. eigenvalues --    2.68300   2.68835   2.69437   2.69499   2.69678
 Alpha virt. eigenvalues --    2.69782   2.70011   2.70390   2.70576   2.70889
 Alpha virt. eigenvalues --    2.71069   2.71360   2.71696   2.71941   2.72150
 Alpha virt. eigenvalues --    2.72519   2.72695   2.72880   2.73298   2.73398
 Alpha virt. eigenvalues --    2.74145   2.74345   2.74528   2.75027   2.75512
 Alpha virt. eigenvalues --    2.75651   2.75930   2.76169   2.76438   2.76881
 Alpha virt. eigenvalues --    2.76999   2.77176   2.77791   2.77932   2.78226
 Alpha virt. eigenvalues --    2.78753   2.79027   2.79383   2.79822   2.80274
 Alpha virt. eigenvalues --    2.80842   2.81350   2.81468   2.81755   2.81799
 Alpha virt. eigenvalues --    2.82663   2.82873   2.83165   2.83840   2.84086
 Alpha virt. eigenvalues --    2.84335   2.85008   2.85402   2.85597   2.86533
 Alpha virt. eigenvalues --    2.86938   2.87307   2.87332   2.87699   2.88182
 Alpha virt. eigenvalues --    2.88845   2.88975   2.89437   2.89659   2.89873
 Alpha virt. eigenvalues --    2.90262   2.90398   2.90679   2.91396   2.91545
 Alpha virt. eigenvalues --    2.92204   2.92526   2.93032   2.93244   2.93538
 Alpha virt. eigenvalues --    2.94058   2.94416   2.94800   2.95133   2.95151
 Alpha virt. eigenvalues --    2.95732   2.95920   2.96395   2.96841   2.97532
 Alpha virt. eigenvalues --    2.97602   2.97981   2.98194   2.98776   2.99032
 Alpha virt. eigenvalues --    3.00356   3.00623   3.00837   3.01461   3.02477
 Alpha virt. eigenvalues --    3.02608   3.02732   3.03255   3.03711   3.04550
 Alpha virt. eigenvalues --    3.04851   3.05906   3.06277   3.06919   3.07249
 Alpha virt. eigenvalues --    3.07399   3.08931   3.09042   3.09693   3.10026
 Alpha virt. eigenvalues --    3.11380   3.11554   3.13188   3.13656   3.14454
 Alpha virt. eigenvalues --    3.15306   3.16608   3.16931   3.18798   3.19739
 Alpha virt. eigenvalues --    3.20066   3.20341   3.21241   3.22116   3.22509
 Alpha virt. eigenvalues --    3.22988   3.23480   3.23551   3.23613   3.24487
 Alpha virt. eigenvalues --    3.26603   3.27372   3.27716   3.28171   3.29142
 Alpha virt. eigenvalues --    3.29684   3.30489   3.31217   3.32655   3.32689
 Alpha virt. eigenvalues --    3.32963   3.33391   3.35135   3.35285   3.35975
 Alpha virt. eigenvalues --    3.36414   3.37325   3.37671   3.37890   3.38461
 Alpha virt. eigenvalues --    3.38532   3.39358   3.40212   3.41075   3.42025
 Alpha virt. eigenvalues --    3.42846   3.43102   3.44338   3.44432   3.45481
 Alpha virt. eigenvalues --    3.45632   3.46330   3.46597   3.46672   3.47039
 Alpha virt. eigenvalues --    3.47152   3.48976   3.49430   3.50334   3.53080
 Alpha virt. eigenvalues --    3.54823   3.54908   3.55080   3.56060   3.56166
 Alpha virt. eigenvalues --    3.56615   3.58842   3.58901   3.59654   3.60366
 Alpha virt. eigenvalues --    3.62607   3.63810   3.64596   3.66090   3.66386
 Alpha virt. eigenvalues --    3.68031   3.72387   3.74211   3.74482   3.74558
 Alpha virt. eigenvalues --    3.75187   3.80839   3.81763   4.03072   4.06159
 Alpha virt. eigenvalues --    4.08900   4.14120   4.14149   4.17754   4.18206
 Alpha virt. eigenvalues --    4.19172   4.20437   4.20675   4.21989   4.23137
 Alpha virt. eigenvalues --    4.25626   4.26614   4.27486   4.28683   4.30628
 Alpha virt. eigenvalues --    4.32264   4.32415   4.32749   4.34844   4.35108
 Alpha virt. eigenvalues --    4.37721   4.38849   4.40746   4.41439   4.42483
 Alpha virt. eigenvalues --    4.42735   4.43494   4.44780   4.46293   4.47795
 Alpha virt. eigenvalues --    4.47911   4.48052   4.49359   4.51489   4.52562
 Alpha virt. eigenvalues --    4.53068   4.54393   4.55308   4.56407   4.56662
 Alpha virt. eigenvalues --    4.57265   4.57792   4.59070   4.59627   4.64000
 Alpha virt. eigenvalues --    4.64709   4.65550   4.67203   4.67553   4.69297
 Alpha virt. eigenvalues --    4.70212   4.71671   4.72569   4.75338   4.75489
 Alpha virt. eigenvalues --    4.80090   4.81613   4.81973   4.83864   4.85221
 Alpha virt. eigenvalues --    4.86054   4.91300   5.00998
          Condensed to atoms (all electrons):
 Mulliken charges:
               1
     1  Mg   0.825870
     2  C    0.035029
     3  C   -0.152376
     4  C   -0.179900
     5  C   -0.159973
     6  N   -0.643985
     7  C    0.334646
     8  C   -0.137324
     9  C   -0.206950
    10  C    0.340209
    11  C   -0.281524
    12  C   -0.187119
    13  C   -0.247515
    14  C    0.593300
    15  O   -0.440886
    16  O   -0.492517
    17  N   -0.691900
    18  C    0.253297
    19  C    0.014153
    20  C   -0.039385
    21  C    0.338637
    22  C   -0.355939
    23  C   -0.057842
    24  C   -0.250541
    25  N   -0.686331
    26  C    0.297469
    27  C    0.072319
    28  C    0.016585
    29  C    0.316605
    30  C   -0.381324
    31  C   -0.246589
    32  C   -0.288309
    33  N   -0.708565
    34  C    0.261294
    35  C   -0.039137
    36  C    0.014635
    37  C    0.283778
    38  C   -0.370216
    39  C    0.373889
    40  O   -0.472940
    41  C   -0.297581
    42  C    0.612538
    43  O   -0.463562
    44  O   -0.477649
    45  C   -0.096746
    46  C    0.025714
    47  C   -0.057872
    48  C    0.109447
    49  C   -0.361571
    50  C   -0.242069
    51  C   -0.170719
    52  C   -0.173163
    53  C   -0.030084
    54  C   -0.282041
    55  C   -0.167772
    56  C   -0.207597
    57  C   -0.152554
    58  C   -0.089165
    59  C   -0.283735
    60  C   -0.143934
    61  C   -0.194904
    62  C   -0.170952
    63  C   -0.043920
    64  C   -0.294068
    65  C   -0.322813
    66  H    0.061558
    67  H    0.066292
    68  H    0.068938
    69  H    0.118021
    70  H    0.096468
    71  H    0.118983
    72  H    0.079002
    73  H    0.133345
    74  H    0.120651
    75  H    0.125581
    76  H    0.145248
    77  H    0.136852
    78  H    0.119655
    79  H    0.122259
    80  H    0.122595
    81  H    0.091025
    82  H    0.084436
    83  H    0.105067
    84  H    0.141756
    85  H    0.099711
    86  H    0.103411
    87  H    0.093173
    88  H    0.099498
    89  H    0.108833
    90  H    0.094435
    91  H    0.128438
    92  H    0.131557
    93  H    0.151941
    94  H    0.133898
    95  H    0.154984
    96  H    0.147997
    97  H    0.131574
    98  H    0.147949
    99  H    0.087935
   100  H    0.107786
   101  H    0.041741
   102  H    0.098628
   103  H    0.116486
   104  H    0.135790
   105  H    0.094709
   106  H    0.102577
   107  H    0.115797
   108  H    0.072872
   109  H    0.096199
   110  H    0.070666
   111  H    0.099261
   112  H    0.056166
   113  H    0.091052
   114  H    0.089848
   115  H    0.082241
   116  H    0.091888
   117  H    0.094899
   118  H    0.070135
   119  H    0.100063
   120  H    0.088374
   121  H    0.080664
   122  H    0.041839
   123  H    0.099533
   124  H    0.117293
   125  H    0.082648
   126  H    0.081118
   127  H    0.097207
   128  H    0.091603
   129  H    0.097004
   130  H    0.094619
   131  H    0.083718
   132  H    0.086275
   133  H    0.116325
   134  H    0.074124
   135  H    0.083657
   136  H    0.106345
   137  H    0.099932
 Sum of Mulliken charges =  -0.00000
 Mulliken charges with hydrogens summed into heavy atoms:
               1
     1  Mg   0.825870
     2  C    0.035029
     3  C   -0.090818
     4  C   -0.113607
     5  C   -0.091035
     6  N   -0.643985
     7  C    0.334646
     8  C   -0.019302
     9  C   -0.110483
    10  C    0.340209
    11  C    0.049805
    12  C    0.059113
    13  C    0.034584
    14  C    0.593300
    15  O   -0.440886
    16  O   -0.492517
    17  N   -0.691900
    18  C    0.253297
    19  C    0.014153
    20  C   -0.039385
    21  C    0.338637
    22  C    0.008570
    23  C    0.033183
    24  C   -0.061038
    25  N   -0.686331
    26  C    0.297469
    27  C    0.072319
    28  C    0.016585
    29  C    0.316605
    30  C   -0.036446
    31  C   -0.053919
    32  C    0.043397
    33  N   -0.708565
    34  C    0.261294
    35  C   -0.039137
    36  C    0.014635
    37  C    0.283778
    38  C    0.047179
    39  C    0.373889
    40  O   -0.472940
    41  C   -0.142597
    42  C    0.612538
    43  O   -0.463562
    44  O   -0.477649
    45  C    0.330774
    46  C    0.221435
    47  C   -0.016131
    48  C    0.109447
    49  C   -0.010667
    50  C   -0.044783
    51  C    0.017950
    52  C   -0.006299
    53  C    0.069177
    54  C   -0.044974
    55  C    0.006357
    56  C   -0.042564
    57  C    0.035883
    58  C   -0.008501
    59  C   -0.025070
    60  C    0.019831
    61  C   -0.006094
    62  C    0.020671
    63  C    0.039798
    64  C   -0.017343
    65  C   -0.032879
 Electronic spatial extent (au):  <R**2>=         179380.6048
 Charge=             -0.0000 electrons
 Dipole moment (field-independent basis, Debye):
    X=              2.0138    Y=              3.8537    Z=              0.8887  Tot=              4.4380
 Quadrupole moment (field-independent basis, Debye-Ang):
   XX=           -347.4904   YY=           -400.9715   ZZ=           -395.6915
   XY=             -3.0196   XZ=             14.3220   YZ=             -4.8058
 Traceless Quadrupole moment (field-independent basis, Debye-Ang):
   XX=             33.8941   YY=            -19.5870   ZZ=            -14.3070
   XY=             -3.0196   XZ=             14.3220   YZ=             -4.8058
 Octapole moment (field-independent basis, Debye-Ang**2):
  XXX=           -256.0464  YYY=             89.2039  ZZZ=             24.0706  XYY=             -4.0044
  XXY=            213.0415  XXZ=           -234.8079  XZZ=             -7.6248  YZZ=            -29.3119
  YYZ=             51.8118  XYZ=            -24.8861
 Hexadecapole moment (field-independent basis, Debye-Ang**3):
 XXXX=        -211971.8334 YYYY=         -17993.9362 ZZZZ=          -4249.5286 XXXY=           3372.7313
 XXXZ=           2216.4214 YYYX=           -623.0843 YYYZ=           -255.6734 ZZZX=             21.7545
 ZZZY=           -142.6772 XXYY=         -41147.5162 XXZZ=         -38684.3507 YYZZ=          -3536.4935
 XXYZ=           -161.7586 YYXZ=            157.0708 ZZXY=            100.0765
 N-N= 8.746061642822D+03 E-N=-2.431639421921D+04  KE= 2.906898832000D+03

 Test job not archived.
 1\1\GINC-RYZEN-SSD3\SP\RCAM-B3LYP TD-FC\6-31G(d,p)\C55H72Mg1N4O5\PADAW
 AN\10-Sep-2019\0\\# td=(NStates=1) iop(3/107=0140000000,3/108=01400000
 00) CAM-B3LYP/6-31G(d,p)\\TD\\0,1\Mg,0,-7.179572649,0.6041788014,0.227
 7091409\C,0,-4.8455533718,-1.9767549061,0.4968050829\C,0,-4.7634423748
 ,2.8441031282,1.3299430995\C,0,-9.4119379583,3.0692944824,-0.371919667
 3\C,0,-9.640270125,-1.6707288386,-0.7989166966\N,0,-5.0756645977,0.415
 5076414,0.625190343\C,0,-4.3139236397,-0.6834794911,0.8637842731\C,0,-
 2.978584079,-0.4803664346,1.3388795571\C,0,-3.1175149784,0.9638950911,
 1.7266689462\C,0,-4.3439146262,1.5212367748,1.2401684107\C,0,-3.022738
 4546,1.1075735767,3.2733726519\C,0,-1.9822539551,-0.7360095902,0.10372
 41827\C,0,-0.526228332,-0.5325465027,0.5675601383\C,0,0.4400859318,-0.
 6850451264,-0.5861384039\O,0,0.1918894057,-0.897083486,-1.7383712302\O
 ,0,1.7638649849,-0.4705569941,-0.0947848661\N,0,-7.1348211255,2.611474
 3573,0.3621871428\C,0,-6.0120313469,3.3337871461,0.7047663527\C,0,-6.2
 570206105,4.8258794515,0.6171199707\C,0,-7.6343582211,4.8259844036,0.2
 647125977\C,0,-8.1181113386,3.4913060694,0.0892669253\C,0,-5.278749908
 9,5.9187613498,0.9441945747\C,0,-8.4557755856,6.1516854381,0.116172229
 7\C,0,-8.1787262826,7.3534744971,0.632117271\N,0,-9.1145704981,0.71449
 84442,-0.4373703109\C,0,-9.8710345898,1.7991532396,-0.6579086044\C,0,-
 11.2125652092,1.4923486794,-1.0727521349\C,0,-11.1967191591,0.19012655
 85,-1.2826582941\C,0,-9.9205596596,-0.3049806915,-0.8358657879\C,0,-12
 .1979007278,2.5323884802,-1.3714966024\C,0,-12.3131151044,-0.716187742
 6,-1.8904983804\C,0,-11.992461155,-1.269437136,-3.3248231335\N,0,-7.32
 5635526,-1.3530601417,-0.0924119163\C,0,-8.2911134376,-2.1537039159,-0
 .4745190318\C,0,-7.8703090707,-3.5715277042,-0.5699472945\C,0,-6.48056
 58471,-3.5356765498,-0.1857906608\C,0,-6.2246661983,-2.139031859,0.053
 2171571\C,0,-8.7205943989,-4.8860247009,-0.8976031434\C,0,-5.323267789
 7,-4.3799815616,0.1541103851\O,0,-5.1549764899,-5.5980466617,0.2146074
 093\C,0,-4.2125557582,-3.3649839458,0.5287211937\C,0,-3.575351712,-3.7
 229502377,1.886964665\O,0,-3.8907918626,-3.2690342613,2.947608119\O,0,
 -2.6993652893,-4.759154534,1.6227513126\C,0,-2.0655655136,-5.317166922
 6,2.9059679972\C,0,2.7685431747,-0.5773960285,-1.1245159688\C,0,4.1120
 520904,-0.4452497929,-0.3445670195\C,0,5.0656520565,0.3735138794,-0.82
 77256496\C,0,4.9117248981,1.2415118265,-2.0864127763\C,0,6.3567319519,
 0.3730079168,-0.0987704014\C,0,7.5551869713,-0.2725858066,-0.941454474
 1\C,0,8.9229100026,-0.0845502711,-0.2503111335\C,0,10.1441198726,-0.56
 6578321,-0.9358893089\C,0,10.0724905257,-2.0083587158,-1.3017671427\C,
 0,11.4022448883,-0.3080056917,-0.067064669\C,0,12.7409618317,-0.461146
 1481,-0.7916566708\C,0,14.0144527171,-0.0402897433,0.1390103126\C,0,15
 .3450905001,-0.149974081,-0.5674123937\C,0,15.6509313641,-1.682256614,
 -1.053647191\C,0,16.4468016729,0.3635628736,0.3322979645\C,0,17.865674
 1551,0.3836620958,-0.1248890159\C,0,18.7612765463,1.3498230608,0.74654
 79115\C,0,20.2630291073,1.3497044029,0.2144081468\C,0,20.4648593317,2.
 1573230374,-1.0101757135\C,0,21.1385089179,2.0346151614,1.3474386839\H
 ,0,-4.0910694704,3.3592191733,1.8383699328\H,0,-10.2374258659,3.735965
 8711,-0.5995044766\H,0,-10.2081052346,-2.4590014352,-1.0992277422\H,0,
 -2.6226195492,-1.1695871614,2.1238288736\H,0,-2.2638298493,1.606502711
 4,1.3050641554\H,0,-2.1411171981,0.6604251489,3.6085411915\H,0,-2.8857
 156807,2.3159808209,3.2667146937\H,0,-3.9578185824,0.7867638307,3.7633
 88024\H,0,-2.1256776868,-1.7047211429,-0.5277507822\H,0,-2.2606424332,
 0.0288505049,-0.5475814927\H,0,-0.3434997787,0.4046300503,0.8681406771
 \H,0,-0.3415825786,-1.3380645731,1.3136948278\H,0,-5.6060347812,6.7500
 325153,0.1955193832\H,0,-5.3889203633,6.3987327547,1.9587278853\H,0,-4
 .4052753721,5.5447987479,0.7143421668\H,0,-9.1895092107,6.070520434,-0
 .6997413268\H,0,-8.7308021439,8.297859507,0.1043802137\H,0,-7.52553048
 51,7.6079076272,1.5310920695\H,0,-11.8113516082,3.1695361007,-2.097435
 5751\H,0,-13.0309603937,1.9169304354,-1.8307288011\H,0,-12.5481658493,
 3.2833556697,-0.450325472\H,0,-12.3379057555,-1.6042113439,-1.11219472
 04\H,0,-13.2213744365,-0.1002427348,-1.7744231967\H,0,-12.9724524444,-
 1.8256562277,-3.6019811562\H,0,-12.2342938351,-0.281816653,-3.97998697
 71\H,0,-11.0599408335,-1.7140724344,-3.3238306613\H,0,-9.1821628349,-4
 .8173882396,-1.9199080538\H,0,-8.0577401592,-5.7637323265,-0.539013856
 5\H,0,-9.4478189609,-4.7285513035,-0.0743597047\H,0,-3.4487023887,-3.4
 907656822,-0.1506027984\H,0,-1.7853219198,-4.4911413275,3.418783596\H,
 0,-2.9763840757,-5.6788274076,3.5486659043\H,0,-1.4995004705,-6.135974
 3822,2.4246358247\H,0,2.7956876236,-1.7686334861,-1.5008115299\H,0,2.5
 151379551,0.1471628011,-2.0828993474\H,0,4.2632468114,-0.83136155,0.44
 13255328\H,0,3.8435396655,1.2544309858,-2.5984503307\H,0,5.3974266749,
 2.1529357175,-1.8320106395\H,0,5.5403436029,0.8396151524,-2.8112073776
 \H,0,6.5877269566,1.4257225529,-0.0138717733\H,0,6.2658744595,-0.01040
 83775,0.8398801835\H,0,7.4461367365,-1.2692976028,-1.1382585831\H,0,7.
 3399565542,0.3175408571,-1.9227030932\H,0,8.9957556199,0.8636458621,0.
 1725096791\H,0,8.7683799588,-0.5309614488,0.8191580392\H,0,10.35572020
 38,-0.0686607183,-1.7776429223\H,0,8.8949091,-2.0790561891,-1.85466384
 83\H,0,10.9177109117,-2.4499583951,-2.0419395521\H,0,10.0874109382,-2.
 7020343181,-0.3499123849\H,0,11.2382554671,0.7018766211,0.3545632271\H
 ,0,11.4163292284,-1.0854598436,0.7102273428\H,0,12.9003279853,-1.55662
 30816,-1.0586881403\H,0,12.6893347634,0.0214470807,-1.882882622\H,0,13
 .8119826186,1.0221775811,0.2697117999\H,0,14.1105293635,-0.6865150304,
 1.0444868227\H,0,15.1823486363,0.3407374707,-1.5295242212\H,0,15.56446
 02428,-2.2725265939,0.1458064451\H,0,14.6868203264,-1.8420987299,-1.64
 97263461\H,0,16.5887271523,-1.7209029873,-1.5845849718\H,0,16.19074234
 77,1.44776311,0.3404099573\H,0,16.2912432021,-0.1886451493,1.311049599
 7\H,0,18.3783145692,-0.529919506,-0.1177819738\H,0,17.9976370733,0.719
 1008042,-1.1234980934\H,0,18.2125403109,2.1663078988,0.7545173985\H,0,
 18.6848544479,1.1226671062,1.7522084663\H,0,20.6844482771,0.2877397716
 ,0.0270786001\H,0,20.1187186904,3.2559263691,-0.7768098657\H,0,21.4381
 976206,2.3159227344,-1.3715351347\H,0,19.5367820758,1.9273230225,-1.80
 04384282\H,0,21.2785917127,1.5318388248,2.3655102198\H,0,22.040221915,
 2.1984903197,1.0349701506\H,0,20.8103211106,3.0048866059,1.7259297297\
 \Version=ES64L-G16RevA.03\State=1-A\HF=-2933.4330539\RMSD=6.546e-09\PG
 =C01 [X(C55H72Mg1N4O5)]\\@


 SCIENCE IS LONG AND LIFE IS SHORT.

                     DON MOSER IN THE FEBRUARY 1979 SMITHSONIAN
 Job cpu time:       1 days  0 hours 16 minutes 23.0 seconds.
 Elapsed time:       0 days  6 hours  5 minutes  4.4 seconds.
 File lengths (MBytes):  RWF=   6809 Int=      0 D2E=      0 Chk=    181 Scr=      1
 Normal termination of Gaussian 16 at Tue Sep 10 08:08:06 2019.
