 Entering Gaussian System, Link 0=g16
 Input=Geometria-121-.com
 Output=Geometria-121-.log
 Initial command:
 /usr/local/g09/l1.exe "/home/padawan/israel-mol/chlorophyll-a/spectra/emi/Gau-112290.inp" -scrdir="/home/padawan/israel-mol/chlorophyll-a/spectra/emi/"
 Entering Link 1 = /usr/local/g09/l1.exe PID=    112292.
  
 Copyright (c) 1988,1990,1992,1993,1995,1998,2003,2009,2013,
            Gaussian, Inc.  All Rights Reserved.
  
 This is part of the Gaussian(R) 09 program.  It is based on
 the Gaussian(R) 03 system (copyright 2003, Gaussian, Inc.),
 the Gaussian(R) 98 system (copyright 1998, Gaussian, Inc.),
 the Gaussian(R) 94 system (copyright 1995, Gaussian, Inc.),
 the Gaussian 92(TM) system (copyright 1992, Gaussian, Inc.),
 the Gaussian 90(TM) system (copyright 1990, Gaussian, Inc.),
 the Gaussian 88(TM) system (copyright 1988, Gaussian, Inc.),
 the Gaussian 86(TM) system (copyright 1986, Carnegie Mellon
 University), and the Gaussian 82(TM) system (copyright 1983,
 Carnegie Mellon University). Gaussian is a federally registered
 trademark of Gaussian, Inc.
  
 This software contains proprietary and confidential information,
 including trade secrets, belonging to Gaussian, Inc.
  
 This software is provided under written license and may be
 used, copied, transmitted, or stored only in accord with that
 written license.
  
 The following legend is applicable only to US Government
 contracts under FAR:
  
                    RESTRICTED RIGHTS LEGEND
  
 Use, reproduction and disclosure by the US Government is
 subject to restrictions as set forth in subparagraphs (a)
 and (c) of the Commercial Computer Software - Restricted
 Rights clause in FAR 52.227-19.
  
 Gaussian, Inc.
 340 Quinnipiac St., Bldg. 40, Wallingford CT 06492
  
  
 ---------------------------------------------------------------
 Warning -- This program may not be used in any manner that
 competes with the business of Gaussian, Inc. or will provide
 assistance to any competitor of Gaussian, Inc.  The licensee
 of this program is prohibited from giving any competitor of
 Gaussian, Inc. access to this program.  By using this program,
 the user acknowledges that Gaussian, Inc. is engaged in the
 business of creating and licensing software in the field of
 computational chemistry and represents and warrants to the
 licensee that it is not a competitor of Gaussian, Inc. and that
 it will not use this program in any manner prohibited above.
 ---------------------------------------------------------------
  

 Cite this work as:
 Gaussian 09, Revision D.01,
 M. J. Frisch, G. W. Trucks, H. B. Schlegel, G. E. Scuseria, 
 M. A. Robb, J. R. Cheeseman, G. Scalmani, V. Barone, B. Mennucci, 
 G. A. Petersson, H. Nakatsuji, M. Caricato, X. Li, H. P. Hratchian, 
 A. F. Izmaylov, J. Bloino, G. Zheng, J. L. Sonnenberg, M. Hada, 
 M. Ehara, K. Toyota, R. Fukuda, J. Hasegawa, M. Ishida, T. Nakajima, 
 Y. Honda, O. Kitao, H. Nakai, T. Vreven, J. A. Montgomery, Jr., 
 J. E. Peralta, F. Ogliaro, M. Bearpark, J. J. Heyd, E. Brothers, 
 K. N. Kudin, V. N. Staroverov, T. Keith, R. Kobayashi, J. Normand, 
 K. Raghavachari, A. Rendell, J. C. Burant, S. S. Iyengar, J. Tomasi, 
 M. Cossi, N. Rega, J. M. Millam, M. Klene, J. E. Knox, J. B. Cross, 
 V. Bakken, C. Adamo, J. Jaramillo, R. Gomperts, R. E. Stratmann, 
 O. Yazyev, A. J. Austin, R. Cammi, C. Pomelli, J. W. Ochterski, 
 R. L. Martin, K. Morokuma, V. G. Zakrzewski, G. A. Voth, 
 P. Salvador, J. J. Dannenberg, S. Dapprich, A. D. Daniels, 
 O. Farkas, J. B. Foresman, J. V. Ortiz, J. Cioslowski, 
 and D. J. Fox, Gaussian, Inc., Wallingford CT, 2013.
 
 ******************************************
 Gaussian 09:  ES64L-G09RevD.01 24-Apr-2013
                 3-Jul-2019 
 ******************************************
 %nproc=4
 Will use up to    4 processors via shared memory.
 %Mem=2GB
 -------------------------------------
 # td=(NStates=1) CAM-B3LYP/6-31G(d,p)
 -------------------------------------
 1/38=1/1;
 2/12=2,17=6,18=5,40=1/2;
 3/5=1,6=6,7=101,11=9,16=1,25=1,30=1,74=-40/1,2,8,3;
 4//1;
 5/5=2,38=5/2;
 8/6=1,10=2,108=1/1;
 9/41=1,42=1,70=2/14;
 6/7=2,8=2,9=2,10=2/1;
 99/5=1,9=1/99;
 --
 TD
 --
 Symbolic Z-matrix:
 Charge =  0 Multiplicity = 1
 12                   -7.20077   0.7021    0.12864 
 6                    -4.90269  -1.91798   0.46737 
 6                    -4.83337   2.88348   1.0315 
 6                    -9.44215   2.98864  -0.34809 
 6                    -9.59439  -1.77821  -0.84934 
 7                    -5.13454   0.4461    0.66589 
 6                    -4.34259  -0.64851   0.7457 
 6                    -2.87902  -0.33539   1.11302 
 6                    -2.92318   1.09893   1.53939 
 6                    -4.33914   1.50378   1.04467 
 6                    -2.96111   1.35185   3.07936 
 6                    -1.89057  -0.6449   -0.03063 
 6                    -0.54238  -0.40344   0.59094 
 6                     0.55489  -0.68132  -0.5686 
 8                     0.26823  -0.97933  -1.75825 
 8                     1.79507  -0.48002  -0.12873 
 7                    -7.19253   2.55665   0.28766 
 6                    -6.08179   3.34359   0.65399 
 6                    -6.45878   4.73247   0.74208 
 6                    -7.80914   4.82555   0.43519 
 6                    -8.28799   3.42495   0.0948 
 6                    -5.51801   5.83664   1.25533 
 6                    -8.64106   5.96654   0.32785 
 6                    -8.54245   7.11887   1.03568 
 7                    -9.16696   0.59633  -0.50487 
 6                    -9.94264   1.7392   -0.69139 
 6                    -11.27323   1.40027  -1.11067 
 6                    -11.26799   0.10586  -1.35576 
 6                    -9.93125  -0.51781  -0.89018 
 6                    -12.28148   2.49555  -1.41208 
 6                    -12.41978  -0.7814   -1.88492 
 6                    -12.37913  -0.99313  -3.38523 
 7                    -7.30287  -1.43096  -0.2175 
 6                    -8.28563  -2.27689  -0.5294 
 6                    -7.84837  -3.58607  -0.47992 
 6                    -6.56214  -3.58694  -0.06939 
 6                    -6.28686  -2.20129   0.09524 
 6                    -8.5915   -4.91816  -0.83729 
 6                    -5.33459  -4.37088   0.27222 
 8                    -5.13488  -5.48973   0.29434 
 6                    -4.20525  -3.28576   0.5511 
 6                    -3.61695  -3.62917   1.9046 
 8                    -3.79329  -3.02772   2.97546 
 8                    -2.74868  -4.67685   1.85992 
 6                    -2.05063  -4.98716   3.11377 
 6                     2.8889   -0.67718  -1.09305 
 6                     4.18332  -0.30002  -0.48445 
 6                     5.22004   0.25719  -1.00446 
 6                     5.23123   1.14811  -2.14249 
 6                     6.48114   0.46328  -0.21642 
 6                     7.73133  -0.242    -0.95945 
 6                     8.9306   -0.27243  -0.12072 
 6                     10.26675  -0.66522  -0.84511 
 6                     10.13406  -2.09472  -1.29229 
 6                     11.49223  -0.30484   0.01805 
 6                     12.73895  -0.40456  -0.79106 
 6                     13.92376   0.01717   0.01891 
 6                     15.42428  -0.14772  -0.541 
 6                     15.67761  -1.54756  -0.86678 
 6                     16.47451   0.41618   0.43846 
 6                     17.93516   0.45812  -0.1193 
 6                     18.96794   1.20735   0.77313 
 6                     20.2602   1.29901   0.18632 
 6                     20.35735   2.08466  -1.102 
 6                     21.22512   1.96421   1.33989 
 1                    -4.18039   3.62572   1.53042 
 1                    -9.98454   3.7922   -0.59952 
 1                    -10.37639  -2.41451  -1.19297 
 1                    -2.86878  -0.93608   1.9578 
 1                    -2.02198   1.69376   1.11239 
 1                    -1.96446   1.00634   3.5086 
 1                    -3.05157   2.3594    3.5331 
 1                    -3.59103   0.68316   3.69514 
 1                    -2.01549  -1.61878  -0.3423 
 1                    -2.06229   0.04548  -0.76887 
 1                    -0.30801   0.57467   1.01625 
 1                    -0.15475  -1.2398    1.3476 
 1                    -5.97939   6.68379   0.76607 
 1                    -5.71086   5.72529   2.35413 
 1                    -4.62471   5.68146   0.82388 
 1                    -9.42291   6.06241  -0.48852 
 1                    -9.19972   7.91323   0.84377 
 1                    -7.57772   7.47336   1.52428 
 1                    -12.06269   2.96063  -2.40747 
 1                    -13.31854   2.21897  -1.67776 
 1                    -12.40086   3.13024  -0.53382 
 1                    -12.89903  -1.58541  -1.18499 
 1                    -13.18453   0.02464  -1.62433 
 1                    -13.04013  -1.75042  -3.88457 
 1                    -12.47436  -0.0934   -4.14359 
 1                    -11.42824  -1.59565  -3.5163 
 1                    -8.8636   -5.07018  -1.85667 
 1                    -7.76265  -5.51882  -0.69771 
 1                    -9.48199  -4.85006  -0.25522 
 1                    -3.40778  -3.39798  -0.35747 
 1                    -1.43557  -4.16742   3.55132 
 1                    -2.81869  -5.07988   3.85616 
 1                    -1.32402  -5.75629   2.72893 
 1                     3.03162  -1.7046   -1.43096 
 1                     2.4558   -0.06563  -2.01522 
 1                     4.07248  -0.9079    0.45175 
 1                     4.26984   1.23609  -2.61673 
 1                     5.57111   2.20402  -1.9934 
 1                     6.00759   0.80089  -2.88712 
 1                     6.77884   1.41763   0.08431 
 1                     6.41744   0.22649   0.81023 
 1                     7.3965   -1.17636  -1.38451 
 1                     7.94678   0.23893  -1.92212 
 1                     9.07317   0.67189   0.40316 
 1                     8.90313  -1.00627   0.72029 
 1                     10.45052   0.11005  -1.76139 
 1                     9.45768  -2.42422  -1.97103 
 1                     10.98522  -2.6351   -1.74202 
 1                     9.91212  -2.83374  -0.39289 
 1                     11.25457   0.66784   0.43531 
 1                     11.61168  -1.05144   0.80963 
 1                     12.75768  -1.40857  -1.0431 
 1                     12.69794   0.24356  -1.73757 
 1                     13.66907   1.12505   0.39371 
 1                     13.93205  -0.67052   1.00979 
 1                     15.64752   0.37528  -1.59476 
 1                     15.74396  -2.30381   0.00142 
 1                     15.05654  -1.88802  -1.72529 
 1                     16.72873  -1.53588  -1.35079 
 1                     16.08993   1.39333   0.62793 
 1                     16.27936  -0.22253   1.26239 
 1                     18.27877  -0.51642  -0.51369 
 1                     17.83575   1.07773  -1.08211 
 1                     18.59529   2.12711   1.2392 
 1                     18.96894   0.53905   1.69061 
 1                     20.58092   0.32967   0.16034 
 1                     19.98372   3.0669   -0.92313 
 1                     21.35451   2.22439  -1.53796 
 1                     19.60464   1.57632  -2.03137 
 1                     21.3009   1.37175   2.23946 
 1                     22.13468   1.89482   1.07312 
 1                     20.68385   2.87557   1.37603 
 
 Stoichiometry    C55H72MgN4O5
 Framework group  C1[X(C55H72MgN4O5)]
 Deg. of freedom   405
 Full point group                 C1      NOp   1
 Largest Abelian subgroup         C1      NOp   1
 Largest concise Abelian subgroup C1      NOp   1
                         Standard orientation:                         
 ---------------------------------------------------------------------
 Center     Atomic      Atomic             Coordinates (Angstroms)
 Number     Number       Type             X           Y           Z
 ---------------------------------------------------------------------
      1         12           0       -7.202841    0.695067    0.123169
      2          6           0       -4.901780   -1.919390    0.484350
      3          6           0       -4.837869    2.886834    1.007022
      4          6           0       -9.446835    2.974873   -0.373128
      5          6           0       -9.593701   -1.796301   -0.833223
      6          7           0       -5.136290    0.446058    0.662473
      7          6           0       -4.343103   -0.646934    0.751680
      8          6           0       -2.879862   -0.328997    1.116190
      9          6           0       -2.925623    1.108903    1.530174
     10          6           0       -4.342072    1.507864    1.032066
     11          6           0       -2.963762    1.375053    3.067902
     12          6           0       -1.891129   -0.647241   -0.024810
     13          6           0       -0.543179   -0.398905    0.594570
     14          6           0        0.554341   -0.685533   -0.562605
     15          8           0        0.267956   -0.994124   -1.749621
     16          8           0        1.794321   -0.479035   -0.124564
     17          7           0       -7.196693    2.550930    0.266177
     18          6           0       -6.086824    3.342253    0.625634
     19          6           0       -6.465388    4.731416    0.701767
     20          6           0       -7.815870    4.820321    0.394168
     21          6           0       -8.293150    3.416293    0.065907
     22          6           0       -5.525839    5.841037    1.205406
     23          6           0       -8.649086    5.959394    0.277038
     24          6           0       -8.551740    7.117900    0.974893
     25          7           0       -9.168943    0.581611   -0.509285
     26          6           0       -9.945929    1.721951   -0.705601
     27          6           0      -11.276152    1.377904   -1.121863
     28          6           0      -11.269462    0.081431   -1.355777
     29          6           0       -9.931990   -0.536683   -0.884918
     30          6           0      -12.285660    2.469401   -1.432644
     31          6           0      -12.420271   -0.811657   -1.877183
     32          6           0      -12.379461   -1.036285   -3.375617
     33          7           0       -7.302542   -1.441017   -0.204543
     34          6           0       -8.284359   -2.290719   -0.509072
     35          6           0       -7.845615   -3.598921   -0.448322
     36          6           0       -6.559362   -3.594798   -0.037885
     37          6           0       -6.285644   -2.207464    0.114766
     38          6           0       -8.587250   -4.934894   -0.794145
     39          6           0       -5.330904   -4.374369    0.310397
     40          8           0       -5.129929   -5.492762    0.342154
     41          6           0       -4.202785   -3.285608    0.579836
     42          6           0       -3.614022   -3.616653    1.936207
     43          8           0       -3.790984   -3.006187    3.001849
     44          8           0       -2.744561   -4.663700    1.900517
     45          6           0       -2.046092   -4.962389    3.156946
     46          6           0        2.888321   -0.683269   -1.087218
     47          6           0        4.182345   -0.299409   -0.481975
     48          6           0        5.218400    0.254468   -1.006841
     49          6           0        5.228525    1.135542   -2.152515
     50          6           0        6.479315    0.468774   -0.220687
     51          6           0        7.730262   -0.241477   -0.957688
     52          6           0        8.929615   -0.263309   -0.118804
     53          6           0       10.266162   -0.660822   -0.839855
     54          6           0       10.135071   -2.094273   -1.274682
     55          6           0       11.491284   -0.291620    0.020084
     56          6           0       12.738070   -0.396906   -0.788217
     57          6           0       13.922448    0.033144    0.018007
     58          6           0       15.423120   -0.134871   -0.540557
     59          6           0       15.678020   -1.537186   -0.854256
     60          6           0       16.472766    0.438643    0.433935
     61          6           0       17.933334    0.477424   -0.124255
     62          6           0       18.965312    1.235498    0.761607
     63          6           0       20.257443    1.323556    0.173951
     64          6           0       20.353626    2.098167   -1.121111
     65          6           0       21.221670    1.999777    1.321673
     66          1           0       -4.185699    3.634091    1.499475
     67          1           0       -9.990148    3.775615   -0.631446
     68          1           0      -10.374999   -2.436425   -1.171294
     69          1           0       -2.868902   -0.922363    1.966116
     70          1           0       -2.025120    1.701047    1.097997
     71          1           0       -1.966698    1.034392    3.500049
     72          1           0       -3.055338    2.386380    3.512933
     73          1           0       -3.592892    0.710994    3.689471
     74          1           0       -2.014963   -1.623917   -0.328057
     75          1           0       -2.063666    0.036550   -0.768967
     76          1           0       -0.309897    0.583110    1.011408
     77          1           0       -0.154562   -1.228259    1.358389
     78          1           0       -5.988202    6.683412    0.708886
     79          1           0       -5.718502    5.738954    2.305140
     80          1           0       -4.632384    5.683155    0.775250
     81          1           0       -9.431091    6.047335   -0.540078
     82          1           0       -9.209923    7.909833    0.776182
     83          1           0       -7.587385    7.477690    1.460355
     84          1           0      -12.067454    2.926119   -2.432029
     85          1           0      -13.322424    2.189360   -1.695862
     86          1           0      -12.405716    3.111512   -0.559892
     87          1           0      -12.898580   -1.610142   -1.170316
     88          1           0      -13.185921   -0.004274   -1.623508
     89          1           0      -13.039634   -1.798601   -3.868357
     90          1           0      -12.475757   -0.143242   -4.141701
     91          1           0      -11.427900   -1.638839   -3.501541
     92          1           0       -8.859232   -5.096005   -1.812155
     93          1           0       -7.757711   -5.533385   -0.649437
     94          1           0       -9.477787   -4.862778   -0.212623
     95          1           0       -3.405235   -3.404758   -0.327788
     96          1           0       -1.431944   -4.138208    3.587369
     97          1           0       -2.814012   -5.049566    3.900159
     98          1           0       -1.318637   -5.733990    2.778711
     99          1           0        3.032188   -1.713411   -1.416256
    100          1           0        2.454481   -0.080197   -2.014607
    101          1           0        4.072242   -0.899318    0.459439
    102          1           0        4.267005    1.218343   -2.627437
    103          1           0        5.567217    2.193087   -2.012561
    104          1           0        6.005235    0.782794   -2.894170
    105          1           0        6.775947    1.426018    0.071777
    106          1           0        6.415932    0.240786    0.807971
    107          1           0        7.396464   -1.179841   -1.374646
    108          1           0        7.945111    0.231374   -1.924478
    109          1           0        9.071137    0.685655    0.396901
    110          1           0        8.903016   -0.989889    0.728512
    111          1           0       10.449010    0.106728   -1.762807
    112          1           0        9.459029   -2.430384   -1.950511
    113          1           0       10.986819   -2.637549   -1.719783
    114          1           0        9.914021   -2.825751   -0.368921
    115          1           0       11.252546    0.684357    0.428943
    116          1           0       11.611625   -1.031223    0.818068
    117          1           0       12.757924   -1.403026   -1.031589
    118          1           0       12.696279    0.242975   -1.740279
    119          1           0       13.666519    1.143922    0.383247
    120          1           0       13.931565   -0.645958    1.014781
    121          1           0       15.645710    0.379265   -1.598806
    122          1           0       15.745276   -2.285839    0.020428
    123          1           0       15.057289   -1.885743   -1.709760
    124          1           0       16.729103   -1.528489   -1.338416
    125          1           0       16.087092    1.416957    0.614992
    126          1           0       16.278385   -0.193152    1.263359
    127          1           0       18.278028   -0.500088   -0.510250
    128          1           0       17.833173    1.088589   -1.092373
    129          1           0       18.591648    2.158821    1.219751
    130          1           0       18.967126    0.575140    1.684820
    131          1           0       20.579258    0.354391    0.156315
    132          1           0       19.978898    3.081493   -0.950694
    133          1           0       21.350606    2.235261   -1.558318
    134          1           0       19.601449    1.580977   -2.046011
    135          1           0       21.298162    1.415183    2.226321
    136          1           0       22.131285    1.929119    1.055457
    137          1           0       20.679364    2.910799    1.349981
 ---------------------------------------------------------------------
 Rotational constants (GHZ):      0.0654815      0.0060370      0.0056998
 Standard basis: 6-31G(d,p) (6D, 7F)
 There are  1339 symmetry adapted cartesian basis functions of A   symmetry.
 There are  1339 symmetry adapted basis functions of A   symmetry.
  1339 basis functions,  2348 primitive gaussians,  1339 cartesian basis functions
   241 alpha electrons      241 beta electrons
       nuclear repulsion energy      8743.1944447208 Hartrees.
 NAtoms=  137 NActive=  137 NUniq=  137 SFac= 1.00D+00 NAtFMM=   60 NAOKFM=T Big=T
 Integral buffers will be    131072 words long.
 Raffenetti 1 integral format.
 Two-electron integral symmetry is turned on.
 One-electron integrals computed using PRISM.
 NBasis=  1339 RedAO= T EigKep=  2.47D-04  NBF=  1339
 NBsUse=  1339 1.00D-06 EigRej= -1.00D+00 NBFU=  1339
 ExpMin= 4.21D-02 ExpMax= 1.17D+04 ExpMxC= 1.76D+03 IAcc=2 IRadAn=         4 AccDes= 0.00D+00
 Harris functional with IExCor=20419 and IRadAn=       4 diagonalized for initial guess.
 HarFok:  IExCor=20419 AccDes= 0.00D+00 IRadAn=         4 IDoV= 1 UseB2=F ITyADJ=14
 ICtDFT=  3500011 ScaDFX=  1.000000  1.000000  1.000000  1.000000
 FoFCou: FMM=F IPFlag=           0 FMFlag=      100000 FMFlg1=        2001
         NFxFlg=           0 DoJE=T BraDBF=F KetDBF=T FulRan=T
         wScrn=  0.000000 ICntrl=     500 IOpCl=  0 I1Cent=   200000004 NGrid=           0
         NMat0=    1 NMatS0=      1 NMatT0=    0 NMatD0=    1 NMtDS0=    0 NMtDT0=    0
 Petite list used in FoFCou.
 Requested convergence on RMS density matrix=1.00D-08 within 128 cycles.
 Requested convergence on MAX density matrix=1.00D-06.
 Requested convergence on             energy=1.00D-06.
 No special actions if energy rises.
 SCF Done:  E(RCAM-B3LYP) =  -2932.69754966     A.U. after   18 cycles
            NFock= 18  Conv=0.46D-08     -V/T= 2.0088
 DoSCS=F DFT=T ScalE2(SS,OS)=  1.000000  1.000000
 ExpMin= 4.21D-02 ExpMax= 1.17D+04 ExpMxC= 1.76D+03 IAcc=3 IRadAn=         5 AccDes= 0.00D+00
 HarFok:  IExCor=  205 AccDes= 0.00D+00 IRadAn=         5 IDoV=-2 UseB2=F ITyADJ=14
 ICtDFT= 12500011 ScaDFX=  1.000000  1.000000  1.000000  1.000000
 Range of M.O.s used for correlation:    70  1339
 NBasis=  1339 NAE=   241 NBE=   241 NFC=    69 NFV=     0
 NROrb=   1270 NOA=   172 NOB=   172 NVA=  1098 NVB=  1098
 Would need an additional       2415464100000 words for in-memory AO integral storage.
 Orbital symmetries:
       Occupied  (A) (A) (A) (A) (A) (A) (A) (A) (A) (A) (A) (A)
                 (A) (A) (A) (A) (A) (A) (A) (A) (A) (A) (A) (A)
                 (A) (A) (A) (A) (A) (A) (A) (A) (A) (A) (A) (A)
                 (A) (A) (A) (A) (A) (A) (A) (A) (A) (A) (A) (A)
                 (A) (A) (A) (A) (A) (A) (A) (A) (A) (A) (A) (A)
                 (A) (A) (A) (A) (A) (A) (A) (A) (A) (A) (A) (A)
                 (A) (A) (A) (A) (A) (A) (A) (A) (A) (A) (A) (A)
                 (A) (A) (A) (A) (A) (A) (A) (A) (A) (A) (A) (A)
                 (A) (A) (A) (A) (A) (A) (A) (A) (A) (A) (A) (A)
                 (A) (A) (A) (A) (A) (A) (A) (A) (A) (A) (A) (A)
                 (A) (A) (A) (A) (A) (A) (A) (A) (A) (A) (A) (A)
                 (A) (A) (A) (A) (A) (A) (A) (A) (A) (A) (A) (A)
                 (A) (A) (A) (A) (A) (A) (A) (A) (A) (A) (A) (A)
                 (A) (A) (A) (A) (A) (A) (A) (A) (A) (A) (A) (A)
                 (A) (A) (A) (A) (A) (A) (A) (A) (A) (A) (A) (A)
                 (A) (A) (A) (A) (A) (A) (A) (A) (A) (A) (A) (A)
                 (A) (A) (A) (A) (A) (A) (A) (A) (A) (A) (A) (A)
                 (A) (A) (A) (A) (A) (A) (A) (A) (A) (A) (A) (A)
                 (A) (A) (A) (A) (A) (A) (A) (A) (A) (A) (A) (A)
                 (A) (A) (A) (A) (A) (A) (A) (A) (A) (A) (A) (A)
                 (A)
       Virtual   (A) (A) (A) (A) (A) (A) (A) (A) (A) (A) (A) (A)
                 (A) (A) (A) (A) (A) (A) (A) (A) (A) (A) (A) (A)
                 (A) (A) (A) (A) (A) (A) (A) (A) (A) (A) (A) (A)
                 (A) (A) (A) (A) (A) (A) (A) (A) (A) (A) (A) (A)
                 (A) (A) (A) (A) (A) (A) (A) (A) (A) (A) (A) (A)
                 (A) (A) (A) (A) (A) (A) (A) (A) (A) (A) (A) (A)
                 (A) (A) (A) (A) (A) (A) (A) (A) (A) (A) (A) (A)
                 (A) (A) (A) (A) (A) (A) (A) (A) (A) (A) (A) (A)
                 (A) (A) (A) (A) (A) (A) (A) (A) (A) (A) (A) (A)
                 (A) (A) (A) (A) (A) (A) (A) (A) (A) (A) (A) (A)
                 (A) (A) (A) (A) (A) (A) (A) (A) (A) (A) (A) (A)
                 (A) (A) (A) (A) (A) (A) (A) (A) (A) (A) (A) (A)
                 (A) (A) (A) (A) (A) (A) (A) (A) (A) (A) (A) (A)
                 (A) (A) (A) (A) (A) (A) (A) (A) (A) (A) (A) (A)
                 (A) (A) (A) (A) (A) (A) (A) (A) (A) (A) (A) (A)
                 (A) (A) (A) (A) (A) (A) (A) (A) (A) (A) (A) (A)
                 (A) (A) (A) (A) (A) (A) (A) (A) (A) (A) (A) (A)
                 (A) (A) (A) (A) (A) (A) (A) (A) (A) (A) (A) (A)
                 (A) (A) (A) (A) (A) (A) (A) (A) (A) (A) (A) (A)
                 (A) (A) (A) (A) (A) (A) (A) (A) (A) (A) (A) (A)
                 (A) (A) (A) (A) (A) (A) (A) (A) (A) (A) (A) (A)
                 (A) (A) (A) (A) (A) (A) (A) (A) (A) (A) (A) (A)
                 (A) (A) (A) (A) (A) (A) (A) (A) (A) (A) (A) (A)
                 (A) (A) (A) (A) (A) (A) (A) (A) (A) (A) (A) (A)
                 (A) (A) (A) (A) (A) (A) (A) (A) (A) (A) (A) (A)
                 (A) (A) (A) (A) (A) (A) (A) (A) (A) (A) (A) (A)
                 (A) (A) (A) (A) (A) (A) (A) (A) (A) (A) (A) (A)
                 (A) (A) (A) (A) (A) (A) (A) (A) (A) (A) (A) (A)
                 (A) (A) (A) (A) (A) (A) (A) (A) (A) (A) (A) (A)
                 (A) (A) (A) (A) (A) (A) (A) (A) (A) (A) (A) (A)
                 (A) (A) (A) (A) (A) (A) (A) (A) (A) (A) (A) (A)
                 (A) (A) (A) (A) (A) (A) (A) (A) (A) (A) (A) (A)
                 (A) (A) (A) (A) (A) (A) (A) (A) (A) (A) (A) (A)
                 (A) (A) (A) (A) (A) (A) (A) (A) (A) (A) (A) (A)
                 (A) (A) (A) (A) (A) (A) (A) (A) (A) (A) (A) (A)
                 (A) (A) (A) (A) (A) (A) (A) (A) (A) (A) (A) (A)
                 (A) (A) (A) (A) (A) (A) (A) (A) (A) (A) (A) (A)
                 (A) (A) (A) (A) (A) (A) (A) (A) (A) (A) (A) (A)
                 (A) (A) (A) (A) (A) (A) (A) (A) (A) (A) (A) (A)
                 (A) (A) (A) (A) (A) (A) (A) (A) (A) (A) (A) (A)
                 (A) (A) (A) (A) (A) (A) (A) (A) (A) (A) (A) (A)
                 (A) (A) (A) (A) (A) (A) (A) (A) (A) (A) (A) (A)
                 (A) (A) (A) (A) (A) (A) (A) (A) (A) (A) (A) (A)
                 (A) (A) (A) (A) (A) (A) (A) (A) (A) (A) (A) (A)
                 (A) (A) (A) (A) (A) (A) (A) (A) (A) (A) (A) (A)
                 (A) (A) (A) (A) (A) (A) (A) (A) (A) (A) (A) (A)
                 (A) (A) (A) (A) (A) (A) (A) (A) (A) (A) (A) (A)
                 (A) (A) (A) (A) (A) (A) (A) (A) (A) (A) (A) (A)
                 (A) (A) (A) (A) (A) (A) (A) (A) (A) (A) (A) (A)
                 (A) (A) (A) (A) (A) (A) (A) (A) (A) (A) (A) (A)
                 (A) (A) (A) (A) (A) (A) (A) (A) (A) (A) (A) (A)
                 (A) (A) (A) (A) (A) (A) (A) (A) (A) (A) (A) (A)
                 (A) (A) (A) (A) (A) (A) (A) (A) (A) (A) (A) (A)
                 (A) (A) (A) (A) (A) (A) (A) (A) (A) (A) (A) (A)
                 (A) (A) (A) (A) (A) (A) (A) (A) (A) (A) (A) (A)
                 (A) (A) (A) (A) (A) (A) (A) (A) (A) (A) (A) (A)
                 (A) (A) (A) (A) (A) (A) (A) (A) (A) (A) (A) (A)
                 (A) (A) (A) (A) (A) (A) (A) (A) (A) (A) (A) (A)
                 (A) (A) (A) (A) (A) (A) (A) (A) (A) (A) (A) (A)
                 (A) (A) (A) (A) (A) (A) (A) (A) (A) (A) (A) (A)
                 (A) (A) (A) (A) (A) (A) (A) (A) (A) (A) (A) (A)
                 (A) (A) (A) (A) (A) (A) (A) (A) (A) (A) (A) (A)
                 (A) (A) (A) (A) (A) (A) (A) (A) (A) (A) (A) (A)
                 (A) (A) (A) (A) (A) (A) (A) (A) (A) (A) (A) (A)
                 (A) (A) (A) (A) (A) (A) (A) (A) (A) (A) (A) (A)
                 (A) (A) (A) (A) (A) (A) (A) (A) (A) (A) (A) (A)
                 (A) (A) (A) (A) (A) (A) (A) (A) (A) (A) (A) (A)
                 (A) (A) (A) (A) (A) (A) (A) (A) (A) (A) (A) (A)
                 (A) (A) (A) (A) (A) (A) (A) (A) (A) (A) (A) (A)
                 (A) (A) (A) (A) (A) (A) (A) (A) (A) (A) (A) (A)
                 (A) (A) (A) (A) (A) (A) (A) (A) (A) (A) (A) (A)
                 (A) (A) (A) (A) (A) (A) (A) (A) (A) (A) (A) (A)
                 (A) (A) (A) (A) (A) (A) (A) (A) (A) (A) (A) (A)
                 (A) (A) (A) (A) (A) (A) (A) (A) (A) (A) (A) (A)
                 (A) (A) (A) (A) (A) (A) (A) (A) (A) (A) (A) (A)
                 (A) (A) (A) (A) (A) (A) (A) (A) (A) (A) (A) (A)
                 (A) (A) (A) (A) (A) (A) (A) (A) (A) (A) (A) (A)
                 (A) (A) (A) (A) (A) (A) (A) (A) (A) (A) (A) (A)
                 (A) (A) (A) (A) (A) (A) (A) (A) (A) (A) (A) (A)
                 (A) (A) (A) (A) (A) (A) (A) (A) (A) (A) (A) (A)
                 (A) (A) (A) (A) (A) (A) (A) (A) (A) (A) (A) (A)
                 (A) (A) (A) (A) (A) (A) (A) (A) (A) (A) (A) (A)
                 (A) (A) (A) (A) (A) (A) (A) (A) (A) (A) (A) (A)
                 (A) (A) (A) (A) (A) (A) (A) (A) (A) (A) (A) (A)
                 (A) (A) (A) (A) (A) (A) (A) (A) (A) (A) (A) (A)
                 (A) (A) (A) (A) (A) (A) (A) (A) (A) (A) (A) (A)
                 (A) (A) (A) (A) (A) (A) (A) (A) (A) (A) (A) (A)
                 (A) (A) (A) (A) (A) (A) (A) (A) (A) (A) (A) (A)
                 (A) (A) (A) (A) (A) (A) (A) (A) (A) (A) (A) (A)
                 (A) (A) (A) (A) (A) (A) (A) (A) (A) (A) (A) (A)
                 (A) (A) (A) (A) (A) (A) (A) (A) (A) (A) (A) (A)
                 (A) (A) (A) (A) (A) (A)
     8 initial guesses have been made.
 Convergence on wavefunction:    0.001000000000000
 Iteration     1 Dimension     8 NMult     0 NNew      8
 CISAX will form     8 AO SS matrices at one time.
 Iteration     2 Dimension    12 NMult     8 NNew      4
 Iteration     3 Dimension    16 NMult    12 NNew      4
 Iteration     4 Dimension    20 NMult    16 NNew      4
 Iteration     5 Dimension    24 NMult    20 NNew      4
 Iteration     6 Dimension    28 NMult    24 NNew      4
 ***********************************************************************
 Excited states from <AA,BB:AA,BB> singles matrix:
 ***********************************************************************
 
 Ground to excited state transition densities written to RWF  633
 Ground to excited state transition electric dipole moments (Au):
       state          X           Y           Z        Dip. S.      Osc.
         1         0.4437     -2.2827     -0.1044      5.4186      0.2813
 Ground to excited state transition velocity dipole moments (Au):
       state          X           Y           Z        Dip. S.      Osc.
         1        -0.0327      0.1734      0.0096      0.0312      0.2672
 Ground to excited state transition magnetic dipole moments (Au):
       state          X           Y           Z
         1         0.3227      0.2109     -3.2979
 Ground to excited state transition velocity quadrupole moments (Au):
       state          XX          YY          ZZ          XY          XZ          YZ
         1         0.9009      0.2206      0.0495     -2.2636     -0.0624      0.1512
 <0|del|b> * <b|rxdel|0> + <0|del|b> * <b|delr+rdel|0>
 Rotatory Strengths (R) in cgs (10**-40 erg-esu-cm/Gauss)
       state          XX          YY          ZZ    R(velocity)    E-M Angle
         1       -26.5137   -115.2594     91.3748    -16.7995       90.54
 1/2[<0|r|b>*<b|rxdel|0> + (<0|rxdel|b>*<b|r|0>)*]
 Rotatory Strengths (R) in cgs (10**-40 erg-esu-cm/Gauss)
       state          XX          YY          ZZ     R(length)
         1      -101.2505    340.3923   -243.4980     -1.4521
  1/2[<0|del|b>*<b|r|0> + (<0|r|b>*<b|del|0>)*] (Au)
       state          X           Y           Z        Dip. S.   Osc.(frdel)
         1        -0.0145     -0.3957     -0.0010      0.4112      0.2742

 Excitation energies and oscillator strengths:
 
 Excited State   1:      Singlet-A      2.1192 eV  585.06 nm  f=0.2813  <S**2>=0.000
     240 -> 242       -0.11790
     240 -> 243        0.21606
     241 -> 242        0.65483
 This state for optimization and/or second-order correction.
 Total Energy, E(TD-HF/TD-KS) =  -2932.61967190    
 Copying the excited state density for this state as the 1-particle RhoCI density.
 SavETr:  write IOETrn=   770 NScale= 10 NData=  16 NLR=1 NState=    1 LETran=      28.

 **********************************************************************

            Population analysis using the SCF density.

 **********************************************************************

 Orbital symmetries:
       Occupied  (A) (A) (A) (A) (A) (A) (A) (A) (A) (A) (A) (A)
                 (A) (A) (A) (A) (A) (A) (A) (A) (A) (A) (A) (A)
                 (A) (A) (A) (A) (A) (A) (A) (A) (A) (A) (A) (A)
                 (A) (A) (A) (A) (A) (A) (A) (A) (A) (A) (A) (A)
                 (A) (A) (A) (A) (A) (A) (A) (A) (A) (A) (A) (A)
                 (A) (A) (A) (A) (A) (A) (A) (A) (A) (A) (A) (A)
                 (A) (A) (A) (A) (A) (A) (A) (A) (A) (A) (A) (A)
                 (A) (A) (A) (A) (A) (A) (A) (A) (A) (A) (A) (A)
                 (A) (A) (A) (A) (A) (A) (A) (A) (A) (A) (A) (A)
                 (A) (A) (A) (A) (A) (A) (A) (A) (A) (A) (A) (A)
                 (A) (A) (A) (A) (A) (A) (A) (A) (A) (A) (A) (A)
                 (A) (A) (A) (A) (A) (A) (A) (A) (A) (A) (A) (A)
                 (A) (A) (A) (A) (A) (A) (A) (A) (A) (A) (A) (A)
                 (A) (A) (A) (A) (A) (A) (A) (A) (A) (A) (A) (A)
                 (A) (A) (A) (A) (A) (A) (A) (A) (A) (A) (A) (A)
                 (A) (A) (A) (A) (A) (A) (A) (A) (A) (A) (A) (A)
                 (A) (A) (A) (A) (A) (A) (A) (A) (A) (A) (A) (A)
                 (A) (A) (A) (A) (A) (A) (A) (A) (A) (A) (A) (A)
                 (A) (A) (A) (A) (A) (A) (A) (A) (A) (A) (A) (A)
                 (A) (A) (A) (A) (A) (A) (A) (A) (A) (A) (A) (A)
                 (A)
       Virtual   (A) (A) (A) (A) (A) (A) (A) (A) (A) (A) (A) (A)
                 (A) (A) (A) (A) (A) (A) (A) (A) (A) (A) (A) (A)
                 (A) (A) (A) (A) (A) (A) (A) (A) (A) (A) (A) (A)
                 (A) (A) (A) (A) (A) (A) (A) (A) (A) (A) (A) (A)
                 (A) (A) (A) (A) (A) (A) (A) (A) (A) (A) (A) (A)
                 (A) (A) (A) (A) (A) (A) (A) (A) (A) (A) (A) (A)
                 (A) (A) (A) (A) (A) (A) (A) (A) (A) (A) (A) (A)
                 (A) (A) (A) (A) (A) (A) (A) (A) (A) (A) (A) (A)
                 (A) (A) (A) (A) (A) (A) (A) (A) (A) (A) (A) (A)
                 (A) (A) (A) (A) (A) (A) (A) (A) (A) (A) (A) (A)
                 (A) (A) (A) (A) (A) (A) (A) (A) (A) (A) (A) (A)
                 (A) (A) (A) (A) (A) (A) (A) (A) (A) (A) (A) (A)
                 (A) (A) (A) (A) (A) (A) (A) (A) (A) (A) (A) (A)
                 (A) (A) (A) (A) (A) (A) (A) (A) (A) (A) (A) (A)
                 (A) (A) (A) (A) (A) (A) (A) (A) (A) (A) (A) (A)
                 (A) (A) (A) (A) (A) (A) (A) (A) (A) (A) (A) (A)
                 (A) (A) (A) (A) (A) (A) (A) (A) (A) (A) (A) (A)
                 (A) (A) (A) (A) (A) (A) (A) (A) (A) (A) (A) (A)
                 (A) (A) (A) (A) (A) (A) (A) (A) (A) (A) (A) (A)
                 (A) (A) (A) (A) (A) (A) (A) (A) (A) (A) (A) (A)
                 (A) (A) (A) (A) (A) (A) (A) (A) (A) (A) (A) (A)
                 (A) (A) (A) (A) (A) (A) (A) (A) (A) (A) (A) (A)
                 (A) (A) (A) (A) (A) (A) (A) (A) (A) (A) (A) (A)
                 (A) (A) (A) (A) (A) (A) (A) (A) (A) (A) (A) (A)
                 (A) (A) (A) (A) (A) (A) (A) (A) (A) (A) (A) (A)
                 (A) (A) (A) (A) (A) (A) (A) (A) (A) (A) (A) (A)
                 (A) (A) (A) (A) (A) (A) (A) (A) (A) (A) (A) (A)
                 (A) (A) (A) (A) (A) (A) (A) (A) (A) (A) (A) (A)
                 (A) (A) (A) (A) (A) (A) (A) (A) (A) (A) (A) (A)
                 (A) (A) (A) (A) (A) (A) (A) (A) (A) (A) (A) (A)
                 (A) (A) (A) (A) (A) (A) (A) (A) (A) (A) (A) (A)
                 (A) (A) (A) (A) (A) (A) (A) (A) (A) (A) (A) (A)
                 (A) (A) (A) (A) (A) (A) (A) (A) (A) (A) (A) (A)
                 (A) (A) (A) (A) (A) (A) (A) (A) (A) (A) (A) (A)
                 (A) (A) (A) (A) (A) (A) (A) (A) (A) (A) (A) (A)
                 (A) (A) (A) (A) (A) (A) (A) (A) (A) (A) (A) (A)
                 (A) (A) (A) (A) (A) (A) (A) (A) (A) (A) (A) (A)
                 (A) (A) (A) (A) (A) (A) (A) (A) (A) (A) (A) (A)
                 (A) (A) (A) (A) (A) (A) (A) (A) (A) (A) (A) (A)
                 (A) (A) (A) (A) (A) (A) (A) (A) (A) (A) (A) (A)
                 (A) (A) (A) (A) (A) (A) (A) (A) (A) (A) (A) (A)
                 (A) (A) (A) (A) (A) (A) (A) (A) (A) (A) (A) (A)
                 (A) (A) (A) (A) (A) (A) (A) (A) (A) (A) (A) (A)
                 (A) (A) (A) (A) (A) (A) (A) (A) (A) (A) (A) (A)
                 (A) (A) (A) (A) (A) (A) (A) (A) (A) (A) (A) (A)
                 (A) (A) (A) (A) (A) (A) (A) (A) (A) (A) (A) (A)
                 (A) (A) (A) (A) (A) (A) (A) (A) (A) (A) (A) (A)
                 (A) (A) (A) (A) (A) (A) (A) (A) (A) (A) (A) (A)
                 (A) (A) (A) (A) (A) (A) (A) (A) (A) (A) (A) (A)
                 (A) (A) (A) (A) (A) (A) (A) (A) (A) (A) (A) (A)
                 (A) (A) (A) (A) (A) (A) (A) (A) (A) (A) (A) (A)
                 (A) (A) (A) (A) (A) (A) (A) (A) (A) (A) (A) (A)
                 (A) (A) (A) (A) (A) (A) (A) (A) (A) (A) (A) (A)
                 (A) (A) (A) (A) (A) (A) (A) (A) (A) (A) (A) (A)
                 (A) (A) (A) (A) (A) (A) (A) (A) (A) (A) (A) (A)
                 (A) (A) (A) (A) (A) (A) (A) (A) (A) (A) (A) (A)
                 (A) (A) (A) (A) (A) (A) (A) (A) (A) (A) (A) (A)
                 (A) (A) (A) (A) (A) (A) (A) (A) (A) (A) (A) (A)
                 (A) (A) (A) (A) (A) (A) (A) (A) (A) (A) (A) (A)
                 (A) (A) (A) (A) (A) (A) (A) (A) (A) (A) (A) (A)
                 (A) (A) (A) (A) (A) (A) (A) (A) (A) (A) (A) (A)
                 (A) (A) (A) (A) (A) (A) (A) (A) (A) (A) (A) (A)
                 (A) (A) (A) (A) (A) (A) (A) (A) (A) (A) (A) (A)
                 (A) (A) (A) (A) (A) (A) (A) (A) (A) (A) (A) (A)
                 (A) (A) (A) (A) (A) (A) (A) (A) (A) (A) (A) (A)
                 (A) (A) (A) (A) (A) (A) (A) (A) (A) (A) (A) (A)
                 (A) (A) (A) (A) (A) (A) (A) (A) (A) (A) (A) (A)
                 (A) (A) (A) (A) (A) (A) (A) (A) (A) (A) (A) (A)
                 (A) (A) (A) (A) (A) (A) (A) (A) (A) (A) (A) (A)
                 (A) (A) (A) (A) (A) (A) (A) (A) (A) (A) (A) (A)
                 (A) (A) (A) (A) (A) (A) (A) (A) (A) (A) (A) (A)
                 (A) (A) (A) (A) (A) (A) (A) (A) (A) (A) (A) (A)
                 (A) (A) (A) (A) (A) (A) (A) (A) (A) (A) (A) (A)
                 (A) (A) (A) (A) (A) (A) (A) (A) (A) (A) (A) (A)
                 (A) (A) (A) (A) (A) (A) (A) (A) (A) (A) (A) (A)
                 (A) (A) (A) (A) (A) (A) (A) (A) (A) (A) (A) (A)
                 (A) (A) (A) (A) (A) (A) (A) (A) (A) (A) (A) (A)
                 (A) (A) (A) (A) (A) (A) (A) (A) (A) (A) (A) (A)
                 (A) (A) (A) (A) (A) (A) (A) (A) (A) (A) (A) (A)
                 (A) (A) (A) (A) (A) (A) (A) (A) (A) (A) (A) (A)
                 (A) (A) (A) (A) (A) (A) (A) (A) (A) (A) (A) (A)
                 (A) (A) (A) (A) (A) (A) (A) (A) (A) (A) (A) (A)
                 (A) (A) (A) (A) (A) (A) (A) (A) (A) (A) (A) (A)
                 (A) (A) (A) (A) (A) (A) (A) (A) (A) (A) (A) (A)
                 (A) (A) (A) (A) (A) (A) (A) (A) (A) (A) (A) (A)
                 (A) (A) (A) (A) (A) (A) (A) (A) (A) (A) (A) (A)
                 (A) (A) (A) (A) (A) (A) (A) (A) (A) (A) (A) (A)
                 (A) (A) (A) (A) (A) (A) (A) (A) (A) (A) (A) (A)
                 (A) (A) (A) (A) (A) (A) (A) (A) (A) (A) (A) (A)
                 (A) (A) (A) (A) (A) (A) (A) (A) (A) (A) (A) (A)
                 (A) (A) (A) (A) (A) (A) (A) (A) (A) (A) (A) (A)
                 (A) (A) (A) (A) (A) (A)
 The electronic state is 1-A.
 Alpha  occ. eigenvalues --  -46.83428 -19.27209 -19.25498 -19.20584 -19.20572
 Alpha  occ. eigenvalues --  -19.20273 -14.42374 -14.38967 -14.38757 -14.37962
 Alpha  occ. eigenvalues --  -10.39624 -10.39047 -10.34694 -10.32758 -10.32158
 Alpha  occ. eigenvalues --  -10.31261 -10.30069 -10.29786 -10.29543 -10.29411
 Alpha  occ. eigenvalues --  -10.29384 -10.29237 -10.28995 -10.27922 -10.27717
 Alpha  occ. eigenvalues --  -10.27658 -10.27598 -10.27513 -10.27190 -10.27127
 Alpha  occ. eigenvalues --  -10.26923 -10.26894 -10.26855 -10.26848 -10.26702
 Alpha  occ. eigenvalues --  -10.26699 -10.26661 -10.26594 -10.26483 -10.26397
 Alpha  occ. eigenvalues --  -10.26363 -10.26359 -10.26239 -10.26206 -10.26146
 Alpha  occ. eigenvalues --  -10.26055 -10.25896 -10.25834 -10.25629 -10.25611
 Alpha  occ. eigenvalues --  -10.25394 -10.25272 -10.25049 -10.24993 -10.24888
 Alpha  occ. eigenvalues --  -10.24741 -10.24667 -10.24650 -10.24516 -10.24399
 Alpha  occ. eigenvalues --  -10.24277 -10.24127 -10.23556 -10.23072 -10.22687
 Alpha  occ. eigenvalues --   -3.12699  -1.87371  -1.86955  -1.86894  -1.17845
 Alpha  occ. eigenvalues --   -1.16644  -1.15602  -1.07122  -1.06903  -1.05016
 Alpha  occ. eigenvalues --   -1.03980  -1.02098  -1.00886  -0.92419  -0.91283
 Alpha  occ. eigenvalues --   -0.91035  -0.90910  -0.90496  -0.89590  -0.89169
 Alpha  occ. eigenvalues --   -0.88746  -0.88252  -0.87053  -0.86560  -0.86360
 Alpha  occ. eigenvalues --   -0.85564  -0.84220  -0.83635  -0.83123  -0.82754
 Alpha  occ. eigenvalues --   -0.81593  -0.80753  -0.80499  -0.79784  -0.78180
 Alpha  occ. eigenvalues --   -0.77598  -0.77026  -0.76583  -0.76233  -0.75933
 Alpha  occ. eigenvalues --   -0.75473  -0.75267  -0.75177  -0.74043  -0.72470
 Alpha  occ. eigenvalues --   -0.71506  -0.70863  -0.69936  -0.69246  -0.68226
 Alpha  occ. eigenvalues --   -0.67931  -0.67341  -0.65702  -0.64738  -0.64334
 Alpha  occ. eigenvalues --   -0.63561  -0.63454  -0.63333  -0.63105  -0.61744
 Alpha  occ. eigenvalues --   -0.61589  -0.60475  -0.60074  -0.59948  -0.59234
 Alpha  occ. eigenvalues --   -0.58027  -0.57931  -0.57269  -0.57012  -0.56647
 Alpha  occ. eigenvalues --   -0.56061  -0.55898  -0.55326  -0.55190  -0.54863
 Alpha  occ. eigenvalues --   -0.54456  -0.54120  -0.53831  -0.53383  -0.52982
 Alpha  occ. eigenvalues --   -0.52785  -0.52589  -0.52474  -0.52359  -0.51663
 Alpha  occ. eigenvalues --   -0.51445  -0.51287  -0.51102  -0.50930  -0.50653
 Alpha  occ. eigenvalues --   -0.50250  -0.50144  -0.50106  -0.49896  -0.49646
 Alpha  occ. eigenvalues --   -0.49446  -0.48975  -0.48734  -0.48507  -0.48354
 Alpha  occ. eigenvalues --   -0.48177  -0.47986  -0.47800  -0.47714  -0.47670
 Alpha  occ. eigenvalues --   -0.47150  -0.47067  -0.46814  -0.46486  -0.46419
 Alpha  occ. eigenvalues --   -0.46192  -0.45865  -0.45698  -0.45643  -0.45117
 Alpha  occ. eigenvalues --   -0.44915  -0.44826  -0.44624  -0.44465  -0.44169
 Alpha  occ. eigenvalues --   -0.43959  -0.43788  -0.43459  -0.43237  -0.42903
 Alpha  occ. eigenvalues --   -0.42852  -0.42792  -0.42526  -0.42463  -0.42191
 Alpha  occ. eigenvalues --   -0.41992  -0.41897  -0.41696  -0.41500  -0.41268
 Alpha  occ. eigenvalues --   -0.41002  -0.40701  -0.40675  -0.40615  -0.40373
 Alpha  occ. eigenvalues --   -0.40267  -0.39846  -0.39655  -0.39485  -0.39361
 Alpha  occ. eigenvalues --   -0.39009  -0.38805  -0.38343  -0.38252  -0.37384
 Alpha  occ. eigenvalues --   -0.37378  -0.37211  -0.36960  -0.36802  -0.36406
 Alpha  occ. eigenvalues --   -0.36203  -0.36163  -0.35992  -0.35381  -0.35334
 Alpha  occ. eigenvalues --   -0.35033  -0.34978  -0.34520  -0.33165  -0.32760
 Alpha  occ. eigenvalues --   -0.32699  -0.32485  -0.32261  -0.30655  -0.30279
 Alpha  occ. eigenvalues --   -0.29618  -0.29323  -0.28756  -0.27709  -0.22942
 Alpha  occ. eigenvalues --   -0.20517
 Alpha virt. eigenvalues --   -0.05874  -0.02241   0.02284   0.04163   0.05939
 Alpha virt. eigenvalues --    0.06114   0.06380   0.06620   0.07144   0.07643
 Alpha virt. eigenvalues --    0.08676   0.10990   0.11761   0.12146   0.12209
 Alpha virt. eigenvalues --    0.12397   0.12876   0.13184   0.13222   0.13355
 Alpha virt. eigenvalues --    0.13790   0.14101   0.14559   0.14759   0.14944
 Alpha virt. eigenvalues --    0.15233   0.15557   0.15606   0.15871   0.15931
 Alpha virt. eigenvalues --    0.15976   0.16341   0.16409   0.16594   0.16614
 Alpha virt. eigenvalues --    0.16990   0.17125   0.17307   0.17370   0.17776
 Alpha virt. eigenvalues --    0.18049   0.18199   0.18291   0.18658   0.18904
 Alpha virt. eigenvalues --    0.19027   0.19111   0.19243   0.19311   0.19378
 Alpha virt. eigenvalues --    0.19568   0.19814   0.19909   0.20099   0.20423
 Alpha virt. eigenvalues --    0.20592   0.20667   0.20767   0.20940   0.21010
 Alpha virt. eigenvalues --    0.21174   0.21606   0.21633   0.21857   0.21880
 Alpha virt. eigenvalues --    0.22206   0.22358   0.22382   0.22565   0.22593
 Alpha virt. eigenvalues --    0.22909   0.23099   0.23188   0.23442   0.23637
 Alpha virt. eigenvalues --    0.23719   0.23838   0.24079   0.24204   0.24254
 Alpha virt. eigenvalues --    0.24950   0.25022   0.25323   0.25567   0.25696
 Alpha virt. eigenvalues --    0.25886   0.26094   0.26167   0.26290   0.26508
 Alpha virt. eigenvalues --    0.26602   0.26827   0.27076   0.27136   0.27259
 Alpha virt. eigenvalues --    0.27388   0.27660   0.27986   0.28141   0.28177
 Alpha virt. eigenvalues --    0.28798   0.28836   0.28945   0.29306   0.29565
 Alpha virt. eigenvalues --    0.29769   0.29959   0.30261   0.30457   0.30593
 Alpha virt. eigenvalues --    0.31132   0.31625   0.31752   0.31802   0.31945
 Alpha virt. eigenvalues --    0.32091   0.32369   0.32573   0.33260   0.33515
 Alpha virt. eigenvalues --    0.33827   0.34016   0.34102   0.34272   0.34974
 Alpha virt. eigenvalues --    0.35234   0.35451   0.35680   0.36171   0.36309
 Alpha virt. eigenvalues --    0.36405   0.37298   0.37552   0.38001   0.38215
 Alpha virt. eigenvalues --    0.38723   0.39853   0.40114   0.41077   0.41415
 Alpha virt. eigenvalues --    0.41906   0.42063   0.42516   0.42762   0.43284
 Alpha virt. eigenvalues --    0.43763   0.43940   0.44171   0.45139   0.45479
 Alpha virt. eigenvalues --    0.46146   0.47575   0.47824   0.48399   0.49510
 Alpha virt. eigenvalues --    0.50026   0.51352   0.51860   0.52366   0.52705
 Alpha virt. eigenvalues --    0.52965   0.53640   0.54186   0.54532   0.54703
 Alpha virt. eigenvalues --    0.54795   0.55114   0.55332   0.55437   0.55874
 Alpha virt. eigenvalues --    0.56012   0.56182   0.56732   0.56845   0.57153
 Alpha virt. eigenvalues --    0.57265   0.57334   0.57609   0.57934   0.57998
 Alpha virt. eigenvalues --    0.58057   0.58590   0.58696   0.59106   0.59133
 Alpha virt. eigenvalues --    0.59288   0.59552   0.59821   0.59963   0.60025
 Alpha virt. eigenvalues --    0.60636   0.60756   0.60848   0.60915   0.61241
 Alpha virt. eigenvalues --    0.61832   0.61890   0.62113   0.62609   0.62867
 Alpha virt. eigenvalues --    0.63230   0.63288   0.63848   0.63963   0.64184
 Alpha virt. eigenvalues --    0.64376   0.64729   0.64796   0.64985   0.65222
 Alpha virt. eigenvalues --    0.65563   0.65957   0.66089   0.66338   0.66545
 Alpha virt. eigenvalues --    0.66808   0.67387   0.67841   0.67992   0.68355
 Alpha virt. eigenvalues --    0.68428   0.68923   0.69091   0.69317   0.69649
 Alpha virt. eigenvalues --    0.69844   0.70144   0.70289   0.70364   0.70842
 Alpha virt. eigenvalues --    0.71141   0.71466   0.71570   0.71932   0.72238
 Alpha virt. eigenvalues --    0.72348   0.72530   0.73033   0.73118   0.73269
 Alpha virt. eigenvalues --    0.73640   0.73946   0.74284   0.74618   0.74814
 Alpha virt. eigenvalues --    0.74998   0.75223   0.75467   0.75824   0.76019
 Alpha virt. eigenvalues --    0.76346   0.76478   0.76764   0.77148   0.77294
 Alpha virt. eigenvalues --    0.77548   0.77844   0.77981   0.78509   0.78671
 Alpha virt. eigenvalues --    0.79004   0.79280   0.79594   0.80030   0.80255
 Alpha virt. eigenvalues --    0.80323   0.80435   0.80778   0.80957   0.81146
 Alpha virt. eigenvalues --    0.82010   0.82099   0.82310   0.82536   0.82691
 Alpha virt. eigenvalues --    0.83072   0.83295   0.83584   0.83841   0.84030
 Alpha virt. eigenvalues --    0.84182   0.84234   0.84637   0.84760   0.85043
 Alpha virt. eigenvalues --    0.85157   0.85317   0.85500   0.85672   0.85767
 Alpha virt. eigenvalues --    0.86346   0.86498   0.86730   0.86786   0.86900
 Alpha virt. eigenvalues --    0.86921   0.87228   0.87603   0.87866   0.88004
 Alpha virt. eigenvalues --    0.88240   0.88288   0.88432   0.88603   0.88790
 Alpha virt. eigenvalues --    0.89125   0.89458   0.89716   0.89870   0.90175
 Alpha virt. eigenvalues --    0.90378   0.90661   0.90897   0.90965   0.91170
 Alpha virt. eigenvalues --    0.91252   0.91660   0.91751   0.91913   0.92151
 Alpha virt. eigenvalues --    0.92548   0.92848   0.93005   0.93164   0.93504
 Alpha virt. eigenvalues --    0.93654   0.93846   0.94184   0.94434   0.94710
 Alpha virt. eigenvalues --    0.95132   0.95288   0.95358   0.95517   0.95869
 Alpha virt. eigenvalues --    0.95979   0.96127   0.96361   0.96465   0.96651
 Alpha virt. eigenvalues --    0.96788   0.96953   0.97093   0.97403   0.97436
 Alpha virt. eigenvalues --    0.97603   0.97807   0.97875   0.98208   0.98326
 Alpha virt. eigenvalues --    0.98557   0.98769   0.98938   0.99361   0.99478
 Alpha virt. eigenvalues --    0.99636   0.99802   0.99845   1.00064   1.00233
 Alpha virt. eigenvalues --    1.00494   1.00783   1.00960   1.01072   1.01307
 Alpha virt. eigenvalues --    1.01444   1.01482   1.02259   1.02638   1.02795
 Alpha virt. eigenvalues --    1.02898   1.03219   1.03350   1.03415   1.03544
 Alpha virt. eigenvalues --    1.03915   1.04130   1.04253   1.04829   1.05092
 Alpha virt. eigenvalues --    1.05344   1.05427   1.05794   1.06187   1.06361
 Alpha virt. eigenvalues --    1.07006   1.07071   1.07310   1.07336   1.07484
 Alpha virt. eigenvalues --    1.08016   1.08204   1.08762   1.09165   1.09459
 Alpha virt. eigenvalues --    1.09549   1.10074   1.10558   1.11081   1.11247
 Alpha virt. eigenvalues --    1.11430   1.11516   1.12087   1.12269   1.12858
 Alpha virt. eigenvalues --    1.13060   1.13529   1.13857   1.14209   1.15025
 Alpha virt. eigenvalues --    1.15697   1.16341   1.16470   1.16902   1.17019
 Alpha virt. eigenvalues --    1.17256   1.18164   1.18938   1.19425   1.20238
 Alpha virt. eigenvalues --    1.20930   1.21991   1.22618   1.23617   1.23820
 Alpha virt. eigenvalues --    1.24106   1.24739   1.25453   1.25790   1.26534
 Alpha virt. eigenvalues --    1.26588   1.27053   1.27102   1.27373   1.27504
 Alpha virt. eigenvalues --    1.28841   1.29174   1.29298   1.30312   1.30316
 Alpha virt. eigenvalues --    1.31123   1.31322   1.31877   1.32605   1.33460
 Alpha virt. eigenvalues --    1.34221   1.34288   1.34775   1.35226   1.35826
 Alpha virt. eigenvalues --    1.36501   1.36812   1.37778   1.37918   1.38185
 Alpha virt. eigenvalues --    1.38570   1.39393   1.39465   1.39773   1.40544
 Alpha virt. eigenvalues --    1.40681   1.40966   1.41436   1.42385   1.42793
 Alpha virt. eigenvalues --    1.43299   1.43896   1.44044   1.44534   1.45013
 Alpha virt. eigenvalues --    1.45584   1.45874   1.46070   1.46632   1.47028
 Alpha virt. eigenvalues --    1.47858   1.48755   1.48850   1.49389   1.49678
 Alpha virt. eigenvalues --    1.50464   1.50704   1.51029   1.52135   1.52521
 Alpha virt. eigenvalues --    1.52850   1.53238   1.53950   1.54216   1.54849
 Alpha virt. eigenvalues --    1.55277   1.56644   1.56675   1.57031   1.57123
 Alpha virt. eigenvalues --    1.57243   1.57357   1.57644   1.58556   1.58762
 Alpha virt. eigenvalues --    1.59241   1.59483   1.60090   1.61002   1.61481
 Alpha virt. eigenvalues --    1.61988   1.62116   1.62475   1.63075   1.63258
 Alpha virt. eigenvalues --    1.63761   1.64337   1.64880   1.65086   1.65700
 Alpha virt. eigenvalues --    1.66015   1.66336   1.67064   1.67294   1.67356
 Alpha virt. eigenvalues --    1.68394   1.68576   1.68710   1.69315   1.69804
 Alpha virt. eigenvalues --    1.69973   1.70348   1.70934   1.71157   1.71261
 Alpha virt. eigenvalues --    1.71536   1.72188   1.72285   1.72800   1.73462
 Alpha virt. eigenvalues --    1.74733   1.75071   1.75161   1.75657   1.75883
 Alpha virt. eigenvalues --    1.76479   1.76655   1.77061   1.77479   1.77869
 Alpha virt. eigenvalues --    1.78227   1.78323   1.79051   1.79304   1.79618
 Alpha virt. eigenvalues --    1.80476   1.80798   1.81063   1.81672   1.82364
 Alpha virt. eigenvalues --    1.82972   1.83025   1.83338   1.83609   1.84399
 Alpha virt. eigenvalues --    1.85115   1.85307   1.85869   1.86051   1.86179
 Alpha virt. eigenvalues --    1.86291   1.86751   1.86817   1.86982   1.87066
 Alpha virt. eigenvalues --    1.87750   1.88055   1.88361   1.88602   1.89032
 Alpha virt. eigenvalues --    1.89081   1.89653   1.89991   1.90171   1.90403
 Alpha virt. eigenvalues --    1.90635   1.90893   1.91068   1.91154   1.91398
 Alpha virt. eigenvalues --    1.91763   1.92137   1.92430   1.92462   1.92673
 Alpha virt. eigenvalues --    1.92930   1.93111   1.93579   1.93720   1.93900
 Alpha virt. eigenvalues --    1.94380   1.94712   1.95055   1.95168   1.95284
 Alpha virt. eigenvalues --    1.95750   1.95759   1.96233   1.96447   1.96678
 Alpha virt. eigenvalues --    1.97034   1.97222   1.97262   1.97825   1.98097
 Alpha virt. eigenvalues --    1.98328   1.98605   1.99112   1.99258   1.99467
 Alpha virt. eigenvalues --    2.00131   2.00168   2.00858   2.01075   2.01160
 Alpha virt. eigenvalues --    2.01401   2.01604   2.01784   2.01949   2.02126
 Alpha virt. eigenvalues --    2.02659   2.02819   2.03265   2.03369   2.03440
 Alpha virt. eigenvalues --    2.04048   2.04061   2.04336   2.04895   2.04951
 Alpha virt. eigenvalues --    2.05358   2.05640   2.05817   2.06071   2.06267
 Alpha virt. eigenvalues --    2.06418   2.06741   2.07222   2.07549   2.07711
 Alpha virt. eigenvalues --    2.08096   2.08737   2.09331   2.09401   2.09689
 Alpha virt. eigenvalues --    2.10206   2.10543   2.10776   2.10916   2.11306
 Alpha virt. eigenvalues --    2.11818   2.11942   2.12234   2.12315   2.12827
 Alpha virt. eigenvalues --    2.13168   2.13742   2.14146   2.14149   2.14454
 Alpha virt. eigenvalues --    2.15301   2.15637   2.16006   2.16417   2.16929
 Alpha virt. eigenvalues --    2.17396   2.17422   2.17770   2.18006   2.18305
 Alpha virt. eigenvalues --    2.18326   2.18559   2.19039   2.19254   2.19801
 Alpha virt. eigenvalues --    2.20359   2.20435   2.20511   2.20689   2.20987
 Alpha virt. eigenvalues --    2.21312   2.21965   2.21991   2.22097   2.22192
 Alpha virt. eigenvalues --    2.22363   2.23558   2.23859   2.23959   2.24229
 Alpha virt. eigenvalues --    2.24819   2.24915   2.25182   2.25456   2.25562
 Alpha virt. eigenvalues --    2.25968   2.26031   2.26095   2.26513   2.26913
 Alpha virt. eigenvalues --    2.26993   2.27632   2.27894   2.28168   2.28618
 Alpha virt. eigenvalues --    2.28684   2.28794   2.29611   2.30138   2.30573
 Alpha virt. eigenvalues --    2.31166   2.31473   2.31630   2.31899   2.32132
 Alpha virt. eigenvalues --    2.32315   2.32370   2.32656   2.32950   2.33446
 Alpha virt. eigenvalues --    2.33555   2.34440   2.34543   2.34822   2.35320
 Alpha virt. eigenvalues --    2.35470   2.35590   2.35973   2.36277   2.36612
 Alpha virt. eigenvalues --    2.37425   2.37537   2.37943   2.38475   2.38603
 Alpha virt. eigenvalues --    2.38760   2.38839   2.39066   2.39215   2.39591
 Alpha virt. eigenvalues --    2.40510   2.40675   2.41124   2.41548   2.41665
 Alpha virt. eigenvalues --    2.42062   2.42606   2.42936   2.42994   2.43351
 Alpha virt. eigenvalues --    2.43642   2.43998   2.44055   2.44478   2.45160
 Alpha virt. eigenvalues --    2.45730   2.45744   2.46386   2.46472   2.46732
 Alpha virt. eigenvalues --    2.46990   2.47152   2.47442   2.47603   2.47831
 Alpha virt. eigenvalues --    2.48194   2.48646   2.48785   2.49485   2.49937
 Alpha virt. eigenvalues --    2.50273   2.50643   2.51060   2.51414   2.51666
 Alpha virt. eigenvalues --    2.52081   2.52557   2.52593   2.53072   2.53546
 Alpha virt. eigenvalues --    2.53783   2.54251   2.54451   2.54925   2.55055
 Alpha virt. eigenvalues --    2.55710   2.55734   2.56344   2.56642   2.56989
 Alpha virt. eigenvalues --    2.57387   2.57737   2.58337   2.58477   2.59135
 Alpha virt. eigenvalues --    2.59709   2.59955   2.60338   2.60731   2.61497
 Alpha virt. eigenvalues --    2.61550   2.62134   2.62265   2.62442   2.63186
 Alpha virt. eigenvalues --    2.63463   2.63553   2.63717   2.63936   2.64369
 Alpha virt. eigenvalues --    2.64742   2.65670   2.66199   2.66500   2.67231
 Alpha virt. eigenvalues --    2.67317   2.67502   2.67868   2.68154   2.68764
 Alpha virt. eigenvalues --    2.69320   2.69737   2.69884   2.70171   2.70509
 Alpha virt. eigenvalues --    2.70572   2.70986   2.71355   2.71409   2.71790
 Alpha virt. eigenvalues --    2.72243   2.72321   2.73037   2.73299   2.73512
 Alpha virt. eigenvalues --    2.73971   2.74338   2.74586   2.75045   2.75075
 Alpha virt. eigenvalues --    2.75251   2.75808   2.76101   2.76457   2.76779
 Alpha virt. eigenvalues --    2.76931   2.77361   2.77657   2.77696   2.77891
 Alpha virt. eigenvalues --    2.78232   2.78455   2.78722   2.78961   2.79513
 Alpha virt. eigenvalues --    2.79829   2.80067   2.80716   2.80809   2.80833
 Alpha virt. eigenvalues --    2.81287   2.81393   2.81970   2.82083   2.82321
 Alpha virt. eigenvalues --    2.82777   2.83089   2.83154   2.83385   2.83961
 Alpha virt. eigenvalues --    2.84141   2.84839   2.85430   2.85657   2.85934
 Alpha virt. eigenvalues --    2.86564   2.86698   2.87059   2.87253   2.87338
 Alpha virt. eigenvalues --    2.88199   2.88432   2.89258   2.89320   2.89968
 Alpha virt. eigenvalues --    2.90373   2.90973   2.91218   2.91286   2.91844
 Alpha virt. eigenvalues --    2.92091   2.92378   2.92701   2.92891   2.93044
 Alpha virt. eigenvalues --    2.94001   2.94126   2.94530   2.94685   2.94868
 Alpha virt. eigenvalues --    2.95855   2.96054   2.96346   2.96758   2.97057
 Alpha virt. eigenvalues --    2.97175   2.98149   2.98359   2.98678   2.98865
 Alpha virt. eigenvalues --    2.99276   2.99498   2.99812   3.00130   3.00231
 Alpha virt. eigenvalues --    3.00794   3.01848   3.02100   3.02911   3.03290
 Alpha virt. eigenvalues --    3.03514   3.03790   3.04091   3.04367   3.04592
 Alpha virt. eigenvalues --    3.05387   3.05817   3.05925   3.06871   3.07815
 Alpha virt. eigenvalues --    3.08169   3.08920   3.09136   3.09434   3.10231
 Alpha virt. eigenvalues --    3.11062   3.11938   3.12202   3.12311   3.12566
 Alpha virt. eigenvalues --    3.13342   3.14000   3.14409   3.15517   3.16727
 Alpha virt. eigenvalues --    3.17221   3.17619   3.19031   3.19496   3.19513
 Alpha virt. eigenvalues --    3.20385   3.23185   3.23351   3.23615   3.24923
 Alpha virt. eigenvalues --    3.25382   3.26027   3.26298   3.27445   3.27938
 Alpha virt. eigenvalues --    3.28532   3.29584   3.29917   3.30754   3.31506
 Alpha virt. eigenvalues --    3.32067   3.32773   3.32940   3.34652   3.35902
 Alpha virt. eigenvalues --    3.36214   3.36703   3.38865   3.39342   3.39674
 Alpha virt. eigenvalues --    3.40004   3.41115   3.42256   3.42421   3.42679
 Alpha virt. eigenvalues --    3.42872   3.43692   3.43856   3.45674   3.46813
 Alpha virt. eigenvalues --    3.46929   3.46983   3.48333   3.48893   3.49909
 Alpha virt. eigenvalues --    3.50677   3.50717   3.50910   3.51189   3.51614
 Alpha virt. eigenvalues --    3.51890   3.52192   3.52640   3.53216   3.53802
 Alpha virt. eigenvalues --    3.54027   3.55224   3.55270   3.55627   3.57321
 Alpha virt. eigenvalues --    3.58064   3.58380   3.58581   3.59323   3.59657
 Alpha virt. eigenvalues --    3.59886   3.59983   3.62574   3.62916   3.63991
 Alpha virt. eigenvalues --    3.64658   3.66969   3.67128   3.71059   3.71528
 Alpha virt. eigenvalues --    3.71790   3.72477   3.73062   3.73255   3.74557
 Alpha virt. eigenvalues --    3.74909   3.74949   3.81361   3.92283   4.07440
 Alpha virt. eigenvalues --    4.09068   4.12940   4.21029   4.22905   4.23405
 Alpha virt. eigenvalues --    4.24895   4.25774   4.27677   4.27789   4.28765
 Alpha virt. eigenvalues --    4.29881   4.30581   4.31380   4.31815   4.33501
 Alpha virt. eigenvalues --    4.35579   4.36861   4.37528   4.40140   4.40711
 Alpha virt. eigenvalues --    4.41645   4.43499   4.43878   4.45356   4.46821
 Alpha virt. eigenvalues --    4.47123   4.47818   4.48147   4.49464   4.51773
 Alpha virt. eigenvalues --    4.52865   4.54628   4.55703   4.56992   4.58299
 Alpha virt. eigenvalues --    4.59594   4.59870   4.61027   4.62239   4.62327
 Alpha virt. eigenvalues --    4.62716   4.63428   4.63780   4.64392   4.68516
 Alpha virt. eigenvalues --    4.69631   4.70778   4.71121   4.73345   4.75213
 Alpha virt. eigenvalues --    4.75950   4.78724   4.80784   4.81962   4.82432
 Alpha virt. eigenvalues --    4.84471   4.86001   4.87354   4.90005   4.90147
 Alpha virt. eigenvalues --    4.90692   4.95943   5.10561
          Condensed to atoms (all electrons):
 Mulliken charges:
               1
     1  Mg   0.850459
     2  C    0.039284
     3  C   -0.237980
     4  C   -0.183752
     5  C   -0.171275
     6  N   -0.597183
     7  C    0.259418
     8  C   -0.139933
     9  C   -0.144215
    10  C    0.322228
    11  C   -0.331502
    12  C   -0.130820
    13  C   -0.267238
    14  C    0.585210
    15  O   -0.500740
    16  O   -0.470764
    17  N   -0.800915
    18  C    0.358229
    19  C   -0.035694
    20  C    0.050018
    21  C    0.316272
    22  C   -0.337228
    23  C   -0.120286
    24  C   -0.246589
    25  N   -0.703916
    26  C    0.313389
    27  C    0.074561
    28  C   -0.024700
    29  C    0.324454
    30  C   -0.377683
    31  C   -0.259611
    32  C   -0.304241
    33  N   -0.676586
    34  C    0.261785
    35  C   -0.077481
    36  C    0.014357
    37  C    0.260839
    38  C   -0.343865
    39  C    0.374251
    40  O   -0.388131
    41  C   -0.342419
    42  C    0.628008
    43  O   -0.500632
    44  O   -0.461928
    45  C   -0.083076
    46  C    0.001265
    47  C   -0.148285
    48  C    0.147364
    49  C   -0.360236
    50  C   -0.232635
    51  C   -0.179568
    52  C   -0.172988
    53  C   -0.053678
    54  C   -0.321103
    55  C   -0.170457
    56  C   -0.163796
    57  C   -0.156059
    58  C   -0.069451
    59  C   -0.296494
    60  C   -0.155801
    61  C   -0.195125
    62  C   -0.159118
    63  C   -0.069600
    64  C   -0.291322
    65  C   -0.307729
    66  H    0.083171
    67  H    0.060625
    68  H    0.090385
    69  H    0.143741
    70  H    0.103160
    71  H    0.095684
    72  H    0.118246
    73  H    0.137057
    74  H    0.129933
    75  H    0.133712
    76  H    0.140865
    77  H    0.125707
    78  H    0.123944
    79  H    0.142993
    80  H    0.129541
    81  H    0.107843
    82  H    0.103525
    83  H    0.097097
    84  H    0.128225
    85  H    0.115768
    86  H    0.128615
    87  H    0.115488
    88  H    0.099598
    89  H    0.104332
    90  H    0.104497
    91  H    0.107680
    92  H    0.116963
    93  H    0.142736
    94  H    0.122643
    95  H    0.152745
    96  H    0.115970
    97  H    0.149547
    98  H    0.130246
    99  H    0.142299
   100  H    0.117851
   101  H    0.099119
   102  H    0.108804
   103  H    0.122240
   104  H    0.110099
   105  H    0.106876
   106  H    0.095178
   107  H    0.102258
   108  H    0.095131
   109  H    0.083412
   110  H    0.090590
   111  H    0.057377
   112  H    0.119803
   113  H    0.097228
   114  H    0.079981
   115  H    0.091068
   116  H    0.090669
   117  H    0.109396
   118  H    0.081849
   119  H    0.066589
   120  H    0.060779
   121  H    0.058247
   122  H    0.088491
   123  H    0.103099
   124  H    0.085640
   125  H    0.097275
   126  H    0.090182
   127  H    0.096589
   128  H    0.082005
   129  H    0.083737
   130  H    0.085423
   131  H    0.095680
   132  H    0.107537
   133  H    0.107096
   134  H    0.064884
   135  H    0.096060
   136  H    0.103436
   137  H    0.106173
 Sum of Mulliken charges =   0.00000
 Mulliken charges with hydrogens summed into heavy atoms:
               1
     1  Mg   0.850459
     2  C    0.039284
     3  C   -0.154808
     4  C   -0.123127
     5  C   -0.080890
     6  N   -0.597183
     7  C    0.259418
     8  C    0.003808
     9  C   -0.041055
    10  C    0.322228
    11  C    0.019486
    12  C    0.132825
    13  C   -0.000667
    14  C    0.585210
    15  O   -0.500740
    16  O   -0.470764
    17  N   -0.800915
    18  C    0.358229
    19  C   -0.035694
    20  C    0.050018
    21  C    0.316272
    22  C    0.059249
    23  C   -0.012442
    24  C   -0.045968
    25  N   -0.703916
    26  C    0.313389
    27  C    0.074561
    28  C   -0.024700
    29  C    0.324454
    30  C   -0.005074
    31  C   -0.044525
    32  C    0.012269
    33  N   -0.676586
    34  C    0.261785
    35  C   -0.077481
    36  C    0.014357
    37  C    0.260839
    38  C    0.038477
    39  C    0.374251
    40  O   -0.388131
    41  C   -0.189674
    42  C    0.628008
    43  O   -0.500632
    44  O   -0.461928
    45  C    0.312687
    46  C    0.261414
    47  C   -0.049166
    48  C    0.147364
    49  C   -0.019093
    50  C   -0.030580
    51  C    0.017822
    52  C    0.001014
    53  C    0.003699
    54  C   -0.024091
    55  C    0.011280
    56  C    0.027450
    57  C   -0.028691
    58  C   -0.011204
    59  C   -0.019264
    60  C    0.031656
    61  C   -0.016530
    62  C    0.010042
    63  C    0.026080
    64  C   -0.011805
    65  C   -0.002060
 Electronic spatial extent (au):  <R**2>=         180814.9946
 Charge=              0.0000 electrons
 Dipole moment (field-independent basis, Debye):
    X=              2.6483    Y=              5.5680    Z=              0.3742  Tot=              6.1771
 Quadrupole moment (field-independent basis, Debye-Ang):
   XX=           -341.0004   YY=           -392.3751   ZZ=           -395.7543
   XY=            -37.0352   XZ=             15.4238   YZ=             -0.5673
 Traceless Quadrupole moment (field-independent basis, Debye-Ang):
   XX=             35.3762   YY=            -15.9985   ZZ=            -19.3776
   XY=            -37.0352   XZ=             15.4238   YZ=             -0.5673
 Octapole moment (field-independent basis, Debye-Ang**2):
  XXX=           -288.2152  YYY=            168.3284  ZZZ=             20.2808  XYY=            -31.9357
  XXY=            125.3656  XXZ=           -230.1981  XZZ=            -27.1493  YZZ=            -28.1382
  YYZ=             12.2614  XYZ=            -26.7404
 Hexadecapole moment (field-independent basis, Debye-Ang**3):
 XXXX=        -212045.0720 YYYY=         -17242.3332 ZZZZ=          -4238.7614 XXXY=          -2330.5365
 XXXZ=           2565.2189 YYYX=          -1383.4716 YYYZ=           -115.9449 ZZZX=             75.2291
 ZZZY=           -136.5233 XXYY=         -40517.7285 XXZZ=         -39150.7526 YYZZ=          -3455.1264
 XXYZ=           -333.2975 YYXZ=            171.5396 ZZXY=              0.2011
 N-N= 8.743194444721D+03 E-N=-2.431101810636D+04  KE= 2.907094382124D+03
 1\1\GINC-PEDRO-RYZENSSD\SP\RCAM-B3LYP TD-FC\6-31G(d,p)\C55H72Mg1N4O5\P
 ADAWAN\03-Jul-2019\0\\# td=(NStates=1) CAM-B3LYP/6-31G(d,p)\\TD\\0,1\M
 g,0,-7.2007706501,0.702098958,0.1286405515\C,0,-4.9026948875,-1.917982
 9767,0.46737327\C,0,-4.8333732662,2.883476795,1.0314995149\C,0,-9.4421
 489504,2.9886443599,-0.3480876685\C,0,-9.5943897527,-1.7782133323,-0.8
 493413632\N,0,-5.1345368783,0.4461044285,0.665887007\C,0,-4.3425939655
 ,-0.6485146735,0.7457025935\C,0,-2.8790169071,-0.335392965,1.113021656
 4\C,0,-2.923175756,1.0989325616,1.5393946702\C,0,-4.339140909,1.503781
 1269,1.044671497\C,0,-2.9611111932,1.3518474728,3.0793593448\C,0,-1.89
 05725183,-0.6448997514,-0.0306291046\C,0,-0.5423816608,-0.4034446917,0
 .5909432236\C,0,0.5548866259,-0.6813216451,-0.5686022407\O,0,0.2682280
 629,-0.9793333409,-1.7582521569\O,0,1.7950713176,-0.4800153979,-0.1287
 296619\N,0,-7.1925297009,2.5566512549,0.2876574612\C,0,-6.0817874577,3
 .3435853343,0.6539889325\C,0,-6.4587831314,4.7324675362,0.7420848957\C
 ,0,-7.8091436214,4.8255531868,0.4351919105\C,0,-8.2879930709,3.4249516
 905,0.0948020265\C,0,-5.5180097577,5.8366361295,1.2553302935\C,0,-8.64
 10619038,5.9665376875,0.3278497704\C,0,-8.5424481361,7.1188680054,1.03
 56798178\N,0,-9.1669589685,0.5963324943,-0.5048745212\C,0,-9.942640523
 8,1.7392038735,-0.6913854626\C,0,-11.2732264192,1.4002683659,-1.110672
 7868\C,0,-11.2679892028,0.1058559497,-1.3557642904\C,0,-9.9312488056,-
 0.5178137557,-0.8901840345\C,0,-12.2814769714,2.495550126,-1.412077982
 6\C,0,-12.419776524,-0.7813955497,-1.8849193004\C,0,-12.3791254009,-0.
 9931317244,-3.385233642\N,0,-7.3028697553,-1.4309627099,-0.2174964266\
 C,0,-8.2856288027,-2.2768928614,-0.529397895\C,0,-7.8483709827,-3.5860
 668742,-0.4799152688\C,0,-6.5621400981,-3.5869430313,-0.0693886708\C,0
 ,-6.2868612825,-2.2012884101,0.0952423284\C,0,-8.5914966171,-4.9181646
 589,-0.8372922076\C,0,-5.3345879291,-4.3708809716,0.2722200946\O,0,-5.
 1348823261,-5.4897334567,0.2943364643\C,0,-4.2052541048,-3.2857643662,
 0.5511049758\C,0,-3.6169523261,-3.6291681381,1.904600833\O,0,-3.793290
 9297,-3.0277195082,2.9754602271\O,0,-2.7486760613,-4.6768524076,1.8599
 245734\C,0,-2.0506256505,-4.9871629454,3.1137663121\C,0,2.8889014018,-
 0.6771755122,-1.0930505055\C,0,4.183320421,-0.3000181781,-0.4844485939
 \C,0,5.2200354879,0.2571919846,-1.0044602187\C,0,5.2312315462,1.148107
 46,-2.1424884141\C,0,6.481142447,0.463278178,-0.216418127\C,0,7.731330
 671,-0.2420045474,-0.9594528958\C,0,8.9306049331,-0.2724323736,-0.1207
 238852\C,0,10.2667472992,-0.6652235941,-0.845105481\C,0,10.1340601062,
 -2.0947204081,-1.2922926943\C,0,11.4922321001,-0.3048442652,0.01805267
 39\C,0,12.7389488026,-0.4045645076,-0.7910591288\C,0,13.9237618446,0.0
 171705143,0.0189089584\C,0,15.4242785528,-0.147718501,-0.54100234\C,0,
 15.6776094298,-1.54756239,-0.8667762953\C,0,16.4745115571,0.4161759776
 ,0.438458353\C,0,17.9351581052,0.4581172101,-0.1192977444\C,0,18.96793
 71632,1.2073489519,0.7731277458\C,0,20.2602046897,1.2990102345,0.18632
 33955\C,0,20.3573470885,2.0846567629,-1.1020011928\C,0,21.2251234431,1
 .9642093572,1.3398893523\H,0,-4.1803895235,3.6257180932,1.5304176287\H
 ,0,-9.9845388466,3.792200055,-0.599515343\H,0,-10.3763909285,-2.414510
 7919,-1.1929659488\H,0,-2.8687833352,-0.9360819221,1.9577964708\H,0,-2
 .0219758028,1.6937629589,1.1123918896\H,0,-1.9644609036,1.006341087,3.
 508604574\H,0,-3.051570217,2.3593999975,3.5330954749\H,0,-3.591032546,
 0.6831630003,3.695141927\H,0,-2.0154940343,-1.6187818386,-0.342298139\
 H,0,-2.0622879013,0.0454817986,-0.7688669263\H,0,-0.3080143188,0.57467
 20811,1.0162520243\H,0,-0.1547532773,-1.239798495,1.3475987151\H,0,-5.
 9793867141,6.6837870228,0.7660723164\H,0,-5.7108580752,5.7252858917,2.
 3541317103\H,0,-4.6247064266,5.6814593123,0.8238755632\H,0,-9.42291434
 39,6.0624123893,-0.4885190801\H,0,-9.199721188,7.9132320621,0.84377399
 92\H,0,-7.5777172375,7.4733637359,1.5242808136\H,0,-12.0626903741,2.96
 06263886,-2.4074737521\H,0,-13.3185415234,2.2189657878,-1.6777589674\H
 ,0,-12.4008618173,3.1302416789,-0.5338246265\H,0,-12.8990346819,-1.585
 4079859,-1.1849934542\H,0,-13.1845271716,0.0246357268,-1.6243279603\H,
 0,-13.0401303656,-1.7504197282,-3.8845683413\H,0,-12.4743610003,-0.093
 403878,-4.1435878545\H,0,-11.4282391032,-1.5956544325,-3.51630025\H,0,
 -8.8635959626,-5.0701777607,-1.856668931\H,0,-7.7626456294,-5.51882188
 64,-0.6977093839\H,0,-9.4819880837,-4.8500600273,-0.2552173443\H,0,-3.
 407781474,-3.397983049,-0.3574710186\H,0,-1.4355717237,-4.167423182,3.
 5513180471\H,0,-2.8186914777,-5.0798796056,3.8561584547\H,0,-1.3240205
 136,-5.7562949027,2.7289268456\H,0,3.0316224663,-1.7046022961,-1.43095
 70607\H,0,2.4558030579,-0.0656322836,-2.0152246747\H,0,4.0724781534,-0
 .9079030055,0.4517483908\H,0,4.2698359471,1.2360923196,-2.6167300427\H
 ,0,5.571112523,2.204020661,-1.9933958078\H,0,6.0075880664,0.8008911966
 ,-2.8871174427\H,0,6.7788399469,1.4176257626,0.0843110739\H,0,6.417435
 863,0.2264946121,0.8102307398\H,0,7.3964970344,-1.1763568709,-1.384509
 7746\H,0,7.9467771136,0.2389271008,-1.9221151351\H,0,9.0731693685,0.67
 18850735,0.403157948\H,0,8.9031288016,-1.0062661328,0.7202898927\H,0,1
 0.4505226037,0.1100535431,-1.7613910286\H,0,9.4576807536,-2.4242203985
 ,-1.9710330281\H,0,10.9852210778,-2.6351002939,-1.7420184457\H,0,9.912
 1240984,-2.8337353155,-0.3928887286\H,0,11.2545731382,0.6678390141,0.4
 35305018\H,0,11.6116842218,-1.0514411054,0.8096315848\H,0,12.757679086
 8,-1.4085690181,-1.0431019778\H,0,12.6979435469,0.2435550465,-1.737567
 118\H,0,13.6690683435,1.1250450605,0.3937067137\H,0,13.9320459577,-0.6
 705166564,1.0097874952\H,0,15.6475180403,0.3752770127,-1.5947638344\H,
 0,15.7439618391,-2.3038106732,0.001418688\H,0,15.0565387046,-1.8880211
 777,-1.7252899441\H,0,16.7287325027,-1.5358791128,-1.3507865482\H,0,16
 .0899341941,1.3933271664,0.6279293372\H,0,16.2793623834,-0.2225314282,
 1.2623890001\H,0,18.2787688156,-0.5164181892,-0.5136947099\H,0,17.8357
 506396,1.0777250914,-1.082111787\H,0,18.5952903216,2.1271068684,1.2392
 019255\H,0,18.9689440547,0.5390480858,1.6906090612\H,0,20.580923005,0.
 3296691151,0.1603430983\H,0,19.9837224788,3.0669002519,-0.923125906\H,
 0,21.3545097031,2.2243890917,-1.5379551588\H,0,19.6046443688,1.5763194
 427,-2.031370106\H,0,21.3008960648,1.3717452836,2.2394635636\H,0,22.13
 46751738,1.8948207118,1.0731222785\H,0,20.6838481147,2.8755676401,1.37
 60280433\\Version=ES64L-G09RevD.01\State=1-A\HF=-2932.6975497\RMSD=4.5
 88e-09\PG=C01 [X(C55H72Mg1N4O5)]\\@


 Mondays are the potholes in the road of life.
                                -- Tom Wilson
 Job cpu time:       0 days  6 hours 30 minutes  1.8 seconds.
 File lengths (MBytes):  RWF=   2106 Int=      0 D2E=      0 Chk=    163 Scr=      1
 Normal termination of Gaussian 09 at Wed Jul  3 14:07:32 2019.
