 Entering Gaussian System, Link 0=g16
 Input=Geometria-221-.com
 Output=Geometria-221-.log
 Initial command:
 /usr/local/g09/l1.exe "/home/padawan/israel-mol/chlorophyll-a/spectra/emi/Gau-121413.inp" -scrdir="/home/padawan/israel-mol/chlorophyll-a/spectra/emi/"
 Entering Link 1 = /usr/local/g09/l1.exe PID=    121415.
  
 Copyright (c) 1988,1990,1992,1993,1995,1998,2003,2009,2013,
            Gaussian, Inc.  All Rights Reserved.
  
 This is part of the Gaussian(R) 09 program.  It is based on
 the Gaussian(R) 03 system (copyright 2003, Gaussian, Inc.),
 the Gaussian(R) 98 system (copyright 1998, Gaussian, Inc.),
 the Gaussian(R) 94 system (copyright 1995, Gaussian, Inc.),
 the Gaussian 92(TM) system (copyright 1992, Gaussian, Inc.),
 the Gaussian 90(TM) system (copyright 1990, Gaussian, Inc.),
 the Gaussian 88(TM) system (copyright 1988, Gaussian, Inc.),
 the Gaussian 86(TM) system (copyright 1986, Carnegie Mellon
 University), and the Gaussian 82(TM) system (copyright 1983,
 Carnegie Mellon University). Gaussian is a federally registered
 trademark of Gaussian, Inc.
  
 This software contains proprietary and confidential information,
 including trade secrets, belonging to Gaussian, Inc.
  
 This software is provided under written license and may be
 used, copied, transmitted, or stored only in accord with that
 written license.
  
 The following legend is applicable only to US Government
 contracts under FAR:
  
                    RESTRICTED RIGHTS LEGEND
  
 Use, reproduction and disclosure by the US Government is
 subject to restrictions as set forth in subparagraphs (a)
 and (c) of the Commercial Computer Software - Restricted
 Rights clause in FAR 52.227-19.
  
 Gaussian, Inc.
 340 Quinnipiac St., Bldg. 40, Wallingford CT 06492
  
  
 ---------------------------------------------------------------
 Warning -- This program may not be used in any manner that
 competes with the business of Gaussian, Inc. or will provide
 assistance to any competitor of Gaussian, Inc.  The licensee
 of this program is prohibited from giving any competitor of
 Gaussian, Inc. access to this program.  By using this program,
 the user acknowledges that Gaussian, Inc. is engaged in the
 business of creating and licensing software in the field of
 computational chemistry and represents and warrants to the
 licensee that it is not a competitor of Gaussian, Inc. and that
 it will not use this program in any manner prohibited above.
 ---------------------------------------------------------------
  

 Cite this work as:
 Gaussian 09, Revision D.01,
 M. J. Frisch, G. W. Trucks, H. B. Schlegel, G. E. Scuseria, 
 M. A. Robb, J. R. Cheeseman, G. Scalmani, V. Barone, B. Mennucci, 
 G. A. Petersson, H. Nakatsuji, M. Caricato, X. Li, H. P. Hratchian, 
 A. F. Izmaylov, J. Bloino, G. Zheng, J. L. Sonnenberg, M. Hada, 
 M. Ehara, K. Toyota, R. Fukuda, J. Hasegawa, M. Ishida, T. Nakajima, 
 Y. Honda, O. Kitao, H. Nakai, T. Vreven, J. A. Montgomery, Jr., 
 J. E. Peralta, F. Ogliaro, M. Bearpark, J. J. Heyd, E. Brothers, 
 K. N. Kudin, V. N. Staroverov, T. Keith, R. Kobayashi, J. Normand, 
 K. Raghavachari, A. Rendell, J. C. Burant, S. S. Iyengar, J. Tomasi, 
 M. Cossi, N. Rega, J. M. Millam, M. Klene, J. E. Knox, J. B. Cross, 
 V. Bakken, C. Adamo, J. Jaramillo, R. Gomperts, R. E. Stratmann, 
 O. Yazyev, A. J. Austin, R. Cammi, C. Pomelli, J. W. Ochterski, 
 R. L. Martin, K. Morokuma, V. G. Zakrzewski, G. A. Voth, 
 P. Salvador, J. J. Dannenberg, S. Dapprich, A. D. Daniels, 
 O. Farkas, J. B. Foresman, J. V. Ortiz, J. Cioslowski, 
 and D. J. Fox, Gaussian, Inc., Wallingford CT, 2013.
 
 ******************************************
 Gaussian 09:  ES64L-G09RevD.01 24-Apr-2013
                 4-Jul-2019 
 ******************************************
 %nproc=4
 Will use up to    4 processors via shared memory.
 %Mem=2GB
 -------------------------------------
 # td=(NStates=1) CAM-B3LYP/6-31G(d,p)
 -------------------------------------
 1/38=1/1;
 2/12=2,17=6,18=5,40=1/2;
 3/5=1,6=6,7=101,11=9,16=1,25=1,30=1,74=-40/1,2,8,3;
 4//1;
 5/5=2,38=5/2;
 8/6=1,10=2,108=1/1;
 9/41=1,42=1,70=2/14;
 6/7=2,8=2,9=2,10=2/1;
 99/5=1,9=1/99;
 --
 TD
 --
 Symbolic Z-matrix:
 Charge =  0 Multiplicity = 1
 12                   -7.11691   0.61373   0.00263 
 6                    -4.84898  -1.97456   0.50814 
 6                    -4.79454   2.83463   1.00166 
 6                    -9.3968    3.06619  -0.34186 
 6                    -9.61431  -1.73891  -0.77048 
 7                    -5.14295   0.33637   0.71819 
 6                    -4.31353  -0.70063   0.70551 
 6                    -2.88487  -0.44764   1.18497 
 6                    -3.03122   1.04074   1.70855 
 6                    -4.37027   1.44173   1.12891 
 6                    -3.08462   1.08819   3.2431 
 6                    -1.80091  -0.70348   0.07541 
 6                    -0.3921   -0.4007    0.56869 
 6                     0.565    -0.72673  -0.50502 
 8                     0.25141  -0.97533  -1.63265 
 8                     1.86066  -0.59778  -0.04718 
 7                    -7.06459   2.57972   0.1671 
 6                    -6.07141   3.36077   0.71895 
 6                    -6.37933   4.75932   0.73737 
 6                    -7.75489   4.84585   0.36688 
 6                    -8.1035    3.47779   0.00803 
 6                    -5.47447   5.75034   1.38602 
 6                    -8.55462   6.08357   0.12374 
 6                    -8.45802   7.28938   0.87599 
 7                    -9.10974   0.64827  -0.54046 
 6                    -9.93257   1.73995  -0.70061 
 6                    -11.19309   1.46023  -1.18256 
 6                    -11.25269   0.10347  -1.38037 
 6                    -9.97551  -0.44115  -0.91858 
 6                    -12.35924   2.5059   -1.51112 
 6                    -12.34919  -0.83102  -1.84431 
 6                    -12.35924  -0.7925   -3.40213 
 7                    -7.30451  -1.38528  -0.17271 
 6                    -8.30546  -2.24614  -0.47137 
 6                    -7.88795  -3.63618  -0.43972 
 6                    -6.50632  -3.50953  -0.10954 
 6                    -6.20609  -2.13946   0.11899 
 6                    -8.7354   -4.85381  -0.72532 
 6                    -5.37315  -4.44627   0.16361 
 8                    -5.22931  -5.64519   0.21423 
 6                    -4.24187  -3.34075   0.62824 
 6                    -3.60516  -3.62093   1.96222 
 8                    -3.78519  -3.07585   3.04872 
 8                    -2.64965  -4.56618   1.74853 
 6                    -2.2436   -5.22284   2.99839 
 6                     2.87444  -0.8699   -1.15467 
 6                     4.23714  -0.46508  -0.50253 
 6                     5.11302   0.40778  -0.96641 
 6                     4.92821   1.13712  -2.23219 
 6                     6.41261   0.48858  -0.27669 
 6                     7.61208  -0.16055  -0.99411 
 6                     8.86989  -0.12916  -0.15886 
 6                     10.1853  -0.50377  -0.85826 
 6                     10.19452  -2.00527  -1.23079 
 6                     11.38208  -0.16145  -0.03341 
 6                     12.81922  -0.52188  -0.72536 
 6                     14.03849   0.09048   0.18372 
 6                     15.41427  -0.26577  -0.4053 
 6                     15.69606  -1.68408  -0.77266 
 6                     16.51316   0.28383   0.53983 
 6                     17.81298   0.63423  -0.15617 
 6                     18.82617   1.38838   0.66948 
 6                     20.25914   1.32353   0.09515 
 6                     20.42572   2.16684  -1.15157 
 6                     21.19101   1.93      1.12414 
 1                    -4.07593   3.42765   1.55397 
 1                    -10.08996   3.8877   -0.24549 
 1                    -10.36308  -2.53059  -1.1084 
 1                    -2.71198  -1.18547   2.07962 
 1                    -2.20061   1.62052   1.40469 
 1                    -1.94687   0.95446   3.47566 
 1                    -3.32466   2.33241   3.59188 
 1                    -3.88626   0.71608   3.85523 
 1                    -1.83775  -1.65127  -0.37529 
 1                    -2.06445  -0.03238  -0.81669 
 1                    -0.34807   0.58715   0.89205 
 1                    -0.29343  -0.86968   1.38507 
 1                    -5.73709   6.68792   0.82519 
 1                    -5.62886   5.92428   2.37355 
 1                    -4.39483   5.5263    1.07227 
 1                    -9.25534   6.01579  -0.42543 
 1                    -9.06621   8.1929    0.90066 
 1                    -7.69623   7.47599   1.67088 
 1                    -12.29926   3.21389  -2.25028 
 1                    -13.31193   1.94763  -1.33834 
 1                    -12.46373   3.20421  -0.79219 
 1                    -12.30743  -1.84555  -1.22003 
 1                    -13.2649  -0.21261  -1.67787 
 1                    -13.31555  -1.2945   -3.79719 
 1                    -12.31764   0.23574  -3.76389 
 1                    -11.6611  -1.36185  -3.74941 
 1                    -9.28372  -4.80959  -1.69993 
 1                    -7.97682  -5.63994  -0.95568 
 1                    -9.4363   -4.84354   0.13579 
 1                    -3.34942  -3.53242  -0.10309 
 1                    -1.58816  -4.60162   3.49606 
 1                    -3.25599  -5.32228   3.52569 
 1                    -1.83084  -6.14284   2.54703 
 1                     2.62641  -1.72995  -1.79537 
 1                     2.68747  -0.13272  -2.04414 
 1                     4.27929  -0.93094   0.48001 
 1                     3.96293   1.11815  -2.68113 
 1                     5.33542   2.19014  -2.16669 
 1                     5.53773   0.62203  -2.91856 
 1                     6.59995   1.59419  -0.08898 
 1                     6.30486   0.07351   0.76858 
 1                     7.38008  -1.25453  -1.28733 
 1                     7.77061   0.66475  -2.02059 
 1                     9.01772   0.90235   0.43708 
 1                     8.60068  -0.89477   0.68327 
 1                     10.49874   0.0231   -1.74076 
 1                     9.27711  -2.22389  -1.84895 
 1                     11.30402  -2.20522  -1.83945 
 1                     10.05207  -2.5778   -0.32247 
 1                     11.55154   1.05545   0.04637 
 1                     11.54138  -0.68283   0.94873 
 1                     13.10948  -1.50747  -0.82598 
 1                     12.8265   0.1227   -1.5636 
 1                     13.77732   1.16632   0.43641 
 1                     14.05658  -0.30848   1.30453 
 1                     15.38736   0.03753  -1.42611 
 1                     15.42854  -2.37201   0.19002 
 1                     14.78084  -1.96529  -1.57723 
 1                     16.77246  -1.88192  -1.18891 
 1                     16.14204   1.15245   1.13308 
 1                     16.78708  -0.39012   1.36421 
 1                     18.42357  -0.35457  -0.29272 
 1                     17.67469   0.92534  -1.17927 
 1                     18.61196   2.43194   0.86914 
 1                     18.77593   0.90939   1.75056 
 1                     20.51587   0.24834  -0.37998 
 1                     20.25302   3.22708  -0.72924 
 1                     21.46317   2.23347  -1.61068 
 1                     19.77401   2.09462  -2.21232 
 1                     21.53954   1.42191   1.96929 
 1                     22.254    2.02709   0.60417 
 1                     20.77384   2.89609   1.31561 
 
 Stoichiometry    C55H72MgN4O5
 Framework group  C1[X(C55H72MgN4O5)]
 Deg. of freedom   405
 Full point group                 C1      NOp   1
 Largest Abelian subgroup         C1      NOp   1
 Largest concise Abelian subgroup C1      NOp   1
                         Standard orientation:                         
 ---------------------------------------------------------------------
 Center     Atomic      Atomic             Coordinates (Angstroms)
 Number     Number       Type             X           Y           Z
 ---------------------------------------------------------------------
      1         12           0       -7.115980    0.618515    0.004093
      2          6           0       -4.850285   -1.974774    0.493763
      3          6           0       -4.792039    2.831152    1.017709
      4          6           0       -9.393784    3.074971   -0.325417
      5          6           0       -9.615110   -1.727143   -0.784485
      6          7           0       -5.142418    0.335023    0.718362
      7          6           0       -4.313845   -0.702558    0.699318
      8          6           0       -2.885093   -0.453779    1.180712
      9          6           0       -3.030355    1.031379    1.713665
     10          6           0       -4.368942    1.437131    1.136250
     11          6           0       -3.084100    1.069169    3.248465
     12          6           0       -1.801076   -0.703473    0.069818
     13          6           0       -0.392134   -0.404981    0.565342
     14          6           0        0.564957   -0.724987   -0.510177
     15          8           0        0.251440   -0.966199   -1.639436
     16          8           0        1.860610   -0.599996   -0.051225
     17          7           0       -7.062089    2.583385    0.181007
     18          6           0       -6.068407    3.360109    0.738025
     19          6           0       -6.375188    4.758769    0.765228
     20          6           0       -7.750589    4.848762    0.394953
     21          6           0       -8.100235    3.483286    0.027380
     22          6           0       -5.469679    5.744923    1.420350
     23          6           0       -8.549254    6.088653    0.159460
     24          6           0       -8.451850    7.289596    0.919351
     25          7           0       -9.108649    0.658118   -0.539242
     26          6           0       -9.930544    1.751468   -0.692678
     27          6           0      -11.191173    1.475834   -1.176694
     28          6           0      -11.251831    0.120393   -1.383094
     29          6           0       -9.975215   -0.428174   -0.924452
     30          6           0      -12.356394    2.524512   -1.498910
     31          6           0      -12.348982   -0.810242   -1.853198
     32          6           0      -12.358622   -0.761862   -3.410746
     33          7           0       -7.305166   -1.379190   -0.183934
     34          6           0       -8.306747   -2.237326   -0.488274
     35          6           0       -7.890384   -3.627882   -0.465318
     36          6           0       -6.508731   -3.504446   -0.134013
     37          6           0       -6.207437   -2.136103    0.103259
     38          6           0       -8.738754   -4.842983   -0.758818
     39          6           0       -5.376391   -4.443825    0.133480
     40          8           0       -5.233542   -5.643159    0.176548
     41          6           0       -4.244318   -3.342194    0.605369
     42          6           0       -3.608168   -3.631325    1.937696
     43          8           0       -3.788018   -3.092989    3.027581
     44          8           0       -2.653373   -4.575990    1.718267
     45          6           0       -2.248174   -5.240870    2.964047
     46          6           0        2.874441   -0.865942   -1.160166
     47          6           0        4.237307   -0.466370   -0.505155
     48          6           0        5.114022    0.408692   -0.963289
     49          6           0        4.930115    1.146175   -2.224475
     50          6           0        6.413500    0.484068   -0.272768
     51          6           0        7.612618   -0.161489   -0.993984
     52          6           0        8.870249   -0.136414   -0.158252
     53          6           0       10.185524   -0.507668   -0.859691
     54          6           0       10.193606   -2.006792   -1.241710
     55          6           0       11.382383   -0.171554   -0.032410
     56          6           0       12.819393   -0.528771   -0.726282
     57          6           0       14.038947    0.076822    0.186944
     58          6           0       15.414574   -0.276818   -0.403981
     59          6           0       15.695300   -1.693002   -0.780237
     60          6           0       16.513678    0.265896    0.544867
     61          6           0       17.813955    0.619631   -0.148590
     62          6           0       18.827565    1.367706    0.682056
     63          6           0       20.260624    1.305324    0.107678
     64          6           0       20.428198    2.156369   -1.133642
     65          6           0       21.192732    1.904503    1.140702
     66          1           0       -4.073080    3.420075    1.573935
     67          1           0      -10.086292    3.896420   -0.224022
     68          1           0      -10.364441   -2.516060   -1.127580
     69          1           0       -2.713025   -1.197388    2.070718
     70          1           0       -2.199205    1.612389    1.413677
     71          1           0       -1.946512    0.933034    3.480453
     72          1           0       -3.323203    2.311350    3.605057
     73          1           0       -3.886192    0.693845    3.858039
     74          1           0       -1.838572   -1.648362   -0.386880
     75          1           0       -2.063844   -0.026528   -0.818085
     76          1           0       -0.347378    0.580775    0.894954
     77          1           0       -0.294047   -0.879193    1.378763
     78          1           0       -5.731403    6.686247    0.865394
     79          1           0       -5.624173    5.912737    2.408924
     80          1           0       -4.390153    5.521996    1.105445
     81          1           0       -9.249889    6.024920   -0.390298
     82          1           0       -9.059306    8.193444    0.949586
     83          1           0       -7.690102    7.470560    1.715580
     84          1           0      -12.295654    3.237115   -2.233562
     85          1           0      -13.309578    1.965937   -1.329891
     86          1           0      -12.460484    3.218343   -0.775605
     87          1           0      -12.308199   -1.828739   -1.235341
     88          1           0      -13.264223   -0.192146   -1.683077
     89          1           0      -13.315239   -1.260572   -3.809208
     90          1           0      -12.316086    0.268613   -3.765989
     91          1           0      -11.660861   -1.329574   -3.761462
     92          1           0       -9.286795   -4.792154   -1.733263
     93          1           0       -7.980755   -5.628266   -0.993959
     94          1           0       -9.439859   -4.837589    0.102174
     95          1           0       -3.351844   -3.529960   -0.126943
     96          1           0       -1.592341   -4.623347    3.465792
     97          1           0       -3.260764   -5.342823    3.490455
     98          1           0       -1.836051   -6.158341    2.506969
     99          1           0        2.625868   -1.721718   -1.806360
    100          1           0        2.688288   -0.122991   -2.045000
    101          1           0        4.278839   -0.938461    0.474430
    102          1           0        3.964924    1.130839   -2.673757
    103          1           0        5.338166    2.198429   -2.152223
    104          1           0        5.539382    0.634945   -2.913947
    105          1           0        6.601703    1.588317   -0.078014
    106          1           0        6.305163    0.062481    0.769830
    107          1           0        7.379794   -1.253410   -1.294178
    108          1           0        7.772074    0.670154   -2.015193
    109          1           0        9.018780    0.891180    0.444236
    110          1           0        8.600207   -0.907122    0.678947
    111          1           0       10.499609    0.024520   -1.738767
    112          1           0        9.276176   -2.220745   -1.861465
    113          1           0       11.303099   -2.203791   -1.851358
    114          1           0       10.050468   -2.584938   -0.337069
    115          1           0       11.552819    1.044676    0.055105
    116          1           0       11.541012   -0.699271    0.946448
    117          1           0       13.108881   -1.513945   -0.833063
    118          1           0       12.827405    0.121092   -1.560423
    119          1           0       13.778589    1.151257    0.446378
    120          1           0       14.056431   -0.329233    1.305214
    121          1           0       15.388166    0.032959   -1.422857
    122          1           0       15.426981   -2.386790    0.178002
    123          1           0       14.780047   -1.968370   -1.586788
    124          1           0       16.771635   -1.889093   -1.197475
    125          1           0       16.143126    1.131049    1.143513
    126          1           0       16.786854   -0.413480    1.365034
    127          1           0       18.423778   -0.368792   -0.291247
    128          1           0       17.676162    0.917315   -1.169861
    129          1           0       18.614157    2.410157    0.888270
    130          1           0       18.776671    0.881926    1.760070
    131          1           0       20.516585    0.232949   -0.374187
    132          1           0       20.256255    3.214048   -0.704655
    133          1           0       21.465811    2.225048   -1.592079
    134          1           0       19.776686    2.091390   -2.194986
    135          1           0       21.540640    1.390796    1.982703
    136          1           0       22.255926    2.004019    0.621609
    137          1           0       20.776301    2.869707    1.338183
 ---------------------------------------------------------------------
 Rotational constants (GHZ):      0.0645236      0.0060547      0.0057084
 Standard basis: 6-31G(d,p) (6D, 7F)
 There are  1339 symmetry adapted cartesian basis functions of A   symmetry.
 There are  1339 symmetry adapted basis functions of A   symmetry.
  1339 basis functions,  2348 primitive gaussians,  1339 cartesian basis functions
   241 alpha electrons      241 beta electrons
       nuclear repulsion energy      8724.2956580552 Hartrees.
 NAtoms=  137 NActive=  137 NUniq=  137 SFac= 1.00D+00 NAtFMM=   60 NAOKFM=T Big=T
 Integral buffers will be    131072 words long.
 Raffenetti 1 integral format.
 Two-electron integral symmetry is turned on.
 One-electron integrals computed using PRISM.
 NBasis=  1339 RedAO= T EigKep=  3.23D-04  NBF=  1339
 NBsUse=  1339 1.00D-06 EigRej= -1.00D+00 NBFU=  1339
 ExpMin= 4.21D-02 ExpMax= 1.17D+04 ExpMxC= 1.76D+03 IAcc=2 IRadAn=         4 AccDes= 0.00D+00
 Harris functional with IExCor=20419 and IRadAn=       4 diagonalized for initial guess.
 HarFok:  IExCor=20419 AccDes= 0.00D+00 IRadAn=         4 IDoV= 1 UseB2=F ITyADJ=14
 ICtDFT=  3500011 ScaDFX=  1.000000  1.000000  1.000000  1.000000
 FoFCou: FMM=F IPFlag=           0 FMFlag=      100000 FMFlg1=        2001
         NFxFlg=           0 DoJE=T BraDBF=F KetDBF=T FulRan=T
         wScrn=  0.000000 ICntrl=     500 IOpCl=  0 I1Cent=   200000004 NGrid=           0
         NMat0=    1 NMatS0=      1 NMatT0=    0 NMatD0=    1 NMtDS0=    0 NMtDT0=    0
 Petite list used in FoFCou.
 Requested convergence on RMS density matrix=1.00D-08 within 128 cycles.
 Requested convergence on MAX density matrix=1.00D-06.
 Requested convergence on             energy=1.00D-06.
 No special actions if energy rises.
 SCF Done:  E(RCAM-B3LYP) =  -2932.63503018     A.U. after   18 cycles
            NFock= 18  Conv=0.55D-08     -V/T= 2.0097
 DoSCS=F DFT=T ScalE2(SS,OS)=  1.000000  1.000000
 ExpMin= 4.21D-02 ExpMax= 1.17D+04 ExpMxC= 1.76D+03 IAcc=3 IRadAn=         5 AccDes= 0.00D+00
 HarFok:  IExCor=  205 AccDes= 0.00D+00 IRadAn=         5 IDoV=-2 UseB2=F ITyADJ=14
 ICtDFT= 12500011 ScaDFX=  1.000000  1.000000  1.000000  1.000000
 Range of M.O.s used for correlation:    70  1339
 NBasis=  1339 NAE=   241 NBE=   241 NFC=    69 NFV=     0
 NROrb=   1270 NOA=   172 NOB=   172 NVA=  1098 NVB=  1098
 Would need an additional       2415464100000 words for in-memory AO integral storage.
 Orbital symmetries:
       Occupied  (A) (A) (A) (A) (A) (A) (A) (A) (A) (A) (A) (A)
                 (A) (A) (A) (A) (A) (A) (A) (A) (A) (A) (A) (A)
                 (A) (A) (A) (A) (A) (A) (A) (A) (A) (A) (A) (A)
                 (A) (A) (A) (A) (A) (A) (A) (A) (A) (A) (A) (A)
                 (A) (A) (A) (A) (A) (A) (A) (A) (A) (A) (A) (A)
                 (A) (A) (A) (A) (A) (A) (A) (A) (A) (A) (A) (A)
                 (A) (A) (A) (A) (A) (A) (A) (A) (A) (A) (A) (A)
                 (A) (A) (A) (A) (A) (A) (A) (A) (A) (A) (A) (A)
                 (A) (A) (A) (A) (A) (A) (A) (A) (A) (A) (A) (A)
                 (A) (A) (A) (A) (A) (A) (A) (A) (A) (A) (A) (A)
                 (A) (A) (A) (A) (A) (A) (A) (A) (A) (A) (A) (A)
                 (A) (A) (A) (A) (A) (A) (A) (A) (A) (A) (A) (A)
                 (A) (A) (A) (A) (A) (A) (A) (A) (A) (A) (A) (A)
                 (A) (A) (A) (A) (A) (A) (A) (A) (A) (A) (A) (A)
                 (A) (A) (A) (A) (A) (A) (A) (A) (A) (A) (A) (A)
                 (A) (A) (A) (A) (A) (A) (A) (A) (A) (A) (A) (A)
                 (A) (A) (A) (A) (A) (A) (A) (A) (A) (A) (A) (A)
                 (A) (A) (A) (A) (A) (A) (A) (A) (A) (A) (A) (A)
                 (A) (A) (A) (A) (A) (A) (A) (A) (A) (A) (A) (A)
                 (A) (A) (A) (A) (A) (A) (A) (A) (A) (A) (A) (A)
                 (A)
       Virtual   (A) (A) (A) (A) (A) (A) (A) (A) (A) (A) (A) (A)
                 (A) (A) (A) (A) (A) (A) (A) (A) (A) (A) (A) (A)
                 (A) (A) (A) (A) (A) (A) (A) (A) (A) (A) (A) (A)
                 (A) (A) (A) (A) (A) (A) (A) (A) (A) (A) (A) (A)
                 (A) (A) (A) (A) (A) (A) (A) (A) (A) (A) (A) (A)
                 (A) (A) (A) (A) (A) (A) (A) (A) (A) (A) (A) (A)
                 (A) (A) (A) (A) (A) (A) (A) (A) (A) (A) (A) (A)
                 (A) (A) (A) (A) (A) (A) (A) (A) (A) (A) (A) (A)
                 (A) (A) (A) (A) (A) (A) (A) (A) (A) (A) (A) (A)
                 (A) (A) (A) (A) (A) (A) (A) (A) (A) (A) (A) (A)
                 (A) (A) (A) (A) (A) (A) (A) (A) (A) (A) (A) (A)
                 (A) (A) (A) (A) (A) (A) (A) (A) (A) (A) (A) (A)
                 (A) (A) (A) (A) (A) (A) (A) (A) (A) (A) (A) (A)
                 (A) (A) (A) (A) (A) (A) (A) (A) (A) (A) (A) (A)
                 (A) (A) (A) (A) (A) (A) (A) (A) (A) (A) (A) (A)
                 (A) (A) (A) (A) (A) (A) (A) (A) (A) (A) (A) (A)
                 (A) (A) (A) (A) (A) (A) (A) (A) (A) (A) (A) (A)
                 (A) (A) (A) (A) (A) (A) (A) (A) (A) (A) (A) (A)
                 (A) (A) (A) (A) (A) (A) (A) (A) (A) (A) (A) (A)
                 (A) (A) (A) (A) (A) (A) (A) (A) (A) (A) (A) (A)
                 (A) (A) (A) (A) (A) (A) (A) (A) (A) (A) (A) (A)
                 (A) (A) (A) (A) (A) (A) (A) (A) (A) (A) (A) (A)
                 (A) (A) (A) (A) (A) (A) (A) (A) (A) (A) (A) (A)
                 (A) (A) (A) (A) (A) (A) (A) (A) (A) (A) (A) (A)
                 (A) (A) (A) (A) (A) (A) (A) (A) (A) (A) (A) (A)
                 (A) (A) (A) (A) (A) (A) (A) (A) (A) (A) (A) (A)
                 (A) (A) (A) (A) (A) (A) (A) (A) (A) (A) (A) (A)
                 (A) (A) (A) (A) (A) (A) (A) (A) (A) (A) (A) (A)
                 (A) (A) (A) (A) (A) (A) (A) (A) (A) (A) (A) (A)
                 (A) (A) (A) (A) (A) (A) (A) (A) (A) (A) (A) (A)
                 (A) (A) (A) (A) (A) (A) (A) (A) (A) (A) (A) (A)
                 (A) (A) (A) (A) (A) (A) (A) (A) (A) (A) (A) (A)
                 (A) (A) (A) (A) (A) (A) (A) (A) (A) (A) (A) (A)
                 (A) (A) (A) (A) (A) (A) (A) (A) (A) (A) (A) (A)
                 (A) (A) (A) (A) (A) (A) (A) (A) (A) (A) (A) (A)
                 (A) (A) (A) (A) (A) (A) (A) (A) (A) (A) (A) (A)
                 (A) (A) (A) (A) (A) (A) (A) (A) (A) (A) (A) (A)
                 (A) (A) (A) (A) (A) (A) (A) (A) (A) (A) (A) (A)
                 (A) (A) (A) (A) (A) (A) (A) (A) (A) (A) (A) (A)
                 (A) (A) (A) (A) (A) (A) (A) (A) (A) (A) (A) (A)
                 (A) (A) (A) (A) (A) (A) (A) (A) (A) (A) (A) (A)
                 (A) (A) (A) (A) (A) (A) (A) (A) (A) (A) (A) (A)
                 (A) (A) (A) (A) (A) (A) (A) (A) (A) (A) (A) (A)
                 (A) (A) (A) (A) (A) (A) (A) (A) (A) (A) (A) (A)
                 (A) (A) (A) (A) (A) (A) (A) (A) (A) (A) (A) (A)
                 (A) (A) (A) (A) (A) (A) (A) (A) (A) (A) (A) (A)
                 (A) (A) (A) (A) (A) (A) (A) (A) (A) (A) (A) (A)
                 (A) (A) (A) (A) (A) (A) (A) (A) (A) (A) (A) (A)
                 (A) (A) (A) (A) (A) (A) (A) (A) (A) (A) (A) (A)
                 (A) (A) (A) (A) (A) (A) (A) (A) (A) (A) (A) (A)
                 (A) (A) (A) (A) (A) (A) (A) (A) (A) (A) (A) (A)
                 (A) (A) (A) (A) (A) (A) (A) (A) (A) (A) (A) (A)
                 (A) (A) (A) (A) (A) (A) (A) (A) (A) (A) (A) (A)
                 (A) (A) (A) (A) (A) (A) (A) (A) (A) (A) (A) (A)
                 (A) (A) (A) (A) (A) (A) (A) (A) (A) (A) (A) (A)
                 (A) (A) (A) (A) (A) (A) (A) (A) (A) (A) (A) (A)
                 (A) (A) (A) (A) (A) (A) (A) (A) (A) (A) (A) (A)
                 (A) (A) (A) (A) (A) (A) (A) (A) (A) (A) (A) (A)
                 (A) (A) (A) (A) (A) (A) (A) (A) (A) (A) (A) (A)
                 (A) (A) (A) (A) (A) (A) (A) (A) (A) (A) (A) (A)
                 (A) (A) (A) (A) (A) (A) (A) (A) (A) (A) (A) (A)
                 (A) (A) (A) (A) (A) (A) (A) (A) (A) (A) (A) (A)
                 (A) (A) (A) (A) (A) (A) (A) (A) (A) (A) (A) (A)
                 (A) (A) (A) (A) (A) (A) (A) (A) (A) (A) (A) (A)
                 (A) (A) (A) (A) (A) (A) (A) (A) (A) (A) (A) (A)
                 (A) (A) (A) (A) (A) (A) (A) (A) (A) (A) (A) (A)
                 (A) (A) (A) (A) (A) (A) (A) (A) (A) (A) (A) (A)
                 (A) (A) (A) (A) (A) (A) (A) (A) (A) (A) (A) (A)
                 (A) (A) (A) (A) (A) (A) (A) (A) (A) (A) (A) (A)
                 (A) (A) (A) (A) (A) (A) (A) (A) (A) (A) (A) (A)
                 (A) (A) (A) (A) (A) (A) (A) (A) (A) (A) (A) (A)
                 (A) (A) (A) (A) (A) (A) (A) (A) (A) (A) (A) (A)
                 (A) (A) (A) (A) (A) (A) (A) (A) (A) (A) (A) (A)
                 (A) (A) (A) (A) (A) (A) (A) (A) (A) (A) (A) (A)
                 (A) (A) (A) (A) (A) (A) (A) (A) (A) (A) (A) (A)
                 (A) (A) (A) (A) (A) (A) (A) (A) (A) (A) (A) (A)
                 (A) (A) (A) (A) (A) (A) (A) (A) (A) (A) (A) (A)
                 (A) (A) (A) (A) (A) (A) (A) (A) (A) (A) (A) (A)
                 (A) (A) (A) (A) (A) (A) (A) (A) (A) (A) (A) (A)
                 (A) (A) (A) (A) (A) (A) (A) (A) (A) (A) (A) (A)
                 (A) (A) (A) (A) (A) (A) (A) (A) (A) (A) (A) (A)
                 (A) (A) (A) (A) (A) (A) (A) (A) (A) (A) (A) (A)
                 (A) (A) (A) (A) (A) (A) (A) (A) (A) (A) (A) (A)
                 (A) (A) (A) (A) (A) (A) (A) (A) (A) (A) (A) (A)
                 (A) (A) (A) (A) (A) (A) (A) (A) (A) (A) (A) (A)
                 (A) (A) (A) (A) (A) (A) (A) (A) (A) (A) (A) (A)
                 (A) (A) (A) (A) (A) (A) (A) (A) (A) (A) (A) (A)
                 (A) (A) (A) (A) (A) (A) (A) (A) (A) (A) (A) (A)
                 (A) (A) (A) (A) (A) (A) (A) (A) (A) (A) (A) (A)
                 (A) (A) (A) (A) (A) (A) (A) (A) (A) (A) (A) (A)
                 (A) (A) (A) (A) (A) (A) (A) (A) (A) (A) (A) (A)
                 (A) (A) (A) (A) (A) (A)
     8 initial guesses have been made.
 Convergence on wavefunction:    0.001000000000000
 Iteration     1 Dimension     8 NMult     0 NNew      8
 CISAX will form     8 AO SS matrices at one time.
 Iteration     2 Dimension    12 NMult     8 NNew      4
 Iteration     3 Dimension    16 NMult    12 NNew      4
 Iteration     4 Dimension    20 NMult    16 NNew      4
 Iteration     5 Dimension    24 NMult    20 NNew      4
 Iteration     6 Dimension    28 NMult    24 NNew      4
 ***********************************************************************
 Excited states from <AA,BB:AA,BB> singles matrix:
 ***********************************************************************
 
 Ground to excited state transition densities written to RWF  633
 Ground to excited state transition electric dipole moments (Au):
       state          X           Y           Z        Dip. S.      Osc.
         1         0.5756     -2.0557     -0.0849      4.5643      0.2278
 Ground to excited state transition velocity dipole moments (Au):
       state          X           Y           Z        Dip. S.      Osc.
         1        -0.0395      0.1496      0.0077      0.0240      0.2136
 Ground to excited state transition magnetic dipole moments (Au):
       state          X           Y           Z
         1         0.4210      0.2177     -3.2662
 Ground to excited state transition velocity quadrupole moments (Au):
       state          XX          YY          ZZ          XY          XZ          YZ
         1         1.0435      0.2132      0.0538     -1.9067     -0.0267      0.1638
 <0|del|b> * <b|rxdel|0> + <0|del|b> * <b|delr+rdel|0>
 Rotatory Strengths (R) in cgs (10**-40 erg-esu-cm/Gauss)
       state          XX          YY          ZZ    R(velocity)    E-M Angle
         1       -15.6078   -158.5543     86.9169    -29.0817       91.04
 1/2[<0|r|b>*<b|rxdel|0> + (<0|rxdel|b>*<b|r|0>)*]
 Rotatory Strengths (R) in cgs (10**-40 erg-esu-cm/Gauss)
       state          XX          YY          ZZ     R(length)
         1      -171.3768    316.4624   -196.1549    -17.0231
  1/2[<0|del|b>*<b|r|0> + (<0|r|b>*<b|del|0>)*] (Au)
       state          X           Y           Z        Dip. S.   Osc.(frdel)
         1        -0.0227     -0.3075     -0.0007      0.3308      0.2206

 Excitation energies and oscillator strengths:
 
 Excited State   1:      Singlet-A      2.0372 eV  608.61 nm  f=0.2278  <S**2>=0.000
     240 -> 242       -0.21327
     240 -> 243        0.22922
     241 -> 242        0.60918
     241 -> 243        0.15402
 This state for optimization and/or second-order correction.
 Total Energy, E(TD-HF/TD-KS) =  -2932.56016504    
 Copying the excited state density for this state as the 1-particle RhoCI density.
 SavETr:  write IOETrn=   770 NScale= 10 NData=  16 NLR=1 NState=    1 LETran=      28.

 **********************************************************************

            Population analysis using the SCF density.

 **********************************************************************

 Orbital symmetries:
       Occupied  (A) (A) (A) (A) (A) (A) (A) (A) (A) (A) (A) (A)
                 (A) (A) (A) (A) (A) (A) (A) (A) (A) (A) (A) (A)
                 (A) (A) (A) (A) (A) (A) (A) (A) (A) (A) (A) (A)
                 (A) (A) (A) (A) (A) (A) (A) (A) (A) (A) (A) (A)
                 (A) (A) (A) (A) (A) (A) (A) (A) (A) (A) (A) (A)
                 (A) (A) (A) (A) (A) (A) (A) (A) (A) (A) (A) (A)
                 (A) (A) (A) (A) (A) (A) (A) (A) (A) (A) (A) (A)
                 (A) (A) (A) (A) (A) (A) (A) (A) (A) (A) (A) (A)
                 (A) (A) (A) (A) (A) (A) (A) (A) (A) (A) (A) (A)
                 (A) (A) (A) (A) (A) (A) (A) (A) (A) (A) (A) (A)
                 (A) (A) (A) (A) (A) (A) (A) (A) (A) (A) (A) (A)
                 (A) (A) (A) (A) (A) (A) (A) (A) (A) (A) (A) (A)
                 (A) (A) (A) (A) (A) (A) (A) (A) (A) (A) (A) (A)
                 (A) (A) (A) (A) (A) (A) (A) (A) (A) (A) (A) (A)
                 (A) (A) (A) (A) (A) (A) (A) (A) (A) (A) (A) (A)
                 (A) (A) (A) (A) (A) (A) (A) (A) (A) (A) (A) (A)
                 (A) (A) (A) (A) (A) (A) (A) (A) (A) (A) (A) (A)
                 (A) (A) (A) (A) (A) (A) (A) (A) (A) (A) (A) (A)
                 (A) (A) (A) (A) (A) (A) (A) (A) (A) (A) (A) (A)
                 (A) (A) (A) (A) (A) (A) (A) (A) (A) (A) (A) (A)
                 (A)
       Virtual   (A) (A) (A) (A) (A) (A) (A) (A) (A) (A) (A) (A)
                 (A) (A) (A) (A) (A) (A) (A) (A) (A) (A) (A) (A)
                 (A) (A) (A) (A) (A) (A) (A) (A) (A) (A) (A) (A)
                 (A) (A) (A) (A) (A) (A) (A) (A) (A) (A) (A) (A)
                 (A) (A) (A) (A) (A) (A) (A) (A) (A) (A) (A) (A)
                 (A) (A) (A) (A) (A) (A) (A) (A) (A) (A) (A) (A)
                 (A) (A) (A) (A) (A) (A) (A) (A) (A) (A) (A) (A)
                 (A) (A) (A) (A) (A) (A) (A) (A) (A) (A) (A) (A)
                 (A) (A) (A) (A) (A) (A) (A) (A) (A) (A) (A) (A)
                 (A) (A) (A) (A) (A) (A) (A) (A) (A) (A) (A) (A)
                 (A) (A) (A) (A) (A) (A) (A) (A) (A) (A) (A) (A)
                 (A) (A) (A) (A) (A) (A) (A) (A) (A) (A) (A) (A)
                 (A) (A) (A) (A) (A) (A) (A) (A) (A) (A) (A) (A)
                 (A) (A) (A) (A) (A) (A) (A) (A) (A) (A) (A) (A)
                 (A) (A) (A) (A) (A) (A) (A) (A) (A) (A) (A) (A)
                 (A) (A) (A) (A) (A) (A) (A) (A) (A) (A) (A) (A)
                 (A) (A) (A) (A) (A) (A) (A) (A) (A) (A) (A) (A)
                 (A) (A) (A) (A) (A) (A) (A) (A) (A) (A) (A) (A)
                 (A) (A) (A) (A) (A) (A) (A) (A) (A) (A) (A) (A)
                 (A) (A) (A) (A) (A) (A) (A) (A) (A) (A) (A) (A)
                 (A) (A) (A) (A) (A) (A) (A) (A) (A) (A) (A) (A)
                 (A) (A) (A) (A) (A) (A) (A) (A) (A) (A) (A) (A)
                 (A) (A) (A) (A) (A) (A) (A) (A) (A) (A) (A) (A)
                 (A) (A) (A) (A) (A) (A) (A) (A) (A) (A) (A) (A)
                 (A) (A) (A) (A) (A) (A) (A) (A) (A) (A) (A) (A)
                 (A) (A) (A) (A) (A) (A) (A) (A) (A) (A) (A) (A)
                 (A) (A) (A) (A) (A) (A) (A) (A) (A) (A) (A) (A)
                 (A) (A) (A) (A) (A) (A) (A) (A) (A) (A) (A) (A)
                 (A) (A) (A) (A) (A) (A) (A) (A) (A) (A) (A) (A)
                 (A) (A) (A) (A) (A) (A) (A) (A) (A) (A) (A) (A)
                 (A) (A) (A) (A) (A) (A) (A) (A) (A) (A) (A) (A)
                 (A) (A) (A) (A) (A) (A) (A) (A) (A) (A) (A) (A)
                 (A) (A) (A) (A) (A) (A) (A) (A) (A) (A) (A) (A)
                 (A) (A) (A) (A) (A) (A) (A) (A) (A) (A) (A) (A)
                 (A) (A) (A) (A) (A) (A) (A) (A) (A) (A) (A) (A)
                 (A) (A) (A) (A) (A) (A) (A) (A) (A) (A) (A) (A)
                 (A) (A) (A) (A) (A) (A) (A) (A) (A) (A) (A) (A)
                 (A) (A) (A) (A) (A) (A) (A) (A) (A) (A) (A) (A)
                 (A) (A) (A) (A) (A) (A) (A) (A) (A) (A) (A) (A)
                 (A) (A) (A) (A) (A) (A) (A) (A) (A) (A) (A) (A)
                 (A) (A) (A) (A) (A) (A) (A) (A) (A) (A) (A) (A)
                 (A) (A) (A) (A) (A) (A) (A) (A) (A) (A) (A) (A)
                 (A) (A) (A) (A) (A) (A) (A) (A) (A) (A) (A) (A)
                 (A) (A) (A) (A) (A) (A) (A) (A) (A) (A) (A) (A)
                 (A) (A) (A) (A) (A) (A) (A) (A) (A) (A) (A) (A)
                 (A) (A) (A) (A) (A) (A) (A) (A) (A) (A) (A) (A)
                 (A) (A) (A) (A) (A) (A) (A) (A) (A) (A) (A) (A)
                 (A) (A) (A) (A) (A) (A) (A) (A) (A) (A) (A) (A)
                 (A) (A) (A) (A) (A) (A) (A) (A) (A) (A) (A) (A)
                 (A) (A) (A) (A) (A) (A) (A) (A) (A) (A) (A) (A)
                 (A) (A) (A) (A) (A) (A) (A) (A) (A) (A) (A) (A)
                 (A) (A) (A) (A) (A) (A) (A) (A) (A) (A) (A) (A)
                 (A) (A) (A) (A) (A) (A) (A) (A) (A) (A) (A) (A)
                 (A) (A) (A) (A) (A) (A) (A) (A) (A) (A) (A) (A)
                 (A) (A) (A) (A) (A) (A) (A) (A) (A) (A) (A) (A)
                 (A) (A) (A) (A) (A) (A) (A) (A) (A) (A) (A) (A)
                 (A) (A) (A) (A) (A) (A) (A) (A) (A) (A) (A) (A)
                 (A) (A) (A) (A) (A) (A) (A) (A) (A) (A) (A) (A)
                 (A) (A) (A) (A) (A) (A) (A) (A) (A) (A) (A) (A)
                 (A) (A) (A) (A) (A) (A) (A) (A) (A) (A) (A) (A)
                 (A) (A) (A) (A) (A) (A) (A) (A) (A) (A) (A) (A)
                 (A) (A) (A) (A) (A) (A) (A) (A) (A) (A) (A) (A)
                 (A) (A) (A) (A) (A) (A) (A) (A) (A) (A) (A) (A)
                 (A) (A) (A) (A) (A) (A) (A) (A) (A) (A) (A) (A)
                 (A) (A) (A) (A) (A) (A) (A) (A) (A) (A) (A) (A)
                 (A) (A) (A) (A) (A) (A) (A) (A) (A) (A) (A) (A)
                 (A) (A) (A) (A) (A) (A) (A) (A) (A) (A) (A) (A)
                 (A) (A) (A) (A) (A) (A) (A) (A) (A) (A) (A) (A)
                 (A) (A) (A) (A) (A) (A) (A) (A) (A) (A) (A) (A)
                 (A) (A) (A) (A) (A) (A) (A) (A) (A) (A) (A) (A)
                 (A) (A) (A) (A) (A) (A) (A) (A) (A) (A) (A) (A)
                 (A) (A) (A) (A) (A) (A) (A) (A) (A) (A) (A) (A)
                 (A) (A) (A) (A) (A) (A) (A) (A) (A) (A) (A) (A)
                 (A) (A) (A) (A) (A) (A) (A) (A) (A) (A) (A) (A)
                 (A) (A) (A) (A) (A) (A) (A) (A) (A) (A) (A) (A)
                 (A) (A) (A) (A) (A) (A) (A) (A) (A) (A) (A) (A)
                 (A) (A) (A) (A) (A) (A) (A) (A) (A) (A) (A) (A)
                 (A) (A) (A) (A) (A) (A) (A) (A) (A) (A) (A) (A)
                 (A) (A) (A) (A) (A) (A) (A) (A) (A) (A) (A) (A)
                 (A) (A) (A) (A) (A) (A) (A) (A) (A) (A) (A) (A)
                 (A) (A) (A) (A) (A) (A) (A) (A) (A) (A) (A) (A)
                 (A) (A) (A) (A) (A) (A) (A) (A) (A) (A) (A) (A)
                 (A) (A) (A) (A) (A) (A) (A) (A) (A) (A) (A) (A)
                 (A) (A) (A) (A) (A) (A) (A) (A) (A) (A) (A) (A)
                 (A) (A) (A) (A) (A) (A) (A) (A) (A) (A) (A) (A)
                 (A) (A) (A) (A) (A) (A) (A) (A) (A) (A) (A) (A)
                 (A) (A) (A) (A) (A) (A) (A) (A) (A) (A) (A) (A)
                 (A) (A) (A) (A) (A) (A) (A) (A) (A) (A) (A) (A)
                 (A) (A) (A) (A) (A) (A) (A) (A) (A) (A) (A) (A)
                 (A) (A) (A) (A) (A) (A) (A) (A) (A) (A) (A) (A)
                 (A) (A) (A) (A) (A) (A) (A) (A) (A) (A) (A) (A)
                 (A) (A) (A) (A) (A) (A)
 The electronic state is 1-A.
 Alpha  occ. eigenvalues --  -46.83642 -19.25965 -19.25038 -19.21370 -19.21043
 Alpha  occ. eigenvalues --  -19.20564 -14.41846 -14.39382 -14.38900 -14.38810
 Alpha  occ. eigenvalues --  -10.38888 -10.38549 -10.35700 -10.32532 -10.31765
 Alpha  occ. eigenvalues --  -10.30576 -10.29934 -10.29860 -10.29779 -10.29191
 Alpha  occ. eigenvalues --  -10.28863 -10.28452 -10.28440 -10.28319 -10.28306
 Alpha  occ. eigenvalues --  -10.28289 -10.28196 -10.28097 -10.28041 -10.28007
 Alpha  occ. eigenvalues --  -10.27720 -10.27712 -10.27671 -10.27650 -10.27565
 Alpha  occ. eigenvalues --  -10.27448 -10.27347 -10.27297 -10.27167 -10.26912
 Alpha  occ. eigenvalues --  -10.26770 -10.26676 -10.26638 -10.26564 -10.26549
 Alpha  occ. eigenvalues --  -10.26494 -10.26462 -10.26451 -10.26315 -10.26102
 Alpha  occ. eigenvalues --  -10.26035 -10.26007 -10.25997 -10.25884 -10.25750
 Alpha  occ. eigenvalues --  -10.25506 -10.25399 -10.25273 -10.25145 -10.25036
 Alpha  occ. eigenvalues --  -10.24958 -10.24955 -10.24870 -10.24779 -10.24596
 Alpha  occ. eigenvalues --   -3.12805  -1.87493  -1.87050  -1.87001  -1.16995
 Alpha  occ. eigenvalues --   -1.16686  -1.11425  -1.08855  -1.07751  -1.04290
 Alpha  occ. eigenvalues --   -1.03160  -1.02932  -1.01286  -0.91983  -0.91469
 Alpha  occ. eigenvalues --   -0.90684  -0.90328  -0.89896  -0.88840  -0.88800
 Alpha  occ. eigenvalues --   -0.88527  -0.87704  -0.87134  -0.86374  -0.85878
 Alpha  occ. eigenvalues --   -0.84756  -0.83760  -0.83188  -0.83003  -0.82419
 Alpha  occ. eigenvalues --   -0.81170  -0.80566  -0.79897  -0.79604  -0.78269
 Alpha  occ. eigenvalues --   -0.77731  -0.77613  -0.76482  -0.75484  -0.75057
 Alpha  occ. eigenvalues --   -0.74856  -0.74352  -0.73797  -0.72657  -0.71744
 Alpha  occ. eigenvalues --   -0.71591  -0.70587  -0.69673  -0.69223  -0.69138
 Alpha  occ. eigenvalues --   -0.67272  -0.65806  -0.65232  -0.64289  -0.64191
 Alpha  occ. eigenvalues --   -0.63703  -0.62902  -0.62693  -0.62464  -0.61703
 Alpha  occ. eigenvalues --   -0.61607  -0.61053  -0.60629  -0.59992  -0.59096
 Alpha  occ. eigenvalues --   -0.58353  -0.57954  -0.57243  -0.56632  -0.56421
 Alpha  occ. eigenvalues --   -0.56020  -0.55176  -0.55097  -0.54996  -0.54539
 Alpha  occ. eigenvalues --   -0.54278  -0.54202  -0.53587  -0.53184  -0.52943
 Alpha  occ. eigenvalues --   -0.52419  -0.52148  -0.52114  -0.51828  -0.51520
 Alpha  occ. eigenvalues --   -0.51175  -0.51091  -0.50862  -0.50718  -0.50620
 Alpha  occ. eigenvalues --   -0.50276  -0.49927  -0.49797  -0.49550  -0.49427
 Alpha  occ. eigenvalues --   -0.49311  -0.48800  -0.48659  -0.48382  -0.48144
 Alpha  occ. eigenvalues --   -0.47941  -0.47898  -0.47785  -0.47246  -0.46994
 Alpha  occ. eigenvalues --   -0.46821  -0.46623  -0.46328  -0.46101  -0.45777
 Alpha  occ. eigenvalues --   -0.45668  -0.45356  -0.45070  -0.44819  -0.44464
 Alpha  occ. eigenvalues --   -0.44269  -0.44192  -0.44028  -0.44008  -0.43880
 Alpha  occ. eigenvalues --   -0.43722  -0.43612  -0.43504  -0.43427  -0.42972
 Alpha  occ. eigenvalues --   -0.42830  -0.42647  -0.42546  -0.42462  -0.42149
 Alpha  occ. eigenvalues --   -0.42039  -0.41872  -0.41695  -0.41534  -0.41344
 Alpha  occ. eigenvalues --   -0.41232  -0.40985  -0.40756  -0.40663  -0.40390
 Alpha  occ. eigenvalues --   -0.40199  -0.39856  -0.39691  -0.39358  -0.39007
 Alpha  occ. eigenvalues --   -0.38867  -0.38682  -0.38506  -0.38123  -0.37638
 Alpha  occ. eigenvalues --   -0.37143  -0.37067  -0.36894  -0.36547  -0.36240
 Alpha  occ. eigenvalues --   -0.36208  -0.36041  -0.36002  -0.35545  -0.35427
 Alpha  occ. eigenvalues --   -0.35305  -0.35247  -0.34886  -0.34388  -0.33575
 Alpha  occ. eigenvalues --   -0.33305  -0.32956  -0.32039  -0.30067  -0.29771
 Alpha  occ. eigenvalues --   -0.29648  -0.28855  -0.28137  -0.27464  -0.22631
 Alpha  occ. eigenvalues --   -0.20767
 Alpha virt. eigenvalues --   -0.06285  -0.03170   0.01323   0.03182   0.05684
 Alpha virt. eigenvalues --    0.06076   0.06289   0.06476   0.07035   0.07123
 Alpha virt. eigenvalues --    0.08557   0.10824   0.11100   0.11564   0.11600
 Alpha virt. eigenvalues --    0.12046   0.12179   0.12340   0.12893   0.12972
 Alpha virt. eigenvalues --    0.13186   0.13908   0.14174   0.14245   0.14305
 Alpha virt. eigenvalues --    0.14490   0.14662   0.14847   0.15049   0.15272
 Alpha virt. eigenvalues --    0.15373   0.15813   0.16136   0.16377   0.16521
 Alpha virt. eigenvalues --    0.16951   0.16985   0.17254   0.17377   0.17412
 Alpha virt. eigenvalues --    0.17711   0.17947   0.18322   0.18404   0.18443
 Alpha virt. eigenvalues --    0.18747   0.18764   0.19007   0.19052   0.19249
 Alpha virt. eigenvalues --    0.19412   0.19450   0.19742   0.19778   0.19951
 Alpha virt. eigenvalues --    0.20132   0.20183   0.20296   0.20318   0.20540
 Alpha virt. eigenvalues --    0.20709   0.20893   0.21111   0.21307   0.21614
 Alpha virt. eigenvalues --    0.21667   0.21938   0.22090   0.22191   0.22507
 Alpha virt. eigenvalues --    0.22634   0.22748   0.22988   0.23132   0.23300
 Alpha virt. eigenvalues --    0.23467   0.23809   0.23861   0.24060   0.24239
 Alpha virt. eigenvalues --    0.24501   0.24757   0.24934   0.25143   0.25310
 Alpha virt. eigenvalues --    0.25339   0.25399   0.25480   0.25683   0.25840
 Alpha virt. eigenvalues --    0.25841   0.26454   0.26597   0.26721   0.26945
 Alpha virt. eigenvalues --    0.27361   0.27401   0.28032   0.28046   0.28241
 Alpha virt. eigenvalues --    0.28425   0.28495   0.28881   0.28922   0.29190
 Alpha virt. eigenvalues --    0.29214   0.29626   0.30048   0.30216   0.30302
 Alpha virt. eigenvalues --    0.30793   0.31194   0.31238   0.31555   0.31757
 Alpha virt. eigenvalues --    0.32107   0.32142   0.32618   0.32930   0.33170
 Alpha virt. eigenvalues --    0.33432   0.33546   0.33884   0.34050   0.34504
 Alpha virt. eigenvalues --    0.34706   0.34809   0.35019   0.35270   0.35301
 Alpha virt. eigenvalues --    0.36215   0.36765   0.36820   0.37854   0.38434
 Alpha virt. eigenvalues --    0.38532   0.38732   0.39758   0.40247   0.40403
 Alpha virt. eigenvalues --    0.40744   0.41268   0.41870   0.42240   0.42853
 Alpha virt. eigenvalues --    0.43169   0.43626   0.44010   0.44601   0.45940
 Alpha virt. eigenvalues --    0.46197   0.46523   0.47547   0.47851   0.50159
 Alpha virt. eigenvalues --    0.50778   0.51059   0.51396   0.52110   0.52468
 Alpha virt. eigenvalues --    0.52611   0.53573   0.54106   0.54374   0.54715
 Alpha virt. eigenvalues --    0.54748   0.54793   0.55166   0.55310   0.55502
 Alpha virt. eigenvalues --    0.56055   0.56103   0.56451   0.56693   0.57078
 Alpha virt. eigenvalues --    0.57322   0.57567   0.57723   0.57784   0.57980
 Alpha virt. eigenvalues --    0.58158   0.58305   0.58860   0.59046   0.59195
 Alpha virt. eigenvalues --    0.59442   0.59642   0.60120   0.60421   0.60509
 Alpha virt. eigenvalues --    0.60659   0.60912   0.61027   0.61298   0.61388
 Alpha virt. eigenvalues --    0.61467   0.61567   0.61949   0.62357   0.62542
 Alpha virt. eigenvalues --    0.62573   0.62793   0.63626   0.63714   0.63910
 Alpha virt. eigenvalues --    0.64112   0.64241   0.64411   0.64752   0.65123
 Alpha virt. eigenvalues --    0.65252   0.65538   0.65597   0.66149   0.66180
 Alpha virt. eigenvalues --    0.66522   0.66603   0.67028   0.67059   0.67161
 Alpha virt. eigenvalues --    0.67350   0.67864   0.68288   0.68422   0.68858
 Alpha virt. eigenvalues --    0.68963   0.69168   0.69462   0.70079   0.70242
 Alpha virt. eigenvalues --    0.70519   0.70635   0.70754   0.71131   0.71492
 Alpha virt. eigenvalues --    0.71641   0.71907   0.72032   0.72377   0.72804
 Alpha virt. eigenvalues --    0.72984   0.73335   0.73659   0.73816   0.73906
 Alpha virt. eigenvalues --    0.74324   0.74498   0.74756   0.75216   0.75446
 Alpha virt. eigenvalues --    0.75498   0.75859   0.76154   0.76342   0.76636
 Alpha virt. eigenvalues --    0.76789   0.77356   0.77534   0.77822   0.77998
 Alpha virt. eigenvalues --    0.78320   0.78389   0.78529   0.78709   0.79257
 Alpha virt. eigenvalues --    0.79565   0.79917   0.79966   0.80174   0.80388
 Alpha virt. eigenvalues --    0.80784   0.80880   0.81175   0.81442   0.81651
 Alpha virt. eigenvalues --    0.81877   0.82583   0.82808   0.82879   0.83277
 Alpha virt. eigenvalues --    0.83445   0.83725   0.83843   0.84228   0.84377
 Alpha virt. eigenvalues --    0.84569   0.84693   0.85232   0.85541   0.85735
 Alpha virt. eigenvalues --    0.85860   0.86073   0.86141   0.86536   0.86636
 Alpha virt. eigenvalues --    0.86663   0.87211   0.87291   0.87545   0.87623
 Alpha virt. eigenvalues --    0.87852   0.87950   0.88008   0.88349   0.88644
 Alpha virt. eigenvalues --    0.88920   0.89275   0.89463   0.89745   0.90022
 Alpha virt. eigenvalues --    0.90182   0.90523   0.90734   0.90862   0.91088
 Alpha virt. eigenvalues --    0.91514   0.91563   0.91636   0.91879   0.92005
 Alpha virt. eigenvalues --    0.92112   0.92391   0.92676   0.92707   0.92842
 Alpha virt. eigenvalues --    0.93249   0.93427   0.93688   0.93875   0.94050
 Alpha virt. eigenvalues --    0.94301   0.94381   0.94436   0.94673   0.95097
 Alpha virt. eigenvalues --    0.95133   0.95209   0.95453   0.95714   0.96077
 Alpha virt. eigenvalues --    0.96289   0.96383   0.96466   0.96618   0.96787
 Alpha virt. eigenvalues --    0.97129   0.97231   0.97435   0.97700   0.97953
 Alpha virt. eigenvalues --    0.98051   0.98097   0.98279   0.98460   0.98676
 Alpha virt. eigenvalues --    0.98914   0.99106   0.99197   0.99477   0.99600
 Alpha virt. eigenvalues --    0.99878   1.00090   1.00323   1.00545   1.00964
 Alpha virt. eigenvalues --    1.01194   1.01395   1.01448   1.01734   1.01836
 Alpha virt. eigenvalues --    1.02021   1.02285   1.02602   1.02921   1.03004
 Alpha virt. eigenvalues --    1.03233   1.03470   1.03588   1.03879   1.04526
 Alpha virt. eigenvalues --    1.04608   1.04744   1.05604   1.05647   1.06093
 Alpha virt. eigenvalues --    1.06307   1.06426   1.06678   1.06873   1.07300
 Alpha virt. eigenvalues --    1.07391   1.07607   1.08372   1.08832   1.09030
 Alpha virt. eigenvalues --    1.09104   1.09218   1.09435   1.09655   1.10200
 Alpha virt. eigenvalues --    1.10924   1.11122   1.11275   1.11932   1.12146
 Alpha virt. eigenvalues --    1.12766   1.13061   1.13247   1.13554   1.13906
 Alpha virt. eigenvalues --    1.14509   1.14645   1.15250   1.15925   1.16301
 Alpha virt. eigenvalues --    1.16844   1.17323   1.18335   1.18708   1.19823
 Alpha virt. eigenvalues --    1.20024   1.20446   1.20619   1.21233   1.22163
 Alpha virt. eigenvalues --    1.23189   1.23954   1.24625   1.24762   1.25059
 Alpha virt. eigenvalues --    1.25172   1.25583   1.25717   1.26443   1.27386
 Alpha virt. eigenvalues --    1.27566   1.27975   1.28472   1.28660   1.29509
 Alpha virt. eigenvalues --    1.29619   1.30423   1.30773   1.31110   1.31614
 Alpha virt. eigenvalues --    1.32941   1.33078   1.34058   1.34681   1.35166
 Alpha virt. eigenvalues --    1.35681   1.36396   1.36720   1.37265   1.38532
 Alpha virt. eigenvalues --    1.38709   1.39081   1.39442   1.39504   1.39816
 Alpha virt. eigenvalues --    1.40568   1.41018   1.41250   1.41722   1.41958
 Alpha virt. eigenvalues --    1.42119   1.42847   1.43068   1.43841   1.44278
 Alpha virt. eigenvalues --    1.44631   1.45401   1.46087   1.47071   1.47383
 Alpha virt. eigenvalues --    1.48034   1.48157   1.48678   1.48833   1.49528
 Alpha virt. eigenvalues --    1.50472   1.50937   1.51861   1.52110   1.52911
 Alpha virt. eigenvalues --    1.53287   1.53635   1.53953   1.54636   1.55441
 Alpha virt. eigenvalues --    1.55672   1.55957   1.56559   1.56680   1.57399
 Alpha virt. eigenvalues --    1.57772   1.58159   1.58629   1.59004   1.59254
 Alpha virt. eigenvalues --    1.59450   1.59822   1.60586   1.61054   1.61825
 Alpha virt. eigenvalues --    1.62051   1.62425   1.62732   1.63268   1.63394
 Alpha virt. eigenvalues --    1.63908   1.64180   1.64816   1.65371   1.65625
 Alpha virt. eigenvalues --    1.66330   1.66441   1.66793   1.67363   1.67645
 Alpha virt. eigenvalues --    1.68075   1.68245   1.68645   1.68930   1.69141
 Alpha virt. eigenvalues --    1.69632   1.70201   1.70285   1.71112   1.72315
 Alpha virt. eigenvalues --    1.72729   1.72904   1.73028   1.73373   1.73960
 Alpha virt. eigenvalues --    1.74154   1.74464   1.74515   1.75040   1.75334
 Alpha virt. eigenvalues --    1.75557   1.75856   1.76983   1.77265   1.77394
 Alpha virt. eigenvalues --    1.77835   1.77878   1.78533   1.78774   1.79755
 Alpha virt. eigenvalues --    1.80470   1.80561   1.81094   1.81619   1.81897
 Alpha virt. eigenvalues --    1.82506   1.82780   1.83039   1.83607   1.83762
 Alpha virt. eigenvalues --    1.84380   1.84927   1.85082   1.85176   1.85619
 Alpha virt. eigenvalues --    1.85856   1.86072   1.86670   1.86892   1.87107
 Alpha virt. eigenvalues --    1.87592   1.87605   1.88108   1.88297   1.88399
 Alpha virt. eigenvalues --    1.88755   1.88977   1.89143   1.89344   1.89497
 Alpha virt. eigenvalues --    1.89750   1.90031   1.90148   1.90178   1.90347
 Alpha virt. eigenvalues --    1.90957   1.91030   1.91292   1.91623   1.91694
 Alpha virt. eigenvalues --    1.92057   1.92299   1.92502   1.92930   1.93136
 Alpha virt. eigenvalues --    1.93341   1.93486   1.93734   1.93857   1.94472
 Alpha virt. eigenvalues --    1.94505   1.94844   1.95043   1.95254   1.95487
 Alpha virt. eigenvalues --    1.95563   1.96045   1.96287   1.96533   1.96683
 Alpha virt. eigenvalues --    1.97000   1.97209   1.97556   1.97722   1.97994
 Alpha virt. eigenvalues --    1.98311   1.98444   1.98566   1.99158   1.99177
 Alpha virt. eigenvalues --    1.99325   1.99471   1.99888   1.99897   2.00086
 Alpha virt. eigenvalues --    2.00817   2.01253   2.01286   2.01393   2.02029
 Alpha virt. eigenvalues --    2.02369   2.02759   2.02855   2.03447   2.03761
 Alpha virt. eigenvalues --    2.04060   2.04323   2.04579   2.04770   2.05336
 Alpha virt. eigenvalues --    2.05570   2.05735   2.05990   2.06515   2.06692
 Alpha virt. eigenvalues --    2.06919   2.07330   2.07640   2.08123   2.08522
 Alpha virt. eigenvalues --    2.08778   2.09059   2.09203   2.09446   2.10001
 Alpha virt. eigenvalues --    2.10177   2.10287   2.10353   2.10650   2.11345
 Alpha virt. eigenvalues --    2.11645   2.11870   2.12292   2.12462   2.12958
 Alpha virt. eigenvalues --    2.13245   2.13399   2.13680   2.13767   2.14016
 Alpha virt. eigenvalues --    2.14240   2.14322   2.14444   2.14628   2.15021
 Alpha virt. eigenvalues --    2.15383   2.15583   2.15949   2.16448   2.16743
 Alpha virt. eigenvalues --    2.17042   2.17520   2.17555   2.18105   2.18370
 Alpha virt. eigenvalues --    2.18951   2.19282   2.19529   2.19891   2.20444
 Alpha virt. eigenvalues --    2.20554   2.20778   2.21479   2.21543   2.22017
 Alpha virt. eigenvalues --    2.22160   2.22799   2.22957   2.22996   2.24238
 Alpha virt. eigenvalues --    2.24415   2.24951   2.25505   2.25765   2.26015
 Alpha virt. eigenvalues --    2.26665   2.26917   2.27423   2.27732   2.28247
 Alpha virt. eigenvalues --    2.28542   2.28719   2.28880   2.29248   2.29623
 Alpha virt. eigenvalues --    2.30040   2.30409   2.30493   2.31152   2.31405
 Alpha virt. eigenvalues --    2.31499   2.31922   2.32119   2.32223   2.32405
 Alpha virt. eigenvalues --    2.33099   2.33126   2.33194   2.33773   2.34033
 Alpha virt. eigenvalues --    2.34110   2.34609   2.35060   2.35551   2.35664
 Alpha virt. eigenvalues --    2.35942   2.36153   2.36468   2.36990   2.37276
 Alpha virt. eigenvalues --    2.37706   2.38182   2.38320   2.38593   2.38904
 Alpha virt. eigenvalues --    2.39204   2.39272   2.40165   2.40360   2.40448
 Alpha virt. eigenvalues --    2.41030   2.41428   2.41977   2.42054   2.42412
 Alpha virt. eigenvalues --    2.42855   2.43069   2.43129   2.43367   2.43716
 Alpha virt. eigenvalues --    2.44188   2.44387   2.44448   2.44773   2.45069
 Alpha virt. eigenvalues --    2.45310   2.45435   2.46405   2.46730   2.47161
 Alpha virt. eigenvalues --    2.47514   2.47891   2.47949   2.48115   2.48888
 Alpha virt. eigenvalues --    2.49339   2.49545   2.49923   2.50114   2.50468
 Alpha virt. eigenvalues --    2.50912   2.51030   2.51198   2.51660   2.51770
 Alpha virt. eigenvalues --    2.52106   2.52668   2.52875   2.53482   2.53627
 Alpha virt. eigenvalues --    2.53883   2.54441   2.54702   2.55563   2.55753
 Alpha virt. eigenvalues --    2.56727   2.57046   2.57273   2.57478   2.57979
 Alpha virt. eigenvalues --    2.58097   2.58675   2.58912   2.59222   2.59357
 Alpha virt. eigenvalues --    2.59678   2.60411   2.60580   2.61014   2.61694
 Alpha virt. eigenvalues --    2.61774   2.62116   2.62334   2.62404   2.63282
 Alpha virt. eigenvalues --    2.63332   2.64076   2.64207   2.64603   2.64915
 Alpha virt. eigenvalues --    2.65053   2.65453   2.65575   2.65933   2.66243
 Alpha virt. eigenvalues --    2.67014   2.67171   2.67512   2.67749   2.68376
 Alpha virt. eigenvalues --    2.68479   2.68710   2.68969   2.69427   2.69761
 Alpha virt. eigenvalues --    2.69894   2.70317   2.70464   2.70628   2.71103
 Alpha virt. eigenvalues --    2.71521   2.71671   2.71928   2.72540   2.72793
 Alpha virt. eigenvalues --    2.73329   2.73605   2.73770   2.74271   2.74710
 Alpha virt. eigenvalues --    2.75121   2.75282   2.75686   2.76014   2.76036
 Alpha virt. eigenvalues --    2.76473   2.76842   2.77160   2.77367   2.77756
 Alpha virt. eigenvalues --    2.78087   2.78343   2.78895   2.79357   2.79544
 Alpha virt. eigenvalues --    2.79565   2.79865   2.80044   2.80089   2.80602
 Alpha virt. eigenvalues --    2.81083   2.81362   2.81461   2.81818   2.82646
 Alpha virt. eigenvalues --    2.82733   2.83478   2.83484   2.83726   2.84116
 Alpha virt. eigenvalues --    2.84560   2.84650   2.85943   2.86110   2.86318
 Alpha virt. eigenvalues --    2.86424   2.86906   2.87202   2.87606   2.87811
 Alpha virt. eigenvalues --    2.88181   2.88414   2.88457   2.88822   2.88983
 Alpha virt. eigenvalues --    2.89337   2.89624   2.89752   2.90930   2.91121
 Alpha virt. eigenvalues --    2.91328   2.91578   2.92515   2.92711   2.93355
 Alpha virt. eigenvalues --    2.93487   2.94144   2.94248   2.94519   2.94790
 Alpha virt. eigenvalues --    2.94889   2.95375   2.95658   2.95866   2.96339
 Alpha virt. eigenvalues --    2.97014   2.97135   2.97946   2.98133   2.98625
 Alpha virt. eigenvalues --    2.99198   2.99391   2.99582   2.99666   3.00039
 Alpha virt. eigenvalues --    3.00345   3.00551   3.00805   3.02169   3.02229
 Alpha virt. eigenvalues --    3.03262   3.03315   3.03802   3.03946   3.04464
 Alpha virt. eigenvalues --    3.04759   3.05024   3.05382   3.05728   3.06783
 Alpha virt. eigenvalues --    3.07964   3.08058   3.08665   3.09399   3.10008
 Alpha virt. eigenvalues --    3.11136   3.11483   3.12069   3.12225   3.13671
 Alpha virt. eigenvalues --    3.13908   3.16071   3.16086   3.17022   3.17925
 Alpha virt. eigenvalues --    3.20476   3.21735   3.21931   3.23266   3.23323
 Alpha virt. eigenvalues --    3.23595   3.24334   3.24713   3.25190   3.26518
 Alpha virt. eigenvalues --    3.26686   3.27497   3.28001   3.28866   3.29634
 Alpha virt. eigenvalues --    3.30480   3.30553   3.30803   3.31269   3.31533
 Alpha virt. eigenvalues --    3.32716   3.33554   3.33856   3.34018   3.34259
 Alpha virt. eigenvalues --    3.34849   3.36380   3.36869   3.37012   3.37840
 Alpha virt. eigenvalues --    3.38967   3.39339   3.40406   3.40779   3.41280
 Alpha virt. eigenvalues --    3.41703   3.41941   3.43442   3.44258   3.44264
 Alpha virt. eigenvalues --    3.46008   3.46739   3.46916   3.47576   3.47941
 Alpha virt. eigenvalues --    3.48623   3.48899   3.49623   3.49858   3.50127
 Alpha virt. eigenvalues --    3.52175   3.52300   3.53679   3.54211   3.54465
 Alpha virt. eigenvalues --    3.54992   3.55843   3.56766   3.58705   3.58801
 Alpha virt. eigenvalues --    3.59088   3.59721   3.61435   3.61883   3.62075
 Alpha virt. eigenvalues --    3.62320   3.62936   3.63011   3.64761   3.65695
 Alpha virt. eigenvalues --    3.66019   3.67293   3.67841   3.68240   3.70444
 Alpha virt. eigenvalues --    3.74285   3.84645   3.93221   4.07931   4.10547
 Alpha virt. eigenvalues --    4.12488   4.14713   4.16686   4.21331   4.22342
 Alpha virt. eigenvalues --    4.23132   4.25515   4.26091   4.27091   4.28180
 Alpha virt. eigenvalues --    4.28556   4.28877   4.31461   4.31714   4.33442
 Alpha virt. eigenvalues --    4.34275   4.36122   4.36652   4.39267   4.39379
 Alpha virt. eigenvalues --    4.40231   4.42979   4.43424   4.44285   4.45151
 Alpha virt. eigenvalues --    4.46083   4.47880   4.48506   4.49239   4.50451
 Alpha virt. eigenvalues --    4.52289   4.53666   4.53913   4.55182   4.56506
 Alpha virt. eigenvalues --    4.56918   4.58581   4.58786   4.58879   4.59578
 Alpha virt. eigenvalues --    4.60884   4.61158   4.62138   4.63224   4.67303
 Alpha virt. eigenvalues --    4.68998   4.69646   4.70379   4.71262   4.73185
 Alpha virt. eigenvalues --    4.73640   4.77023   4.77392   4.79476   4.79767
 Alpha virt. eigenvalues --    4.83830   4.84026   4.84383   4.85944   4.87397
 Alpha virt. eigenvalues --    4.87823   4.92649   4.99732
          Condensed to atoms (all electrons):
 Mulliken charges:
               1
     1  Mg   0.816820
     2  C    0.058842
     3  C   -0.207037
     4  C   -0.196176
     5  C   -0.191868
     6  N   -0.613415
     7  C    0.313358
     8  C   -0.172047
     9  C   -0.142230
    10  C    0.281247
    11  C   -0.279046
    12  C   -0.186289
    13  C   -0.255685
    14  C    0.628864
    15  O   -0.463286
    16  O   -0.507338
    17  N   -0.699047
    18  C    0.320041
    19  C    0.008895
    20  C    0.001050
    21  C    0.304218
    22  C   -0.369456
    23  C   -0.031745
    24  C   -0.253608
    25  N   -0.671765
    26  C    0.300674
    27  C    0.020734
    28  C    0.027300
    29  C    0.286122
    30  C   -0.369943
    31  C   -0.248924
    32  C   -0.304334
    33  N   -0.721256
    34  C    0.252430
    35  C    0.026081
    36  C   -0.079142
    37  C    0.341103
    38  C   -0.367251
    39  C    0.397006
    40  O   -0.447104
    41  C   -0.354176
    42  C    0.627098
    43  O   -0.493718
    44  O   -0.473389
    45  C   -0.079250
    46  C   -0.016134
    47  C   -0.138682
    48  C    0.142732
    49  C   -0.370693
    50  C   -0.226266
    51  C   -0.141088
    52  C   -0.162985
    53  C   -0.033959
    54  C   -0.300066
    55  C   -0.174086
    56  C   -0.215510
    57  C   -0.192321
    58  C   -0.038206
    59  C   -0.291514
    60  C   -0.182018
    61  C   -0.173890
    62  C   -0.154842
    63  C   -0.066278
    64  C   -0.284365
    65  C   -0.299552
    66  H    0.075782
    67  H    0.077832
    68  H    0.086898
    69  H    0.130921
    70  H    0.114466
    71  H    0.104815
    72  H    0.046792
    73  H    0.153849
    74  H    0.130711
    75  H    0.109087
    76  H    0.137393
    77  H    0.140608
    78  H    0.116029
    79  H    0.143224
    80  H    0.113809
    81  H    0.063168
    82  H    0.119408
    83  H    0.102987
    84  H    0.130314
    85  H    0.111341
    86  H    0.125122
    87  H    0.105588
    88  H    0.107501
    89  H    0.086961
    90  H    0.122799
    91  H    0.128556
    92  H    0.119874
    93  H    0.147392
    94  H    0.138278
    95  H    0.154540
    96  H    0.137553
    97  H    0.134159
    98  H    0.132893
    99  H    0.148402
   100  H    0.100728
   101  H    0.098314
   102  H    0.121325
   103  H    0.107477
   104  H    0.136757
   105  H    0.090787
   106  H    0.096219
   107  H    0.101620
   108  H    0.047491
   109  H    0.081397
   110  H    0.084662
   111  H    0.093439
   112  H    0.098481
   113  H    0.079450
   114  H    0.107698
   115  H    0.063537
   116  H    0.091925
   117  H    0.116468
   118  H    0.104268
   119  H    0.091573
   120  H    0.063771
   121  H    0.098069
   122  H    0.073936
   123  H    0.068756
   124  H    0.111199
   125  H    0.086789
   126  H    0.096288
   127  H    0.075464
   128  H    0.101835
   129  H    0.090339
   130  H    0.074869
   131  H    0.072813
   132  H    0.079278
   133  H    0.101560
   134  H    0.076445
   135  H    0.115212
   136  H    0.077349
   137  H    0.109722
 Sum of Mulliken charges =   0.00000
 Mulliken charges with hydrogens summed into heavy atoms:
               1
     1  Mg   0.816820
     2  C    0.058842
     3  C   -0.131255
     4  C   -0.118344
     5  C   -0.104969
     6  N   -0.613415
     7  C    0.313358
     8  C   -0.041127
     9  C   -0.027764
    10  C    0.281247
    11  C    0.026409
    12  C    0.053509
    13  C    0.022317
    14  C    0.628864
    15  O   -0.463286
    16  O   -0.507338
    17  N   -0.699047
    18  C    0.320041
    19  C    0.008895
    20  C    0.001050
    21  C    0.304218
    22  C    0.003606
    23  C    0.031423
    24  C   -0.031213
    25  N   -0.671765
    26  C    0.300674
    27  C    0.020734
    28  C    0.027300
    29  C    0.286122
    30  C   -0.003167
    31  C   -0.035835
    32  C    0.033982
    33  N   -0.721256
    34  C    0.252430
    35  C    0.026081
    36  C   -0.079142
    37  C    0.341103
    38  C    0.038293
    39  C    0.397006
    40  O   -0.447104
    41  C   -0.199636
    42  C    0.627098
    43  O   -0.493718
    44  O   -0.473389
    45  C    0.325355
    46  C    0.232997
    47  C   -0.040367
    48  C    0.142732
    49  C   -0.005133
    50  C   -0.039261
    51  C    0.008023
    52  C    0.003073
    53  C    0.059480
    54  C   -0.014437
    55  C   -0.018625
    56  C    0.005226
    57  C   -0.036977
    58  C    0.059863
    59  C   -0.037622
    60  C    0.001059
    61  C    0.003409
    62  C    0.010366
    63  C    0.006535
    64  C   -0.027082
    65  C    0.002732
 Electronic spatial extent (au):  <R**2>=         180676.7216
 Charge=              0.0000 electrons
 Dipole moment (field-independent basis, Debye):
    X=              1.3952    Y=              5.1255    Z=              0.2657  Tot=              5.3186
 Quadrupole moment (field-independent basis, Debye-Ang):
   XX=           -332.2161   YY=           -390.1651   ZZ=           -396.3798
   XY=            -26.3949   XZ=              9.3744   YZ=              3.8484
 Traceless Quadrupole moment (field-independent basis, Debye-Ang):
   XX=             40.7042   YY=            -17.2448   ZZ=            -23.4595
   XY=            -26.3949   XZ=              9.3744   YZ=              3.8484
 Octapole moment (field-independent basis, Debye-Ang**2):
  XXX=           -468.9687  YYY=            177.0796  ZZZ=              8.8995  XYY=           -161.0266
  XXY=            226.5223  XXZ=           -139.9719  XZZ=              1.9886  YZZ=            -19.3728
  YYZ=             62.5611  XYZ=            -55.4631
 Hexadecapole moment (field-independent basis, Debye-Ang**3):
 XXXX=        -214437.8656 YYYY=         -17111.8106 ZZZZ=          -4343.5105 XXXY=           -915.2389
 XXXZ=           2283.4916 YYYX=          -1626.9854 YYYZ=             55.9363 ZZZX=             -2.9822
 ZZZY=            -84.2630 XXYY=         -40424.6192 XXZZ=         -38960.8168 YYZZ=          -3464.8575
 XXYZ=            362.1448 YYXZ=            -40.3734 ZZXY=             65.1488
 N-N= 8.724295658055D+03 E-N=-2.427103740873D+04  KE= 2.904553362361D+03
 1\1\GINC-PEDRO-RYZENSSD\SP\RCAM-B3LYP TD-FC\6-31G(d,p)\C55H72Mg1N4O5\P
 ADAWAN\04-Jul-2019\0\\# td=(NStates=1) CAM-B3LYP/6-31G(d,p)\\TD\\0,1\M
 g,0,-7.1169122642,0.6137301211,0.0026279502\C,0,-4.848979516,-1.974558
 6343,0.5081373464\C,0,-4.7945393828,2.8346319105,1.0016565306\C,0,-9.3
 968044159,3.0661921147,-0.3418570454\C,0,-9.6143117449,-1.7389094019,-
 0.7704834774\N,0,-5.1429477194,0.3363734554,0.7181922375\C,0,-4.313531
 0592,-0.700629885,0.7055085741\C,0,-2.8848674921,-0.4476441901,1.18496
 88511\C,0,-3.0312165601,1.040736742,1.7085515859\C,0,-4.3702740223,1.4
 417349223,1.1289099209\C,0,-3.0846235445,1.0881911072,3.2430957185\C,0
 ,-1.8009135524,-0.703475609,0.0754114994\C,0,-0.3920966323,-0.40070441
 76,0.5686909984\C,0,0.564997637,-0.7267261855,-0.5050158821\O,0,0.2514
 063807,-0.9753329409,-1.6326495967\O,0,1.8606578763,-0.5977771741,-0.0
 471815071\N,0,-7.0645869066,2.5797235622,0.167095405\C,0,-6.0714064196
 ,3.3607670525,0.7189454281\C,0,-6.3793251856,4.7593202214,0.7373744246
 \C,0,-7.7548881958,4.845845216,0.3668750788\C,0,-8.1035046221,3.477786
 974,0.0080333496\C,0,-5.4744654032,5.7503374996,1.3860233628\C,0,-8.55
 46232599,6.0835693906,0.1237393593\C,0,-8.4580196933,7.2893750561,0.87
 59938492\N,0,-9.1097432469,0.6482676879,-0.5404580795\C,0,-9.932569516
 7,1.7399539485,-0.7006063847\C,0,-11.1930884054,1.4602343625,-1.182559
 9755\C,0,-11.2526876727,0.1034657107,-1.3803667507\C,0,-9.975513232,-0
 .4411460889,-0.9185768738\C,0,-12.3592447482,2.5059011611,-1.511117886
 6\C,0,-12.3491894652,-0.8310205122,-1.844305239\C,0,-12.3592434127,-0.
 7925016614,-3.4021253311\N,0,-7.3045099193,-1.3852781414,-0.1727119482
 \C,0,-8.3054607859,-2.2461397861,-0.4713720924\C,0,-7.8879549411,-3.63
 61818857,-0.4397212494\C,0,-6.5063245166,-3.5095252895,-0.1095426862\C
 ,0,-6.2060932057,-2.1394622275,0.1189947037\C,0,-8.7354010075,-4.85380
 82232,-0.7253210105\C,0,-5.3731517855,-4.4462685104,0.1636092335\O,0,-
 5.2293117691,-5.6451890023,0.2142284535\C,0,-4.2418677662,-3.340749864
 8,0.6282426896\C,0,-3.605161147,-3.620927314,1.9622165946\O,0,-3.78519
 01196,-3.0758543216,3.0487175529\O,0,-2.6496461583,-4.5661813405,1.748
 5334342\C,0,-2.2436049484,-5.2228365128,2.998394775\C,0,2.8744399557,-
 0.8699047851,-1.1546666671\C,0,4.2371358026,-0.4650846848,-0.502530402
 \C,0,5.1130247869,0.4077770431,-0.9664064133\C,0,4.9282112441,1.137116
 3609,-2.232187384\C,0,6.4126055934,0.4885807083,-0.2766941546\C,0,7.61
 20787458,-0.1605464015,-0.9941063611\C,0,8.8698888615,-0.1291580462,-0
 .1588576986\C,0,10.1852991544,-0.5037674484,-0.8582567962\C,0,10.19451
 61518,-2.0052714632,-1.2307865437\C,0,11.382081085,-0.1614499258,-0.03
 34124726\C,0,12.8192168294,-0.5218762387,-0.7253625592\C,0,14.03849331
 77,0.090477845,0.183715439\C,0,15.4142675517,-0.2657703061,-0.40529876
 97\C,0,15.696061275,-1.6840760414,-0.7726568834\C,0,16.5131554214,0.28
 38327433,0.53982849\C,0,17.812975887,0.6342348219,-0.1561714317\C,0,18
 .8261729868,1.3883770547,0.6694773807\C,0,20.2591445837,1.3235326868,0
 .0951542786\C,0,20.4257239262,2.1668449817,-1.1515661493\C,0,21.191010
 0318,1.9299959359,1.1241377772\H,0,-4.0759290774,3.4276482862,1.553969
 9839\H,0,-10.0899593886,3.887699605,-0.2454899405\H,0,-10.3630795974,-
 2.5305924,-1.1083974919\H,0,-2.7119776547,-1.1854668606,2.0796186531\H
 ,0,-2.2006136666,1.6205156342,1.4046911195\H,0,-1.9468691444,0.9544558
 985,3.4756612796\H,0,-3.3246575258,2.3324072982,3.5918813535\H,0,-3.88
 62620689,0.7160762916,3.8552279356\H,0,-1.8377462595,-1.6512650869,-0.
 3752914383\H,0,-2.0644481173,-0.0323759872,-0.8166917088\H,0,-0.348068
 3242,0.5871533292,0.8920496041\H,0,-0.2934271447,-0.8696814833,1.38507
 24624\H,0,-5.7370924846,6.6879174358,0.825188228\H,0,-5.6288598754,5.9
 242757907,2.3735536525\H,0,-4.3948334393,5.5263037968,1.0722704026\H,0
 ,-9.2553375863,6.0157877269,-0.4254327715\H,0,-9.0662078367,8.19290002
 89,0.9006596878\H,0,-7.6962290887,7.4759939989,1.670875473\H,0,-12.299
 2640315,3.2138917152,-2.2502780325\H,0,-13.3119308623,1.9476286541,-1.
 338335025\H,0,-12.4637281039,3.2042090756,-0.792190463\H,0,-12.3074255
 21,-1.8455540005,-1.2200269576\H,0,-13.2648952084,-0.2126079976,-1.677
 8733148\H,0,-13.3155479074,-1.2945041366,-3.7971896035\H,0,-12.3176353
 277,0.2357390363,-3.7638898847\H,0,-11.6611023895,-1.3618510522,-3.749
 4135614\H,0,-9.2837179748,-4.8095917021,-1.6999332574\H,0,-7.976817046
 5,-5.6399439986,-0.9556751805\H,0,-9.4363035153,-4.8435393752,0.135791
 7566\H,0,-3.3494156375,-3.5324164923,-0.1030855801\H,0,-1.5881569822,-
 4.6016166014,3.4960625216\H,0,-3.2559852071,-5.322283846,3.5256854074\
 H,0,-1.8308411956,-6.1428435576,2.5470286558\H,0,2.6264119453,-1.72995
 48314,-1.7953735024\H,0,2.6874662242,-0.1327189923,-2.044137566\H,0,4.
 2792888345,-0.9309353087,0.4800112171\H,0,3.962925256,1.1181505255,-2.
 6811264823\H,0,5.3354189536,2.1901392728,-2.1666931375\H,0,5.537731080
 7,0.6220333108,-2.9185605871\H,0,6.5999520581,1.5941934193,-0.08897625
 48\H,0,6.3048646059,0.0735093135,0.7685765744\H,0,7.3800753922,-1.2545
 346887,-1.2873300566\H,0,7.7706094968,0.6647496831,-2.0205949831\H,0,9
 .017723824,0.9023481198,0.4370813403\H,0,8.6006785566,-0.8947749837,0.
 6832661903\H,0,10.4987374251,0.0231048482,-1.7407589654\H,0,9.27711269
 68,-2.2238903655,-1.8489508199\H,0,11.304022958,-2.2052173056,-1.83944
 81887\H,0,10.0520680928,-2.577799722,-0.3224716869\H,0,11.5515428352,1
 .055447775,0.0463661241\H,0,11.5413771911,-0.6828342447,0.9487254941\H
 ,0,13.1094842673,-1.5074689081,-0.8259802656\H,0,12.8264964021,0.12270
 29613,-1.5635997213\H,0,13.7773191686,1.1663191879,0.4364109841\H,0,14
 .0565784109,-0.3084804527,1.3045269692\H,0,15.3873620247,0.0375332383,
 -1.4261069687\H,0,15.4285402969,-2.3720074928,0.1900175479\H,0,14.7808
 411348,-1.9652889045,-1.5772251376\H,0,16.7724568751,-1.8819237173,-1.
 1889103605\H,0,16.1420394046,1.152453079,1.1330798523\H,0,16.787083155
 5,-0.3901181869,1.3642091821\H,0,18.423573296,-0.3545720046,-0.2927226
 127\H,0,17.674694534,0.9253398529,-1.179271503\H,0,18.6119619888,2.431
 9373514,0.8691449198\H,0,18.7759347538,0.9093851195,1.7505550558\H,0,2
 0.5158664993,0.2483409823,-0.3799809341\H,0,20.2530194085,3.2270762695
 ,-0.7292365171\H,0,21.4631705692,2.2334699998,-1.6106824315\H,0,19.774
 0113055,2.0946212729,-2.2123182008\H,0,21.5395399292,1.4219103001,1.96
 92865459\H,0,22.253997106,2.0270939391,0.6041653828\H,0,20.7738371136,
 2.8960896923,1.3156120017\\Version=ES64L-G09RevD.01\State=1-A\HF=-2932
 .6350302\RMSD=5.529e-09\PG=C01 [X(C55H72Mg1N4O5)]\\@


 The cat could very well be man's best friend
 but would never stoop to admitting it.
                               -- Doug Larson
 Job cpu time:       0 days  6 hours 34 minutes  3.8 seconds.
 File lengths (MBytes):  RWF=   2106 Int=      0 D2E=      0 Chk=    163 Scr=      1
 Normal termination of Gaussian 09 at Thu Jul  4 12:48:22 2019.
