 Entering Gaussian System, Link 0=g16
 Input=Geometria-76-.com
 Output=Geometria-76-.log
 Initial command:
 /usr/local/g09/l1.exe "/home/padawan/israel-mol/chlorophyll-a/spectra/emi/Gau-107674.inp" -scrdir="/home/padawan/israel-mol/chlorophyll-a/spectra/emi/"
 Entering Link 1 = /usr/local/g09/l1.exe PID=    107676.
  
 Copyright (c) 1988,1990,1992,1993,1995,1998,2003,2009,2013,
            Gaussian, Inc.  All Rights Reserved.
  
 This is part of the Gaussian(R) 09 program.  It is based on
 the Gaussian(R) 03 system (copyright 2003, Gaussian, Inc.),
 the Gaussian(R) 98 system (copyright 1998, Gaussian, Inc.),
 the Gaussian(R) 94 system (copyright 1995, Gaussian, Inc.),
 the Gaussian 92(TM) system (copyright 1992, Gaussian, Inc.),
 the Gaussian 90(TM) system (copyright 1990, Gaussian, Inc.),
 the Gaussian 88(TM) system (copyright 1988, Gaussian, Inc.),
 the Gaussian 86(TM) system (copyright 1986, Carnegie Mellon
 University), and the Gaussian 82(TM) system (copyright 1983,
 Carnegie Mellon University). Gaussian is a federally registered
 trademark of Gaussian, Inc.
  
 This software contains proprietary and confidential information,
 including trade secrets, belonging to Gaussian, Inc.
  
 This software is provided under written license and may be
 used, copied, transmitted, or stored only in accord with that
 written license.
  
 The following legend is applicable only to US Government
 contracts under FAR:
  
                    RESTRICTED RIGHTS LEGEND
  
 Use, reproduction and disclosure by the US Government is
 subject to restrictions as set forth in subparagraphs (a)
 and (c) of the Commercial Computer Software - Restricted
 Rights clause in FAR 52.227-19.
  
 Gaussian, Inc.
 340 Quinnipiac St., Bldg. 40, Wallingford CT 06492
  
  
 ---------------------------------------------------------------
 Warning -- This program may not be used in any manner that
 competes with the business of Gaussian, Inc. or will provide
 assistance to any competitor of Gaussian, Inc.  The licensee
 of this program is prohibited from giving any competitor of
 Gaussian, Inc. access to this program.  By using this program,
 the user acknowledges that Gaussian, Inc. is engaged in the
 business of creating and licensing software in the field of
 computational chemistry and represents and warrants to the
 licensee that it is not a competitor of Gaussian, Inc. and that
 it will not use this program in any manner prohibited above.
 ---------------------------------------------------------------
  

 Cite this work as:
 Gaussian 09, Revision D.01,
 M. J. Frisch, G. W. Trucks, H. B. Schlegel, G. E. Scuseria, 
 M. A. Robb, J. R. Cheeseman, G. Scalmani, V. Barone, B. Mennucci, 
 G. A. Petersson, H. Nakatsuji, M. Caricato, X. Li, H. P. Hratchian, 
 A. F. Izmaylov, J. Bloino, G. Zheng, J. L. Sonnenberg, M. Hada, 
 M. Ehara, K. Toyota, R. Fukuda, J. Hasegawa, M. Ishida, T. Nakajima, 
 Y. Honda, O. Kitao, H. Nakai, T. Vreven, J. A. Montgomery, Jr., 
 J. E. Peralta, F. Ogliaro, M. Bearpark, J. J. Heyd, E. Brothers, 
 K. N. Kudin, V. N. Staroverov, T. Keith, R. Kobayashi, J. Normand, 
 K. Raghavachari, A. Rendell, J. C. Burant, S. S. Iyengar, J. Tomasi, 
 M. Cossi, N. Rega, J. M. Millam, M. Klene, J. E. Knox, J. B. Cross, 
 V. Bakken, C. Adamo, J. Jaramillo, R. Gomperts, R. E. Stratmann, 
 O. Yazyev, A. J. Austin, R. Cammi, C. Pomelli, J. W. Ochterski, 
 R. L. Martin, K. Morokuma, V. G. Zakrzewski, G. A. Voth, 
 P. Salvador, J. J. Dannenberg, S. Dapprich, A. D. Daniels, 
 O. Farkas, J. B. Foresman, J. V. Ortiz, J. Cioslowski, 
 and D. J. Fox, Gaussian, Inc., Wallingford CT, 2013.
 
 ******************************************
 Gaussian 09:  ES64L-G09RevD.01 24-Apr-2013
                 3-Jul-2019 
 ******************************************
 %nproc=4
 Will use up to    4 processors via shared memory.
 %Mem=2GB
 -------------------------------------
 # td=(NStates=1) CAM-B3LYP/6-31G(d,p)
 -------------------------------------
 1/38=1/1;
 2/12=2,17=6,18=5,40=1/2;
 3/5=1,6=6,7=101,11=9,16=1,25=1,30=1,74=-40/1,2,8,3;
 4//1;
 5/5=2,38=5/2;
 8/6=1,10=2,108=1/1;
 9/41=1,42=1,70=2/14;
 6/7=2,8=2,9=2,10=2/1;
 99/5=1,9=1/99;
 --
 TD
 --
 Symbolic Z-matrix:
 Charge =  0 Multiplicity = 1
 12                   -7.11921   0.52899   0.16662 
 6                    -4.83093  -1.88091   0.62129 
 6                    -4.7558    2.85392   1.1273 
 6                    -9.41      3.08563  -0.31801 
 6                    -9.47885  -1.71038  -0.96054 
 7                    -5.01805   0.51109   0.66233 
 6                    -4.29275  -0.64054   0.83542 
 6                    -2.93004  -0.23073   1.23155 
 6                    -2.99075   1.17271   1.72155 
 6                    -4.30172   1.57962   1.11877 
 6                    -2.99299   1.24889   3.22726 
 6                    -1.94586  -0.61404   0.15317 
 6                    -0.48073  -0.51746   0.54882 
 6                     0.46214  -0.69471  -0.65446 
 8                     0.15522  -1.04506  -1.75179 
 8                     1.73292  -0.4043   -0.1998 
 7                    -7.0655    2.61432   0.31736 
 6                    -6.03054   3.37546   0.69886 
 6                    -6.39996   4.72565   0.83318 
 6                    -7.66843   4.90771   0.32715 
 6                    -8.13417   3.49381   0.0577 
 6                    -5.28715   5.86762   1.24435 
 6                    -8.56979   6.03263   0.1866 
 6                    -8.39348   7.20554   0.82119 
 7                    -9.06157   0.59875  -0.51869 
 6                    -9.84098   1.73326  -0.66238 
 6                    -11.18736   1.4415   -1.19363 
 6                    -11.2108   0.08138  -1.27918 
 6                    -9.93632  -0.42657  -0.9614 
 6                    -12.29941   2.36262  -1.519 
 6                    -12.3432  -0.74503  -1.81605 
 6                    -12.42643  -1.05308  -3.31687 
 7                    -7.22161  -1.46666  -0.10803 
 6                    -8.20105  -2.18895  -0.49837 
 6                    -7.76172  -3.61808  -0.56252 
 6                    -6.44589  -3.5808   -0.14086 
 6                    -6.14955  -2.20509   0.1825 
 6                    -8.55098  -4.8202   -0.84925 
 6                    -5.30569  -4.34046   0.1869 
 8                    -5.05489  -5.55743   0.10656 
 6                    -4.19527  -3.31179   0.62841 
 6                    -3.63681  -3.64063   1.94896 
 8                    -3.84546  -3.07759   3.02536 
 8                    -2.94286  -4.84584   1.85316 
 6                    -2.40013  -5.24665   3.10961 
 6                     2.87429  -0.78084  -1.18104 
 6                     4.21912  -0.47631  -0.60256 
 6                     5.14833   0.35894  -1.02862 
 6                     5.04191   1.16422  -2.30446 
 6                     6.34475   0.37844  -0.20572 
 6                     7.6178   -0.2623   -0.99338 
 6                     8.92287  -0.15935  -0.17599 
 6                     10.21723  -0.56821  -0.92918 
 6                     10.11849  -2.14218  -1.25238 
 6                     11.4424  -0.29647  -0.00972 
 6                     12.79743  -0.38095  -0.76238 
 6                     13.9869  -0.14387   0.11345 
 6                     15.26869  -0.13046  -0.60469 
 6                     15.64625  -1.55689  -0.85055 
 6                     16.35281   0.58429   0.26007 
 6                     17.74576   0.55395  -0.24703 
 6                     18.7087   1.29076   0.80384 
 6                     20.20195   1.37074   0.23303 
 6                     20.42752   2.24864  -0.95535 
 6                     21.03813   1.83039   1.37358 
 1                    -4.03046   3.5503    1.46079 
 1                    -10.09964   3.93476  -0.42765 
 1                    -10.32966  -2.51302  -1.4277 
 1                    -2.61008  -0.96206   2.06923 
 1                    -2.01927   1.77035   1.3748 
 1                    -1.96861   0.8802    3.51195 
 1                    -3.06847   2.33061   3.51226 
 1                    -3.75812   0.67479   3.58629 
 1                    -2.23943  -1.8455   -0.45308 
 1                    -2.04072  -0.02644  -0.7691 
 1                    -0.05183   0.48207   0.89264 
 1                    -0.33937  -1.28135   1.29987 
 1                    -5.61175   6.75506   1.0394 
 1                    -5.11165   5.94694   2.3527 
 1                    -4.26475   5.75746   0.86922 
 1                    -9.04147   5.91634  -0.82256 
 1                    -9.09446   7.87854   0.31828 
 1                    -7.773     7.4192    1.7338 
 1                    -12.2708   2.92488  -2.48569 
 1                    -13.31515   1.82694  -1.55265 
 1                    -12.31236   3.27713  -0.68779 
 1                    -12.13494  -1.73063  -1.28321 
 1                    -13.02902  -0.22233  -1.35787 
 1                    -13.44192  -1.57877  -3.43968 
 1                    -12.50363  -0.25943  -3.92691 
 1                    -11.6369  -1.64157  -3.63531 
 1                    -8.79263  -4.61619  -1.87866 
 1                    -8.03552  -5.79367  -0.6459 
 1                    -9.56089  -4.89729  -0.31637 
 1                    -3.38368  -3.5874   -0.09013 
 1                    -2.03722  -4.34108   3.54471 
 1                    -3.19811  -5.67034   3.63141 
 1                    -1.74228  -5.85352   2.84481 
 1                     2.51792  -1.76878  -1.47103 
 1                     2.77626  -0.33136  -2.20752 
 1                     4.31169  -0.86267   0.46165 
 1                     4.13945   0.95566  -2.64902 
 1                     5.44615   2.29769  -1.931 
 1                     5.93489   0.85622  -2.99538 
 1                     6.82876   1.40725  -0.34762 
 1                     6.2709    0.04072   0.94343 
 1                     7.38374  -1.40914  -1.16971 
 1                     7.73665   0.3666   -1.88884 
 1                     9.02576   1.00221   0.10187 
 1                     9.07369  -0.65204   0.93656 
 1                     10.0851   0.04683  -1.9589 
 1                     9.29752  -2.47987  -1.9257 
 1                     11.28431  -2.40518  -1.64701 
 1                     9.92791  -2.66267  -0.34367 
 1                     11.5286   0.60703   0.36531 
 1                     11.50689  -0.99018   0.85956 
 1                     12.87631  -1.28207  -1.03988 
 1                     12.84133   0.11384  -1.80757 
 1                     13.69905   0.99442   0.44413 
 1                     13.72457  -0.68037   1.05436 
 1                     15.12412   0.32816  -1.64623 
 1                     15.81921  -2.27591   0.03603 
 1                     14.95824  -2.1201   -1.59462 
 1                     16.50967  -1.51803  -1.54345 
 1                     16.05261   1.66353   0.48552 
 1                     16.11119   0.20721   1.37306 
 1                     18.27802  -0.36451  -0.36529 
 1                     17.69422   1.2084   -1.2562 
 1                     18.47113   2.29811   0.98489 
 1                     18.70223   0.39806   1.58047 
 1                     20.37638   0.22246  -0.22218 
 1                     20.03956   3.1972   -1.06519 
 1                     21.50796   2.31601  -1.22075 
 1                     19.81409   1.92271  -1.90333 
 1                     20.88126   1.18761   2.36613 
 1                     22.09635   1.94152   1.28916 
 1                     20.785    2.91065   1.68696 
 
 Stoichiometry    C55H72MgN4O5
 Framework group  C1[X(C55H72MgN4O5)]
 Deg. of freedom   405
 Full point group                 C1      NOp   1
 Largest Abelian subgroup         C1      NOp   1
 Largest concise Abelian subgroup C1      NOp   1
                         Standard orientation:                         
 ---------------------------------------------------------------------
 Center     Atomic      Atomic             Coordinates (Angstroms)
 Number     Number       Type             X           Y           Z
 ---------------------------------------------------------------------
      1         12           0       -7.117830    0.542676    0.164850
      2          6           0       -4.833795   -1.869933    0.626466
      3          6           0       -4.750848    2.866028    1.120555
      4          6           0       -9.404104    3.101955   -0.327112
      5          6           0       -9.480825   -1.695539   -0.957561
      6          7           0       -5.016883    0.522475    0.661397
      7          6           0       -4.293601   -0.629943    0.837673
      8          6           0       -2.930352   -0.221436    1.233289
      9          6           0       -2.988874    1.183339    1.719722
     10          6           0       -4.298921    1.590940    1.115414
     11          6           0       -2.991554    1.263320    3.225235
     12          6           0       -1.946411   -0.609124    0.156251
     13          6           0       -0.481267   -0.514021    0.552214
     14          6           0        0.461748   -0.695908   -0.650256
     15          8           0        0.154649   -1.048505   -1.746816
     16          8           0        1.732844   -0.406494   -0.195842
     17          7           0       -7.060646    2.628281    0.310344
     18          6           0       -6.024549    3.388633    0.690319
     19          6           0       -6.391731    4.739779    0.821091
     20          6           0       -7.659703    4.922709    0.314117
     21          6           0       -8.127730    3.508919    0.048056
     22          6           0       -5.277146    5.880903    1.229797
     23          6           0       -8.559112    6.048795    0.170380
     24          6           0       -8.381056    7.222996    0.802078
     25          7           0       -9.059807    0.613989   -0.521374
     26          6           0       -9.837246    1.749449   -0.668230
     27          6           0      -11.183914    1.458624   -1.199254
     28          6           0      -11.209627    0.098335   -1.281375
     29          6           0       -9.936124   -0.410972   -0.961834
     30          6           0      -12.294283    2.380792   -1.527368
     31          6           0      -12.343216   -0.727518   -1.816595
     32          6           0      -12.426403   -1.039210   -3.316659
     33          7           0       -7.223500   -1.453483   -0.104802
     34          6           0       -8.204012   -2.175108   -0.493700
     35          6           0       -7.767077   -3.605131   -0.554075
     36          6           0       -6.451341   -3.569013   -0.132001
     37          6           0       -6.152796   -2.192991    0.187996
     38          6           0       -8.558261   -4.806641   -0.838071
     39          6           0       -5.312547   -4.329765    0.198106
     40          8           0       -5.063784   -5.547358    0.120929
     41          6           0       -4.200564   -3.301861    0.637443
     42          6           0       -3.643159   -3.628312    1.959024
     43          8           0       -3.851254   -3.062210    3.033920
     44          8           0       -2.951204   -4.834931    1.866539
     45          6           0       -2.409631   -5.233485    3.124195
     46          6           0        2.873950   -0.787436   -1.175696
     47          6           0        4.219079   -0.483720   -0.597475
     48          6           0        5.149855    0.348878   -1.025290
     49          6           0        5.045282    1.151111   -2.303200
     50          6           0        6.345996    0.368431   -0.201980
     51          6           0        7.618258   -0.276442   -0.987535
     52          6           0        8.923197   -0.173639   -0.169913
     53          6           0       10.217146   -0.586589   -0.921581
     54          6           0       10.115863   -2.161192   -1.240840
     55          6           0       11.442422   -0.314599   -0.002339
     56          6           0       12.797598   -0.403268   -0.754263
     57          6           0       13.987131   -0.165982    0.121414
     58          6           0       15.269217   -0.156552   -0.596266
     59          6           0       15.644450   -1.584240   -0.838388
     60          6           0       16.354215    0.558545    0.267099
     61          6           0       17.747302    0.524565   -0.239393
     62          6           0       18.711093    1.262398    0.809983
     63          6           0       20.204688    1.338413    0.239539
     64          6           0       20.432195    2.212934   -0.950961
     65          6           0       21.041220    1.799525    1.379248
     66          1           0       -4.024466    3.562018    1.452565
     67          1           0      -10.092271    3.951970   -0.439151
     68          1           0      -10.332813   -2.497921   -1.423015
     69          1           0       -2.611940   -0.951191    2.072928
     70          1           0       -2.016247    1.778460    1.371830
     71          1           0       -1.967903    0.893621    3.511246
     72          1           0       -3.065310    2.345882    3.507475
     73          1           0       -3.757784    0.691427    3.585418
     74          1           0       -2.241833   -1.841620   -0.447000
     75          1           0       -2.039928   -0.023693   -0.767532
     76          1           0       -0.050810    0.485646    0.893674
     77          1           0       -0.341488   -1.276257    1.305248
     78          1           0       -5.600171    6.768375    1.022485
     79          1           0       -5.101931    5.962722    2.338013
     80          1           0       -4.254796    5.768066    0.855337
     81          1           0       -9.030599    5.930749   -0.838661
     82          1           0       -9.080705    7.895910    0.297207
     83          1           0       -7.760553    7.437911    1.714386
     84          1           0      -12.264361    2.940567   -2.495466
     85          1           0      -13.310917    1.846746   -1.560051
     86          1           0      -12.306004    3.297418   -0.698475
     87          1           0      -12.136823   -1.712121   -1.281192
     88          1           0      -13.028327   -0.202502   -1.359996
     89          1           0      -13.442734   -1.563496   -3.438536
     90          1           0      -12.502035   -0.246976   -3.928729
     91          1           0      -11.637749   -1.629837   -3.633318
     92          1           0       -8.799174   -4.604819   -1.868082
     93          1           0       -8.044525   -5.780458   -0.632070
     94          1           0       -9.568494   -4.880678   -0.305383
     95          1           0       -3.389166   -3.580660   -0.080097
     96          1           0       -2.045355   -4.327436    3.557148
     97          1           0       -3.208521   -5.654507    3.646759
     98          1           0       -1.752710   -5.842138    2.861181
     99          1           0        2.516020   -1.775504   -1.463330
    100          1           0        2.777062   -0.340387   -2.203349
    101          1           0        4.310593   -0.867551    0.467741
    102          1           0        4.142600    0.943212   -2.647575
    103          1           0        5.451294    2.284836   -1.932443
    104          1           0        5.937998    0.839857   -2.992994
    105          1           0        6.831805    1.396065   -0.346297
    106          1           0        6.271145    0.033734    0.947991
    107          1           0        7.382322   -1.423330   -1.161062
    108          1           0        7.738506    0.349990   -1.884539
    109          1           0        9.027947    0.988442    0.105051
    110          1           0        9.072757   -0.663773    0.943935
    111          1           0       10.086438    0.026073   -1.952896
    112          1           0        9.294583   -2.499193   -1.913618
    113          1           0       11.281387   -2.427159   -1.634361
    114          1           0        9.924058   -2.679067   -0.330897
    115          1           0       11.530012    0.589704    0.370441
    116          1           0       11.505418   -1.006223    0.868710
    117          1           0       12.875055   -1.305211   -1.029463
    118          1           0       12.842722    0.088812   -1.800689
    119          1           0       13.701085    0.973622    0.449114
    120          1           0       13.723537   -0.699663    1.063578
    121          1           0       15.125808    0.299681   -1.639016
    122          1           0       15.815863   -2.301306    0.050076
    123          1           0       14.955772   -2.148164   -1.581289
    124          1           0       16.508200   -1.548583   -1.531046
    125          1           0       16.055756    1.638858    0.489705
    126          1           0       16.111534    0.184683    1.380945
    127          1           0       18.278052   -0.395088   -0.355131
    128          1           0       17.697246    1.176553   -1.250229
    129          1           0       18.475155    2.270608    0.988395
    130          1           0       18.702817    0.371680    1.588858
    131          1           0       20.377352    0.188695   -0.212699
    132          1           0       20.045875    3.161868   -1.063346
    133          1           0       21.512839    2.277803   -1.216126
    134          1           0       19.818564    1.885650   -1.898350
    135          1           0       20.882889    1.159520    2.373351
    136          1           0       22.099655    1.908653    1.294953
    137          1           0       20.789793    2.881004    1.689801
 ---------------------------------------------------------------------
 Rotational constants (GHZ):      0.0640217      0.0061049      0.0057543
 Standard basis: 6-31G(d,p) (6D, 7F)
 There are  1339 symmetry adapted cartesian basis functions of A   symmetry.
 There are  1339 symmetry adapted basis functions of A   symmetry.
  1339 basis functions,  2348 primitive gaussians,  1339 cartesian basis functions
   241 alpha electrons      241 beta electrons
       nuclear repulsion energy      8744.8881949802 Hartrees.
 NAtoms=  137 NActive=  137 NUniq=  137 SFac= 1.00D+00 NAtFMM=   60 NAOKFM=T Big=T
 Integral buffers will be    131072 words long.
 Raffenetti 1 integral format.
 Two-electron integral symmetry is turned on.
 One-electron integrals computed using PRISM.
 NBasis=  1339 RedAO= T EigKep=  2.90D-04  NBF=  1339
 NBsUse=  1339 1.00D-06 EigRej= -1.00D+00 NBFU=  1339
 ExpMin= 4.21D-02 ExpMax= 1.17D+04 ExpMxC= 1.76D+03 IAcc=2 IRadAn=         4 AccDes= 0.00D+00
 Harris functional with IExCor=20419 and IRadAn=       4 diagonalized for initial guess.
 HarFok:  IExCor=20419 AccDes= 0.00D+00 IRadAn=         4 IDoV= 1 UseB2=F ITyADJ=14
 ICtDFT=  3500011 ScaDFX=  1.000000  1.000000  1.000000  1.000000
 FoFCou: FMM=F IPFlag=           0 FMFlag=      100000 FMFlg1=        2001
         NFxFlg=           0 DoJE=T BraDBF=F KetDBF=T FulRan=T
         wScrn=  0.000000 ICntrl=     500 IOpCl=  0 I1Cent=   200000004 NGrid=           0
         NMat0=    1 NMatS0=      1 NMatT0=    0 NMatD0=    1 NMtDS0=    0 NMtDT0=    0
 Petite list used in FoFCou.
 Requested convergence on RMS density matrix=1.00D-08 within 128 cycles.
 Requested convergence on MAX density matrix=1.00D-06.
 Requested convergence on             energy=1.00D-06.
 No special actions if energy rises.
 SCF Done:  E(RCAM-B3LYP) =  -2932.61176662     A.U. after   18 cycles
            NFock= 18  Conv=0.48D-08     -V/T= 2.0094
 DoSCS=F DFT=T ScalE2(SS,OS)=  1.000000  1.000000
 ExpMin= 4.21D-02 ExpMax= 1.17D+04 ExpMxC= 1.76D+03 IAcc=3 IRadAn=         5 AccDes= 0.00D+00
 HarFok:  IExCor=  205 AccDes= 0.00D+00 IRadAn=         5 IDoV=-2 UseB2=F ITyADJ=14
 ICtDFT= 12500011 ScaDFX=  1.000000  1.000000  1.000000  1.000000
 Range of M.O.s used for correlation:    70  1339
 NBasis=  1339 NAE=   241 NBE=   241 NFC=    69 NFV=     0
 NROrb=   1270 NOA=   172 NOB=   172 NVA=  1098 NVB=  1098
 Would need an additional       2415464100000 words for in-memory AO integral storage.
 Orbital symmetries:
       Occupied  (A) (A) (A) (A) (A) (A) (A) (A) (A) (A) (A) (A)
                 (A) (A) (A) (A) (A) (A) (A) (A) (A) (A) (A) (A)
                 (A) (A) (A) (A) (A) (A) (A) (A) (A) (A) (A) (A)
                 (A) (A) (A) (A) (A) (A) (A) (A) (A) (A) (A) (A)
                 (A) (A) (A) (A) (A) (A) (A) (A) (A) (A) (A) (A)
                 (A) (A) (A) (A) (A) (A) (A) (A) (A) (A) (A) (A)
                 (A) (A) (A) (A) (A) (A) (A) (A) (A) (A) (A) (A)
                 (A) (A) (A) (A) (A) (A) (A) (A) (A) (A) (A) (A)
                 (A) (A) (A) (A) (A) (A) (A) (A) (A) (A) (A) (A)
                 (A) (A) (A) (A) (A) (A) (A) (A) (A) (A) (A) (A)
                 (A) (A) (A) (A) (A) (A) (A) (A) (A) (A) (A) (A)
                 (A) (A) (A) (A) (A) (A) (A) (A) (A) (A) (A) (A)
                 (A) (A) (A) (A) (A) (A) (A) (A) (A) (A) (A) (A)
                 (A) (A) (A) (A) (A) (A) (A) (A) (A) (A) (A) (A)
                 (A) (A) (A) (A) (A) (A) (A) (A) (A) (A) (A) (A)
                 (A) (A) (A) (A) (A) (A) (A) (A) (A) (A) (A) (A)
                 (A) (A) (A) (A) (A) (A) (A) (A) (A) (A) (A) (A)
                 (A) (A) (A) (A) (A) (A) (A) (A) (A) (A) (A) (A)
                 (A) (A) (A) (A) (A) (A) (A) (A) (A) (A) (A) (A)
                 (A) (A) (A) (A) (A) (A) (A) (A) (A) (A) (A) (A)
                 (A)
       Virtual   (A) (A) (A) (A) (A) (A) (A) (A) (A) (A) (A) (A)
                 (A) (A) (A) (A) (A) (A) (A) (A) (A) (A) (A) (A)
                 (A) (A) (A) (A) (A) (A) (A) (A) (A) (A) (A) (A)
                 (A) (A) (A) (A) (A) (A) (A) (A) (A) (A) (A) (A)
                 (A) (A) (A) (A) (A) (A) (A) (A) (A) (A) (A) (A)
                 (A) (A) (A) (A) (A) (A) (A) (A) (A) (A) (A) (A)
                 (A) (A) (A) (A) (A) (A) (A) (A) (A) (A) (A) (A)
                 (A) (A) (A) (A) (A) (A) (A) (A) (A) (A) (A) (A)
                 (A) (A) (A) (A) (A) (A) (A) (A) (A) (A) (A) (A)
                 (A) (A) (A) (A) (A) (A) (A) (A) (A) (A) (A) (A)
                 (A) (A) (A) (A) (A) (A) (A) (A) (A) (A) (A) (A)
                 (A) (A) (A) (A) (A) (A) (A) (A) (A) (A) (A) (A)
                 (A) (A) (A) (A) (A) (A) (A) (A) (A) (A) (A) (A)
                 (A) (A) (A) (A) (A) (A) (A) (A) (A) (A) (A) (A)
                 (A) (A) (A) (A) (A) (A) (A) (A) (A) (A) (A) (A)
                 (A) (A) (A) (A) (A) (A) (A) (A) (A) (A) (A) (A)
                 (A) (A) (A) (A) (A) (A) (A) (A) (A) (A) (A) (A)
                 (A) (A) (A) (A) (A) (A) (A) (A) (A) (A) (A) (A)
                 (A) (A) (A) (A) (A) (A) (A) (A) (A) (A) (A) (A)
                 (A) (A) (A) (A) (A) (A) (A) (A) (A) (A) (A) (A)
                 (A) (A) (A) (A) (A) (A) (A) (A) (A) (A) (A) (A)
                 (A) (A) (A) (A) (A) (A) (A) (A) (A) (A) (A) (A)
                 (A) (A) (A) (A) (A) (A) (A) (A) (A) (A) (A) (A)
                 (A) (A) (A) (A) (A) (A) (A) (A) (A) (A) (A) (A)
                 (A) (A) (A) (A) (A) (A) (A) (A) (A) (A) (A) (A)
                 (A) (A) (A) (A) (A) (A) (A) (A) (A) (A) (A) (A)
                 (A) (A) (A) (A) (A) (A) (A) (A) (A) (A) (A) (A)
                 (A) (A) (A) (A) (A) (A) (A) (A) (A) (A) (A) (A)
                 (A) (A) (A) (A) (A) (A) (A) (A) (A) (A) (A) (A)
                 (A) (A) (A) (A) (A) (A) (A) (A) (A) (A) (A) (A)
                 (A) (A) (A) (A) (A) (A) (A) (A) (A) (A) (A) (A)
                 (A) (A) (A) (A) (A) (A) (A) (A) (A) (A) (A) (A)
                 (A) (A) (A) (A) (A) (A) (A) (A) (A) (A) (A) (A)
                 (A) (A) (A) (A) (A) (A) (A) (A) (A) (A) (A) (A)
                 (A) (A) (A) (A) (A) (A) (A) (A) (A) (A) (A) (A)
                 (A) (A) (A) (A) (A) (A) (A) (A) (A) (A) (A) (A)
                 (A) (A) (A) (A) (A) (A) (A) (A) (A) (A) (A) (A)
                 (A) (A) (A) (A) (A) (A) (A) (A) (A) (A) (A) (A)
                 (A) (A) (A) (A) (A) (A) (A) (A) (A) (A) (A) (A)
                 (A) (A) (A) (A) (A) (A) (A) (A) (A) (A) (A) (A)
                 (A) (A) (A) (A) (A) (A) (A) (A) (A) (A) (A) (A)
                 (A) (A) (A) (A) (A) (A) (A) (A) (A) (A) (A) (A)
                 (A) (A) (A) (A) (A) (A) (A) (A) (A) (A) (A) (A)
                 (A) (A) (A) (A) (A) (A) (A) (A) (A) (A) (A) (A)
                 (A) (A) (A) (A) (A) (A) (A) (A) (A) (A) (A) (A)
                 (A) (A) (A) (A) (A) (A) (A) (A) (A) (A) (A) (A)
                 (A) (A) (A) (A) (A) (A) (A) (A) (A) (A) (A) (A)
                 (A) (A) (A) (A) (A) (A) (A) (A) (A) (A) (A) (A)
                 (A) (A) (A) (A) (A) (A) (A) (A) (A) (A) (A) (A)
                 (A) (A) (A) (A) (A) (A) (A) (A) (A) (A) (A) (A)
                 (A) (A) (A) (A) (A) (A) (A) (A) (A) (A) (A) (A)
                 (A) (A) (A) (A) (A) (A) (A) (A) (A) (A) (A) (A)
                 (A) (A) (A) (A) (A) (A) (A) (A) (A) (A) (A) (A)
                 (A) (A) (A) (A) (A) (A) (A) (A) (A) (A) (A) (A)
                 (A) (A) (A) (A) (A) (A) (A) (A) (A) (A) (A) (A)
                 (A) (A) (A) (A) (A) (A) (A) (A) (A) (A) (A) (A)
                 (A) (A) (A) (A) (A) (A) (A) (A) (A) (A) (A) (A)
                 (A) (A) (A) (A) (A) (A) (A) (A) (A) (A) (A) (A)
                 (A) (A) (A) (A) (A) (A) (A) (A) (A) (A) (A) (A)
                 (A) (A) (A) (A) (A) (A) (A) (A) (A) (A) (A) (A)
                 (A) (A) (A) (A) (A) (A) (A) (A) (A) (A) (A) (A)
                 (A) (A) (A) (A) (A) (A) (A) (A) (A) (A) (A) (A)
                 (A) (A) (A) (A) (A) (A) (A) (A) (A) (A) (A) (A)
                 (A) (A) (A) (A) (A) (A) (A) (A) (A) (A) (A) (A)
                 (A) (A) (A) (A) (A) (A) (A) (A) (A) (A) (A) (A)
                 (A) (A) (A) (A) (A) (A) (A) (A) (A) (A) (A) (A)
                 (A) (A) (A) (A) (A) (A) (A) (A) (A) (A) (A) (A)
                 (A) (A) (A) (A) (A) (A) (A) (A) (A) (A) (A) (A)
                 (A) (A) (A) (A) (A) (A) (A) (A) (A) (A) (A) (A)
                 (A) (A) (A) (A) (A) (A) (A) (A) (A) (A) (A) (A)
                 (A) (A) (A) (A) (A) (A) (A) (A) (A) (A) (A) (A)
                 (A) (A) (A) (A) (A) (A) (A) (A) (A) (A) (A) (A)
                 (A) (A) (A) (A) (A) (A) (A) (A) (A) (A) (A) (A)
                 (A) (A) (A) (A) (A) (A) (A) (A) (A) (A) (A) (A)
                 (A) (A) (A) (A) (A) (A) (A) (A) (A) (A) (A) (A)
                 (A) (A) (A) (A) (A) (A) (A) (A) (A) (A) (A) (A)
                 (A) (A) (A) (A) (A) (A) (A) (A) (A) (A) (A) (A)
                 (A) (A) (A) (A) (A) (A) (A) (A) (A) (A) (A) (A)
                 (A) (A) (A) (A) (A) (A) (A) (A) (A) (A) (A) (A)
                 (A) (A) (A) (A) (A) (A) (A) (A) (A) (A) (A) (A)
                 (A) (A) (A) (A) (A) (A) (A) (A) (A) (A) (A) (A)
                 (A) (A) (A) (A) (A) (A) (A) (A) (A) (A) (A) (A)
                 (A) (A) (A) (A) (A) (A) (A) (A) (A) (A) (A) (A)
                 (A) (A) (A) (A) (A) (A) (A) (A) (A) (A) (A) (A)
                 (A) (A) (A) (A) (A) (A) (A) (A) (A) (A) (A) (A)
                 (A) (A) (A) (A) (A) (A) (A) (A) (A) (A) (A) (A)
                 (A) (A) (A) (A) (A) (A) (A) (A) (A) (A) (A) (A)
                 (A) (A) (A) (A) (A) (A) (A) (A) (A) (A) (A) (A)
                 (A) (A) (A) (A) (A) (A) (A) (A) (A) (A) (A) (A)
                 (A) (A) (A) (A) (A) (A) (A) (A) (A) (A) (A) (A)
                 (A) (A) (A) (A) (A) (A) (A) (A) (A) (A) (A) (A)
                 (A) (A) (A) (A) (A) (A)
     8 initial guesses have been made.
 Convergence on wavefunction:    0.001000000000000
 Iteration     1 Dimension     8 NMult     0 NNew      8
 CISAX will form     8 AO SS matrices at one time.
 Iteration     2 Dimension    12 NMult     8 NNew      4
 Iteration     3 Dimension    16 NMult    12 NNew      4
 Iteration     4 Dimension    20 NMult    16 NNew      4
 Iteration     5 Dimension    24 NMult    20 NNew      4
 Iteration     6 Dimension    28 NMult    24 NNew      4
 ***********************************************************************
 Excited states from <AA,BB:AA,BB> singles matrix:
 ***********************************************************************
 
 Ground to excited state transition densities written to RWF  633
 Ground to excited state transition electric dipole moments (Au):
       state          X           Y           Z        Dip. S.      Osc.
         1        -0.6891      2.3447      0.0297      5.9733      0.3005
 Ground to excited state transition velocity dipole moments (Au):
       state          X           Y           Z        Dip. S.      Osc.
         1         0.0485     -0.1729     -0.0035      0.0323      0.2850
 Ground to excited state transition magnetic dipole moments (Au):
       state          X           Y           Z
         1        -0.4048     -0.1741      3.5529
 Ground to excited state transition velocity quadrupole moments (Au):
       state          XX          YY          ZZ          XY          XZ          YZ
         1        -1.1640     -0.2974     -0.0265      2.2447     -0.0037     -0.1459
 <0|del|b> * <b|rxdel|0> + <0|del|b> * <b|delr+rdel|0>
 Rotatory Strengths (R) in cgs (10**-40 erg-esu-cm/Gauss)
       state          XX          YY          ZZ    R(velocity)    E-M Angle
         1        43.9124   -146.4991     85.1386     -5.8160       90.17
 1/2[<0|r|b>*<b|rxdel|0> + (<0|rxdel|b>*<b|r|0>)*]
 Rotatory Strengths (R) in cgs (10**-40 erg-esu-cm/Gauss)
       state          XX          YY          ZZ     R(length)
         1      -197.2601    288.6677    -74.5525      5.6184
  1/2[<0|del|b>*<b|r|0> + (<0|r|b>*<b|del|0>)*] (Au)
       state          X           Y           Z        Dip. S.   Osc.(frdel)
         1        -0.0335     -0.4054     -0.0001      0.4390      0.2927

 Excitation energies and oscillator strengths:
 
 Excited State   1:      Singlet-A      2.0536 eV  603.75 nm  f=0.3005  <S**2>=0.000
     240 -> 242       -0.12941
     240 -> 243       -0.21363
     241 -> 242        0.65074
 This state for optimization and/or second-order correction.
 Total Energy, E(TD-HF/TD-KS) =  -2932.53629926    
 Copying the excited state density for this state as the 1-particle RhoCI density.
 SavETr:  write IOETrn=   770 NScale= 10 NData=  16 NLR=1 NState=    1 LETran=      28.

 **********************************************************************

            Population analysis using the SCF density.

 **********************************************************************

 Orbital symmetries:
       Occupied  (A) (A) (A) (A) (A) (A) (A) (A) (A) (A) (A) (A)
                 (A) (A) (A) (A) (A) (A) (A) (A) (A) (A) (A) (A)
                 (A) (A) (A) (A) (A) (A) (A) (A) (A) (A) (A) (A)
                 (A) (A) (A) (A) (A) (A) (A) (A) (A) (A) (A) (A)
                 (A) (A) (A) (A) (A) (A) (A) (A) (A) (A) (A) (A)
                 (A) (A) (A) (A) (A) (A) (A) (A) (A) (A) (A) (A)
                 (A) (A) (A) (A) (A) (A) (A) (A) (A) (A) (A) (A)
                 (A) (A) (A) (A) (A) (A) (A) (A) (A) (A) (A) (A)
                 (A) (A) (A) (A) (A) (A) (A) (A) (A) (A) (A) (A)
                 (A) (A) (A) (A) (A) (A) (A) (A) (A) (A) (A) (A)
                 (A) (A) (A) (A) (A) (A) (A) (A) (A) (A) (A) (A)
                 (A) (A) (A) (A) (A) (A) (A) (A) (A) (A) (A) (A)
                 (A) (A) (A) (A) (A) (A) (A) (A) (A) (A) (A) (A)
                 (A) (A) (A) (A) (A) (A) (A) (A) (A) (A) (A) (A)
                 (A) (A) (A) (A) (A) (A) (A) (A) (A) (A) (A) (A)
                 (A) (A) (A) (A) (A) (A) (A) (A) (A) (A) (A) (A)
                 (A) (A) (A) (A) (A) (A) (A) (A) (A) (A) (A) (A)
                 (A) (A) (A) (A) (A) (A) (A) (A) (A) (A) (A) (A)
                 (A) (A) (A) (A) (A) (A) (A) (A) (A) (A) (A) (A)
                 (A) (A) (A) (A) (A) (A) (A) (A) (A) (A) (A) (A)
                 (A)
       Virtual   (A) (A) (A) (A) (A) (A) (A) (A) (A) (A) (A) (A)
                 (A) (A) (A) (A) (A) (A) (A) (A) (A) (A) (A) (A)
                 (A) (A) (A) (A) (A) (A) (A) (A) (A) (A) (A) (A)
                 (A) (A) (A) (A) (A) (A) (A) (A) (A) (A) (A) (A)
                 (A) (A) (A) (A) (A) (A) (A) (A) (A) (A) (A) (A)
                 (A) (A) (A) (A) (A) (A) (A) (A) (A) (A) (A) (A)
                 (A) (A) (A) (A) (A) (A) (A) (A) (A) (A) (A) (A)
                 (A) (A) (A) (A) (A) (A) (A) (A) (A) (A) (A) (A)
                 (A) (A) (A) (A) (A) (A) (A) (A) (A) (A) (A) (A)
                 (A) (A) (A) (A) (A) (A) (A) (A) (A) (A) (A) (A)
                 (A) (A) (A) (A) (A) (A) (A) (A) (A) (A) (A) (A)
                 (A) (A) (A) (A) (A) (A) (A) (A) (A) (A) (A) (A)
                 (A) (A) (A) (A) (A) (A) (A) (A) (A) (A) (A) (A)
                 (A) (A) (A) (A) (A) (A) (A) (A) (A) (A) (A) (A)
                 (A) (A) (A) (A) (A) (A) (A) (A) (A) (A) (A) (A)
                 (A) (A) (A) (A) (A) (A) (A) (A) (A) (A) (A) (A)
                 (A) (A) (A) (A) (A) (A) (A) (A) (A) (A) (A) (A)
                 (A) (A) (A) (A) (A) (A) (A) (A) (A) (A) (A) (A)
                 (A) (A) (A) (A) (A) (A) (A) (A) (A) (A) (A) (A)
                 (A) (A) (A) (A) (A) (A) (A) (A) (A) (A) (A) (A)
                 (A) (A) (A) (A) (A) (A) (A) (A) (A) (A) (A) (A)
                 (A) (A) (A) (A) (A) (A) (A) (A) (A) (A) (A) (A)
                 (A) (A) (A) (A) (A) (A) (A) (A) (A) (A) (A) (A)
                 (A) (A) (A) (A) (A) (A) (A) (A) (A) (A) (A) (A)
                 (A) (A) (A) (A) (A) (A) (A) (A) (A) (A) (A) (A)
                 (A) (A) (A) (A) (A) (A) (A) (A) (A) (A) (A) (A)
                 (A) (A) (A) (A) (A) (A) (A) (A) (A) (A) (A) (A)
                 (A) (A) (A) (A) (A) (A) (A) (A) (A) (A) (A) (A)
                 (A) (A) (A) (A) (A) (A) (A) (A) (A) (A) (A) (A)
                 (A) (A) (A) (A) (A) (A) (A) (A) (A) (A) (A) (A)
                 (A) (A) (A) (A) (A) (A) (A) (A) (A) (A) (A) (A)
                 (A) (A) (A) (A) (A) (A) (A) (A) (A) (A) (A) (A)
                 (A) (A) (A) (A) (A) (A) (A) (A) (A) (A) (A) (A)
                 (A) (A) (A) (A) (A) (A) (A) (A) (A) (A) (A) (A)
                 (A) (A) (A) (A) (A) (A) (A) (A) (A) (A) (A) (A)
                 (A) (A) (A) (A) (A) (A) (A) (A) (A) (A) (A) (A)
                 (A) (A) (A) (A) (A) (A) (A) (A) (A) (A) (A) (A)
                 (A) (A) (A) (A) (A) (A) (A) (A) (A) (A) (A) (A)
                 (A) (A) (A) (A) (A) (A) (A) (A) (A) (A) (A) (A)
                 (A) (A) (A) (A) (A) (A) (A) (A) (A) (A) (A) (A)
                 (A) (A) (A) (A) (A) (A) (A) (A) (A) (A) (A) (A)
                 (A) (A) (A) (A) (A) (A) (A) (A) (A) (A) (A) (A)
                 (A) (A) (A) (A) (A) (A) (A) (A) (A) (A) (A) (A)
                 (A) (A) (A) (A) (A) (A) (A) (A) (A) (A) (A) (A)
                 (A) (A) (A) (A) (A) (A) (A) (A) (A) (A) (A) (A)
                 (A) (A) (A) (A) (A) (A) (A) (A) (A) (A) (A) (A)
                 (A) (A) (A) (A) (A) (A) (A) (A) (A) (A) (A) (A)
                 (A) (A) (A) (A) (A) (A) (A) (A) (A) (A) (A) (A)
                 (A) (A) (A) (A) (A) (A) (A) (A) (A) (A) (A) (A)
                 (A) (A) (A) (A) (A) (A) (A) (A) (A) (A) (A) (A)
                 (A) (A) (A) (A) (A) (A) (A) (A) (A) (A) (A) (A)
                 (A) (A) (A) (A) (A) (A) (A) (A) (A) (A) (A) (A)
                 (A) (A) (A) (A) (A) (A) (A) (A) (A) (A) (A) (A)
                 (A) (A) (A) (A) (A) (A) (A) (A) (A) (A) (A) (A)
                 (A) (A) (A) (A) (A) (A) (A) (A) (A) (A) (A) (A)
                 (A) (A) (A) (A) (A) (A) (A) (A) (A) (A) (A) (A)
                 (A) (A) (A) (A) (A) (A) (A) (A) (A) (A) (A) (A)
                 (A) (A) (A) (A) (A) (A) (A) (A) (A) (A) (A) (A)
                 (A) (A) (A) (A) (A) (A) (A) (A) (A) (A) (A) (A)
                 (A) (A) (A) (A) (A) (A) (A) (A) (A) (A) (A) (A)
                 (A) (A) (A) (A) (A) (A) (A) (A) (A) (A) (A) (A)
                 (A) (A) (A) (A) (A) (A) (A) (A) (A) (A) (A) (A)
                 (A) (A) (A) (A) (A) (A) (A) (A) (A) (A) (A) (A)
                 (A) (A) (A) (A) (A) (A) (A) (A) (A) (A) (A) (A)
                 (A) (A) (A) (A) (A) (A) (A) (A) (A) (A) (A) (A)
                 (A) (A) (A) (A) (A) (A) (A) (A) (A) (A) (A) (A)
                 (A) (A) (A) (A) (A) (A) (A) (A) (A) (A) (A) (A)
                 (A) (A) (A) (A) (A) (A) (A) (A) (A) (A) (A) (A)
                 (A) (A) (A) (A) (A) (A) (A) (A) (A) (A) (A) (A)
                 (A) (A) (A) (A) (A) (A) (A) (A) (A) (A) (A) (A)
                 (A) (A) (A) (A) (A) (A) (A) (A) (A) (A) (A) (A)
                 (A) (A) (A) (A) (A) (A) (A) (A) (A) (A) (A) (A)
                 (A) (A) (A) (A) (A) (A) (A) (A) (A) (A) (A) (A)
                 (A) (A) (A) (A) (A) (A) (A) (A) (A) (A) (A) (A)
                 (A) (A) (A) (A) (A) (A) (A) (A) (A) (A) (A) (A)
                 (A) (A) (A) (A) (A) (A) (A) (A) (A) (A) (A) (A)
                 (A) (A) (A) (A) (A) (A) (A) (A) (A) (A) (A) (A)
                 (A) (A) (A) (A) (A) (A) (A) (A) (A) (A) (A) (A)
                 (A) (A) (A) (A) (A) (A) (A) (A) (A) (A) (A) (A)
                 (A) (A) (A) (A) (A) (A) (A) (A) (A) (A) (A) (A)
                 (A) (A) (A) (A) (A) (A) (A) (A) (A) (A) (A) (A)
                 (A) (A) (A) (A) (A) (A) (A) (A) (A) (A) (A) (A)
                 (A) (A) (A) (A) (A) (A) (A) (A) (A) (A) (A) (A)
                 (A) (A) (A) (A) (A) (A) (A) (A) (A) (A) (A) (A)
                 (A) (A) (A) (A) (A) (A) (A) (A) (A) (A) (A) (A)
                 (A) (A) (A) (A) (A) (A) (A) (A) (A) (A) (A) (A)
                 (A) (A) (A) (A) (A) (A) (A) (A) (A) (A) (A) (A)
                 (A) (A) (A) (A) (A) (A) (A) (A) (A) (A) (A) (A)
                 (A) (A) (A) (A) (A) (A) (A) (A) (A) (A) (A) (A)
                 (A) (A) (A) (A) (A) (A) (A) (A) (A) (A) (A) (A)
                 (A) (A) (A) (A) (A) (A) (A) (A) (A) (A) (A) (A)
                 (A) (A) (A) (A) (A) (A)
 The electronic state is 1-A.
 Alpha  occ. eigenvalues --  -46.84961 -19.25347 -19.24181 -19.21277 -19.20458
 Alpha  occ. eigenvalues --  -19.19112 -14.40958 -14.39854 -14.39586 -14.39271
 Alpha  occ. eigenvalues --  -10.38797 -10.38232 -10.34248 -10.32319 -10.30243
 Alpha  occ. eigenvalues --  -10.30073 -10.29938 -10.29826 -10.29769 -10.29166
 Alpha  occ. eigenvalues --  -10.29105 -10.28807 -10.28410 -10.28260 -10.28090
 Alpha  occ. eigenvalues --  -10.28052 -10.28052 -10.28045 -10.27985 -10.27910
 Alpha  occ. eigenvalues --  -10.27883 -10.27797 -10.27752 -10.27742 -10.27714
 Alpha  occ. eigenvalues --  -10.27707 -10.27582 -10.27551 -10.27525 -10.27485
 Alpha  occ. eigenvalues --  -10.27404 -10.27139 -10.26822 -10.26820 -10.26501
 Alpha  occ. eigenvalues --  -10.26365 -10.26267 -10.26206 -10.26201 -10.26038
 Alpha  occ. eigenvalues --  -10.25982 -10.25961 -10.25959 -10.25633 -10.25488
 Alpha  occ. eigenvalues --  -10.25358 -10.25330 -10.25324 -10.25310 -10.24757
 Alpha  occ. eigenvalues --  -10.24755 -10.24618 -10.24528 -10.24443 -10.23047
 Alpha  occ. eigenvalues --   -3.13863  -1.88580  -1.88112  -1.88022  -1.16350
 Alpha  occ. eigenvalues --   -1.15902  -1.08489  -1.08460  -1.07525  -1.06102
 Alpha  occ. eigenvalues --   -1.04275  -1.03189  -1.01984  -0.92314  -0.92274
 Alpha  occ. eigenvalues --   -0.91474  -0.90137  -0.89617  -0.89329  -0.89253
 Alpha  occ. eigenvalues --   -0.88325  -0.88273  -0.87528  -0.86997  -0.85818
 Alpha  occ. eigenvalues --   -0.85267  -0.84262  -0.83595  -0.83068  -0.82846
 Alpha  occ. eigenvalues --   -0.81742  -0.81293  -0.80450  -0.79897  -0.78568
 Alpha  occ. eigenvalues --   -0.78222  -0.77767  -0.76457  -0.76305  -0.75998
 Alpha  occ. eigenvalues --   -0.75201  -0.74811  -0.74219  -0.72833  -0.72603
 Alpha  occ. eigenvalues --   -0.72307  -0.70922  -0.69910  -0.69433  -0.68811
 Alpha  occ. eigenvalues --   -0.67932  -0.66097  -0.65158  -0.65045  -0.64221
 Alpha  occ. eigenvalues --   -0.63353  -0.62701  -0.62283  -0.61859  -0.61367
 Alpha  occ. eigenvalues --   -0.61281  -0.60260  -0.60108  -0.59386  -0.58850
 Alpha  occ. eigenvalues --   -0.58354  -0.58042  -0.57628  -0.56591  -0.56149
 Alpha  occ. eigenvalues --   -0.55912  -0.55609  -0.55430  -0.55118  -0.54581
 Alpha  occ. eigenvalues --   -0.54401  -0.54272  -0.53712  -0.53327  -0.53203
 Alpha  occ. eigenvalues --   -0.52843  -0.52384  -0.52331  -0.52185  -0.51528
 Alpha  occ. eigenvalues --   -0.51325  -0.51178  -0.50830  -0.50439  -0.50269
 Alpha  occ. eigenvalues --   -0.50207  -0.49889  -0.49782  -0.49568  -0.49382
 Alpha  occ. eigenvalues --   -0.48995  -0.48865  -0.48639  -0.48512  -0.48298
 Alpha  occ. eigenvalues --   -0.48137  -0.47990  -0.47885  -0.47738  -0.47476
 Alpha  occ. eigenvalues --   -0.47131  -0.46980  -0.46948  -0.46396  -0.45853
 Alpha  occ. eigenvalues --   -0.45711  -0.45601  -0.45224  -0.44932  -0.44821
 Alpha  occ. eigenvalues --   -0.44776  -0.44387  -0.44108  -0.43971  -0.43839
 Alpha  occ. eigenvalues --   -0.43537  -0.43454  -0.43319  -0.43189  -0.43016
 Alpha  occ. eigenvalues --   -0.42895  -0.42671  -0.42553  -0.42417  -0.41973
 Alpha  occ. eigenvalues --   -0.41893  -0.41640  -0.41578  -0.41471  -0.41220
 Alpha  occ. eigenvalues --   -0.40932  -0.40914  -0.40616  -0.40450  -0.40391
 Alpha  occ. eigenvalues --   -0.40275  -0.40167  -0.39830  -0.39497  -0.39224
 Alpha  occ. eigenvalues --   -0.39176  -0.38721  -0.38487  -0.37938  -0.37789
 Alpha  occ. eigenvalues --   -0.37308  -0.37206  -0.36848  -0.36727  -0.36548
 Alpha  occ. eigenvalues --   -0.36206  -0.36075  -0.35499  -0.35446  -0.35055
 Alpha  occ. eigenvalues --   -0.34841  -0.34619  -0.34046  -0.33814  -0.33476
 Alpha  occ. eigenvalues --   -0.33267  -0.32955  -0.32031  -0.31066  -0.29653
 Alpha  occ. eigenvalues --   -0.29401  -0.29340  -0.28615  -0.28168  -0.23226
 Alpha  occ. eigenvalues --   -0.20854
 Alpha virt. eigenvalues --   -0.06414  -0.02889   0.01529   0.03515   0.04588
 Alpha virt. eigenvalues --    0.05457   0.05934   0.06846   0.07272   0.07563
 Alpha virt. eigenvalues --    0.08772   0.10092   0.10519   0.10784   0.11088
 Alpha virt. eigenvalues --    0.11180   0.11891   0.12036   0.12399   0.12638
 Alpha virt. eigenvalues --    0.12996   0.13263   0.13622   0.13965   0.14081
 Alpha virt. eigenvalues --    0.14436   0.14440   0.14912   0.15172   0.15305
 Alpha virt. eigenvalues --    0.15657   0.15739   0.15956   0.16126   0.16327
 Alpha virt. eigenvalues --    0.16705   0.16798   0.17047   0.17162   0.17427
 Alpha virt. eigenvalues --    0.17664   0.17685   0.18197   0.18320   0.18363
 Alpha virt. eigenvalues --    0.18588   0.18979   0.19015   0.19226   0.19273
 Alpha virt. eigenvalues --    0.19463   0.19491   0.19712   0.20015   0.20134
 Alpha virt. eigenvalues --    0.20501   0.20657   0.20823   0.21111   0.21191
 Alpha virt. eigenvalues --    0.21288   0.21310   0.21586   0.21786   0.21950
 Alpha virt. eigenvalues --    0.22071   0.22183   0.22335   0.22489   0.22677
 Alpha virt. eigenvalues --    0.22856   0.22998   0.23303   0.23395   0.23618
 Alpha virt. eigenvalues --    0.23690   0.23798   0.23900   0.24156   0.24304
 Alpha virt. eigenvalues --    0.24606   0.24763   0.24877   0.25099   0.25360
 Alpha virt. eigenvalues --    0.25416   0.25697   0.25905   0.25999   0.26122
 Alpha virt. eigenvalues --    0.26265   0.26824   0.26955   0.26995   0.27238
 Alpha virt. eigenvalues --    0.27385   0.27519   0.27595   0.28014   0.28289
 Alpha virt. eigenvalues --    0.28516   0.28540   0.29549   0.29589   0.29639
 Alpha virt. eigenvalues --    0.29809   0.30055   0.30096   0.30230   0.30533
 Alpha virt. eigenvalues --    0.30699   0.31005   0.31086   0.31492   0.31595
 Alpha virt. eigenvalues --    0.32158   0.32286   0.32569   0.32683   0.33395
 Alpha virt. eigenvalues --    0.33713   0.33755   0.33932   0.34367   0.34450
 Alpha virt. eigenvalues --    0.34566   0.35229   0.35390   0.35868   0.36027
 Alpha virt. eigenvalues --    0.36309   0.36596   0.37046   0.37358   0.37825
 Alpha virt. eigenvalues --    0.38525   0.39137   0.39735   0.40385   0.40830
 Alpha virt. eigenvalues --    0.41076   0.41820   0.42054   0.42175   0.42517
 Alpha virt. eigenvalues --    0.43104   0.43765   0.44486   0.45146   0.46349
 Alpha virt. eigenvalues --    0.46663   0.47082   0.48245   0.48871   0.49313
 Alpha virt. eigenvalues --    0.49823   0.50934   0.51926   0.52417   0.52536
 Alpha virt. eigenvalues --    0.52690   0.53518   0.53991   0.54136   0.54256
 Alpha virt. eigenvalues --    0.54808   0.54933   0.55394   0.55588   0.55868
 Alpha virt. eigenvalues --    0.56046   0.56074   0.56555   0.56784   0.56813
 Alpha virt. eigenvalues --    0.56972   0.57321   0.57663   0.57878   0.58157
 Alpha virt. eigenvalues --    0.58332   0.58393   0.58651   0.58911   0.59431
 Alpha virt. eigenvalues --    0.59515   0.59655   0.59865   0.60177   0.60290
 Alpha virt. eigenvalues --    0.60588   0.60798   0.60927   0.60993   0.61292
 Alpha virt. eigenvalues --    0.61629   0.62253   0.62377   0.62492   0.62560
 Alpha virt. eigenvalues --    0.62973   0.63138   0.63282   0.63417   0.63633
 Alpha virt. eigenvalues --    0.63980   0.64425   0.64726   0.64960   0.65212
 Alpha virt. eigenvalues --    0.66015   0.66129   0.66261   0.66641   0.66822
 Alpha virt. eigenvalues --    0.66962   0.67080   0.67156   0.67711   0.67851
 Alpha virt. eigenvalues --    0.67930   0.68157   0.68334   0.68875   0.69170
 Alpha virt. eigenvalues --    0.69533   0.70097   0.70179   0.70444   0.70721
 Alpha virt. eigenvalues --    0.71062   0.71152   0.71297   0.71372   0.71819
 Alpha virt. eigenvalues --    0.72278   0.72426   0.72784   0.72987   0.73407
 Alpha virt. eigenvalues --    0.73605   0.73818   0.74366   0.74497   0.74655
 Alpha virt. eigenvalues --    0.74768   0.74940   0.75186   0.75241   0.75362
 Alpha virt. eigenvalues --    0.75470   0.75619   0.76001   0.76487   0.76875
 Alpha virt. eigenvalues --    0.77226   0.77542   0.77633   0.78013   0.78492
 Alpha virt. eigenvalues --    0.78555   0.78663   0.78873   0.79279   0.79673
 Alpha virt. eigenvalues --    0.79719   0.79978   0.80080   0.80596   0.80836
 Alpha virt. eigenvalues --    0.81033   0.81068   0.81576   0.81825   0.81983
 Alpha virt. eigenvalues --    0.82244   0.82320   0.82401   0.82869   0.82915
 Alpha virt. eigenvalues --    0.83243   0.83437   0.83655   0.83914   0.84301
 Alpha virt. eigenvalues --    0.84458   0.84552   0.84745   0.84889   0.85569
 Alpha virt. eigenvalues --    0.86003   0.86198   0.86250   0.86383   0.86585
 Alpha virt. eigenvalues --    0.86723   0.87033   0.87214   0.87250   0.87502
 Alpha virt. eigenvalues --    0.87703   0.87774   0.87922   0.88165   0.88286
 Alpha virt. eigenvalues --    0.88693   0.88951   0.89288   0.89394   0.89712
 Alpha virt. eigenvalues --    0.89993   0.90085   0.90296   0.90397   0.90522
 Alpha virt. eigenvalues --    0.90763   0.91100   0.91210   0.91474   0.91646
 Alpha virt. eigenvalues --    0.91811   0.92205   0.92339   0.92372   0.92675
 Alpha virt. eigenvalues --    0.92964   0.93155   0.93743   0.93772   0.93826
 Alpha virt. eigenvalues --    0.94057   0.94147   0.94354   0.94390   0.94633
 Alpha virt. eigenvalues --    0.95028   0.95131   0.95284   0.95459   0.95739
 Alpha virt. eigenvalues --    0.96105   0.96516   0.96658   0.96878   0.96950
 Alpha virt. eigenvalues --    0.96985   0.97093   0.97162   0.97210   0.97478
 Alpha virt. eigenvalues --    0.97537   0.97609   0.97763   0.98021   0.98482
 Alpha virt. eigenvalues --    0.98831   0.98982   0.99289   0.99499   1.00097
 Alpha virt. eigenvalues --    1.00181   1.00379   1.00634   1.00945   1.01048
 Alpha virt. eigenvalues --    1.01136   1.01336   1.01915   1.01964   1.02066
 Alpha virt. eigenvalues --    1.02925   1.03151   1.03178   1.03307   1.03473
 Alpha virt. eigenvalues --    1.04063   1.04126   1.04292   1.04851   1.04932
 Alpha virt. eigenvalues --    1.05044   1.05197   1.05814   1.05927   1.06172
 Alpha virt. eigenvalues --    1.06207   1.06280   1.06971   1.07558   1.07766
 Alpha virt. eigenvalues --    1.08308   1.08344   1.08675   1.09088   1.09571
 Alpha virt. eigenvalues --    1.09953   1.10123   1.10426   1.10667   1.11149
 Alpha virt. eigenvalues --    1.11413   1.11544   1.12096   1.12786   1.13064
 Alpha virt. eigenvalues --    1.13752   1.13987   1.14807   1.15024   1.15337
 Alpha virt. eigenvalues --    1.16037   1.16971   1.17194   1.17514   1.18282
 Alpha virt. eigenvalues --    1.18872   1.19366   1.19550   1.19731   1.20690
 Alpha virt. eigenvalues --    1.21202   1.21252   1.21514   1.21743   1.21834
 Alpha virt. eigenvalues --    1.22904   1.24101   1.24294   1.24634   1.25406
 Alpha virt. eigenvalues --    1.25843   1.26314   1.26355   1.27130   1.28232
 Alpha virt. eigenvalues --    1.28418   1.29266   1.29696   1.30458   1.30915
 Alpha virt. eigenvalues --    1.31200   1.31440   1.32538   1.32986   1.33300
 Alpha virt. eigenvalues --    1.34058   1.34985   1.35496   1.35608   1.36167
 Alpha virt. eigenvalues --    1.36508   1.36818   1.37215   1.37343   1.38083
 Alpha virt. eigenvalues --    1.38189   1.38532   1.39659   1.40007   1.40603
 Alpha virt. eigenvalues --    1.40736   1.41044   1.41779   1.42548   1.43214
 Alpha virt. eigenvalues --    1.43482   1.43676   1.43982   1.44483   1.45759
 Alpha virt. eigenvalues --    1.46391   1.46628   1.46880   1.47216   1.47355
 Alpha virt. eigenvalues --    1.47931   1.48077   1.48965   1.49217   1.49889
 Alpha virt. eigenvalues --    1.50059   1.50168   1.50903   1.50945   1.52355
 Alpha virt. eigenvalues --    1.53512   1.53746   1.54021   1.54238   1.54376
 Alpha virt. eigenvalues --    1.54855   1.54946   1.55281   1.56090   1.56727
 Alpha virt. eigenvalues --    1.56906   1.57461   1.57886   1.58671   1.58800
 Alpha virt. eigenvalues --    1.59070   1.59902   1.60018   1.60137   1.60769
 Alpha virt. eigenvalues --    1.61356   1.61560   1.61840   1.62173   1.62887
 Alpha virt. eigenvalues --    1.63309   1.63724   1.64221   1.64879   1.65175
 Alpha virt. eigenvalues --    1.65683   1.65939   1.66122   1.66384   1.66590
 Alpha virt. eigenvalues --    1.67655   1.68591   1.68811   1.69228   1.69786
 Alpha virt. eigenvalues --    1.70004   1.70107   1.70464   1.70853   1.71345
 Alpha virt. eigenvalues --    1.71852   1.72379   1.72832   1.73057   1.74426
 Alpha virt. eigenvalues --    1.74749   1.74964   1.75381   1.75871   1.75922
 Alpha virt. eigenvalues --    1.76577   1.77394   1.77487   1.78042   1.78316
 Alpha virt. eigenvalues --    1.78642   1.78945   1.78962   1.79904   1.80345
 Alpha virt. eigenvalues --    1.80612   1.81113   1.81289   1.81450   1.81807
 Alpha virt. eigenvalues --    1.82099   1.83025   1.83370   1.83885   1.84089
 Alpha virt. eigenvalues --    1.84162   1.84492   1.84720   1.85045   1.85609
 Alpha virt. eigenvalues --    1.85841   1.86184   1.86586   1.86615   1.86733
 Alpha virt. eigenvalues --    1.87305   1.87685   1.87887   1.88096   1.88331
 Alpha virt. eigenvalues --    1.88514   1.88661   1.88713   1.88991   1.89225
 Alpha virt. eigenvalues --    1.89529   1.89783   1.89872   1.90136   1.90283
 Alpha virt. eigenvalues --    1.90509   1.90948   1.91233   1.91398   1.91883
 Alpha virt. eigenvalues --    1.92184   1.92252   1.92697   1.92878   1.93311
 Alpha virt. eigenvalues --    1.93560   1.93675   1.93981   1.94298   1.94672
 Alpha virt. eigenvalues --    1.94834   1.95012   1.95155   1.95319   1.95856
 Alpha virt. eigenvalues --    1.96039   1.96315   1.96571   1.96871   1.97110
 Alpha virt. eigenvalues --    1.97211   1.97704   1.97852   1.97981   1.98483
 Alpha virt. eigenvalues --    1.98763   1.98940   1.99796   1.99858   1.99911
 Alpha virt. eigenvalues --    2.00292   2.00567   2.00914   2.01444   2.01807
 Alpha virt. eigenvalues --    2.01855   2.02600   2.03093   2.03489   2.03599
 Alpha virt. eigenvalues --    2.03998   2.04312   2.04414   2.05234   2.05395
 Alpha virt. eigenvalues --    2.05676   2.06422   2.06513   2.06727   2.06817
 Alpha virt. eigenvalues --    2.06896   2.07229   2.07575   2.07767   2.07909
 Alpha virt. eigenvalues --    2.08294   2.08436   2.08824   2.09208   2.09325
 Alpha virt. eigenvalues --    2.09721   2.09776   2.10626   2.10884   2.11088
 Alpha virt. eigenvalues --    2.11281   2.11777   2.11984   2.12293   2.12340
 Alpha virt. eigenvalues --    2.12596   2.12942   2.13008   2.13192   2.13292
 Alpha virt. eigenvalues --    2.13380   2.13887   2.14145   2.14182   2.14465
 Alpha virt. eigenvalues --    2.14713   2.15077   2.15489   2.15893   2.16469
 Alpha virt. eigenvalues --    2.16925   2.17061   2.17385   2.17613   2.17813
 Alpha virt. eigenvalues --    2.18009   2.18342   2.18494   2.18613   2.18915
 Alpha virt. eigenvalues --    2.19334   2.19658   2.19819   2.19937   2.20661
 Alpha virt. eigenvalues --    2.21226   2.21345   2.21470   2.22042   2.22430
 Alpha virt. eigenvalues --    2.22705   2.23035   2.23423   2.23799   2.24441
 Alpha virt. eigenvalues --    2.24598   2.25098   2.25184   2.26003   2.26365
 Alpha virt. eigenvalues --    2.26640   2.26670   2.26926   2.27878   2.27908
 Alpha virt. eigenvalues --    2.28047   2.28311   2.28836   2.29487   2.29720
 Alpha virt. eigenvalues --    2.29862   2.30178   2.30705   2.30954   2.31190
 Alpha virt. eigenvalues --    2.31463   2.32183   2.32499   2.32528   2.32733
 Alpha virt. eigenvalues --    2.33284   2.33409   2.33793   2.34335   2.34451
 Alpha virt. eigenvalues --    2.34789   2.35040   2.35463   2.35606   2.36042
 Alpha virt. eigenvalues --    2.36257   2.36768   2.37043   2.37278   2.37374
 Alpha virt. eigenvalues --    2.37710   2.38255   2.38553   2.38655   2.39152
 Alpha virt. eigenvalues --    2.39577   2.39879   2.40060   2.40079   2.40343
 Alpha virt. eigenvalues --    2.41047   2.41427   2.41577   2.41663   2.42027
 Alpha virt. eigenvalues --    2.42447   2.42695   2.42964   2.43288   2.43472
 Alpha virt. eigenvalues --    2.43761   2.44150   2.44308   2.44713   2.45262
 Alpha virt. eigenvalues --    2.45377   2.45516   2.46301   2.46695   2.46743
 Alpha virt. eigenvalues --    2.47255   2.47593   2.47840   2.48528   2.48758
 Alpha virt. eigenvalues --    2.48915   2.49054   2.49484   2.49655   2.50085
 Alpha virt. eigenvalues --    2.50236   2.50475   2.50707   2.51235   2.51612
 Alpha virt. eigenvalues --    2.51778   2.52054   2.52393   2.52671   2.52957
 Alpha virt. eigenvalues --    2.53161   2.53390   2.53572   2.54265   2.54662
 Alpha virt. eigenvalues --    2.55365   2.55789   2.55932   2.56350   2.57385
 Alpha virt. eigenvalues --    2.57898   2.58592   2.58928   2.59090   2.59620
 Alpha virt. eigenvalues --    2.60052   2.60564   2.60697   2.61282   2.61365
 Alpha virt. eigenvalues --    2.62030   2.62725   2.62908   2.63205   2.63347
 Alpha virt. eigenvalues --    2.63541   2.64674   2.64795   2.64950   2.65368
 Alpha virt. eigenvalues --    2.65547   2.65674   2.66032   2.66336   2.66462
 Alpha virt. eigenvalues --    2.66749   2.67382   2.67631   2.68114   2.68374
 Alpha virt. eigenvalues --    2.68478   2.68677   2.69243   2.69446   2.69872
 Alpha virt. eigenvalues --    2.69995   2.70311   2.70884   2.71169   2.71509
 Alpha virt. eigenvalues --    2.71662   2.72401   2.72423   2.72681   2.73195
 Alpha virt. eigenvalues --    2.73564   2.73688   2.74286   2.74440   2.74559
 Alpha virt. eigenvalues --    2.74939   2.75333   2.75891   2.75996   2.76108
 Alpha virt. eigenvalues --    2.76740   2.77101   2.77276   2.78002   2.78418
 Alpha virt. eigenvalues --    2.78646   2.78937   2.79167   2.79236   2.79387
 Alpha virt. eigenvalues --    2.79742   2.80386   2.80489   2.80563   2.81190
 Alpha virt. eigenvalues --    2.81386   2.81559   2.82083   2.82125   2.82572
 Alpha virt. eigenvalues --    2.82767   2.83275   2.83447   2.83896   2.84225
 Alpha virt. eigenvalues --    2.84995   2.85150   2.85537   2.85627   2.85987
 Alpha virt. eigenvalues --    2.86326   2.86561   2.86929   2.87043   2.87329
 Alpha virt. eigenvalues --    2.87550   2.87894   2.88168   2.88455   2.88564
 Alpha virt. eigenvalues --    2.89541   2.90088   2.90155   2.90372   2.90540
 Alpha virt. eigenvalues --    2.91002   2.91563   2.91812   2.92300   2.92595
 Alpha virt. eigenvalues --    2.93522   2.93988   2.94222   2.94530   2.94711
 Alpha virt. eigenvalues --    2.95358   2.96059   2.96664   2.97056   2.97798
 Alpha virt. eigenvalues --    2.98075   2.98223   2.98623   2.99098   2.99398
 Alpha virt. eigenvalues --    3.00017   3.00340   3.01252   3.01420   3.01859
 Alpha virt. eigenvalues --    3.02831   3.03025   3.03671   3.04143   3.04693
 Alpha virt. eigenvalues --    3.05004   3.05750   3.05911   3.06365   3.06736
 Alpha virt. eigenvalues --    3.07221   3.07537   3.08060   3.08814   3.09039
 Alpha virt. eigenvalues --    3.09159   3.09545   3.10293   3.10774   3.11248
 Alpha virt. eigenvalues --    3.11854   3.12319   3.14622   3.14944   3.15514
 Alpha virt. eigenvalues --    3.15696   3.16053   3.17301   3.17498   3.19329
 Alpha virt. eigenvalues --    3.19655   3.20495   3.21174   3.21283   3.21392
 Alpha virt. eigenvalues --    3.22448   3.24112   3.24470   3.25848   3.26219
 Alpha virt. eigenvalues --    3.27813   3.28048   3.28508   3.29394   3.29536
 Alpha virt. eigenvalues --    3.30120   3.30854   3.31256   3.31609   3.32280
 Alpha virt. eigenvalues --    3.32986   3.33373   3.34241   3.34616   3.35050
 Alpha virt. eigenvalues --    3.35750   3.36354   3.37277   3.37959   3.38246
 Alpha virt. eigenvalues --    3.38385   3.38987   3.40385   3.41310   3.41351
 Alpha virt. eigenvalues --    3.42248   3.43427   3.43749   3.44599   3.45307
 Alpha virt. eigenvalues --    3.47122   3.47374   3.47687   3.48126   3.48128
 Alpha virt. eigenvalues --    3.49344   3.49898   3.50148   3.50187   3.50965
 Alpha virt. eigenvalues --    3.50989   3.51761   3.51947   3.52646   3.52724
 Alpha virt. eigenvalues --    3.53450   3.54092   3.55323   3.56678   3.57700
 Alpha virt. eigenvalues --    3.58114   3.58519   3.59185   3.59376   3.59596
 Alpha virt. eigenvalues --    3.60233   3.61015   3.64076   3.65435   3.67047
 Alpha virt. eigenvalues --    3.70169   3.70622   3.73160   3.73596   3.79354
 Alpha virt. eigenvalues --    3.84523   3.85103   3.95013   4.01619   4.07276
 Alpha virt. eigenvalues --    4.09872   4.17985   4.19334   4.21195   4.21807
 Alpha virt. eigenvalues --    4.23515   4.24583   4.25115   4.26000   4.28546
 Alpha virt. eigenvalues --    4.30519   4.30907   4.33073   4.33516   4.35743
 Alpha virt. eigenvalues --    4.36150   4.36811   4.37912   4.39254   4.41296
 Alpha virt. eigenvalues --    4.41356   4.42198   4.43700   4.44408   4.45766
 Alpha virt. eigenvalues --    4.46335   4.47815   4.48442   4.49436   4.50763
 Alpha virt. eigenvalues --    4.51903   4.53468   4.54483   4.55319   4.55572
 Alpha virt. eigenvalues --    4.56330   4.57342   4.58871   4.59162   4.59274
 Alpha virt. eigenvalues --    4.61597   4.61615   4.63751   4.64212   4.68504
 Alpha virt. eigenvalues --    4.70124   4.70331   4.70580   4.72332   4.74165
 Alpha virt. eigenvalues --    4.75356   4.76805   4.79376   4.79556   4.81457
 Alpha virt. eigenvalues --    4.84185   4.84425   4.84966   4.87415   4.90197
 Alpha virt. eigenvalues --    4.90279   4.95345   5.06025
          Condensed to atoms (all electrons):
 Mulliken charges:
               1
     1  Mg   0.827765
     2  C    0.089244
     3  C   -0.202725
     4  C   -0.188470
     5  C   -0.203918
     6  N   -0.665090
     7  C    0.332179
     8  C   -0.153812
     9  C   -0.154477
    10  C    0.363534
    11  C   -0.282792
    12  C   -0.160981
    13  C   -0.261137
    14  C    0.611162
    15  O   -0.456078
    16  O   -0.514906
    17  N   -0.693849
    18  C    0.337543
    19  C   -0.016236
    20  C    0.018105
    21  C    0.278337
    22  C   -0.360044
    23  C   -0.098464
    24  C   -0.228779
    25  N   -0.689066
    26  C    0.282630
    27  C    0.065224
    28  C   -0.005940
    29  C    0.315814
    30  C   -0.387505
    31  C   -0.203120
    32  C   -0.300527
    33  N   -0.715125
    34  C    0.283802
    35  C   -0.010429
    36  C    0.064868
    37  C    0.239582
    38  C   -0.376860
    39  C    0.340583
    40  O   -0.481976
    41  C   -0.338368
    42  C    0.633220
    43  O   -0.492321
    44  O   -0.477131
    45  C   -0.055349
    46  C   -0.008056
    47  C   -0.138050
    48  C    0.160111
    49  C   -0.327118
    50  C   -0.231374
    51  C   -0.183759
    52  C   -0.154389
    53  C   -0.051383
    54  C   -0.304015
    55  C   -0.180222
    56  C   -0.177508
    57  C   -0.165582
    58  C   -0.050679
    59  C   -0.308980
    60  C   -0.154878
    61  C   -0.177688
    62  C   -0.171566
    63  C   -0.034761
    64  C   -0.312758
    65  C   -0.300073
    66  H    0.070297
    67  H    0.087167
    68  H    0.086569
    69  H    0.112939
    70  H    0.094397
    71  H    0.105423
    72  H    0.102569
    73  H    0.137801
    74  H    0.066528
    75  H    0.119218
    76  H    0.131759
    77  H    0.140866
    78  H    0.118985
    79  H    0.107786
    80  H    0.122875
    81  H    0.111810
    82  H    0.105634
    83  H    0.126028
    84  H    0.128336
    85  H    0.113319
    86  H    0.095360
    87  H    0.089764
    88  H    0.109288
    89  H    0.096842
    90  H    0.120699
    91  H    0.119330
    92  H    0.131823
    93  H    0.149247
    94  H    0.118920
    95  H    0.167594
    96  H    0.122883
    97  H    0.129080
    98  H    0.118131
    99  H    0.133774
   100  H    0.113526
   101  H    0.087184
   102  H    0.120874
   103  H    0.101432
   104  H    0.116477
   105  H    0.082619
   106  H    0.105982
   107  H    0.091958
   108  H    0.103812
   109  H    0.064668
   110  H    0.068084
   111  H    0.067461
   112  H    0.106525
   113  H    0.075684
   114  H    0.110338
   115  H    0.107172
   116  H    0.089619
   117  H    0.106950
   118  H    0.072045
   119  H    0.045931
   120  H    0.095040
   121  H    0.086761
   122  H    0.099771
   123  H    0.090453
   124  H    0.099693
   125  H    0.089073
   126  H    0.069058
   127  H    0.106149
   128  H    0.071978
   129  H    0.102035
   130  H    0.094460
   131  H    0.056946
   132  H    0.110473
   133  H    0.104301
   134  H    0.078222
   135  H    0.082408
   136  H    0.105083
   137  H    0.091325
 Sum of Mulliken charges =   0.00000
 Mulliken charges with hydrogens summed into heavy atoms:
               1
     1  Mg   0.827765
     2  C    0.089244
     3  C   -0.132428
     4  C   -0.101303
     5  C   -0.117349
     6  N   -0.665090
     7  C    0.332179
     8  C   -0.040873
     9  C   -0.060081
    10  C    0.363534
    11  C    0.063001
    12  C    0.024764
    13  C    0.011488
    14  C    0.611162
    15  O   -0.456078
    16  O   -0.514906
    17  N   -0.693849
    18  C    0.337543
    19  C   -0.016236
    20  C    0.018105
    21  C    0.278337
    22  C   -0.010398
    23  C    0.013346
    24  C    0.002884
    25  N   -0.689066
    26  C    0.282630
    27  C    0.065224
    28  C   -0.005940
    29  C    0.315814
    30  C   -0.050490
    31  C   -0.004068
    32  C    0.036345
    33  N   -0.715125
    34  C    0.283802
    35  C   -0.010429
    36  C    0.064868
    37  C    0.239582
    38  C    0.023131
    39  C    0.340583
    40  O   -0.481976
    41  C   -0.170774
    42  C    0.633220
    43  O   -0.492321
    44  O   -0.477131
    45  C    0.314745
    46  C    0.239245
    47  C   -0.050866
    48  C    0.160111
    49  C    0.011665
    50  C   -0.042772
    51  C    0.012011
    52  C   -0.021637
    53  C    0.016077
    54  C   -0.011468
    55  C    0.016569
    56  C    0.001486
    57  C   -0.024610
    58  C    0.036082
    59  C   -0.019062
    60  C    0.003253
    61  C    0.000439
    62  C    0.024928
    63  C    0.022185
    64  C   -0.019763
    65  C   -0.021257
 Electronic spatial extent (au):  <R**2>=         179272.9729
 Charge=              0.0000 electrons
 Dipole moment (field-independent basis, Debye):
    X=              1.5675    Y=              6.0503    Z=             -0.3527  Tot=              6.2600
 Quadrupole moment (field-independent basis, Debye-Ang):
   XX=           -324.0597   YY=           -394.1265   ZZ=           -396.5440
   XY=            -23.8856   XZ=             12.9833   YZ=             -1.8110
 Traceless Quadrupole moment (field-independent basis, Debye-Ang):
   XX=             47.5170   YY=            -22.5497   ZZ=            -24.9673
   XY=            -23.8856   XZ=             12.9833   YZ=             -1.8110
 Octapole moment (field-independent basis, Debye-Ang**2):
  XXX=           -577.1797  YYY=            190.3395  ZZZ=              1.7538  XYY=            -57.3459
  XXY=            238.2505  XXZ=           -281.7465  XZZ=            -25.8225  YZZ=            -19.3014
  YYZ=             52.2035  XYZ=            -46.7097
 Hexadecapole moment (field-independent basis, Debye-Ang**3):
 XXXX=        -215477.1921 YYYY=         -17376.8870 ZZZZ=          -4432.2471 XXXY=           1505.3182
 XXXZ=           2122.3231 YYYX=          -1205.4606 YYYZ=           -148.0309 ZZZX=             37.3636
 ZZZY=           -120.1829 XXYY=         -39585.3031 XXZZ=         -38769.2542 YYZZ=          -3475.3089
 XXYZ=           -444.6849 YYXZ=              6.5994 ZZXY=             15.0899
 N-N= 8.744888194980D+03 E-N=-2.431268805621D+04  KE= 2.905439267403D+03
 1\1\GINC-PEDRO-RYZENSSD\SP\RCAM-B3LYP TD-FC\6-31G(d,p)\C55H72Mg1N4O5\P
 ADAWAN\03-Jul-2019\0\\# td=(NStates=1) CAM-B3LYP/6-31G(d,p)\\TD\\0,1\M
 g,0,-7.1192124942,0.5289916473,0.1666243498\C,0,-4.8309277108,-1.88090
 92693,0.6212886616\C,0,-4.7557955085,2.8539238397,1.1272990948\C,0,-9.
 4099957351,3.0856340589,-0.3180146612\C,0,-9.4788481985,-1.7103765487,
 -0.9605424833\N,0,-5.0180452291,0.5110909272,0.662326651\C,0,-4.292748
 981,-0.6405438764,0.8354215654\C,0,-2.9300420096,-0.2307324989,1.23155
 35096\C,0,-2.9907525137,1.1727099393,1.721552886\C,0,-4.3017171666,1.5
 796187107,1.1187689068\C,0,-2.9929943815,1.2488871768,3.2272641353\C,0
 ,-1.9458580468,-0.6140366651,0.1531692752\C,0,-0.4807254951,-0.5174560
 928,0.5488190112\C,0,0.4621373509,-0.6947129842,-0.6544608266\O,0,0.15
 52167618,-1.0450599136,-1.7517915109\O,0,1.732915102,-0.4042978262,-0.
 1997967686\N,0,-7.0654969976,2.6143170215,0.3173604315\C,0,-6.03054233
 32,3.3754585217,0.6988634199\C,0,-6.3999572488,4.7256468541,0.83318400
 56\C,0,-7.66842955,4.9077114026,0.3271511064\C,0,-8.1341676884,3.49380
 85762,0.0576983161\C,0,-5.2871466714,5.8676192278,1.2443491954\C,0,-8.
 5697947771,6.0326342971,0.186595645\C,0,-8.3934832396,7.2055366723,0.8
 211883686\N,0,-9.0615684294,0.5987527364,-0.5186859023\C,0,-9.84098035
 77,1.7332632794,-0.6623825624\C,0,-11.1873578324,1.4415024893,-1.19363
 10826\C,0,-11.2108034842,0.0813835025,-1.2791766317\C,0,-9.9363193126,
 -0.4265746318,-0.9614011562\C,0,-12.2994087646,2.3626168327,-1.5189986
 747\C,0,-12.3431988662,-0.7450319133,-1.8160524137\C,0,-12.4264301314,
 -1.053077719,-3.3168668053\N,0,-7.2216116295,-1.4666562792,-0.10802547
 95\C,0,-8.2010503448,-2.1889540675,-0.4983747927\C,0,-7.7617223178,-3.
 6180800755,-0.5625235297\C,0,-6.4458884729,-3.5808024172,-0.1408558175
 \C,0,-6.1495475512,-2.2050887902,0.1825010543\C,0,-8.5509825657,-4.820
 2048629,-0.8492534037\C,0,-5.3056850388,-4.3404579293,0.1869015628\O,0
 ,-5.0548943273,-5.5574302264,0.1065576865\C,0,-4.1952731067,-3.3117869
 685,0.6284127066\C,0,-3.6368143123,-3.6406292842,1.9489552684\O,0,-3.8
 454561462,-3.0775944956,3.0253552166\O,0,-2.9428554792,-4.8458393063,1
 .8531638973\C,0,-2.400130601,-5.246648894,3.1096058961\C,0,2.874289940
 7,-0.7808358782,-1.1810393043\C,0,4.2191240014,-0.4763058069,-0.602560
 405\C,0,5.1483283172,0.3589421596,-1.028622635\C,0,5.0419126143,1.1642
 190712,-2.3044646118\C,0,6.3447488077,0.3784396942,-0.2057170569\C,0,7
 .6177993178,-0.2622965766,-0.9933762881\C,0,8.92287416,-0.1593510655,-
 0.1759894117\C,0,10.2172323477,-0.5682138931,-0.9291838889\C,0,10.1184
 885491,-2.1421751536,-1.2523787029\C,0,11.4423971166,-0.2964734281,-0.
 0097201034\C,0,12.7974346512,-0.3809521463,-0.7623762605\C,0,13.986898
 1582,-0.1438655894,0.1134484123\C,0,15.2686929942,-0.1304567748,-0.604
 6887087\C,0,15.6462462935,-1.5568933231,-0.8505546732\C,0,16.352809386
 8,0.5842927893,0.2600705143\C,0,17.7457591653,0.5539467931,-0.24703051
 77\C,0,18.7087012396,1.2907572927,0.8038408171\C,0,20.2019488641,1.370
 7374072,0.233028066\C,0,20.4275241062,2.2486431615,-0.9553465274\C,0,2
 1.0381347443,1.8303859749,1.3735827217\H,0,-4.030464531,3.5503005515,1
 .460790666\H,0,-10.0996403567,3.9347643114,-0.4276481563\H,0,-10.32965
 6255,-2.5130206429,-1.4276994221\H,0,-2.6100774646,-0.9620645204,2.069
 227614\H,0,-2.0192655318,1.7703506177,1.3747981302\H,0,-1.9686113186,0
 .8801984727,3.511954909\H,0,-3.0684719072,2.3306071182,3.5122633917\H,
 0,-3.7581192546,0.6747921632,3.5862910419\H,0,-2.2394264275,-1.8455045
 109,-0.4530792171\H,0,-2.0407157441,-0.0264353931,-0.7690969493\H,0,-0
 .0518287003,0.4820728212,0.8926396631\H,0,-0.3393717392,-1.2813526505,
 1.2998739426\H,0,-5.6117499504,6.7550641505,1.0393996492\H,0,-5.111648
 1542,5.9469380569,2.3527015673\H,0,-4.264750431,5.7574569121,0.8692200
 976\H,0,-9.0414661991,5.9163377819,-0.8225624844\H,0,-9.094460662,7.87
 85385928,0.3182814499\H,0,-7.7729967655,7.4191983193,1.7338017657\H,0,
 -12.2708011852,2.9248828143,-2.4856915739\H,0,-13.3151511843,1.8269365
 849,-1.5526464561\H,0,-12.3123629674,3.2771263673,-0.687790023\H,0,-12
 .1349382722,-1.7306325084,-1.2832132762\H,0,-13.0290216211,-0.22232896
 97,-1.3578713146\H,0,-13.4419205447,-1.5787725635,-3.4396838529\H,0,-1
 2.5036339276,-0.2594304806,-3.9269061863\H,0,-11.6368999693,-1.6415690
 24,-3.6353121512\H,0,-8.7926288659,-4.6161923621,-1.8786611302\H,0,-8.
 0355229171,-5.7936693711,-0.6459042034\H,0,-9.5608859735,-4.8972947508
 ,-0.3163734599\H,0,-3.3836790638,-3.5874019909,-0.0901342849\H,0,-2.03
 72218887,-4.3410805478,3.544707386\H,0,-3.1981094195,-5.6703386515,3.6
 314059795\H,0,-1.7422823397,-5.8535246257,2.8448084337\H,0,2.517921096
 2,-1.7687787138,-1.4710310681\H,0,2.7762551031,-0.3313588563,-2.207523
 9046\H,0,4.3116920748,-0.862668482,0.4616493809\H,0,4.1394529088,0.955
 6642768,-2.649023272\H,0,5.4461500267,2.2976900279,-1.9309995682\H,0,5
 .9348907967,0.8562167292,-2.9953782688\H,0,6.8287649394,1.4072547255,-
 0.3476221194\H,0,6.2709012095,0.0407160342,0.9434340601\H,0,7.38373575
 83,-1.4091401492,-1.1697082944\H,0,7.7366461005,0.3665998681,-1.888841
 8078\H,0,9.0257646281,1.0022081058,0.101867819\H,0,9.0736858573,-0.652
 0407103,0.9365615199\H,0,10.085096061,0.0468272204,-1.9589007796\H,0,9
 .297524738,-2.4798659631,-1.9256984946\H,0,11.2843109868,-2.4051773016
 ,-1.6470089448\H,0,9.9279056766,-2.6626682088,-0.3436738071\H,0,11.528
 600541,0.6070329335,0.3653080183\H,0,11.5068937428,-0.9901849798,0.859
 5565773\H,0,12.87631095,-1.2820663678,-1.0398816558\H,0,12.8413278853,
 0.1138420752,-1.8075741187\H,0,13.6990513418,0.9944219982,0.4441317562
 \H,0,13.7245652096,-0.6803676415,1.0543619527\H,0,15.1241157001,0.3281
 623012,-1.6462289809\H,0,15.8192093638,-2.2759078829,0.0360321493\H,0,
 14.9582388746,-2.120104386,-1.5946168768\H,0,16.5096705965,-1.51802732
 76,-1.5434458141\H,0,16.0526104617,1.6635341871,0.4855150958\H,0,16.11
 11855658,0.2072115461,1.3730600672\H,0,18.2780187406,-0.3645129987,-0.
 3652898694\H,0,17.6942164861,1.2083981587,-1.2561991957\H,0,18.4711279
 054,2.2981139691,0.9848864939\H,0,18.702227383,0.3980639874,1.58046804
 71\H,0,20.376382551,0.222458394,-0.2221751535\H,0,20.0395580624,3.1972
 032822,-1.0651901124\H,0,21.5079550476,2.3160082536,-1.2207534386\H,0,
 19.8140853129,1.9227140822,-1.9033273017\H,0,20.8812641016,1.187606869
 8,2.3661262298\H,0,22.0963513414,1.9415153812,1.2891638827\H,0,20.7849
 982297,2.9106511484,1.6869591364\\Version=ES64L-G09RevD.01\State=1-A\H
 F=-2932.6117666\RMSD=4.804e-09\PG=C01 [X(C55H72Mg1N4O5)]\\@


 MY GROUP MEETINGS AREN'T VERY STRUCTURED.
     -- PROF. M. S. GORDON, OCT. 5, 1984
 Job cpu time:       0 days  6 hours 25 minutes 33.7 seconds.
 File lengths (MBytes):  RWF=   2106 Int=      0 D2E=      0 Chk=    163 Scr=      1
 Normal termination of Gaussian 09 at Wed Jul  3 03:20:38 2019.
