 Entering Gaussian System, Link 0=g16
 Input=Geometria-494-.com
 Output=Geometria-494-.log
 Initial command:
 /usr/local/g09/l1.exe "/home/padawan/israel-mol/chlorophyll-a/spectra/emi/Gau-32230.inp" -scrdir="/home/padawan/israel-mol/chlorophyll-a/spectra/emi/"
 Entering Link 1 = /usr/local/g09/l1.exe PID=     32232.
  
 Copyright (c) 1988,1990,1992,1993,1995,1998,2003,2009,2013,
            Gaussian, Inc.  All Rights Reserved.
  
 This is part of the Gaussian(R) 09 program.  It is based on
 the Gaussian(R) 03 system (copyright 2003, Gaussian, Inc.),
 the Gaussian(R) 98 system (copyright 1998, Gaussian, Inc.),
 the Gaussian(R) 94 system (copyright 1995, Gaussian, Inc.),
 the Gaussian 92(TM) system (copyright 1992, Gaussian, Inc.),
 the Gaussian 90(TM) system (copyright 1990, Gaussian, Inc.),
 the Gaussian 88(TM) system (copyright 1988, Gaussian, Inc.),
 the Gaussian 86(TM) system (copyright 1986, Carnegie Mellon
 University), and the Gaussian 82(TM) system (copyright 1983,
 Carnegie Mellon University). Gaussian is a federally registered
 trademark of Gaussian, Inc.
  
 This software contains proprietary and confidential information,
 including trade secrets, belonging to Gaussian, Inc.
  
 This software is provided under written license and may be
 used, copied, transmitted, or stored only in accord with that
 written license.
  
 The following legend is applicable only to US Government
 contracts under FAR:
  
                    RESTRICTED RIGHTS LEGEND
  
 Use, reproduction and disclosure by the US Government is
 subject to restrictions as set forth in subparagraphs (a)
 and (c) of the Commercial Computer Software - Restricted
 Rights clause in FAR 52.227-19.
  
 Gaussian, Inc.
 340 Quinnipiac St., Bldg. 40, Wallingford CT 06492
  
  
 ---------------------------------------------------------------
 Warning -- This program may not be used in any manner that
 competes with the business of Gaussian, Inc. or will provide
 assistance to any competitor of Gaussian, Inc.  The licensee
 of this program is prohibited from giving any competitor of
 Gaussian, Inc. access to this program.  By using this program,
 the user acknowledges that Gaussian, Inc. is engaged in the
 business of creating and licensing software in the field of
 computational chemistry and represents and warrants to the
 licensee that it is not a competitor of Gaussian, Inc. and that
 it will not use this program in any manner prohibited above.
 ---------------------------------------------------------------
  

 Cite this work as:
 Gaussian 09, Revision D.01,
 M. J. Frisch, G. W. Trucks, H. B. Schlegel, G. E. Scuseria, 
 M. A. Robb, J. R. Cheeseman, G. Scalmani, V. Barone, B. Mennucci, 
 G. A. Petersson, H. Nakatsuji, M. Caricato, X. Li, H. P. Hratchian, 
 A. F. Izmaylov, J. Bloino, G. Zheng, J. L. Sonnenberg, M. Hada, 
 M. Ehara, K. Toyota, R. Fukuda, J. Hasegawa, M. Ishida, T. Nakajima, 
 Y. Honda, O. Kitao, H. Nakai, T. Vreven, J. A. Montgomery, Jr., 
 J. E. Peralta, F. Ogliaro, M. Bearpark, J. J. Heyd, E. Brothers, 
 K. N. Kudin, V. N. Staroverov, T. Keith, R. Kobayashi, J. Normand, 
 K. Raghavachari, A. Rendell, J. C. Burant, S. S. Iyengar, J. Tomasi, 
 M. Cossi, N. Rega, J. M. Millam, M. Klene, J. E. Knox, J. B. Cross, 
 V. Bakken, C. Adamo, J. Jaramillo, R. Gomperts, R. E. Stratmann, 
 O. Yazyev, A. J. Austin, R. Cammi, C. Pomelli, J. W. Ochterski, 
 R. L. Martin, K. Morokuma, V. G. Zakrzewski, G. A. Voth, 
 P. Salvador, J. J. Dannenberg, S. Dapprich, A. D. Daniels, 
 O. Farkas, J. B. Foresman, J. V. Ortiz, J. Cioslowski, 
 and D. J. Fox, Gaussian, Inc., Wallingford CT, 2013.
 
 ******************************************
 Gaussian 09:  ES64L-G09RevD.01 24-Apr-2013
                 7-Jul-2019 
 ******************************************
 %nproc=4
 Will use up to    4 processors via shared memory.
 %Mem=2GB
 -------------------------------------
 # td=(NStates=1) CAM-B3LYP/6-31G(d,p)
 -------------------------------------
 1/38=1/1;
 2/12=2,17=6,18=5,40=1/2;
 3/5=1,6=6,7=101,11=9,16=1,25=1,30=1,74=-40/1,2,8,3;
 4//1;
 5/5=2,38=5/2;
 8/6=1,10=2,108=1/1;
 9/41=1,42=1,70=2/14;
 6/7=2,8=2,9=2,10=2/1;
 99/5=1,9=1/99;
 --
 TD
 --
 Symbolic Z-matrix:
 Charge =  0 Multiplicity = 1
 12                   -7.13788   0.61191  -0.04618 
 6                    -4.83662  -1.80906   0.45418 
 6                    -4.8686    2.89968   1.1376 
 6                    -9.55414   3.05145  -0.2383 
 6                    -9.51009  -1.72992  -0.79787 
 7                    -5.12511   0.52897   0.64415 
 6                    -4.29587  -0.61925   0.66276 
 6                    -2.92841  -0.33068   1.18591 
 6                    -2.95646   1.15681   1.55568 
 6                    -4.3984    1.58675   1.08792 
 6                    -3.04409   1.37524   3.07678 
 6                    -1.84128  -0.47093  -0.03483 
 6                    -0.36735  -0.48677   0.50439 
 6                     0.52764  -0.73272  -0.62918 
 8                     0.32921  -1.07056  -1.72714 
 8                     1.8564   -0.39498  -0.1602 
 7                    -7.13839   2.58686   0.26793 
 6                    -6.11067   3.37895   0.70076 
 6                    -6.50403   4.73851   0.71331 
 6                    -7.81858   4.75628   0.36306 
 6                    -8.23082   3.414     0.19362 
 6                    -5.59644   5.9383    1.15332 
 6                    -8.65896   5.99903   0.21012 
 6                    -8.52081   7.15575   0.82612 
 7                    -9.08937   0.5817   -0.55182 
 6                    -9.91271   1.78303  -0.65819 
 6                    -11.30789   1.39677  -0.93415 
 6                    -11.3212   0.03421  -1.10723 
 6                    -9.90897  -0.42917  -0.81719 
 6                    -12.37853   2.30433  -1.20695 
 6                    -12.44232  -0.77442  -1.65633 
 6                    -12.27062  -1.27707  -3.18197 
 7                    -7.16858  -1.32902  -0.21524 
 6                    -8.2477   -2.25528  -0.51694 
 6                    -7.70573  -3.52217  -0.44504 
 6                    -6.46705  -3.54474   0.00908 
 6                    -6.18348  -2.08188   0.12661 
 6                    -8.53601  -4.71539  -0.72766 
 6                    -5.22187  -4.28184   0.13449 
 8                    -5.07424  -5.4727    0.01714 
 6                    -4.16648  -3.19188   0.55098 
 6                    -3.54031  -3.58704   1.87341 
 8                    -3.82174  -3.03315   2.8421 
 8                    -2.71784  -4.71048   1.70261 
 6                    -2.39059  -5.22243   3.05431 
 6                     2.83296  -0.70304  -1.19176 
 6                     4.23843  -0.64552  -0.61512 
 6                     5.16117   0.24604  -0.98308 
 6                     5.11991   1.03842  -2.23665 
 6                     6.42349   0.36587  -0.28435 
 6                     7.74278  -0.09958  -1.10022 
 6                     9.01577  -0.05764  -0.13968 
 6                     10.32933  -0.59392  -0.81397 
 6                     10.18231  -1.99975  -1.31842 
 6                     11.46953  -0.40313   0.09549 
 6                     12.78421  -0.61593  -0.68153 
 6                     14.00608  -0.19738   0.18109 
 6                     15.33944  -0.2465   -0.38027 
 6                     15.74267  -1.639    -0.85358 
 6                     16.39358   0.45391   0.44823 
 6                     17.72425   0.5652   -0.12333 
 6                     18.76694   1.24581   0.77242 
 6                     20.24404   1.33663   0.22904 
 6                     20.39745   2.16747  -1.0891 
 6                     21.1032   1.87798   1.33256 
 1                    -4.12904   3.7593    1.53329 
 1                    -10.40748   3.66577  -0.18884 
 1                    -10.28236  -2.65913  -0.82536 
 1                    -2.48741  -0.92467   2.16687 
 1                    -2.20682   1.88342   1.37953 
 1                    -2.03262   0.88034   3.36593 
 1                    -3.03688   2.44064   3.21526 
 1                    -3.77165   0.78746   3.50436 
 1                    -1.91447  -1.44561  -0.58741 
 1                    -1.84902   0.30595  -0.81562 
 1                    -0.22224   0.53624   1.01948 
 1                    -0.27933  -1.3684    1.16582 
 1                    -5.91225   6.90653   0.78011 
 1                    -5.50655   6.06971   2.08636 
 1                    -4.31694   5.75509   0.74912 
 1                    -9.52376   6.01162  -0.45428 
 1                    -9.28181   8.10522   0.76759 
 1                    -7.62921   7.37213   1.46033 
 1                    -12.24013   2.84374  -2.06937 
 1                    -13.3072   1.87571  -1.18391 
 1                    -12.47271   3.12509  -0.35601 
 1                    -12.56921  -1.67465  -1.09942 
 1                    -13.47075  -0.1019   -1.56325 
 1                    -13.09774  -1.92427  -3.28207 
 1                    -12.38578  -0.40543  -4.00518 
 1                    -11.35438  -2.06371  -3.07325 
 1                    -8.86302  -4.70133  -1.72605 
 1                    -8.08006  -5.67824  -0.41319 
 1                    -9.4492   -4.73957   0.00971 
 1                    -3.49632  -3.35274  -0.21123 
 1                    -1.81221  -4.39205   3.5042 
 1                    -3.32563  -5.32865   3.5721 
 1                    -1.93155  -6.21729   2.77722 
 1                     2.69278  -1.75076  -1.66714 
 1                     2.80285   0.08598  -1.94946 
 1                     4.29765  -1.16783   0.3013 
 1                     4.18078   1.07744  -2.98324 
 1                     5.23835   2.21928  -1.7508 
 1                     5.95522   0.79478  -2.96527 
 1                     6.69486   1.39412  -0.10039 
 1                     6.39723  -0.15335   0.58719 
 1                     7.65666  -1.02079  -1.62974 
 1                     7.89969   0.68453  -1.86586 
 1                     8.97085   0.93183   0.32279 
 1                     8.75762  -0.75659   0.71582 
 1                     10.29148   0.14898  -1.52714 
 1                     9.35275  -2.0473   -2.12985 
 1                     11.04504  -2.1847   -1.85377 
 1                     9.99552  -2.60051  -0.54542 
 1                     11.25151   0.62664   0.50652 
 1                     11.35284  -1.25101   0.87539 
 1                     12.95791  -1.64446  -1.19534 
 1                     12.58961   0.06428  -1.64138 
 1                     13.81708   0.82565   0.28311 
 1                     13.99432  -0.70171   1.10015 
 1                     15.2699   0.4472   -1.20958 
 1                     15.8407  -2.41017  -0.08074 
 1                     14.88273  -2.12404  -1.36818 
 1                     16.49868  -1.51434  -1.36302 
 1                     16.04228   1.34701   0.91707 
 1                     16.44096  -0.0013    1.5159 
 1                     18.1579  -0.45382  -0.38951 
 1                     17.47973   1.20684  -0.93836 
 1                     18.53517   2.13417   1.19314 
 1                     18.82022   0.55916   1.64482 
 1                     20.51051   0.31738  -0.03987 
 1                     20.143    3.34436  -0.88175 
 1                     21.3531   2.07858  -1.43087 
 1                     19.85504   1.81064  -1.88945 
 1                     21.20359   1.21008   1.95815 
 1                     22.0245   2.2421    0.99627 
 1                     20.72895   2.84647   1.76084 
 
 Stoichiometry    C55H72MgN4O5
 Framework group  C1[X(C55H72MgN4O5)]
 Deg. of freedom   405
 Full point group                 C1      NOp   1
 Largest Abelian subgroup         C1      NOp   1
 Largest concise Abelian subgroup C1      NOp   1
                         Standard orientation:                         
 ---------------------------------------------------------------------
 Center     Atomic      Atomic             Coordinates (Angstroms)
 Number     Number       Type             X           Y           Z
 ---------------------------------------------------------------------
      1         12           0       -7.137999    0.598749   -0.065174
      2          6           0       -4.833399   -1.811466    0.470525
      3          6           0       -4.873631    2.906092    1.089679
      4          6           0       -9.557946    3.031545   -0.293034
      5          6           0       -9.505659   -1.756928   -0.787350
      6          7           0       -5.125825    0.528472    0.628319
      7          6           0       -4.294775   -0.618053    0.663437
      8          6           0       -2.928337   -0.320178    1.184024
      9          6           0       -2.959155    1.172166    1.533457
     10          6           0       -4.401280    1.593368    1.058381
     11          6           0       -3.048751    1.411161    3.051350
     12          6           0       -1.839683   -0.475294   -0.033558
     13          6           0       -0.366310   -0.481409    0.507366
     14          6           0        0.530284   -0.741331   -0.621818
     15          8           0        0.333562   -1.094425   -1.715279
     16          8           0        1.857997   -0.395090   -0.156105
     17          7           0       -7.142000    2.577796    0.221986
     18          6           0       -6.116004    3.377361    0.645060
     19          6           0       -6.511547    4.736329    0.638671
     20          6           0       -7.825758    4.747203    0.286846
     21          6           0       -8.235664    3.402080    0.135281
     22          6           0       -5.606345    5.943464    1.063233
     23          6           0       -8.667960    5.986401    0.116103
     24          6           0       -8.532306    7.151629    0.716428
     25          7           0       -9.088897    0.558505   -0.572388
     26          6           0       -9.914039    1.756942   -0.695979
     27          6           0      -11.308308    1.364708   -0.968095
     28          6           0      -11.319260   -0.000103   -1.122609
     29          6           0       -9.906592   -0.457213   -0.824809
     30          6           0      -12.380103    2.266742   -1.254354
     31          6           0      -12.438496   -0.817950   -1.661803
     32          6           0      -12.264377   -1.341059   -3.180279
     33          7           0       -7.165408   -1.344354   -0.207800
     34          6           0       -8.242724   -2.276376   -0.497973
     35          6           0       -7.698808   -3.541293   -0.408257
     36          6           0       -6.460580   -3.555674    0.047419
     37          6           0       -6.179475   -2.090890    0.145295
     38          6           0       -8.526883   -4.739595   -0.675454
     39          6           0       -5.214354   -4.288991    0.184155
     40          8           0       -5.064695   -5.481099    0.083200
     41          6           0       -4.161154   -3.191759    0.586860
     42          6           0       -3.535764   -3.567852    1.915196
     43          8           0       -3.819107   -3.001265    2.875954
     44          8           0       -2.711316   -4.692179    1.760579
     45          6           0       -2.384682   -5.185136    3.119471
     46          6           0        2.836142   -0.715602   -1.182352
     47          6           0        4.240905   -0.647969   -0.605088
     48          6           0        5.162613    0.239986   -0.984199
     49          6           0        5.121419    1.015140   -2.248492
     50          6           0        6.423993    0.371359   -0.285860
     51          6           0        7.744897   -0.103035   -1.093930
     52          6           0        9.016799   -0.045958   -0.132725
     53          6           0       10.331930   -0.589252   -0.798283
     54          6           0       10.187695   -2.002065   -1.283674
     55          6           0       11.470853   -0.384257    0.109682
     56          6           0       12.786700   -0.605495   -0.662996
     57          6           0       14.006979   -0.173266    0.195105
     58          6           0       15.341011   -0.227877   -0.364136
     59          6           0       15.746966   -1.626048   -0.818015
     60          6           0       16.393153    0.485454    0.455835
     61          6           0       17.724243    0.591091   -0.115801
     62          6           0       18.764891    1.285528    0.771672
     63          6           0       20.242427    1.371319    0.228643
     64          6           0       20.395907    2.184359   -1.100534
     65          6           0       21.099545    1.929037    1.325578
     66          1           0       -4.135875    3.772218    1.474386
     67          1           0      -10.412320    3.645101   -0.252846
     68          1           0      -10.276413   -2.687667   -0.802981
     69          1           0       -2.487424   -0.900033    2.173444
     70          1           0       -2.210496    1.897520    1.348205
     71          1           0       -2.036797    0.921878    3.348271
     72          1           0       -3.043391    2.478358    3.175311
     73          1           0       -3.775826    0.828093    3.486146
     74          1           0       -1.910734   -1.457532   -0.572883
     75          1           0       -1.847834    0.290862   -0.824872
     76          1           0       -0.223375    0.548759    1.008616
     77          1           0       -0.277575   -1.353800    1.180836
     78          1           0       -5.923308    6.906011    0.676538
     79          1           0       -5.517657    6.087723    1.994493
     80          1           0       -4.326123    5.756828    0.662897
     81          1           0       -9.532073    5.988539   -0.549300
     82          1           0       -9.294764    8.098985    0.644170
     83          1           0       -7.641734    7.378070    1.348563
     84          1           0      -12.241651    2.794577   -2.123902
     85          1           0      -13.308115    1.836979   -1.226444
     86          1           0      -12.476502    3.098867   -0.414775
     87          1           0      -12.564542   -1.710704   -1.092818
     88          1           0      -13.468095   -0.145876   -1.578972
     89          1           0      -13.090346   -1.990893   -3.272406
     90          1           0      -12.380053   -0.480898   -4.015410
     91          1           0      -11.346994   -2.124667   -3.059888
     92          1           0       -8.852848   -4.739663   -1.674277
     93          1           0       -8.069725   -5.697327   -0.347417
     94          1           0       -9.440820   -4.755193    0.061227
     95          1           0       -3.489928   -3.361902   -0.172390
     96          1           0       -1.808108   -4.347770    3.558608
     97          1           0       -3.320103   -5.285807    3.637687
     98          1           0       -1.923759   -6.182942    2.856443
     99          1           0        2.698146   -1.769926   -1.643556
    100          1           0        2.805578    0.062972   -1.950762
    101          1           0        4.299991   -1.157643    0.318431
    102          1           0        4.183019    1.042469   -2.996521
    103          1           0        5.237454    2.202705   -1.778660
    104          1           0        5.957894    0.762946   -2.972852
    105          1           0        6.693529    1.402461   -0.115639
    106          1           0        6.397644   -0.135982    0.592650
    107          1           0        7.660814   -1.031513   -1.610944
    108          1           0        7.901368    0.670824   -1.870022
    109          1           0        8.969801    0.949649    0.316168
    110          1           0        8.758858   -0.733603    0.731947
    111          1           0       10.293644    0.143793   -1.521544
    112          1           0        9.359071   -2.062006   -2.095248
    113          1           0       11.051281   -2.192895   -1.815560
    114          1           0       10.001042   -2.592538   -0.502763
    115          1           0       11.250753    0.650674    0.506415
    116          1           0       11.354688   -1.221616    0.900940
    117          1           0       12.962586   -1.640656   -1.162560
    118          1           0       12.592033    0.061251   -1.632227
    119          1           0       13.816238    0.850749    0.282979
    120          1           0       13.995050   -0.665044    1.120941
    121          1           0       15.271244    0.454349   -1.202894
    122          1           0       15.845412   -2.386456   -0.034631
    123          1           0       14.888355   -2.119444   -1.326852
    124          1           0       16.503320   -1.507117   -1.328312
    125          1           0       16.039923    1.384295    0.912094
    126          1           0       16.440120    0.044912    1.529662
    127          1           0       18.159804   -0.430761   -0.367622
    128          1           0       17.479562    1.221171   -0.939752
    129          1           0       18.531262    2.179158    1.180005
    130          1           0       18.818344    0.610913    1.653410
    131          1           0       20.510804    0.348925   -0.026070
    132          1           0       20.139354    3.363556   -0.909508
    133          1           0       21.352059    2.092372   -1.440071
    134          1           0       19.854918    1.815791   -1.896507
    135          1           0       21.200333    1.269884    1.960312
    136          1           0       22.020622    2.290021    0.985322
    137          1           0       20.723294    2.902672    1.740228
 ---------------------------------------------------------------------
 Rotational constants (GHZ):      0.0661960      0.0060709      0.0057228
 Standard basis: 6-31G(d,p) (6D, 7F)
 There are  1339 symmetry adapted cartesian basis functions of A   symmetry.
 There are  1339 symmetry adapted basis functions of A   symmetry.
  1339 basis functions,  2348 primitive gaussians,  1339 cartesian basis functions
   241 alpha electrons      241 beta electrons
       nuclear repulsion energy      8773.9875781071 Hartrees.
 NAtoms=  137 NActive=  137 NUniq=  137 SFac= 1.00D+00 NAtFMM=   60 NAOKFM=T Big=T
 Integral buffers will be    131072 words long.
 Raffenetti 1 integral format.
 Two-electron integral symmetry is turned on.
 One-electron integrals computed using PRISM.
 NBasis=  1339 RedAO= T EigKep=  2.79D-04  NBF=  1339
 NBsUse=  1339 1.00D-06 EigRej= -1.00D+00 NBFU=  1339
 ExpMin= 4.21D-02 ExpMax= 1.17D+04 ExpMxC= 1.76D+03 IAcc=2 IRadAn=         4 AccDes= 0.00D+00
 Harris functional with IExCor=20419 and IRadAn=       4 diagonalized for initial guess.
 HarFok:  IExCor=20419 AccDes= 0.00D+00 IRadAn=         4 IDoV= 1 UseB2=F ITyADJ=14
 ICtDFT=  3500011 ScaDFX=  1.000000  1.000000  1.000000  1.000000
 FoFCou: FMM=F IPFlag=           0 FMFlag=      100000 FMFlg1=        2001
         NFxFlg=           0 DoJE=T BraDBF=F KetDBF=T FulRan=T
         wScrn=  0.000000 ICntrl=     500 IOpCl=  0 I1Cent=   200000004 NGrid=           0
         NMat0=    1 NMatS0=      1 NMatT0=    0 NMatD0=    1 NMtDS0=    0 NMtDT0=    0
 Petite list used in FoFCou.
 Requested convergence on RMS density matrix=1.00D-08 within 128 cycles.
 Requested convergence on MAX density matrix=1.00D-06.
 Requested convergence on             energy=1.00D-06.
 No special actions if energy rises.
 SCF Done:  E(RCAM-B3LYP) =  -2932.65540970     A.U. after   15 cycles
            NFock= 15  Conv=0.86D-08     -V/T= 2.0085
 DoSCS=F DFT=T ScalE2(SS,OS)=  1.000000  1.000000
 ExpMin= 4.21D-02 ExpMax= 1.17D+04 ExpMxC= 1.76D+03 IAcc=3 IRadAn=         5 AccDes= 0.00D+00
 HarFok:  IExCor=  205 AccDes= 0.00D+00 IRadAn=         5 IDoV=-2 UseB2=F ITyADJ=14
 ICtDFT= 12500011 ScaDFX=  1.000000  1.000000  1.000000  1.000000
 Range of M.O.s used for correlation:    70  1339
 NBasis=  1339 NAE=   241 NBE=   241 NFC=    69 NFV=     0
 NROrb=   1270 NOA=   172 NOB=   172 NVA=  1098 NVB=  1098
 Would need an additional       2415464100000 words for in-memory AO integral storage.
 Orbital symmetries:
       Occupied  (A) (A) (A) (A) (A) (A) (A) (A) (A) (A) (A) (A)
                 (A) (A) (A) (A) (A) (A) (A) (A) (A) (A) (A) (A)
                 (A) (A) (A) (A) (A) (A) (A) (A) (A) (A) (A) (A)
                 (A) (A) (A) (A) (A) (A) (A) (A) (A) (A) (A) (A)
                 (A) (A) (A) (A) (A) (A) (A) (A) (A) (A) (A) (A)
                 (A) (A) (A) (A) (A) (A) (A) (A) (A) (A) (A) (A)
                 (A) (A) (A) (A) (A) (A) (A) (A) (A) (A) (A) (A)
                 (A) (A) (A) (A) (A) (A) (A) (A) (A) (A) (A) (A)
                 (A) (A) (A) (A) (A) (A) (A) (A) (A) (A) (A) (A)
                 (A) (A) (A) (A) (A) (A) (A) (A) (A) (A) (A) (A)
                 (A) (A) (A) (A) (A) (A) (A) (A) (A) (A) (A) (A)
                 (A) (A) (A) (A) (A) (A) (A) (A) (A) (A) (A) (A)
                 (A) (A) (A) (A) (A) (A) (A) (A) (A) (A) (A) (A)
                 (A) (A) (A) (A) (A) (A) (A) (A) (A) (A) (A) (A)
                 (A) (A) (A) (A) (A) (A) (A) (A) (A) (A) (A) (A)
                 (A) (A) (A) (A) (A) (A) (A) (A) (A) (A) (A) (A)
                 (A) (A) (A) (A) (A) (A) (A) (A) (A) (A) (A) (A)
                 (A) (A) (A) (A) (A) (A) (A) (A) (A) (A) (A) (A)
                 (A) (A) (A) (A) (A) (A) (A) (A) (A) (A) (A) (A)
                 (A) (A) (A) (A) (A) (A) (A) (A) (A) (A) (A) (A)
                 (A)
       Virtual   (A) (A) (A) (A) (A) (A) (A) (A) (A) (A) (A) (A)
                 (A) (A) (A) (A) (A) (A) (A) (A) (A) (A) (A) (A)
                 (A) (A) (A) (A) (A) (A) (A) (A) (A) (A) (A) (A)
                 (A) (A) (A) (A) (A) (A) (A) (A) (A) (A) (A) (A)
                 (A) (A) (A) (A) (A) (A) (A) (A) (A) (A) (A) (A)
                 (A) (A) (A) (A) (A) (A) (A) (A) (A) (A) (A) (A)
                 (A) (A) (A) (A) (A) (A) (A) (A) (A) (A) (A) (A)
                 (A) (A) (A) (A) (A) (A) (A) (A) (A) (A) (A) (A)
                 (A) (A) (A) (A) (A) (A) (A) (A) (A) (A) (A) (A)
                 (A) (A) (A) (A) (A) (A) (A) (A) (A) (A) (A) (A)
                 (A) (A) (A) (A) (A) (A) (A) (A) (A) (A) (A) (A)
                 (A) (A) (A) (A) (A) (A) (A) (A) (A) (A) (A) (A)
                 (A) (A) (A) (A) (A) (A) (A) (A) (A) (A) (A) (A)
                 (A) (A) (A) (A) (A) (A) (A) (A) (A) (A) (A) (A)
                 (A) (A) (A) (A) (A) (A) (A) (A) (A) (A) (A) (A)
                 (A) (A) (A) (A) (A) (A) (A) (A) (A) (A) (A) (A)
                 (A) (A) (A) (A) (A) (A) (A) (A) (A) (A) (A) (A)
                 (A) (A) (A) (A) (A) (A) (A) (A) (A) (A) (A) (A)
                 (A) (A) (A) (A) (A) (A) (A) (A) (A) (A) (A) (A)
                 (A) (A) (A) (A) (A) (A) (A) (A) (A) (A) (A) (A)
                 (A) (A) (A) (A) (A) (A) (A) (A) (A) (A) (A) (A)
                 (A) (A) (A) (A) (A) (A) (A) (A) (A) (A) (A) (A)
                 (A) (A) (A) (A) (A) (A) (A) (A) (A) (A) (A) (A)
                 (A) (A) (A) (A) (A) (A) (A) (A) (A) (A) (A) (A)
                 (A) (A) (A) (A) (A) (A) (A) (A) (A) (A) (A) (A)
                 (A) (A) (A) (A) (A) (A) (A) (A) (A) (A) (A) (A)
                 (A) (A) (A) (A) (A) (A) (A) (A) (A) (A) (A) (A)
                 (A) (A) (A) (A) (A) (A) (A) (A) (A) (A) (A) (A)
                 (A) (A) (A) (A) (A) (A) (A) (A) (A) (A) (A) (A)
                 (A) (A) (A) (A) (A) (A) (A) (A) (A) (A) (A) (A)
                 (A) (A) (A) (A) (A) (A) (A) (A) (A) (A) (A) (A)
                 (A) (A) (A) (A) (A) (A) (A) (A) (A) (A) (A) (A)
                 (A) (A) (A) (A) (A) (A) (A) (A) (A) (A) (A) (A)
                 (A) (A) (A) (A) (A) (A) (A) (A) (A) (A) (A) (A)
                 (A) (A) (A) (A) (A) (A) (A) (A) (A) (A) (A) (A)
                 (A) (A) (A) (A) (A) (A) (A) (A) (A) (A) (A) (A)
                 (A) (A) (A) (A) (A) (A) (A) (A) (A) (A) (A) (A)
                 (A) (A) (A) (A) (A) (A) (A) (A) (A) (A) (A) (A)
                 (A) (A) (A) (A) (A) (A) (A) (A) (A) (A) (A) (A)
                 (A) (A) (A) (A) (A) (A) (A) (A) (A) (A) (A) (A)
                 (A) (A) (A) (A) (A) (A) (A) (A) (A) (A) (A) (A)
                 (A) (A) (A) (A) (A) (A) (A) (A) (A) (A) (A) (A)
                 (A) (A) (A) (A) (A) (A) (A) (A) (A) (A) (A) (A)
                 (A) (A) (A) (A) (A) (A) (A) (A) (A) (A) (A) (A)
                 (A) (A) (A) (A) (A) (A) (A) (A) (A) (A) (A) (A)
                 (A) (A) (A) (A) (A) (A) (A) (A) (A) (A) (A) (A)
                 (A) (A) (A) (A) (A) (A) (A) (A) (A) (A) (A) (A)
                 (A) (A) (A) (A) (A) (A) (A) (A) (A) (A) (A) (A)
                 (A) (A) (A) (A) (A) (A) (A) (A) (A) (A) (A) (A)
                 (A) (A) (A) (A) (A) (A) (A) (A) (A) (A) (A) (A)
                 (A) (A) (A) (A) (A) (A) (A) (A) (A) (A) (A) (A)
                 (A) (A) (A) (A) (A) (A) (A) (A) (A) (A) (A) (A)
                 (A) (A) (A) (A) (A) (A) (A) (A) (A) (A) (A) (A)
                 (A) (A) (A) (A) (A) (A) (A) (A) (A) (A) (A) (A)
                 (A) (A) (A) (A) (A) (A) (A) (A) (A) (A) (A) (A)
                 (A) (A) (A) (A) (A) (A) (A) (A) (A) (A) (A) (A)
                 (A) (A) (A) (A) (A) (A) (A) (A) (A) (A) (A) (A)
                 (A) (A) (A) (A) (A) (A) (A) (A) (A) (A) (A) (A)
                 (A) (A) (A) (A) (A) (A) (A) (A) (A) (A) (A) (A)
                 (A) (A) (A) (A) (A) (A) (A) (A) (A) (A) (A) (A)
                 (A) (A) (A) (A) (A) (A) (A) (A) (A) (A) (A) (A)
                 (A) (A) (A) (A) (A) (A) (A) (A) (A) (A) (A) (A)
                 (A) (A) (A) (A) (A) (A) (A) (A) (A) (A) (A) (A)
                 (A) (A) (A) (A) (A) (A) (A) (A) (A) (A) (A) (A)
                 (A) (A) (A) (A) (A) (A) (A) (A) (A) (A) (A) (A)
                 (A) (A) (A) (A) (A) (A) (A) (A) (A) (A) (A) (A)
                 (A) (A) (A) (A) (A) (A) (A) (A) (A) (A) (A) (A)
                 (A) (A) (A) (A) (A) (A) (A) (A) (A) (A) (A) (A)
                 (A) (A) (A) (A) (A) (A) (A) (A) (A) (A) (A) (A)
                 (A) (A) (A) (A) (A) (A) (A) (A) (A) (A) (A) (A)
                 (A) (A) (A) (A) (A) (A) (A) (A) (A) (A) (A) (A)
                 (A) (A) (A) (A) (A) (A) (A) (A) (A) (A) (A) (A)
                 (A) (A) (A) (A) (A) (A) (A) (A) (A) (A) (A) (A)
                 (A) (A) (A) (A) (A) (A) (A) (A) (A) (A) (A) (A)
                 (A) (A) (A) (A) (A) (A) (A) (A) (A) (A) (A) (A)
                 (A) (A) (A) (A) (A) (A) (A) (A) (A) (A) (A) (A)
                 (A) (A) (A) (A) (A) (A) (A) (A) (A) (A) (A) (A)
                 (A) (A) (A) (A) (A) (A) (A) (A) (A) (A) (A) (A)
                 (A) (A) (A) (A) (A) (A) (A) (A) (A) (A) (A) (A)
                 (A) (A) (A) (A) (A) (A) (A) (A) (A) (A) (A) (A)
                 (A) (A) (A) (A) (A) (A) (A) (A) (A) (A) (A) (A)
                 (A) (A) (A) (A) (A) (A) (A) (A) (A) (A) (A) (A)
                 (A) (A) (A) (A) (A) (A) (A) (A) (A) (A) (A) (A)
                 (A) (A) (A) (A) (A) (A) (A) (A) (A) (A) (A) (A)
                 (A) (A) (A) (A) (A) (A) (A) (A) (A) (A) (A) (A)
                 (A) (A) (A) (A) (A) (A) (A) (A) (A) (A) (A) (A)
                 (A) (A) (A) (A) (A) (A) (A) (A) (A) (A) (A) (A)
                 (A) (A) (A) (A) (A) (A) (A) (A) (A) (A) (A) (A)
                 (A) (A) (A) (A) (A) (A) (A) (A) (A) (A) (A) (A)
                 (A) (A) (A) (A) (A) (A) (A) (A) (A) (A) (A) (A)
                 (A) (A) (A) (A) (A) (A) (A) (A) (A) (A) (A) (A)
                 (A) (A) (A) (A) (A) (A)
     8 initial guesses have been made.
 Convergence on wavefunction:    0.001000000000000
 Iteration     1 Dimension     8 NMult     0 NNew      8
 CISAX will form     8 AO SS matrices at one time.
 Iteration     2 Dimension    12 NMult     8 NNew      4
 Iteration     3 Dimension    16 NMult    12 NNew      4
 Iteration     4 Dimension    20 NMult    16 NNew      4
 Iteration     5 Dimension    24 NMult    20 NNew      4
 Iteration     6 Dimension    28 NMult    24 NNew      4
 ***********************************************************************
 Excited states from <AA,BB:AA,BB> singles matrix:
 ***********************************************************************
 
 Ground to excited state transition densities written to RWF  633
 Ground to excited state transition electric dipole moments (Au):
       state          X           Y           Z        Dip. S.      Osc.
         1         0.4201      2.4305      0.3469      6.2041      0.2885
 Ground to excited state transition velocity dipole moments (Au):
       state          X           Y           Z        Dip. S.      Osc.
         1        -0.0265     -0.1649     -0.0244      0.0285      0.2723
 Ground to excited state transition magnetic dipole moments (Au):
       state          X           Y           Z
         1        -0.4461     -0.4825      3.6776
 Ground to excited state transition velocity quadrupole moments (Au):
       state          XX          YY          ZZ          XY          XZ          YZ
         1         0.7429     -0.2939     -0.0365      2.0635      0.2988     -0.1582
 <0|del|b> * <b|rxdel|0> + <0|del|b> * <b|delr+rdel|0>
 Rotatory Strengths (R) in cgs (10**-40 erg-esu-cm/Gauss)
       state          XX          YY          ZZ    R(velocity)    E-M Angle
         1       -58.1169   -118.9019    192.1311      5.0374       89.86
 1/2[<0|r|b>*<b|rxdel|0> + (<0|rxdel|b>*<b|r|0>)*]
 Rotatory Strengths (R) in cgs (10**-40 erg-esu-cm/Gauss)
       state          XX          YY          ZZ     R(length)
         1       132.5284    829.3042   -902.0813     19.9171
  1/2[<0|del|b>*<b|r|0> + (<0|r|b>*<b|del|0>)*] (Au)
       state          X           Y           Z        Dip. S.   Osc.(frdel)
         1        -0.0111     -0.4008     -0.0085      0.4204      0.2803

 Excitation energies and oscillator strengths:
 
 Excited State   1:      Singlet-A      1.8983 eV  653.12 nm  f=0.2885  <S**2>=0.000
     240 -> 243        0.19364
     241 -> 242        0.67702
 This state for optimization and/or second-order correction.
 Total Energy, E(TD-HF/TD-KS) =  -2932.58564726    
 Copying the excited state density for this state as the 1-particle RhoCI density.
 SavETr:  write IOETrn=   770 NScale= 10 NData=  16 NLR=1 NState=    1 LETran=      28.

 **********************************************************************

            Population analysis using the SCF density.

 **********************************************************************

 Orbital symmetries:
       Occupied  (A) (A) (A) (A) (A) (A) (A) (A) (A) (A) (A) (A)
                 (A) (A) (A) (A) (A) (A) (A) (A) (A) (A) (A) (A)
                 (A) (A) (A) (A) (A) (A) (A) (A) (A) (A) (A) (A)
                 (A) (A) (A) (A) (A) (A) (A) (A) (A) (A) (A) (A)
                 (A) (A) (A) (A) (A) (A) (A) (A) (A) (A) (A) (A)
                 (A) (A) (A) (A) (A) (A) (A) (A) (A) (A) (A) (A)
                 (A) (A) (A) (A) (A) (A) (A) (A) (A) (A) (A) (A)
                 (A) (A) (A) (A) (A) (A) (A) (A) (A) (A) (A) (A)
                 (A) (A) (A) (A) (A) (A) (A) (A) (A) (A) (A) (A)
                 (A) (A) (A) (A) (A) (A) (A) (A) (A) (A) (A) (A)
                 (A) (A) (A) (A) (A) (A) (A) (A) (A) (A) (A) (A)
                 (A) (A) (A) (A) (A) (A) (A) (A) (A) (A) (A) (A)
                 (A) (A) (A) (A) (A) (A) (A) (A) (A) (A) (A) (A)
                 (A) (A) (A) (A) (A) (A) (A) (A) (A) (A) (A) (A)
                 (A) (A) (A) (A) (A) (A) (A) (A) (A) (A) (A) (A)
                 (A) (A) (A) (A) (A) (A) (A) (A) (A) (A) (A) (A)
                 (A) (A) (A) (A) (A) (A) (A) (A) (A) (A) (A) (A)
                 (A) (A) (A) (A) (A) (A) (A) (A) (A) (A) (A) (A)
                 (A) (A) (A) (A) (A) (A) (A) (A) (A) (A) (A) (A)
                 (A) (A) (A) (A) (A) (A) (A) (A) (A) (A) (A) (A)
                 (A)
       Virtual   (A) (A) (A) (A) (A) (A) (A) (A) (A) (A) (A) (A)
                 (A) (A) (A) (A) (A) (A) (A) (A) (A) (A) (A) (A)
                 (A) (A) (A) (A) (A) (A) (A) (A) (A) (A) (A) (A)
                 (A) (A) (A) (A) (A) (A) (A) (A) (A) (A) (A) (A)
                 (A) (A) (A) (A) (A) (A) (A) (A) (A) (A) (A) (A)
                 (A) (A) (A) (A) (A) (A) (A) (A) (A) (A) (A) (A)
                 (A) (A) (A) (A) (A) (A) (A) (A) (A) (A) (A) (A)
                 (A) (A) (A) (A) (A) (A) (A) (A) (A) (A) (A) (A)
                 (A) (A) (A) (A) (A) (A) (A) (A) (A) (A) (A) (A)
                 (A) (A) (A) (A) (A) (A) (A) (A) (A) (A) (A) (A)
                 (A) (A) (A) (A) (A) (A) (A) (A) (A) (A) (A) (A)
                 (A) (A) (A) (A) (A) (A) (A) (A) (A) (A) (A) (A)
                 (A) (A) (A) (A) (A) (A) (A) (A) (A) (A) (A) (A)
                 (A) (A) (A) (A) (A) (A) (A) (A) (A) (A) (A) (A)
                 (A) (A) (A) (A) (A) (A) (A) (A) (A) (A) (A) (A)
                 (A) (A) (A) (A) (A) (A) (A) (A) (A) (A) (A) (A)
                 (A) (A) (A) (A) (A) (A) (A) (A) (A) (A) (A) (A)
                 (A) (A) (A) (A) (A) (A) (A) (A) (A) (A) (A) (A)
                 (A) (A) (A) (A) (A) (A) (A) (A) (A) (A) (A) (A)
                 (A) (A) (A) (A) (A) (A) (A) (A) (A) (A) (A) (A)
                 (A) (A) (A) (A) (A) (A) (A) (A) (A) (A) (A) (A)
                 (A) (A) (A) (A) (A) (A) (A) (A) (A) (A) (A) (A)
                 (A) (A) (A) (A) (A) (A) (A) (A) (A) (A) (A) (A)
                 (A) (A) (A) (A) (A) (A) (A) (A) (A) (A) (A) (A)
                 (A) (A) (A) (A) (A) (A) (A) (A) (A) (A) (A) (A)
                 (A) (A) (A) (A) (A) (A) (A) (A) (A) (A) (A) (A)
                 (A) (A) (A) (A) (A) (A) (A) (A) (A) (A) (A) (A)
                 (A) (A) (A) (A) (A) (A) (A) (A) (A) (A) (A) (A)
                 (A) (A) (A) (A) (A) (A) (A) (A) (A) (A) (A) (A)
                 (A) (A) (A) (A) (A) (A) (A) (A) (A) (A) (A) (A)
                 (A) (A) (A) (A) (A) (A) (A) (A) (A) (A) (A) (A)
                 (A) (A) (A) (A) (A) (A) (A) (A) (A) (A) (A) (A)
                 (A) (A) (A) (A) (A) (A) (A) (A) (A) (A) (A) (A)
                 (A) (A) (A) (A) (A) (A) (A) (A) (A) (A) (A) (A)
                 (A) (A) (A) (A) (A) (A) (A) (A) (A) (A) (A) (A)
                 (A) (A) (A) (A) (A) (A) (A) (A) (A) (A) (A) (A)
                 (A) (A) (A) (A) (A) (A) (A) (A) (A) (A) (A) (A)
                 (A) (A) (A) (A) (A) (A) (A) (A) (A) (A) (A) (A)
                 (A) (A) (A) (A) (A) (A) (A) (A) (A) (A) (A) (A)
                 (A) (A) (A) (A) (A) (A) (A) (A) (A) (A) (A) (A)
                 (A) (A) (A) (A) (A) (A) (A) (A) (A) (A) (A) (A)
                 (A) (A) (A) (A) (A) (A) (A) (A) (A) (A) (A) (A)
                 (A) (A) (A) (A) (A) (A) (A) (A) (A) (A) (A) (A)
                 (A) (A) (A) (A) (A) (A) (A) (A) (A) (A) (A) (A)
                 (A) (A) (A) (A) (A) (A) (A) (A) (A) (A) (A) (A)
                 (A) (A) (A) (A) (A) (A) (A) (A) (A) (A) (A) (A)
                 (A) (A) (A) (A) (A) (A) (A) (A) (A) (A) (A) (A)
                 (A) (A) (A) (A) (A) (A) (A) (A) (A) (A) (A) (A)
                 (A) (A) (A) (A) (A) (A) (A) (A) (A) (A) (A) (A)
                 (A) (A) (A) (A) (A) (A) (A) (A) (A) (A) (A) (A)
                 (A) (A) (A) (A) (A) (A) (A) (A) (A) (A) (A) (A)
                 (A) (A) (A) (A) (A) (A) (A) (A) (A) (A) (A) (A)
                 (A) (A) (A) (A) (A) (A) (A) (A) (A) (A) (A) (A)
                 (A) (A) (A) (A) (A) (A) (A) (A) (A) (A) (A) (A)
                 (A) (A) (A) (A) (A) (A) (A) (A) (A) (A) (A) (A)
                 (A) (A) (A) (A) (A) (A) (A) (A) (A) (A) (A) (A)
                 (A) (A) (A) (A) (A) (A) (A) (A) (A) (A) (A) (A)
                 (A) (A) (A) (A) (A) (A) (A) (A) (A) (A) (A) (A)
                 (A) (A) (A) (A) (A) (A) (A) (A) (A) (A) (A) (A)
                 (A) (A) (A) (A) (A) (A) (A) (A) (A) (A) (A) (A)
                 (A) (A) (A) (A) (A) (A) (A) (A) (A) (A) (A) (A)
                 (A) (A) (A) (A) (A) (A) (A) (A) (A) (A) (A) (A)
                 (A) (A) (A) (A) (A) (A) (A) (A) (A) (A) (A) (A)
                 (A) (A) (A) (A) (A) (A) (A) (A) (A) (A) (A) (A)
                 (A) (A) (A) (A) (A) (A) (A) (A) (A) (A) (A) (A)
                 (A) (A) (A) (A) (A) (A) (A) (A) (A) (A) (A) (A)
                 (A) (A) (A) (A) (A) (A) (A) (A) (A) (A) (A) (A)
                 (A) (A) (A) (A) (A) (A) (A) (A) (A) (A) (A) (A)
                 (A) (A) (A) (A) (A) (A) (A) (A) (A) (A) (A) (A)
                 (A) (A) (A) (A) (A) (A) (A) (A) (A) (A) (A) (A)
                 (A) (A) (A) (A) (A) (A) (A) (A) (A) (A) (A) (A)
                 (A) (A) (A) (A) (A) (A) (A) (A) (A) (A) (A) (A)
                 (A) (A) (A) (A) (A) (A) (A) (A) (A) (A) (A) (A)
                 (A) (A) (A) (A) (A) (A) (A) (A) (A) (A) (A) (A)
                 (A) (A) (A) (A) (A) (A) (A) (A) (A) (A) (A) (A)
                 (A) (A) (A) (A) (A) (A) (A) (A) (A) (A) (A) (A)
                 (A) (A) (A) (A) (A) (A) (A) (A) (A) (A) (A) (A)
                 (A) (A) (A) (A) (A) (A) (A) (A) (A) (A) (A) (A)
                 (A) (A) (A) (A) (A) (A) (A) (A) (A) (A) (A) (A)
                 (A) (A) (A) (A) (A) (A) (A) (A) (A) (A) (A) (A)
                 (A) (A) (A) (A) (A) (A) (A) (A) (A) (A) (A) (A)
                 (A) (A) (A) (A) (A) (A) (A) (A) (A) (A) (A) (A)
                 (A) (A) (A) (A) (A) (A) (A) (A) (A) (A) (A) (A)
                 (A) (A) (A) (A) (A) (A) (A) (A) (A) (A) (A) (A)
                 (A) (A) (A) (A) (A) (A) (A) (A) (A) (A) (A) (A)
                 (A) (A) (A) (A) (A) (A) (A) (A) (A) (A) (A) (A)
                 (A) (A) (A) (A) (A) (A) (A) (A) (A) (A) (A) (A)
                 (A) (A) (A) (A) (A) (A) (A) (A) (A) (A) (A) (A)
                 (A) (A) (A) (A) (A) (A) (A) (A) (A) (A) (A) (A)
                 (A) (A) (A) (A) (A) (A) (A) (A) (A) (A) (A) (A)
                 (A) (A) (A) (A) (A) (A) (A) (A) (A) (A) (A) (A)
                 (A) (A) (A) (A) (A) (A)
 The electronic state is 1-A.
 Alpha  occ. eigenvalues --  -46.83061 -19.25440 -19.24205 -19.22747 -19.22219
 Alpha  occ. eigenvalues --  -19.20505 -14.41648 -14.39905 -14.39307 -14.39164
 Alpha  occ. eigenvalues --  -10.39146 -10.38949 -10.35180 -10.31345 -10.30993
 Alpha  occ. eigenvalues --  -10.30510 -10.30353 -10.29761 -10.29373 -10.29280
 Alpha  occ. eigenvalues --  -10.29278 -10.29210 -10.28746 -10.28666 -10.28349
 Alpha  occ. eigenvalues --  -10.28319 -10.28231 -10.27866 -10.27607 -10.27604
 Alpha  occ. eigenvalues --  -10.27507 -10.27300 -10.27222 -10.27105 -10.27087
 Alpha  occ. eigenvalues --  -10.26997 -10.26981 -10.26764 -10.26578 -10.26528
 Alpha  occ. eigenvalues --  -10.26526 -10.26510 -10.26420 -10.26336 -10.26185
 Alpha  occ. eigenvalues --  -10.25651 -10.25581 -10.25524 -10.25448 -10.25417
 Alpha  occ. eigenvalues --  -10.25304 -10.25278 -10.24543 -10.24506 -10.24500
 Alpha  occ. eigenvalues --  -10.24474 -10.24285 -10.24271 -10.23940 -10.23815
 Alpha  occ. eigenvalues --  -10.23773 -10.23277 -10.22994 -10.22296 -10.21955
 Alpha  occ. eigenvalues --   -3.12458  -1.87135  -1.86720  -1.86651  -1.19061
 Alpha  occ. eigenvalues --   -1.18159  -1.11733  -1.10405  -1.08894  -1.04936
 Alpha  occ. eigenvalues --   -1.04032  -1.02774  -1.01902  -0.92360  -0.91950
 Alpha  occ. eigenvalues --   -0.91230  -0.90387  -0.89859  -0.89581  -0.89212
 Alpha  occ. eigenvalues --   -0.88677  -0.88614  -0.88035  -0.87368  -0.86309
 Alpha  occ. eigenvalues --   -0.84934  -0.84142  -0.83639  -0.83249  -0.82547
 Alpha  occ. eigenvalues --   -0.81115  -0.80836  -0.80338  -0.79385  -0.78234
 Alpha  occ. eigenvalues --   -0.77889  -0.77375  -0.77012  -0.76856  -0.76017
 Alpha  occ. eigenvalues --   -0.75861  -0.75486  -0.75114  -0.73379  -0.72561
 Alpha  occ. eigenvalues --   -0.71122  -0.70753  -0.69161  -0.68584  -0.68163
 Alpha  occ. eigenvalues --   -0.66577  -0.65913  -0.65413  -0.64914  -0.64568
 Alpha  occ. eigenvalues --   -0.63556  -0.63322  -0.63234  -0.62447  -0.61662
 Alpha  occ. eigenvalues --   -0.61376  -0.60510  -0.60419  -0.60070  -0.59224
 Alpha  occ. eigenvalues --   -0.58938  -0.58404  -0.58010  -0.57967  -0.56616
 Alpha  occ. eigenvalues --   -0.56419  -0.55758  -0.55550  -0.55296  -0.54965
 Alpha  occ. eigenvalues --   -0.54910  -0.54516  -0.54283  -0.54193  -0.53615
 Alpha  occ. eigenvalues --   -0.53490  -0.53263  -0.52790  -0.52293  -0.52143
 Alpha  occ. eigenvalues --   -0.51905  -0.51711  -0.51361  -0.51107  -0.50936
 Alpha  occ. eigenvalues --   -0.50457  -0.50242  -0.50038  -0.49874  -0.49801
 Alpha  occ. eigenvalues --   -0.49329  -0.49202  -0.48876  -0.48499  -0.48467
 Alpha  occ. eigenvalues --   -0.48244  -0.48153  -0.47953  -0.47741  -0.47591
 Alpha  occ. eigenvalues --   -0.47207  -0.46872  -0.46707  -0.46560  -0.46386
 Alpha  occ. eigenvalues --   -0.45629  -0.45497  -0.45414  -0.45379  -0.45100
 Alpha  occ. eigenvalues --   -0.44936  -0.44863  -0.44624  -0.44413  -0.44276
 Alpha  occ. eigenvalues --   -0.44063  -0.44014  -0.43583  -0.43362  -0.43107
 Alpha  occ. eigenvalues --   -0.43009  -0.42706  -0.42590  -0.42378  -0.42017
 Alpha  occ. eigenvalues --   -0.41852  -0.41680  -0.41570  -0.41365  -0.41274
 Alpha  occ. eigenvalues --   -0.41016  -0.40905  -0.40823  -0.40457  -0.40438
 Alpha  occ. eigenvalues --   -0.40290  -0.39942  -0.39740  -0.39261  -0.38986
 Alpha  occ. eigenvalues --   -0.38952  -0.38837  -0.38764  -0.38515  -0.38292
 Alpha  occ. eigenvalues --   -0.38227  -0.37361  -0.36945  -0.36709  -0.36578
 Alpha  occ. eigenvalues --   -0.36483  -0.36282  -0.36150  -0.36032  -0.35361
 Alpha  occ. eigenvalues --   -0.35175  -0.34929  -0.34822  -0.34541  -0.34351
 Alpha  occ. eigenvalues --   -0.33870  -0.33751  -0.32118  -0.31473  -0.30315
 Alpha  occ. eigenvalues --   -0.30132  -0.28682  -0.28595  -0.27904  -0.23720
 Alpha  occ. eigenvalues --   -0.20663
 Alpha virt. eigenvalues --   -0.06968  -0.02220   0.01788   0.04958   0.05859
 Alpha virt. eigenvalues --    0.06121   0.06550   0.06797   0.07160   0.07753
 Alpha virt. eigenvalues --    0.08531   0.10292   0.10935   0.11114   0.11741
 Alpha virt. eigenvalues --    0.12316   0.12539   0.12808   0.12919   0.13160
 Alpha virt. eigenvalues --    0.13532   0.13640   0.14044   0.14284   0.14290
 Alpha virt. eigenvalues --    0.14884   0.15162   0.15368   0.15622   0.15711
 Alpha virt. eigenvalues --    0.15746   0.16072   0.16353   0.16535   0.16589
 Alpha virt. eigenvalues --    0.17028   0.17103   0.17378   0.17519   0.17917
 Alpha virt. eigenvalues --    0.18155   0.18297   0.18364   0.18649   0.18892
 Alpha virt. eigenvalues --    0.19017   0.19198   0.19302   0.19446   0.19623
 Alpha virt. eigenvalues --    0.20059   0.20267   0.20364   0.20582   0.20641
 Alpha virt. eigenvalues --    0.20703   0.20752   0.20885   0.21090   0.21282
 Alpha virt. eigenvalues --    0.21508   0.21682   0.21799   0.22018   0.22104
 Alpha virt. eigenvalues --    0.22279   0.22406   0.22603   0.22925   0.23073
 Alpha virt. eigenvalues --    0.23152   0.23518   0.23702   0.23969   0.24014
 Alpha virt. eigenvalues --    0.24325   0.24342   0.24632   0.24907   0.24965
 Alpha virt. eigenvalues --    0.25127   0.25287   0.25389   0.25648   0.25729
 Alpha virt. eigenvalues --    0.25855   0.26251   0.26486   0.26559   0.26636
 Alpha virt. eigenvalues --    0.26824   0.26967   0.27191   0.27485   0.27611
 Alpha virt. eigenvalues --    0.27978   0.28177   0.28387   0.28597   0.28793
 Alpha virt. eigenvalues --    0.28986   0.29018   0.29337   0.29550   0.29734
 Alpha virt. eigenvalues --    0.29849   0.30448   0.30493   0.30580   0.30824
 Alpha virt. eigenvalues --    0.30852   0.30932   0.31177   0.31452   0.31650
 Alpha virt. eigenvalues --    0.31840   0.32052   0.32324   0.32757   0.32813
 Alpha virt. eigenvalues --    0.33310   0.33525   0.34069   0.34508   0.34789
 Alpha virt. eigenvalues --    0.35202   0.35239   0.35922   0.36399   0.36648
 Alpha virt. eigenvalues --    0.37097   0.37318   0.37762   0.37833   0.38082
 Alpha virt. eigenvalues --    0.39439   0.40419   0.40658   0.40849   0.41111
 Alpha virt. eigenvalues --    0.41446   0.42686   0.42889   0.43231   0.43623
 Alpha virt. eigenvalues --    0.43856   0.44137   0.44561   0.44650   0.45512
 Alpha virt. eigenvalues --    0.47306   0.47834   0.48347   0.49448   0.49878
 Alpha virt. eigenvalues --    0.50347   0.51343   0.51534   0.52394   0.52472
 Alpha virt. eigenvalues --    0.53090   0.53455   0.54030   0.54335   0.54521
 Alpha virt. eigenvalues --    0.54973   0.55194   0.55646   0.55980   0.56038
 Alpha virt. eigenvalues --    0.56350   0.56656   0.56696   0.57056   0.57313
 Alpha virt. eigenvalues --    0.57488   0.57517   0.57640   0.57997   0.58050
 Alpha virt. eigenvalues --    0.58174   0.58509   0.58649   0.58896   0.59430
 Alpha virt. eigenvalues --    0.59603   0.59720   0.59922   0.60039   0.60260
 Alpha virt. eigenvalues --    0.60581   0.60671   0.61013   0.61247   0.61463
 Alpha virt. eigenvalues --    0.61626   0.61968   0.62228   0.62567   0.62592
 Alpha virt. eigenvalues --    0.62964   0.63177   0.63457   0.63916   0.64212
 Alpha virt. eigenvalues --    0.64462   0.64799   0.65005   0.65276   0.65411
 Alpha virt. eigenvalues --    0.65721   0.65848   0.66351   0.66636   0.66960
 Alpha virt. eigenvalues --    0.67262   0.67510   0.67627   0.67931   0.67992
 Alpha virt. eigenvalues --    0.68156   0.68522   0.68831   0.68954   0.69298
 Alpha virt. eigenvalues --    0.69534   0.70001   0.70245   0.70572   0.71125
 Alpha virt. eigenvalues --    0.71205   0.71460   0.71501   0.71838   0.72326
 Alpha virt. eigenvalues --    0.72518   0.72770   0.73064   0.73275   0.73489
 Alpha virt. eigenvalues --    0.73972   0.74138   0.74443   0.74524   0.74758
 Alpha virt. eigenvalues --    0.74873   0.75375   0.75561   0.75934   0.76073
 Alpha virt. eigenvalues --    0.76358   0.76528   0.76712   0.76997   0.77222
 Alpha virt. eigenvalues --    0.77423   0.77838   0.78180   0.78399   0.79128
 Alpha virt. eigenvalues --    0.79313   0.79462   0.79596   0.79903   0.80044
 Alpha virt. eigenvalues --    0.80128   0.80404   0.80575   0.80706   0.81140
 Alpha virt. eigenvalues --    0.81459   0.81687   0.81997   0.82201   0.82384
 Alpha virt. eigenvalues --    0.82691   0.83019   0.83063   0.83394   0.83632
 Alpha virt. eigenvalues --    0.83834   0.83923   0.84228   0.84294   0.84577
 Alpha virt. eigenvalues --    0.84859   0.84966   0.85306   0.85412   0.85732
 Alpha virt. eigenvalues --    0.86056   0.86195   0.86697   0.86761   0.87031
 Alpha virt. eigenvalues --    0.87250   0.87350   0.87502   0.87836   0.87928
 Alpha virt. eigenvalues --    0.88057   0.88208   0.88429   0.88561   0.88841
 Alpha virt. eigenvalues --    0.89179   0.89295   0.89469   0.89654   0.89878
 Alpha virt. eigenvalues --    0.90121   0.90456   0.90691   0.91133   0.91340
 Alpha virt. eigenvalues --    0.91554   0.91826   0.91999   0.92224   0.92347
 Alpha virt. eigenvalues --    0.92738   0.92893   0.93133   0.93716   0.93735
 Alpha virt. eigenvalues --    0.93937   0.94229   0.94355   0.94429   0.94647
 Alpha virt. eigenvalues --    0.94814   0.95055   0.95317   0.95635   0.95670
 Alpha virt. eigenvalues --    0.95769   0.96162   0.96327   0.96549   0.96659
 Alpha virt. eigenvalues --    0.96845   0.97080   0.97379   0.97500   0.97649
 Alpha virt. eigenvalues --    0.97915   0.98351   0.98780   0.98983   0.99050
 Alpha virt. eigenvalues --    0.99284   0.99680   0.99718   0.99835   1.00133
 Alpha virt. eigenvalues --    1.00239   1.00500   1.00571   1.00940   1.01011
 Alpha virt. eigenvalues --    1.01333   1.01453   1.01675   1.01801   1.02142
 Alpha virt. eigenvalues --    1.02365   1.02599   1.02882   1.02997   1.03437
 Alpha virt. eigenvalues --    1.03630   1.03860   1.04144   1.04422   1.04589
 Alpha virt. eigenvalues --    1.04806   1.05032   1.05152   1.05373   1.05603
 Alpha virt. eigenvalues --    1.05754   1.06140   1.06302   1.06550   1.06859
 Alpha virt. eigenvalues --    1.07203   1.07475   1.07677   1.07818   1.08252
 Alpha virt. eigenvalues --    1.08411   1.08919   1.09192   1.09419   1.09625
 Alpha virt. eigenvalues --    1.10237   1.10897   1.11099   1.11199   1.11916
 Alpha virt. eigenvalues --    1.12444   1.12852   1.12995   1.13551   1.13953
 Alpha virt. eigenvalues --    1.14361   1.14613   1.15409   1.15716   1.15998
 Alpha virt. eigenvalues --    1.16510   1.16583   1.16864   1.17176   1.17831
 Alpha virt. eigenvalues --    1.18473   1.18876   1.19121   1.19355   1.19594
 Alpha virt. eigenvalues --    1.20409   1.20939   1.21749   1.22091   1.22561
 Alpha virt. eigenvalues --    1.23680   1.24043   1.24413   1.24559   1.25116
 Alpha virt. eigenvalues --    1.25431   1.25786   1.27140   1.27334   1.28255
 Alpha virt. eigenvalues --    1.28413   1.28770   1.29105   1.29608   1.30223
 Alpha virt. eigenvalues --    1.30570   1.31013   1.31963   1.31997   1.33233
 Alpha virt. eigenvalues --    1.33379   1.33713   1.34379   1.34790   1.35271
 Alpha virt. eigenvalues --    1.35772   1.36678   1.37410   1.37782   1.38145
 Alpha virt. eigenvalues --    1.38800   1.39282   1.39488   1.39987   1.40333
 Alpha virt. eigenvalues --    1.41507   1.41640   1.41969   1.42538   1.42629
 Alpha virt. eigenvalues --    1.42846   1.44022   1.44241   1.44746   1.44937
 Alpha virt. eigenvalues --    1.45905   1.46071   1.46555   1.47436   1.48143
 Alpha virt. eigenvalues --    1.48681   1.49475   1.49743   1.50358   1.50936
 Alpha virt. eigenvalues --    1.51014   1.51335   1.51549   1.52800   1.53072
 Alpha virt. eigenvalues --    1.53765   1.54188   1.55055   1.55354   1.55627
 Alpha virt. eigenvalues --    1.55932   1.56605   1.56702   1.57057   1.58012
 Alpha virt. eigenvalues --    1.58690   1.58879   1.59139   1.59657   1.60531
 Alpha virt. eigenvalues --    1.60787   1.61229   1.61792   1.62071   1.62399
 Alpha virt. eigenvalues --    1.62426   1.63211   1.63373   1.63656   1.63964
 Alpha virt. eigenvalues --    1.64362   1.64815   1.65138   1.65531   1.65633
 Alpha virt. eigenvalues --    1.66103   1.66575   1.67401   1.67634   1.67969
 Alpha virt. eigenvalues --    1.68005   1.68524   1.68951   1.69692   1.70167
 Alpha virt. eigenvalues --    1.70569   1.70876   1.71618   1.71763   1.72116
 Alpha virt. eigenvalues --    1.72264   1.73010   1.73099   1.73495   1.74248
 Alpha virt. eigenvalues --    1.75455   1.75752   1.76057   1.76435   1.76597
 Alpha virt. eigenvalues --    1.76775   1.77215   1.77491   1.77696   1.78075
 Alpha virt. eigenvalues --    1.78231   1.78417   1.79508   1.79589   1.80391
 Alpha virt. eigenvalues --    1.80684   1.80990   1.81520   1.82095   1.82564
 Alpha virt. eigenvalues --    1.83006   1.83527   1.83593   1.84354   1.84607
 Alpha virt. eigenvalues --    1.84950   1.85312   1.85499   1.85623   1.86143
 Alpha virt. eigenvalues --    1.86265   1.86556   1.86885   1.87065   1.87415
 Alpha virt. eigenvalues --    1.87735   1.87965   1.88254   1.88541   1.88786
 Alpha virt. eigenvalues --    1.89140   1.89439   1.89562   1.89688   1.90114
 Alpha virt. eigenvalues --    1.90532   1.90787   1.90901   1.91061   1.91329
 Alpha virt. eigenvalues --    1.91760   1.92041   1.92186   1.92349   1.92632
 Alpha virt. eigenvalues --    1.92855   1.93158   1.93375   1.93567   1.93867
 Alpha virt. eigenvalues --    1.94098   1.94365   1.94885   1.95100   1.95428
 Alpha virt. eigenvalues --    1.95689   1.95755   1.96025   1.96334   1.96913
 Alpha virt. eigenvalues --    1.97261   1.97472   1.97833   1.97988   1.98000
 Alpha virt. eigenvalues --    1.98360   1.98552   1.98734   1.98994   1.99728
 Alpha virt. eigenvalues --    2.00038   2.00108   2.00354   2.00797   2.01072
 Alpha virt. eigenvalues --    2.01339   2.01528   2.01639   2.01845   2.02058
 Alpha virt. eigenvalues --    2.02393   2.02731   2.03161   2.03477   2.03586
 Alpha virt. eigenvalues --    2.03883   2.04306   2.04421   2.04807   2.05014
 Alpha virt. eigenvalues --    2.05492   2.05816   2.06457   2.06564   2.06982
 Alpha virt. eigenvalues --    2.07358   2.07488   2.07759   2.07925   2.08656
 Alpha virt. eigenvalues --    2.08920   2.09301   2.09494   2.09822   2.09873
 Alpha virt. eigenvalues --    2.10489   2.10751   2.10993   2.11418   2.11823
 Alpha virt. eigenvalues --    2.11910   2.12099   2.12505   2.12937   2.13010
 Alpha virt. eigenvalues --    2.13048   2.13500   2.13565   2.13747   2.14388
 Alpha virt. eigenvalues --    2.14399   2.14597   2.14872   2.14965   2.15401
 Alpha virt. eigenvalues --    2.15991   2.16361   2.16402   2.16677   2.17075
 Alpha virt. eigenvalues --    2.17469   2.17581   2.18143   2.18194   2.18395
 Alpha virt. eigenvalues --    2.18988   2.19365   2.19772   2.20231   2.20720
 Alpha virt. eigenvalues --    2.20899   2.21372   2.21389   2.21852   2.21926
 Alpha virt. eigenvalues --    2.22320   2.22512   2.22766   2.23240   2.23738
 Alpha virt. eigenvalues --    2.24298   2.24570   2.25241   2.25757   2.26517
 Alpha virt. eigenvalues --    2.27095   2.27207   2.27505   2.27589   2.27935
 Alpha virt. eigenvalues --    2.28097   2.28390   2.28636   2.29366   2.29609
 Alpha virt. eigenvalues --    2.29951   2.30246   2.30433   2.31137   2.31331
 Alpha virt. eigenvalues --    2.31721   2.32044   2.32095   2.32486   2.32687
 Alpha virt. eigenvalues --    2.32899   2.33768   2.34060   2.34462   2.34692
 Alpha virt. eigenvalues --    2.34861   2.35017   2.35258   2.35372   2.35764
 Alpha virt. eigenvalues --    2.35852   2.36225   2.36472   2.36674   2.37190
 Alpha virt. eigenvalues --    2.37432   2.37602   2.38078   2.38418   2.38577
 Alpha virt. eigenvalues --    2.39150   2.39275   2.39625   2.40041   2.40161
 Alpha virt. eigenvalues --    2.40384   2.40529   2.41023   2.41106   2.41610
 Alpha virt. eigenvalues --    2.42020   2.42340   2.42482   2.42769   2.43134
 Alpha virt. eigenvalues --    2.43449   2.43514   2.43857   2.43988   2.44740
 Alpha virt. eigenvalues --    2.44956   2.45342   2.45504   2.46153   2.46467
 Alpha virt. eigenvalues --    2.46829   2.46842   2.47157   2.47444   2.47777
 Alpha virt. eigenvalues --    2.48009   2.48387   2.48953   2.49297   2.49878
 Alpha virt. eigenvalues --    2.49990   2.50213   2.50334   2.50499   2.50898
 Alpha virt. eigenvalues --    2.51269   2.51368   2.51779   2.52403   2.53425
 Alpha virt. eigenvalues --    2.53527   2.54011   2.54154   2.54376   2.54956
 Alpha virt. eigenvalues --    2.55268   2.55703   2.55725   2.56198   2.56359
 Alpha virt. eigenvalues --    2.56724   2.57490   2.57942   2.58239   2.58512
 Alpha virt. eigenvalues --    2.58923   2.59260   2.60193   2.61000   2.61331
 Alpha virt. eigenvalues --    2.61807   2.61924   2.62489   2.62966   2.63148
 Alpha virt. eigenvalues --    2.63284   2.63659   2.64046   2.64478   2.64789
 Alpha virt. eigenvalues --    2.65250   2.65435   2.65644   2.66148   2.66576
 Alpha virt. eigenvalues --    2.66726   2.66895   2.67675   2.67838   2.67998
 Alpha virt. eigenvalues --    2.69138   2.69221   2.69880   2.70096   2.70210
 Alpha virt. eigenvalues --    2.70551   2.70967   2.71123   2.71615   2.71939
 Alpha virt. eigenvalues --    2.72361   2.72720   2.73116   2.73286   2.73452
 Alpha virt. eigenvalues --    2.73955   2.74315   2.74353   2.75102   2.75235
 Alpha virt. eigenvalues --    2.75455   2.75766   2.76220   2.76463   2.76788
 Alpha virt. eigenvalues --    2.77030   2.77491   2.77741   2.78075   2.78693
 Alpha virt. eigenvalues --    2.79232   2.79926   2.80113   2.80450   2.80596
 Alpha virt. eigenvalues --    2.80886   2.81153   2.81307   2.81524   2.81717
 Alpha virt. eigenvalues --    2.82041   2.82896   2.82974   2.83400   2.83670
 Alpha virt. eigenvalues --    2.83935   2.84019   2.84276   2.84495   2.84658
 Alpha virt. eigenvalues --    2.84965   2.85711   2.86030   2.86226   2.86584
 Alpha virt. eigenvalues --    2.87076   2.87154   2.87589   2.87942   2.88516
 Alpha virt. eigenvalues --    2.89219   2.89738   2.90143   2.90614   2.91446
 Alpha virt. eigenvalues --    2.91656   2.91745   2.91845   2.92077   2.92657
 Alpha virt. eigenvalues --    2.92876   2.93077   2.93853   2.94379   2.94588
 Alpha virt. eigenvalues --    2.95059   2.95184   2.95902   2.96258   2.96817
 Alpha virt. eigenvalues --    2.96916   2.97378   2.97730   2.97955   2.98150
 Alpha virt. eigenvalues --    2.98464   2.99612   2.99707   2.99908   3.00541
 Alpha virt. eigenvalues --    3.00737   3.01323   3.01736   3.01861   3.01926
 Alpha virt. eigenvalues --    3.02766   3.03083   3.03321   3.04113   3.04194
 Alpha virt. eigenvalues --    3.05105   3.05196   3.05723   3.06065   3.06185
 Alpha virt. eigenvalues --    3.06314   3.06884   3.07134   3.07601   3.07985
 Alpha virt. eigenvalues --    3.08744   3.09275   3.09720   3.10369   3.10886
 Alpha virt. eigenvalues --    3.11178   3.11913   3.12298   3.12702   3.12861
 Alpha virt. eigenvalues --    3.14014   3.15727   3.16016   3.16941   3.17097
 Alpha virt. eigenvalues --    3.17833   3.18057   3.18487   3.18964   3.20156
 Alpha virt. eigenvalues --    3.21226   3.21558   3.22651   3.23593   3.23995
 Alpha virt. eigenvalues --    3.24575   3.24752   3.25122   3.26452   3.26931
 Alpha virt. eigenvalues --    3.28994   3.29643   3.29828   3.30685   3.31251
 Alpha virt. eigenvalues --    3.32432   3.32982   3.34319   3.34518   3.34870
 Alpha virt. eigenvalues --    3.34905   3.35132   3.35692   3.37812   3.37829
 Alpha virt. eigenvalues --    3.39243   3.39923   3.40259   3.40861   3.41447
 Alpha virt. eigenvalues --    3.42362   3.43193   3.43759   3.44636   3.44784
 Alpha virt. eigenvalues --    3.45116   3.47467   3.48851   3.49005   3.49392
 Alpha virt. eigenvalues --    3.49886   3.50283   3.51262   3.51308   3.52332
 Alpha virt. eigenvalues --    3.52412   3.53240   3.54132   3.55184   3.55420
 Alpha virt. eigenvalues --    3.56475   3.57525   3.58205   3.58502   3.59548
 Alpha virt. eigenvalues --    3.59945   3.60138   3.61326   3.61528   3.61555
 Alpha virt. eigenvalues --    3.62906   3.65692   3.65696   3.66164   3.66852
 Alpha virt. eigenvalues --    3.68404   3.68844   3.69240   3.69511   3.70001
 Alpha virt. eigenvalues --    3.70180   3.70673   3.70779   3.75638   3.77471
 Alpha virt. eigenvalues --    3.77809   3.89883   4.03602   4.04186   4.09795
 Alpha virt. eigenvalues --    4.10853   4.15505   4.18813   4.22863   4.23058
 Alpha virt. eigenvalues --    4.24094   4.25170   4.26208   4.26934   4.29495
 Alpha virt. eigenvalues --    4.30201   4.31231   4.33753   4.34095   4.35696
 Alpha virt. eigenvalues --    4.36117   4.37306   4.38069   4.39834   4.40537
 Alpha virt. eigenvalues --    4.40993   4.43174   4.44181   4.44719   4.46666
 Alpha virt. eigenvalues --    4.47739   4.48084   4.49699   4.51080   4.52297
 Alpha virt. eigenvalues --    4.52988   4.53929   4.54364   4.54879   4.57262
 Alpha virt. eigenvalues --    4.57669   4.57787   4.59288   4.60342   4.62358
 Alpha virt. eigenvalues --    4.62863   4.63153   4.64273   4.65299   4.65586
 Alpha virt. eigenvalues --    4.70085   4.70446   4.71660   4.72027   4.74924
 Alpha virt. eigenvalues --    4.75444   4.78739   4.79920   4.81435   4.81687
 Alpha virt. eigenvalues --    4.82953   4.86976   4.87616   4.87808   4.88470
 Alpha virt. eigenvalues --    4.92102   4.94592   5.00744
          Condensed to atoms (all electrons):
 Mulliken charges:
               1
     1  Mg   0.813588
     2  C    0.075651
     3  C   -0.220370
     4  C   -0.161083
     5  C   -0.206127
     6  N   -0.637630
     7  C    0.295847
     8  C   -0.158810
     9  C   -0.145039
    10  C    0.358723
    11  C   -0.298609
    12  C   -0.194972
    13  C   -0.270463
    14  C    0.619189
    15  O   -0.421328
    16  O   -0.525674
    17  N   -0.719279
    18  C    0.324605
    19  C    0.023345
    20  C    0.001019
    21  C    0.291455
    22  C   -0.346769
    23  C   -0.060196
    24  C   -0.247809
    25  N   -0.683639
    26  C    0.252465
    27  C    0.029271
    28  C    0.058179
    29  C    0.330245
    30  C   -0.379261
    31  C   -0.252676
    32  C   -0.298675
    33  N   -0.727763
    34  C    0.276818
    35  C    0.006982
    36  C    0.039654
    37  C    0.293366
    38  C   -0.381584
    39  C    0.344834
    40  O   -0.444659
    41  C   -0.316734
    42  C    0.624007
    43  O   -0.422910
    44  O   -0.493938
    45  C   -0.089672
    46  C    0.033729
    47  C   -0.150614
    48  C    0.156107
    49  C   -0.350494
    50  C   -0.219966
    51  C   -0.203557
    52  C   -0.197959
    53  C   -0.070759
    54  C   -0.297200
    55  C   -0.146088
    56  C   -0.194809
    57  C   -0.161924
    58  C   -0.058964
    59  C   -0.295589
    60  C   -0.179511
    61  C   -0.165609
    62  C   -0.175627
    63  C   -0.071009
    64  C   -0.305265
    65  C   -0.290906
    66  H    0.075640
    67  H    0.092020
    68  H    0.090325
    69  H    0.114664
    70  H    0.113011
    71  H    0.080265
    72  H    0.115455
    73  H    0.138190
    74  H    0.118247
    75  H    0.122745
    76  H    0.138455
    77  H    0.147140
    78  H    0.123222
    79  H    0.145607
    80  H    0.054765
    81  H    0.093744
    82  H    0.095325
    83  H    0.090792
    84  H    0.142177
    85  H    0.121099
    86  H    0.093687
    87  H    0.113123
    88  H    0.075387
    89  H    0.120148
    90  H    0.107655
    91  H    0.099114
    92  H    0.130451
    93  H    0.140064
    94  H    0.104885
    95  H    0.159624
    96  H    0.130817
    97  H    0.141221
    98  H    0.134025
    99  H    0.108490
   100  H    0.101772
   101  H    0.085153
   102  H    0.103358
   103  H    0.075773
   104  H    0.125222
   105  H    0.099194
   106  H    0.105643
   107  H    0.104484
   108  H    0.089764
   109  H    0.089190
   110  H    0.073097
   111  H    0.093887
   112  H    0.086111
   113  H    0.113285
   114  H    0.114197
   115  H    0.093025
   116  H    0.077387
   117  H    0.089666
   118  H    0.069361
   119  H    0.094671
   120  H    0.093945
   121  H    0.078714
   122  H    0.095978
   123  H    0.087643
   124  H    0.109090
   125  H    0.091009
   126  H    0.050921
   127  H    0.089704
   128  H    0.098352
   129  H    0.094338
   130  H    0.081244
   131  H    0.081111
   132  H    0.068631
   133  H    0.109277
   134  H    0.107892
   135  H    0.110763
   136  H    0.098956
   137  H    0.089051
 Sum of Mulliken charges =   0.00000
 Mulliken charges with hydrogens summed into heavy atoms:
               1
     1  Mg   0.813588
     2  C    0.075651
     3  C   -0.144730
     4  C   -0.069063
     5  C   -0.115803
     6  N   -0.637630
     7  C    0.295847
     8  C   -0.044146
     9  C   -0.032028
    10  C    0.358723
    11  C    0.035302
    12  C    0.046021
    13  C    0.015131
    14  C    0.619189
    15  O   -0.421328
    16  O   -0.525674
    17  N   -0.719279
    18  C    0.324605
    19  C    0.023345
    20  C    0.001019
    21  C    0.291455
    22  C   -0.023175
    23  C    0.033549
    24  C   -0.061691
    25  N   -0.683639
    26  C    0.252465
    27  C    0.029271
    28  C    0.058179
    29  C    0.330245
    30  C   -0.022298
    31  C   -0.064166
    32  C    0.028242
    33  N   -0.727763
    34  C    0.276818
    35  C    0.006982
    36  C    0.039654
    37  C    0.293366
    38  C   -0.006185
    39  C    0.344834
    40  O   -0.444659
    41  C   -0.157110
    42  C    0.624007
    43  O   -0.422910
    44  O   -0.493938
    45  C    0.316391
    46  C    0.243991
    47  C   -0.065461
    48  C    0.156107
    49  C   -0.046141
    50  C   -0.015129
    51  C   -0.009309
    52  C   -0.035672
    53  C    0.023128
    54  C    0.016393
    55  C    0.024324
    56  C   -0.035782
    57  C    0.026693
    58  C    0.019750
    59  C   -0.002878
    60  C   -0.037581
    61  C    0.022447
    62  C   -0.000045
    63  C    0.010103
    64  C   -0.019466
    65  C    0.007865
 Electronic spatial extent (au):  <R**2>=         179946.6947
 Charge=              0.0000 electrons
 Dipole moment (field-independent basis, Debye):
    X=              0.0177    Y=              3.4747    Z=              0.7505  Tot=              3.5549
 Quadrupole moment (field-independent basis, Debye-Ang):
   XX=           -327.9133   YY=           -391.8733   ZZ=           -396.1862
   XY=            -16.1566   XZ=              8.3516   YZ=             -4.2143
 Traceless Quadrupole moment (field-independent basis, Debye-Ang):
   XX=             44.0777   YY=            -19.8824   ZZ=            -24.1953
   XY=            -16.1566   XZ=              8.3516   YZ=             -4.2143
 Octapole moment (field-independent basis, Debye-Ang**2):
  XXX=           -553.4437  YYY=            107.3743  ZZZ=             11.4387  XYY=            -50.8958
  XXY=             54.3404  XXZ=           -202.3889  XZZ=              0.9976  YZZ=            -40.4226
  YYZ=             80.6076  XYZ=              1.8865
 Hexadecapole moment (field-independent basis, Debye-Ang**3):
 XXXX=        -210900.6577 YYYY=         -17079.5226 ZZZZ=          -4041.0732 XXXY=           -883.4109
 XXXZ=           1963.6462 YYYX=           -954.2726 YYYZ=           -165.6683 ZZZX=            -52.3228
 ZZZY=           -183.6881 XXYY=         -39791.9134 XXZZ=         -38965.6500 YYZZ=          -3397.9880
 XXYZ=             48.3006 YYXZ=            -85.4354 ZZXY=            108.9314
 N-N= 8.773987578107D+03 E-N=-2.437296146993D+04  KE= 2.908037371062D+03
 1\1\GINC-PEDRO-RYZENSSD\SP\RCAM-B3LYP TD-FC\6-31G(d,p)\C55H72Mg1N4O5\P
 ADAWAN\07-Jul-2019\0\\# td=(NStates=1) CAM-B3LYP/6-31G(d,p)\\TD\\0,1\M
 g,0,-7.1378843614,0.6119099391,-0.0461769303\C,0,-4.8366182798,-1.8090
 620846,0.4541819509\C,0,-4.8685967886,2.8996784151,1.1376001249\C,0,-9
 .5541401495,3.0514506406,-0.2382966894\C,0,-9.5100913228,-1.7299185029
 ,-0.7978662157\N,0,-5.1251059352,0.5289727154,0.6441548338\C,0,-4.2958
 69293,-0.6192517472,0.6627642996\C,0,-2.9284118466,-0.3306824939,1.185
 9089451\C,0,-2.9564590843,1.1568083491,1.5556762983\C,0,-4.3983968346,
 1.5867494237,1.0879158215\C,0,-3.044089491,1.3752398121,3.0767790868\C
 ,0,-1.8412775888,-0.4709323546,-0.0348295247\C,0,-0.367354158,-0.48677
 30245,0.5043945688\C,0,0.5276439016,-0.7327167846,-0.6291782983\O,0,0.
 3292141615,-1.0705624638,-1.7271390456\O,0,1.8563974502,-0.3949768941,
 -0.1602028092\N,0,-7.1383942873,2.5868642762,0.267925488\C,0,-6.110670
 346,3.3789488707,0.70076361\C,0,-6.5040276559,4.7385081402,0.713312018
 4\C,0,-7.8185845655,4.7562762591,0.3630646978\C,0,-8.2308173533,3.4140
 005954,0.1936219085\C,0,-5.5964376005,5.9382962955,1.1533200925\C,0,-8
 .658963694,5.9990309368,0.2101179972\C,0,-8.5208059719,7.1557516938,0.
 8261188617\N,0,-9.0893712097,0.5817010312,-0.5518192156\C,0,-9.9127075
 305,1.7830282559,-0.6581921433\C,0,-11.3078898856,1.3967680159,-0.9341
 45134\C,0,-11.3212045244,0.034208785,-1.1072294369\C,0,-9.9089665774,-
 0.4291748918,-0.8171867348\C,0,-12.3785266764,2.3043310041,-1.20694746
 95\C,0,-12.4423187782,-0.7744248526,-1.6563264411\C,0,-12.2706245509,-
 1.2770701182,-3.1819733159\N,0,-7.1685763259,-1.3290225159,-0.21523620
 06\C,0,-8.2476950093,-2.2552807002,-0.5169366489\C,0,-7.7057267183,-3.
 5221704845,-0.4450417815\C,0,-6.4670505892,-3.5447388109,0.009079176\C
 ,0,-6.1834809445,-2.0818764689,0.1266054647\C,0,-8.5360110685,-4.71539
 43818,-0.7276612445\C,0,-5.221866657,-4.2818420677,0.1344863212\O,0,-5
 .0742362615,-5.4727017536,0.0171387446\C,0,-4.1664802274,-3.1918849783
 ,0.5509849638\C,0,-3.5403146624,-3.5870439257,1.8734077137\O,0,-3.8217
 43775,-3.0331500512,2.8420968908\O,0,-2.717842978,-4.71047577,1.702608
 8418\C,0,-2.3905896469,-5.2224264717,3.0543103665\C,0,2.8329558073,-0.
 7030380984,-1.1917603764\C,0,4.2384259316,-0.6455227286,-0.6151216612\
 C,0,5.1611696014,0.2460408695,-0.9830780805\C,0,5.119910414,1.03841649
 09,-2.2366478301\C,0,6.4234866815,0.365868437,-0.2843549207\C,0,7.7427
 818161,-0.0995803049,-1.1002169722\C,0,9.0157734499,-0.0576408945,-0.1
 396757804\C,0,10.3293335579,-0.5939164633,-0.8139723677\C,0,10.1823149
 317,-1.9997509112,-1.3184153065\C,0,11.4695298299,-0.4031340942,0.0954
 904176\C,0,12.784213329,-0.6159256437,-0.6815281757\C,0,14.0060800764,
 -0.1973809409,0.181085176\C,0,15.3394400689,-0.2464983789,-0.380266266
 4\C,0,15.7426659355,-1.639001534,-0.8535849762\C,0,16.3935834642,0.453
 909751,0.4482293301\C,0,17.7242470141,0.5651979182,-0.1233281474\C,0,1
 8.7669370632,1.2458127983,0.7724176748\C,0,20.2440430735,1.3366339969,
 0.229037667\C,0,20.3974510989,2.1674650437,-1.0890999027\C,0,21.103201
 2509,1.8779807344,1.3325586193\H,0,-4.1290443889,3.7593014515,1.533287
 9157\H,0,-10.4074811408,3.6657674117,-0.1888442759\H,0,-10.2823615256,
 -2.6591252533,-0.8253591881\H,0,-2.4874051974,-0.924670781,2.166867377
 9\H,0,-2.2068242876,1.8834219248,1.3795286033\H,0,-2.0326177193,0.8803
 384867,3.3659303065\H,0,-3.0368787479,2.4406381213,3.2152636918\H,0,-3
 .7716506078,0.7874634303,3.5043628491\H,0,-1.9144739323,-1.4456145219,
 -0.5874126505\H,0,-1.8490165742,0.3059478452,-0.8156216018\H,0,-0.2222
 35741,0.5362382377,1.0194823473\H,0,-0.2793257346,-1.3684013553,1.1658
 205373\H,0,-5.9122500004,6.906529297,0.7801137206\H,0,-5.5065476442,6.
 0697103341,2.0863649336\H,0,-4.3169356496,5.7550866751,0.7491180874\H,
 0,-9.5237644289,6.0116173098,-0.4542756558\H,0,-9.2818093968,8.1052212
 61,0.7675863804\H,0,-7.629212387,7.3721336129,1.4603344189\H,0,-12.240
 1281179,2.8437447005,-2.0693699417\H,0,-13.3072003892,1.8757114623,-1.
 1839095825\H,0,-12.472709002,3.1250911638,-0.3560068447\H,0,-12.569211
 6996,-1.6746469098,-1.0994248974\H,0,-13.4707457935,-0.1018969265,-1.5
 632518527\H,0,-13.0977361262,-1.9242671129,-3.2820680913\H,0,-12.38578
 21424,-0.4054250801,-4.0051840141\H,0,-11.3543817175,-2.0637112382,-3.
 0732459446\H,0,-8.8630159046,-4.701330876,-1.7260458687\H,0,-8.0800573
 705,-5.678237828,-0.4131909321\H,0,-9.4492048054,-4.7395689782,0.00970
 91483\H,0,-3.4963203279,-3.3527385246,-0.2112263941\H,0,-1.8122093874,
 -4.3920456443,3.5042033356\H,0,-3.3256321718,-5.328654483,3.5721000489
 \H,0,-1.9315512666,-6.2172910023,2.7772216751\H,0,2.692778582,-1.75075
 69116,-1.6671406791\H,0,2.8028477624,0.0859828779,-1.949458098\H,0,4.2
 976506707,-1.1678289981,0.3013033463\H,0,4.1807770412,1.077436454,-2.9
 832366934\H,0,5.2383492466,2.2192821871,-1.7508015484\H,0,5.9552228299
 ,0.7947805856,-2.9652652575\H,0,6.6948615491,1.3941234123,-0.100387395
 9\H,0,6.3972338428,-0.1533533727,0.5871884355\H,0,7.656663051,-1.02079
 13143,-1.629744298\H,0,7.8996924051,0.6845316613,-1.8658595096\H,0,8.9
 708491365,0.9318310681,0.3227899112\H,0,8.7576242511,-0.7565911653,0.7
 158194456\H,0,10.2914766991,0.1489774354,-1.5271376033\H,0,9.352750260
 5,-2.0473027068,-2.1298489097\H,0,11.0450370594,-2.1846952534,-1.85376
 96209\H,0,9.9955224382,-2.6005119932,-0.5454239821\H,0,11.2515128322,0
 .6266448947,0.5065221397\H,0,11.3528383372,-1.2510110624,0.8753881604\
 H,0,12.9579091098,-1.6444626075,-1.1953372013\H,0,12.5896127138,0.0642
 771187,-1.641377499\H,0,13.817083145,0.8256451205,0.2831056536\H,0,13.
 9943221853,-0.7017097757,1.1001465312\H,0,15.2699002785,0.4472042054,-
 1.2095753155\H,0,15.8407015131,-2.4101713092,-0.0807395279\H,0,14.8827
 313238,-2.1240447801,-1.3681842335\H,0,16.4986794973,-1.5143369586,-1.
 3630177713\H,0,16.0422794286,1.347012535,0.9170682511\H,0,16.440958543
 1,-0.001299305,1.5159043516\H,0,18.1578967284,-0.4538219296,-0.3895122
 916\H,0,17.479725037,1.2068380027,-0.9383574115\H,0,18.53517431,2.1341
 675745,1.193137319\H,0,18.8202191822,0.559160097,1.6448244827\H,0,20.5
 105059633,0.317377886,-0.0398669227\H,0,20.1429984064,3.3443579977,-0.
 8817517686\H,0,21.3530995621,2.0785845113,-1.4308744507\H,0,19.8550394
 083,1.8106428751,-1.8894459136\H,0,21.2035863338,1.210079117,1.9581454
 317\H,0,22.0245041567,2.2420954392,0.9962745938\H,0,20.7289526252,2.84
 64747308,1.7608365242\\Version=ES64L-G09RevD.01\State=1-A\HF=-2932.655
 4097\RMSD=8.635e-09\PG=C01 [X(C55H72Mg1N4O5)]\\@


 WHEN ALL ELSE FAILS, TRY THE BOSS'S SUGGESTION.
 Job cpu time:       0 days  6 hours 16 minutes 30.1 seconds.
 File lengths (MBytes):  RWF=   2106 Int=      0 D2E=      0 Chk=    163 Scr=      1
 Normal termination of Gaussian 09 at Sun Jul  7 04:24:22 2019.
