 Entering Gaussian System, Link 0=g16
 Input=Geometria-472-.com
 Output=Geometria-472-.log
 Initial command:
 /usr/local/g16/l1.exe "/home/padawan/israel-mol/chlorophyll-a/spectra/emi/Gau-31700.inp" -scrdir="/home/padawan/israel-mol/chlorophyll-a/spectra/emi/"
