 Entering Gaussian System, Link 0=g16
 Input=Geometria-39-.com
 Output=Geometria-39-.log
 Initial command:
<<<<<<< HEAD
 /usr/local/g16/l1.exe "/home/padawan/israel-mol/chlorophyll-a/spectra/emi/Gau-41779.inp" -scrdir="/home/padawan/israel-mol/chlorophyll-a/spectra/emi/"
 Entering Link 1 = /usr/local/g16/l1.exe PID=     41781.
  
 Copyright (c) 1988,1990,1992,1993,1995,1998,2003,2009,2016,
            Gaussian, Inc.  All Rights Reserved.
  
 This is part of the Gaussian(R) 16 program.  It is based on
 the Gaussian(R) 09 system (copyright 2009, Gaussian, Inc.),
=======
 /usr/local/g09/l1.exe "/home/padawan/israel-mol/chlorophyll-a/spectra/emi/Gau-104600.inp" -scrdir="/home/padawan/israel-mol/chlorophyll-a/spectra/emi/"
 Entering Link 1 = /usr/local/g09/l1.exe PID=    104602.
  
 Copyright (c) 1988,1990,1992,1993,1995,1998,2003,2009,2013,
            Gaussian, Inc.  All Rights Reserved.
  
 This is part of the Gaussian(R) 09 program.  It is based on
>>>>>>> 8e03b5b5abfc0030b3aa597dc0de36371bfbd096
 the Gaussian(R) 03 system (copyright 2003, Gaussian, Inc.),
 the Gaussian(R) 98 system (copyright 1998, Gaussian, Inc.),
 the Gaussian(R) 94 system (copyright 1995, Gaussian, Inc.),
 the Gaussian 92(TM) system (copyright 1992, Gaussian, Inc.),
 the Gaussian 90(TM) system (copyright 1990, Gaussian, Inc.),
 the Gaussian 88(TM) system (copyright 1988, Gaussian, Inc.),
 the Gaussian 86(TM) system (copyright 1986, Carnegie Mellon
 University), and the Gaussian 82(TM) system (copyright 1983,
 Carnegie Mellon University). Gaussian is a federally registered
 trademark of Gaussian, Inc.
  
 This software contains proprietary and confidential information,
 including trade secrets, belonging to Gaussian, Inc.
  
 This software is provided under written license and may be
 used, copied, transmitted, or stored only in accord with that
 written license.
  
 The following legend is applicable only to US Government
 contracts under FAR:
  
                    RESTRICTED RIGHTS LEGEND
  
 Use, reproduction and disclosure by the US Government is
 subject to restrictions as set forth in subparagraphs (a)
 and (c) of the Commercial Computer Software - Restricted
 Rights clause in FAR 52.227-19.
  
 Gaussian, Inc.
 340 Quinnipiac St., Bldg. 40, Wallingford CT 06492
  
  
 ---------------------------------------------------------------
 Warning -- This program may not be used in any manner that
 competes with the business of Gaussian, Inc. or will provide
 assistance to any competitor of Gaussian, Inc.  The licensee
 of this program is prohibited from giving any competitor of
 Gaussian, Inc. access to this program.  By using this program,
 the user acknowledges that Gaussian, Inc. is engaged in the
 business of creating and licensing software in the field of
 computational chemistry and represents and warrants to the
 licensee that it is not a competitor of Gaussian, Inc. and that
 it will not use this program in any manner prohibited above.
 ---------------------------------------------------------------
  

 Cite this work as:
<<<<<<< HEAD
 Gaussian 16, Revision A.03,
 M. J. Frisch, G. W. Trucks, H. B. Schlegel, G. E. Scuseria, 
 M. A. Robb, J. R. Cheeseman, G. Scalmani, V. Barone, 
 G. A. Petersson, H. Nakatsuji, X. Li, M. Caricato, A. V. Marenich, 
 J. Bloino, B. G. Janesko, R. Gomperts, B. Mennucci, H. P. Hratchian, 
 J. V. Ortiz, A. F. Izmaylov, J. L. Sonnenberg, D. Williams-Young, 
 F. Ding, F. Lipparini, F. Egidi, J. Goings, B. Peng, A. Petrone, 
 T. Henderson, D. Ranasinghe, V. G. Zakrzewski, J. Gao, N. Rega, 
 G. Zheng, W. Liang, M. Hada, M. Ehara, K. Toyota, R. Fukuda, 
 J. Hasegawa, M. Ishida, T. Nakajima, Y. Honda, O. Kitao, H. Nakai, 
 T. Vreven, K. Throssell, J. A. Montgomery, Jr., J. E. Peralta, 
 F. Ogliaro, M. J. Bearpark, J. J. Heyd, E. N. Brothers, K. N. Kudin, 
 V. N. Staroverov, T. A. Keith, R. Kobayashi, J. Normand, 
 K. Raghavachari, A. P. Rendell, J. C. Burant, S. S. Iyengar, 
 J. Tomasi, M. Cossi, J. M. Millam, M. Klene, C. Adamo, R. Cammi, 
 J. W. Ochterski, R. L. Martin, K. Morokuma, O. Farkas, 
 J. B. Foresman, and D. J. Fox, Gaussian, Inc., Wallingford CT, 2016.
 
 ******************************************
 Gaussian 16:  ES64L-G16RevA.03 25-Dec-2016
                29-Jun-2019 
=======
 Gaussian 09, Revision D.01,
 M. J. Frisch, G. W. Trucks, H. B. Schlegel, G. E. Scuseria, 
 M. A. Robb, J. R. Cheeseman, G. Scalmani, V. Barone, B. Mennucci, 
 G. A. Petersson, H. Nakatsuji, M. Caricato, X. Li, H. P. Hratchian, 
 A. F. Izmaylov, J. Bloino, G. Zheng, J. L. Sonnenberg, M. Hada, 
 M. Ehara, K. Toyota, R. Fukuda, J. Hasegawa, M. Ishida, T. Nakajima, 
 Y. Honda, O. Kitao, H. Nakai, T. Vreven, J. A. Montgomery, Jr., 
 J. E. Peralta, F. Ogliaro, M. Bearpark, J. J. Heyd, E. Brothers, 
 K. N. Kudin, V. N. Staroverov, T. Keith, R. Kobayashi, J. Normand, 
 K. Raghavachari, A. Rendell, J. C. Burant, S. S. Iyengar, J. Tomasi, 
 M. Cossi, N. Rega, J. M. Millam, M. Klene, J. E. Knox, J. B. Cross, 
 V. Bakken, C. Adamo, J. Jaramillo, R. Gomperts, R. E. Stratmann, 
 O. Yazyev, A. J. Austin, R. Cammi, C. Pomelli, J. W. Ochterski, 
 R. L. Martin, K. Morokuma, V. G. Zakrzewski, G. A. Voth, 
 P. Salvador, J. J. Dannenberg, S. Dapprich, A. D. Daniels, 
 O. Farkas, J. B. Foresman, J. V. Ortiz, J. Cioslowski, 
 and D. J. Fox, Gaussian, Inc., Wallingford CT, 2013.
 
 ******************************************
 Gaussian 09:  ES64L-G09RevD.01 24-Apr-2013
                 2-Jul-2019 
>>>>>>> 8e03b5b5abfc0030b3aa597dc0de36371bfbd096
 ******************************************
 %nproc=4
 Will use up to    4 processors via shared memory.
 %Mem=2GB
 -------------------------------------
 # td=(NStates=1) CAM-B3LYP/6-31G(d,p)
 -------------------------------------
<<<<<<< HEAD
 1/38=1,172=1/1;
 2/12=2,17=6,18=5,40=1/2;
 3/5=1,6=6,7=101,11=9,25=1,30=1,74=-40/1,2,3,8;
=======
 1/38=1/1;
 2/12=2,17=6,18=5,40=1/2;
 3/5=1,6=6,7=101,11=9,16=1,25=1,30=1,74=-40/1,2,8,3;
>>>>>>> 8e03b5b5abfc0030b3aa597dc0de36371bfbd096
 4//1;
 5/5=2,38=5/2;
 8/6=1,10=2,108=1/1;
 9/41=1,42=1,70=2/14;
 6/7=2,8=2,9=2,10=2/1;
 99/5=1,9=1/99;
 --
 TD
 --
 Symbolic Z-matrix:
 Charge =  0 Multiplicity = 1
<<<<<<< HEAD
 12                   -7.16823   0.54351   0.11505 
 6                    -4.82271  -1.99867   0.47733 
 6                    -4.73874   2.83342   1.11617 
 6                    -9.46336   3.11216  -0.38856 
 6                    -9.52351  -1.63968  -0.77715 
 7                    -5.10596   0.38441   0.64246 
 6                    -4.33904  -0.68241   0.7115 
 6                    -2.9124   -0.43151   1.2383 
 6                    -3.03329   1.02172   1.64846 
 6                    -4.38084   1.47121   1.23615 
 6                    -2.94908   1.22467   3.13549 
 6                    -1.89238  -0.5483    0.08887 
 6                    -0.33075  -0.30834   0.48667 
 6                     0.53124  -0.63317  -0.67072 
 8                     0.11149  -1.01518  -1.76893 
 8                     1.76895  -0.34005  -0.3396 
 7                    -7.19928   2.6167    0.37159 
 6                    -6.04366   3.30887   0.75403 
 6                    -6.40693   4.76163   0.80631 
 6                    -7.7189    4.86353   0.30384 
 6                    -8.15038   3.55172   0.08143 
 6                    -5.44033   5.95751   0.95583 
 6                    -8.45539   6.10954  -0.07733 
 6                    -8.49586   7.12096   0.83727 
 7                    -9.06124   0.65794  -0.52509 
 6                    -9.84004   1.78199  -0.59179 
 6                    -11.27602   1.43879  -0.96996 
 6                    -11.28756   0.07023  -1.153 
 6                    -9.92497  -0.3665   -0.80443 
 6                    -12.26819   2.56249  -1.28532 
 6                    -12.48138  -0.77672  -1.62196 
 6                    -12.26528  -1.14774  -3.23643 
 7                    -7.16317  -1.37693  -0.18813 
 6                    -8.28156  -2.253    -0.48809 
 6                    -7.837    -3.57188  -0.55383 
 6                    -6.51136  -3.58111  -0.11361 
 6                    -6.1826   -2.1772    0.15003 
 6                    -8.7929   -4.72334  -0.87272 
 6                    -5.35886  -4.42071   0.25452 
 8                    -5.24139  -5.53894   0.21551 
 6                    -4.14718  -3.36652   0.53025 
 6                    -3.47101  -3.67926   1.86398 
 8                    -3.79027  -3.17054   2.97557 
 8                    -2.73428  -4.74659   1.69805 
 6                    -2.11353  -5.37559   2.90486 
 6                     2.7559   -0.6474   -1.26926 
 6                     4.09445  -0.47733  -0.72996 
 6                     5.13366   0.38916  -1.02152 
 6                     5.05095   1.2839   -2.24799 
 6                     6.38402   0.42075  -0.30417 
 6                     7.6273   -0.23922  -1.02111 
 6                     8.89316  -0.13423  -0.14651 
 6                     10.25113  -0.58542  -0.80013 
 6                     10.19673  -2.18697  -1.131 
 6                     11.45019  -0.28627   0.06519 
 6                     12.80623  -0.62563  -0.60731 
 6                     14.05853  -0.13531   0.25347 
 6                     15.38434  -0.23149  -0.38631 
 6                     15.77122  -1.6837   -0.88046 
 6                     16.43939   0.3499    0.42661 
 6                     17.88236   0.32172  -0.07694 
 6                     18.7735   1.33224   0.76985 
 6                     20.24049   1.4995    0.28564 
 6                     20.26044   2.07713  -1.16103 
 6                     21.12445   2.2858    1.32534 
 1                    -3.95755   3.67119   1.5621 
 1                    -10.17787   3.7798   -0.76329 
 1                    -10.05101  -2.55814  -1.10747 
 1                    -2.62658  -1.19528   1.96599 
 1                    -2.1762    1.54146   1.16493 
 1                    -2.00827   0.75851   3.67657 
 1                    -3.16219   2.11574   3.62107 
 1                    -3.79172   0.51504   3.52719 
 1                    -1.96518  -1.47103  -0.5121 
 1                    -2.17223   0.13213  -0.51407 
 1                    -0.07067   0.63386   0.88383 
 1                    -0.05594  -0.96987   1.35148 
 1                    -5.96711   6.88757   0.42409 
 1                    -5.44808   6.48906   2.0392 
 1                    -4.45423   5.65331   0.65637 
 1                    -9.18278   5.94219  -0.81685 
 1                    -9.03636   7.95479   0.53375 
 1                    -7.91956   7.11917   1.80815 
 1                    -11.95935   3.34602  -2.25522 
 1                    -13.24206   1.9707   -1.45302 
 1                    -12.32481   3.15622  -0.51274 
 1                    -12.55741  -1.67168  -0.83197 
 1                    -13.41808  -0.34309  -1.33088 
 1                    -13.13942  -1.82575  -3.69677 
 1                    -12.36812  -0.1942   -3.51627 
 1                    -11.13686  -1.36426  -3.42004 
 1                    -8.93356  -4.63264  -1.91593 
 1                    -8.34932  -5.80794  -0.5954 
 1                    -9.85779  -4.68331  -0.30325 
 1                    -3.42358  -3.60535  -0.38641 
 1                    -1.44819  -4.6747    3.41942 
 1                    -3.03363  -5.71105   3.58488 
 1                    -1.4223   -6.23716   2.57572 
 1                     2.8365   -1.6701   -1.64066 
 1                     2.63755   0.13003  -2.24809 
 1                     4.3253   -1.16795   0.0861 
 1                     4.06441   1.22978  -2.53988 
 1                     5.44411   2.28085  -1.99169 
 1                     5.75716   0.84958  -2.96034 
 1                     6.69882   1.49347   0.04084 
 1                     6.39543  -0.03684   0.62884 
 1                     7.40774  -1.24499  -1.29201 
 1                     8.01484   0.44044  -1.86893 
 1                     9.23353   0.8423    0.11266 
 1                     8.57812  -0.68383   0.87272 
 1                     10.41592  -0.04108  -1.69101 
 1                     9.18735  -2.30139  -1.82676 
 1                     11.02105  -2.22132  -1.86504 
 1                     10.09592  -2.87975  -0.3595 
 1                     11.29161   0.88106   0.1522 
 1                     11.45756  -0.64145   1.09503 
 1                     12.95822  -1.59156  -0.82346 
 1                     12.9113  -0.0903   -1.65379 
 1                     14.0161   0.92999   0.45995 
 1                     13.76807  -0.74371   1.13689 
 1                     15.28039   0.29122  -1.2819 
 1                     15.74138  -2.42517   0.01579 
 1                     14.91321  -2.06162  -1.47642 
 1                     16.77085  -1.60149  -1.43574 
 1                     16.18653   1.55241   0.80437 
 1                     16.54642  -0.13283   1.45852 
 1                     18.27413  -0.58907  -0.13524 
 1                     17.84723   0.77319  -1.06322 
 1                     18.21927   2.58446   0.59409 
 1                     18.77646   0.98929   1.91049 
 1                     20.64328   0.39593   0.19464 
 1                     19.77689   3.28656  -1.34521 
 1                     21.26824   2.2779   -1.46441 
 1                     19.76505   1.53895  -1.93729 
 1                     20.98094   1.9623    2.43095 
 1                     22.23906   2.31146   1.03943 
 1                     20.73906   3.31975   1.18439 
=======
 12                   -7.0803    0.59822   0.01245 
 6                    -4.81053  -1.93399   0.72228 
 6                    -4.81585   2.86333   1.09805 
 6                    -9.36497   3.15148  -0.39122 
 6                    -9.50484  -1.76491  -0.98162 
 7                    -5.10626   0.47757   0.6889 
 6                    -4.38255  -0.69101   1.00451 
 6                    -2.93591  -0.37505   1.30564 
 6                    -3.00628   1.07759   1.77836 
 6                    -4.40103   1.49568   1.12169 
 6                    -2.98476   1.25531   3.28516 
 6                    -1.98001  -0.64912   0.118 
 6                    -0.53769  -0.3011    0.47643 
 6                     0.48217  -0.55278  -0.64047 
 8                     0.22269  -0.93894  -1.74573 
 8                     1.71366  -0.25419  -0.2362 
 7                    -7.06424   2.57313   0.24685 
 6                    -6.03449   3.35921   0.65677 
 6                    -6.40205   4.77727   0.75968 
 6                    -7.66333   4.77932   0.34812 
 6                    -8.08769   3.46198  -0.0039 
 6                    -5.41404   5.80559   1.28768 
 6                    -8.55381   6.01269   0.04672 
 6                    -8.64453   7.12405   0.965 
 7                    -9.11685   0.63426  -0.46387 
 6                    -9.8496    1.71346  -0.70643 
 6                    -11.21502   1.48633  -1.17704 
 6                    -11.31638   0.14803  -1.24779 
 6                    -9.85067  -0.43592  -0.86808 
 6                    -12.33218   2.38118  -1.47435 
 6                    -12.3626  -0.75913  -1.77382 
 6                    -12.10813  -1.11644  -3.31428 
 7                    -7.23618  -1.42153  -0.21626 
 6                    -8.15908  -2.23913  -0.6155 
 6                    -7.75771  -3.69308  -0.57973 
 6                    -6.47217  -3.62617  -0.02958 
 6                    -6.18052  -2.2538    0.1687 
 6                    -8.65093  -4.8514   -0.90492 
 6                    -5.24886  -4.34034   0.23022 
 8                    -5.08588  -5.58343   0.2198 
 6                    -4.11959  -3.28361   0.66704 
 6                    -3.50648  -3.65733   1.9929 
 8                    -3.86761  -3.16288   3.01501 
 8                    -2.73232  -4.70799   1.86621 
 6                    -2.25272  -5.18397   3.14541 
 6                     2.74338  -0.61721  -1.20332 
 6                     3.99589  -0.38176  -0.59228 
 6                     5.06502   0.35566  -1.11184 
 6                     5.06759   1.14528  -2.32929 
 6                     6.41496   0.54469  -0.32362 
 6                     7.58381  -0.01901  -1.04973 
 6                     8.88754  -0.01668  -0.11213 
 6                     10.14083  -0.52106  -0.86388 
 6                     10.05569  -2.07648  -1.13256 
 6                     11.41985  -0.31694  -0.07999 
 6                     12.70247  -0.50029  -0.76492 
 6                     13.9103  -0.16182   0.21053 
 6                     15.38393  -0.1495   -0.49652 
 6                     15.77888  -1.5805   -1.00587 
 6                     16.41915   0.28513   0.43953 
 6                     17.89125   0.39241  -0.28817 
 6                     18.77641   1.20928   0.70179 
 6                     20.35993   1.26387   0.24085 
 6                     20.41741   2.24018  -1.01549 
 6                     21.11557   1.8275    1.32978 
 1                    -4.26545   3.70876   1.45119 
 1                    -10.068    4.02422  -0.41252 
 1                    -10.33084  -2.35695  -1.34002 
 1                    -2.77693  -0.71901   2.12792 
 1                    -2.26793   1.75042   1.37858 
 1                    -2.10171   0.86045   3.75381 
 1                    -3.02536   2.41834   3.59384 
 1                    -3.76235   0.62809   3.77425 
 1                    -2.00829  -1.53907  -0.31994 
 1                    -2.22921  -0.07428  -0.82083 
 1                    -0.48152   0.7616    0.93661 
 1                    -0.18529  -1.08179   1.1777 
 1                    -5.7376    6.89889   1.00942 
 1                    -5.754     5.82145   2.52328 
 1                    -4.21623   5.52548   0.96563 
 1                    -9.08941   6.04775  -0.86044 
 1                    -9.40786   7.95481   0.84871 
 1                    -8.08353   7.23685   1.82453 
 1                    -12.07445   3.12722  -2.28906 
 1                    -13.3362   1.94759  -1.70267 
 1                    -12.63531   2.91183  -0.50685 
 1                    -12.37454  -1.69158  -1.09986 
 1                    -13.1682  -0.27497  -1.72722 
 1                    -12.83849  -1.97625  -3.72709 
 1                    -12.35539  -0.33006  -4.16588 
 1                    -11.08368  -1.60899  -3.48707 
 1                    -8.77466  -5.01679  -1.99153 
 1                    -8.21757  -5.86841  -0.51353 
 1                    -9.85855  -4.7517   -0.56672 
 1                    -3.35227  -3.46301   0.03062 
 1                    -1.56419  -4.46067   3.56092 
 1                    -3.09594  -5.4173    3.81869 
 1                    -1.73438  -6.15228   2.95715 
 1                     2.51367  -1.67424  -1.6192 
 1                     2.51265  -0.01799  -2.0866 
 1                     3.92416  -1.04989   0.43772 
 1                     4.05159   1.45791  -2.79817 
 1                     5.67382   2.17868  -2.01026 
 1                     5.56459   0.59767  -3.11682 
 1                     6.707     1.50174  -0.08359 
 1                     6.39912   0.22758   0.61752 
 1                     7.63591  -1.21029  -1.2044 
 1                     7.75792   0.45271  -1.92286 
 1                     9.3215    0.98333  -0.01676 
 1                     8.48679  -0.64306   0.83308 
 1                     10.27901   0.2559   -1.78652 
 1                     9.20369  -2.2949   -1.93923 
 1                     10.99247  -2.39056  -1.6008 
 1                     9.96485  -2.68522  -0.38265 
 1                     11.20795   0.8283    0.36108 
 1                     11.27657  -1.04097   0.89044 
 1                     12.70791  -1.6634   -1.08755 
 1                     12.78186   0.16724  -1.63403 
 1                     13.80573   1.00319   0.45562 
 1                     14.03046  -0.91781   0.96518 
 1                     15.0505   0.56128  -1.21908 
 1                     15.79186  -2.31862  -0.23699 
 1                     15.06563  -1.90341  -1.61737 
 1                     16.88033  -1.467    -1.23822 
 1                     16.2574   1.3263    0.9963 
 1                     16.62482  -0.3259    1.2902 
 1                     18.04816  -0.51797  -0.56982 
 1                     17.65941   0.87625  -1.23336 
 1                     18.34526   2.30081   0.73116 
 1                     18.63345   0.8232    1.82474 
 1                     20.68976   0.04718   0.30696 
 1                     19.82059   3.09114  -0.7258 
 1                     21.40968   2.21884  -1.35929 
 1                     19.91497   1.82997  -1.76173 
 1                     21.24945   0.90796   2.06831 
 1                     22.1817   2.04047   0.99387 
 1                     20.833    2.71629   1.8387 
>>>>>>> 8e03b5b5abfc0030b3aa597dc0de36371bfbd096
 
 Stoichiometry    C55H72MgN4O5
 Framework group  C1[X(C55H72MgN4O5)]
 Deg. of freedom   405
 Full point group                 C1      NOp   1
 Largest Abelian subgroup         C1      NOp   1
 Largest concise Abelian subgroup C1      NOp   1
                         Standard orientation:                         
 ---------------------------------------------------------------------
 Center     Atomic      Atomic             Coordinates (Angstroms)
 Number     Number       Type             X           Y           Z
 ---------------------------------------------------------------------
<<<<<<< HEAD
      1         12           0       -7.169180    0.547580    0.119936
      2          6           0       -4.825475   -1.998010    0.469842
      3          6           0       -4.737693    2.831023    1.130910
      4          6           0       -9.462518    3.120242   -0.371187
      5          6           0       -9.526358   -1.629706   -0.781653
      6          7           0       -5.106890    0.384495    0.646031
      7          6           0       -4.340754   -0.683205    0.709933
      8          6           0       -2.913776   -0.435812    1.237486
      9          6           0       -3.033453    1.015610    1.654363
     10          6           0       -4.380777    1.468002    1.244513
     11          6           0       -2.948679    1.211643    3.142298
     12          6           0       -1.894167   -0.548069    0.087241
     13          6           0       -0.332243   -0.311115    0.485702
     14          6           0        0.529184   -0.631258   -0.673421
     15          8           0        0.108838   -1.007888   -1.773262
     16          8           0        1.767201   -0.340603   -0.341302
     17          7           0       -7.198599    2.619582    0.386031
     18          6           0       -6.042355    3.309118    0.771333
     19          6           0       -6.404510    4.761893    0.830411
     20          6           0       -7.716549    4.867091    0.328784
     21          6           0       -8.149074    3.556652    0.100455
     22          6           0       -5.436971    5.956342    0.985166
     23          6           0       -8.452205    6.115402   -0.046433
     24          6           0       -8.491658    7.122624    0.872830
     25          7           0       -9.062282    0.666377   -0.519132
     26          6           0       -9.840256    1.791308   -0.580431
     27          6           0      -11.276596    1.450938   -0.959777
     28          6           0      -11.289222    0.083245   -1.149122
     29          6           0       -9.926862   -0.356112   -0.802944
     30          6           0      -12.268005    2.576820   -1.269672
     31          6           0      -12.483812   -0.760634   -1.621642
     32          6           0      -12.268443   -1.124375   -3.237861
     33          7           0       -7.165650   -1.371447   -0.192094
     34          6           0       -8.284786   -2.245287   -0.495772
     35          6           0       -7.841239   -3.564179   -0.567712
     36          6           0       -6.515479   -3.576441   -0.127914
     37          6           0       -6.185594   -2.174002    0.142100
     38          6           0       -8.798092   -4.713438   -0.891628
     39          6           0       -5.363515   -4.418589    0.236020
     40          8           0       -5.246901   -5.536718    0.191825
     41          6           0       -4.150962   -3.366599    0.516267
     42          6           0       -3.474656   -3.685990    1.848345
     43          8           0       -3.793225   -3.182158    2.962361
     44          8           0       -2.738783   -4.753094    1.677293
     45          6           0       -2.118168   -5.388118    2.881013
     46          6           0        2.753659   -0.644409   -1.272644
     47          6           0        4.092491   -0.477826   -0.732949
     48          6           0        5.132268    0.389207   -1.020805
     49          6           0        5.049897    1.289657   -2.243113
     50          6           0        6.382857    0.416560   -0.303665
     51          6           0        7.625437   -0.241043   -1.023991
     52          6           0        8.891620   -0.141030   -0.149271
     53          6           0       10.249062   -0.590222   -0.805351
     54          6           0       10.193364   -2.190193   -1.143577
     55          6           0       11.448590   -0.295971    0.060999
     56          6           0       12.804185   -0.633243   -0.613439
     57          6           0       14.057093   -0.147845    0.249241
     58          6           0       15.382661   -0.242065   -0.391348
     59          6           0       15.768304   -1.692273   -0.892294
     60          6           0       16.438369    0.334775    0.423938
     61          6           0       17.881182    0.307835   -0.080144
     62          6           0       18.773314    1.313769    0.771043
     63          6           0       20.240299    1.482154    0.287200
     64          6           0       20.260276    2.066425   -1.156799
     65          6           0       21.125142    2.262991    1.330257
     66          1           0       -3.955741    3.666142    1.580477
     67          1           0      -10.176626    3.790141   -0.742635
     68          1           0      -10.054637   -2.546233   -1.116046
     69          1           0       -2.628327   -1.203137    1.961561
     70          1           0       -2.176111    1.536921    1.172992
     71          1           0       -2.008065    0.742278    3.680955
     72          1           0       -3.160983    2.100617    3.632038
     73          1           0       -3.791747    0.500841    3.530952
     74          1           0       -1.967826   -1.467962   -0.517952
     75          1           0       -2.173668    0.135342   -0.512483
     76          1           0       -0.071343    0.629043    0.887121
     77          1           0       -0.057694   -0.976835    1.347373
     78          1           0       -5.963192    6.889237    0.457863
     79          1           0       -5.444019    6.482904    2.070976
     80          1           0       -4.451182    5.652782    0.684028
     81          1           0       -9.179924    5.952007   -0.786512
     82          1           0       -9.031616    7.958248    0.573310
     83          1           0       -7.915087    7.115927    1.843528
     84          1           0      -11.958850    3.364586   -2.236042
     85          1           0      -13.242376    1.986546   -1.439824
     86          1           0      -12.323971    3.167034   -0.494356
     87          1           0      -12.560294   -1.659169   -0.835758
     88          1           0      -13.420102   -0.327651   -1.328299
     89          1           0      -13.143218   -1.799599   -3.701074
     90          1           0      -12.370639   -0.169486   -3.513272
     91          1           0      -11.140234   -1.340900   -3.422787
     92          1           0       -8.938981   -4.617835   -1.934378
     93          1           0       -8.355260   -5.799643   -0.619437
     94          1           0       -9.862792   -4.675239   -0.321685
     95          1           0       -3.427802   -3.601748   -0.401695
     96          1           0       -1.452158   -4.690109    3.398619
     97          1           0       -3.038332   -5.726016    3.559746
     98          1           0       -1.427678   -6.248683    2.547718
     99          1           0        2.833390   -1.665444   -1.648775
    100          1           0        2.635626    0.137612   -2.247848
    101          1           0        4.323050   -1.172376    0.079860
    102          1           0        4.063227    1.237625   -2.534974
    103          1           0        5.443875    2.285117   -1.982330
    104          1           0        5.755580    0.858088   -2.957662
    105          1           0        6.698560    1.487441    0.046189
    106          1           0        6.394183   -0.045339    0.627223
    107          1           0        7.405041   -1.245388   -1.299462
    108          1           0        8.013256    0.442226   -1.868780
    109          1           0        9.232792    0.834039    0.114295
    110          1           0        8.576445   -0.695089    0.867496
    111          1           0       10.414017   -0.041913   -1.693763
    112          1           0        9.183711   -2.300645   -1.839574
    113          1           0       11.017461   -2.221780   -1.878004
    114          1           0       10.092253   -2.886445   -0.375247
    115          1           0       11.290913    0.871067    0.153430
    116          1           0       11.455981   -0.655896    1.089192
    117          1           0       12.955390   -1.598282   -0.834079
    118          1           0       12.909376   -0.093178   -1.657468
    119          1           0       14.015531    0.916524    0.460641
    120          1           0       13.766425   -0.760090    1.129928
    121          1           0       15.278852    0.284839   -1.284497
    122          1           0       15.738157   -2.437849    0.000536
    123          1           0       14.909849   -2.066800   -1.489744
    124          1           0       16.767838   -1.608256   -1.447469
    125          1           0       16.186526    1.535725    0.807306
    126          1           0       16.545324   -0.152787    1.453584
    127          1           0       18.272245   -0.602970   -0.142744
    128          1           0       17.846116    0.763872   -1.064320
    129          1           0       18.219983    2.567204    0.601211
    130          1           0       18.776340    0.965567    1.910093
    131          1           0       20.642229    0.378708    0.190996
    132          1           0       19.777591    3.277060   -1.335269
    133          1           0       21.268146    2.267841   -1.459535
    134          1           0       19.764267    1.532200   -1.935394
    135          1           0       20.981697    1.934511    2.434410
    136          1           0       22.239683    2.289131    1.044155
    137          1           0       20.740492    3.297870    1.194183
 ---------------------------------------------------------------------
 Rotational constants (GHZ):           0.0643283           0.0060779           0.0057191
=======
      1         12           0       -7.077562    0.597204    0.011407
      2          6           0       -4.807332   -1.936887    0.713025
      3          6           0       -4.813987    2.859103    1.105497
      4          6           0       -9.362780    3.151274   -0.383985
      5          6           0       -9.501232   -1.763068   -0.991545
      6          7           0       -5.103679    0.474701    0.687965
      7          6           0       -4.379749   -0.694783    0.999698
      8          6           0       -2.933275   -0.379502    1.302319
      9          6           0       -3.004146    1.071462    1.780074
     10          6           0       -4.398819    1.491481    1.124489
     11          6           0       -2.983076    1.243936    3.287491
     12          6           0       -1.976985   -0.649194    0.113984
     13          6           0       -0.534850   -0.302061    0.474019
     14          6           0        0.485375   -0.549583   -0.643477
     15          8           0        0.226295   -0.931958   -1.750146
     16          8           0        1.716684   -0.252093   -0.237838
     17          7           0       -7.062069    2.571294    0.252692
     18          6           0       -6.032637    3.356198    0.665621
     19          6           0       -6.400582    4.773803    0.773368
     20          6           0       -7.661753    4.776961    0.361484
     21          6           0       -8.085685    3.460744    0.004762
     22          6           0       -5.412979    5.800530    1.305219
     23          6           0       -8.552472    6.011150    0.064139
     24          6           0       -8.643719    7.119278    0.986261
     25          7           0       -9.113999    0.634381   -0.465333
     26          6           0       -9.846957    1.714238   -0.704328
     27          6           0      -11.212192    1.488395   -1.176096
     28          6           0      -11.313194    0.150327   -1.251538
     29          6           0       -9.847433   -0.434563   -0.873468
     30          6           0      -12.329502    2.383992   -1.470594
     31          6           0      -12.359037   -0.755265   -1.781002
     32          6           0      -12.104058   -1.107144   -3.322626
     33          7           0       -7.232868   -1.421777   -0.224373
     34          6           0       -8.155445   -2.238214   -0.626708
     35          6           0       -7.753718   -3.692176   -0.595892
     36          6           0       -6.468342   -3.626854   -0.045175
     37          6           0       -6.177096   -2.255115    0.157966
     38          6           0       -8.646555   -4.849585   -0.925359
     39          6           0       -5.244918   -4.341613    0.212466
     40          8           0       -5.081615   -5.584623    0.197764
     41          6           0       -4.116032   -3.286130    0.653269
     42          6           0       -3.503188   -3.664305    1.977988
     43          8           0       -3.864717   -3.173513    3.001721
     44          8           0       -2.728729   -4.714315    1.847844
     45          6           0       -2.249342   -5.194632    3.125512
     46          6           0        2.746750   -0.611477   -1.205940
     47          6           0        3.999041   -0.377834   -0.593743
     48          6           0        5.068120    0.361662   -1.110445
     49          6           0        5.070810    1.155514   -2.325133
     50          6           0        6.417795    0.548285   -0.321205
     51          6           0        7.586985   -0.012583   -1.048962
     52          6           0        8.890467   -0.013181   -0.111009
     53          6           0       10.144092   -0.514622   -0.864168
     54          6           0       10.059420   -2.069118   -1.138285
     55          6           0       11.422849   -0.312904   -0.079226
     56          6           0       12.705690   -0.493549   -0.764444
     57          6           0       13.913177   -0.158163    0.212499
     58          6           0       15.386997   -0.143006   -0.494102
     59          6           0       15.782446   -1.572120   -1.008329
     60          6           0       16.421846    0.288626    0.443731
     61          6           0       17.894122    0.398813   -0.283196
     62          6           0       18.778801    1.212455    0.709846
     63          6           0       20.362437    1.269051    0.249525
     64          6           0       20.420003    2.249751   -1.003393
     65          6           0       21.117638    1.829077    1.340614
     66          1           0       -4.263895    3.703430    1.461731
     67          1           0      -10.066024    4.023906   -0.402430
     68          1           0      -10.326980   -2.354060   -1.352223
     69          1           0       -2.774430   -0.726287    2.123441
     70          1           0       -2.265857    1.745867    1.382839
     71          1           0       -2.100052    0.847670    3.755000
     72          1           0       -3.024050    2.405871    3.600210
     73          1           0       -3.760633    0.614817    3.774184
     74          1           0       -2.004921   -1.537624   -0.327052
     75          1           0       -2.226083   -0.071151   -0.822903
     76          1           0       -0.479076    0.759050    0.937915
     77          1           0       -0.182434   -1.085097    1.172661
     78          1           0       -5.736747    6.894706    1.030674
     79          1           0       -5.753278    5.811993    2.540770
     80          1           0       -4.215007    5.521850    0.982515
     81          1           0       -9.087835    6.049231   -0.843035
     82          1           0       -9.407234    7.950241    0.872661
     83          1           0       -8.082978    7.229228    1.846328
     84          1           0      -12.071744    3.132935   -2.282629
     85          1           0      -13.333351    1.950944   -1.700691
     86          1           0      -12.633021    2.911193   -0.501331
     87          1           0      -12.370920   -1.690055   -1.110303
     88          1           0      -13.164768   -0.271477   -1.732933
     89          1           0      -12.834089   -1.965695   -3.738631
     90          1           0      -12.351292   -0.317859   -4.171553
     91          1           0      -11.079442   -1.598819   -3.496855
     92          1           0       -8.769945   -5.011225   -2.012575
     93          1           0       -8.213038   -5.867840   -0.537399
     94          1           0       -9.854284   -4.751373   -0.587139
     95          1           0       -3.348495   -3.463112    0.016437
     96          1           0       -1.561118   -4.472608    3.543724
     97          1           0       -3.092687   -5.430521    3.797753
     98          1           0       -1.730709   -6.162150    2.934021
     99          1           0        2.517427   -1.667110   -1.625555
    100          1           0        2.516106   -0.009241   -2.087190
    101          1           0        3.927206   -1.049566    0.433900
    102          1           0        4.054865    1.469523   -2.793197
    103          1           0        5.676697    2.187952   -2.002343
    104          1           0        5.568170    0.610780   -3.114435
    105          1           0        6.709533    1.504575   -0.077762
    106          1           0        6.401792    0.227903    0.618820
    107          1           0        7.639436   -1.203302   -1.207766
    108          1           0        7.761211    0.462220   -1.920390
    109          1           0        9.324149    0.986594   -0.012041
    110          1           0        8.489619   -0.642954    0.831910
    111          1           0       10.282312    0.265579   -1.784065
    112          1           0        9.207686   -2.284944   -1.945944
    113          1           0       10.996406   -2.381324   -1.607371
    114          1           0        9.968531   -2.680491   -0.390526
    115          1           0       11.210531    0.830729    0.365767
    116          1           0       11.279489   -1.040350    0.888634
    117          1           0       12.711524   -1.655527   -1.091121
    118          1           0       12.785150    0.177026   -1.631203
    119          1           0       13.808244    1.005959    0.461622
    120          1           0       14.033323   -0.916750    0.964549
    121          1           0       15.053574    0.570195   -1.214271
    122          1           0       15.795405   -2.312917   -0.242015
    123          1           0       15.069443   -1.893087   -1.621141
    124          1           0       16.883927   -1.457537   -1.239980
    125          1           0       16.259685    1.327807    1.004078
    126          1           0       16.627445   -0.325315    1.292327
    127          1           0       18.051332   -0.510539   -0.567969
    128          1           0       17.662411    0.885888   -1.226750
    129          1           0       18.347361    2.303771    0.742902
    130          1           0       18.635640    0.822427    1.831408
    131          1           0       20.692560    0.052227    0.311485
    132          1           0       19.822881    3.099545   -0.710896
    133          1           0       21.412363    2.229858   -1.346993
    134          1           0       19.917861    1.842017   -1.751193
    135          1           0       21.251553    0.907008    2.075972
    136          1           0       22.183801    2.043487    1.005742
    137          1           0       20.834704    2.716023    1.852557
 ---------------------------------------------------------------------
 Rotational constants (GHZ):      0.0642246      0.0060859      0.0057427
>>>>>>> 8e03b5b5abfc0030b3aa597dc0de36371bfbd096
 Standard basis: 6-31G(d,p) (6D, 7F)
 There are  1339 symmetry adapted cartesian basis functions of A   symmetry.
 There are  1339 symmetry adapted basis functions of A   symmetry.
  1339 basis functions,  2348 primitive gaussians,  1339 cartesian basis functions
   241 alpha electrons      241 beta electrons
<<<<<<< HEAD
       nuclear repulsion energy      8726.2802106834 Hartrees.
=======
       nuclear repulsion energy      8737.0377405385 Hartrees.
>>>>>>> 8e03b5b5abfc0030b3aa597dc0de36371bfbd096
 NAtoms=  137 NActive=  137 NUniq=  137 SFac= 1.00D+00 NAtFMM=   60 NAOKFM=T Big=T
 Integral buffers will be    131072 words long.
 Raffenetti 1 integral format.
 Two-electron integral symmetry is turned on.
 One-electron integrals computed using PRISM.
<<<<<<< HEAD
 NBasis=  1339 RedAO= T EigKep=  2.83D-04  NBF=  1339
 NBsUse=  1339 1.00D-06 EigRej= -1.00D+00 NBFU=  1339
 ExpMin= 4.21D-02 ExpMax= 1.17D+04 ExpMxC= 1.76D+03 IAcc=3 IRadAn=         5 AccDes= 0.00D+00
 Harris functional with IExCor=20419 and IRadAn=       5 diagonalized for initial guess.
 HarFok:  IExCor=20419 AccDes= 0.00D+00 IRadAn=         5 IDoV= 1 UseB2=F ITyADJ=14
 ICtDFT=  3500011 ScaDFX=  1.000000  1.000000  1.000000  1.000000
 FoFCou: FMM=F IPFlag=           0 FMFlag=      100000 FMFlg1=        2001
         NFxFlg=           0 DoJE=T BraDBF=F KetDBF=T FulRan=T
         wScrn=  0.000000 ICntrl=       500 IOpCl=  0 I1Cent=   200000004 NGrid=           0
=======
 NBasis=  1339 RedAO= T EigKep=  3.28D-04  NBF=  1339
 NBsUse=  1339 1.00D-06 EigRej= -1.00D+00 NBFU=  1339
 ExpMin= 4.21D-02 ExpMax= 1.17D+04 ExpMxC= 1.76D+03 IAcc=2 IRadAn=         4 AccDes= 0.00D+00
 Harris functional with IExCor=20419 and IRadAn=       4 diagonalized for initial guess.
 HarFok:  IExCor=20419 AccDes= 0.00D+00 IRadAn=         4 IDoV= 1 UseB2=F ITyADJ=14
 ICtDFT=  3500011 ScaDFX=  1.000000  1.000000  1.000000  1.000000
 FoFCou: FMM=F IPFlag=           0 FMFlag=      100000 FMFlg1=        2001
         NFxFlg=           0 DoJE=T BraDBF=F KetDBF=T FulRan=T
         wScrn=  0.000000 ICntrl=     500 IOpCl=  0 I1Cent=   200000004 NGrid=           0
>>>>>>> 8e03b5b5abfc0030b3aa597dc0de36371bfbd096
         NMat0=    1 NMatS0=      1 NMatT0=    0 NMatD0=    1 NMtDS0=    0 NMtDT0=    0
 Petite list used in FoFCou.
 Requested convergence on RMS density matrix=1.00D-08 within 128 cycles.
 Requested convergence on MAX density matrix=1.00D-06.
 Requested convergence on             energy=1.00D-06.
 No special actions if energy rises.
<<<<<<< HEAD
 SCF Done:  E(RCAM-B3LYP) =  -2932.63496178     A.U. after   16 cycles
            NFock= 16  Conv=0.45D-08     -V/T= 2.0098
=======
 SCF Done:  E(RCAM-B3LYP) =  -2932.54226047     A.U. after   17 cycles
            NFock= 17  Conv=0.53D-08     -V/T= 2.0095
>>>>>>> 8e03b5b5abfc0030b3aa597dc0de36371bfbd096
 DoSCS=F DFT=T ScalE2(SS,OS)=  1.000000  1.000000
 ExpMin= 4.21D-02 ExpMax= 1.17D+04 ExpMxC= 1.76D+03 IAcc=3 IRadAn=         5 AccDes= 0.00D+00
 HarFok:  IExCor=  205 AccDes= 0.00D+00 IRadAn=         5 IDoV=-2 UseB2=F ITyADJ=14
 ICtDFT= 12500011 ScaDFX=  1.000000  1.000000  1.000000  1.000000
<<<<<<< HEAD
 GSVD:  LWork=       -5313 too small for GESVD, short by       24840 words or       24840 for optimal perf.
 Range of M.O.s used for correlation:    70  1339
 NBasis=  1339 NAE=   241 NBE=   241 NFC=    69 NFV=     0
 NROrb=   1270 NOA=   172 NOB=   172 NVA=  1098 NVB=  1098
=======
 Range of M.O.s used for correlation:    70  1339
 NBasis=  1339 NAE=   241 NBE=   241 NFC=    69 NFV=     0
 NROrb=   1270 NOA=   172 NOB=   172 NVA=  1098 NVB=  1098
 Would need an additional       2415464100000 words for in-memory AO integral storage.
>>>>>>> 8e03b5b5abfc0030b3aa597dc0de36371bfbd096
 Orbital symmetries:
       Occupied  (A) (A) (A) (A) (A) (A) (A) (A) (A) (A) (A) (A)
                 (A) (A) (A) (A) (A) (A) (A) (A) (A) (A) (A) (A)
                 (A) (A) (A) (A) (A) (A) (A) (A) (A) (A) (A) (A)
                 (A) (A) (A) (A) (A) (A) (A) (A) (A) (A) (A) (A)
                 (A) (A) (A) (A) (A) (A) (A) (A) (A) (A) (A) (A)
                 (A) (A) (A) (A) (A) (A) (A) (A) (A) (A) (A) (A)
                 (A) (A) (A) (A) (A) (A) (A) (A) (A) (A) (A) (A)
                 (A) (A) (A) (A) (A) (A) (A) (A) (A) (A) (A) (A)
                 (A) (A) (A) (A) (A) (A) (A) (A) (A) (A) (A) (A)
                 (A) (A) (A) (A) (A) (A) (A) (A) (A) (A) (A) (A)
                 (A) (A) (A) (A) (A) (A) (A) (A) (A) (A) (A) (A)
                 (A) (A) (A) (A) (A) (A) (A) (A) (A) (A) (A) (A)
                 (A) (A) (A) (A) (A) (A) (A) (A) (A) (A) (A) (A)
                 (A) (A) (A) (A) (A) (A) (A) (A) (A) (A) (A) (A)
                 (A) (A) (A) (A) (A) (A) (A) (A) (A) (A) (A) (A)
                 (A) (A) (A) (A) (A) (A) (A) (A) (A) (A) (A) (A)
                 (A) (A) (A) (A) (A) (A) (A) (A) (A) (A) (A) (A)
                 (A) (A) (A) (A) (A) (A) (A) (A) (A) (A) (A) (A)
                 (A) (A) (A) (A) (A) (A) (A) (A) (A) (A) (A) (A)
                 (A) (A) (A) (A) (A) (A) (A) (A) (A) (A) (A) (A)
                 (A)
       Virtual   (A) (A) (A) (A) (A) (A) (A) (A) (A) (A) (A) (A)
                 (A) (A) (A) (A) (A) (A) (A) (A) (A) (A) (A) (A)
                 (A) (A) (A) (A) (A) (A) (A) (A) (A) (A) (A) (A)
                 (A) (A) (A) (A) (A) (A) (A) (A) (A) (A) (A) (A)
                 (A) (A) (A) (A) (A) (A) (A) (A) (A) (A) (A) (A)
                 (A) (A) (A) (A) (A) (A) (A) (A) (A) (A) (A) (A)
                 (A) (A) (A) (A) (A) (A) (A) (A) (A) (A) (A) (A)
                 (A) (A) (A) (A) (A) (A) (A) (A) (A) (A) (A) (A)
                 (A) (A) (A) (A) (A) (A) (A) (A) (A) (A) (A) (A)
                 (A) (A) (A) (A) (A) (A) (A) (A) (A) (A) (A) (A)
                 (A) (A) (A) (A) (A) (A) (A) (A) (A) (A) (A) (A)
                 (A) (A) (A) (A) (A) (A) (A) (A) (A) (A) (A) (A)
                 (A) (A) (A) (A) (A) (A) (A) (A) (A) (A) (A) (A)
                 (A) (A) (A) (A) (A) (A) (A) (A) (A) (A) (A) (A)
                 (A) (A) (A) (A) (A) (A) (A) (A) (A) (A) (A) (A)
                 (A) (A) (A) (A) (A) (A) (A) (A) (A) (A) (A) (A)
                 (A) (A) (A) (A) (A) (A) (A) (A) (A) (A) (A) (A)
                 (A) (A) (A) (A) (A) (A) (A) (A) (A) (A) (A) (A)
                 (A) (A) (A) (A) (A) (A) (A) (A) (A) (A) (A) (A)
                 (A) (A) (A) (A) (A) (A) (A) (A) (A) (A) (A) (A)
                 (A) (A) (A) (A) (A) (A) (A) (A) (A) (A) (A) (A)
                 (A) (A) (A) (A) (A) (A) (A) (A) (A) (A) (A) (A)
                 (A) (A) (A) (A) (A) (A) (A) (A) (A) (A) (A) (A)
                 (A) (A) (A) (A) (A) (A) (A) (A) (A) (A) (A) (A)
                 (A) (A) (A) (A) (A) (A) (A) (A) (A) (A) (A) (A)
                 (A) (A) (A) (A) (A) (A) (A) (A) (A) (A) (A) (A)
                 (A) (A) (A) (A) (A) (A) (A) (A) (A) (A) (A) (A)
                 (A) (A) (A) (A) (A) (A) (A) (A) (A) (A) (A) (A)
                 (A) (A) (A) (A) (A) (A) (A) (A) (A) (A) (A) (A)
                 (A) (A) (A) (A) (A) (A) (A) (A) (A) (A) (A) (A)
                 (A) (A) (A) (A) (A) (A) (A) (A) (A) (A) (A) (A)
                 (A) (A) (A) (A) (A) (A) (A) (A) (A) (A) (A) (A)
                 (A) (A) (A) (A) (A) (A) (A) (A) (A) (A) (A) (A)
                 (A) (A) (A) (A) (A) (A) (A) (A) (A) (A) (A) (A)
                 (A) (A) (A) (A) (A) (A) (A) (A) (A) (A) (A) (A)
                 (A) (A) (A) (A) (A) (A) (A) (A) (A) (A) (A) (A)
                 (A) (A) (A) (A) (A) (A) (A) (A) (A) (A) (A) (A)
                 (A) (A) (A) (A) (A) (A) (A) (A) (A) (A) (A) (A)
                 (A) (A) (A) (A) (A) (A) (A) (A) (A) (A) (A) (A)
                 (A) (A) (A) (A) (A) (A) (A) (A) (A) (A) (A) (A)
                 (A) (A) (A) (A) (A) (A) (A) (A) (A) (A) (A) (A)
                 (A) (A) (A) (A) (A) (A) (A) (A) (A) (A) (A) (A)
                 (A) (A) (A) (A) (A) (A) (A) (A) (A) (A) (A) (A)
                 (A) (A) (A) (A) (A) (A) (A) (A) (A) (A) (A) (A)
                 (A) (A) (A) (A) (A) (A) (A) (A) (A) (A) (A) (A)
                 (A) (A) (A) (A) (A) (A) (A) (A) (A) (A) (A) (A)
                 (A) (A) (A) (A) (A) (A) (A) (A) (A) (A) (A) (A)
                 (A) (A) (A) (A) (A) (A) (A) (A) (A) (A) (A) (A)
                 (A) (A) (A) (A) (A) (A) (A) (A) (A) (A) (A) (A)
                 (A) (A) (A) (A) (A) (A) (A) (A) (A) (A) (A) (A)
                 (A) (A) (A) (A) (A) (A) (A) (A) (A) (A) (A) (A)
                 (A) (A) (A) (A) (A) (A) (A) (A) (A) (A) (A) (A)
                 (A) (A) (A) (A) (A) (A) (A) (A) (A) (A) (A) (A)
                 (A) (A) (A) (A) (A) (A) (A) (A) (A) (A) (A) (A)
                 (A) (A) (A) (A) (A) (A) (A) (A) (A) (A) (A) (A)
                 (A) (A) (A) (A) (A) (A) (A) (A) (A) (A) (A) (A)
                 (A) (A) (A) (A) (A) (A) (A) (A) (A) (A) (A) (A)
                 (A) (A) (A) (A) (A) (A) (A) (A) (A) (A) (A) (A)
                 (A) (A) (A) (A) (A) (A) (A) (A) (A) (A) (A) (A)
                 (A) (A) (A) (A) (A) (A) (A) (A) (A) (A) (A) (A)
                 (A) (A) (A) (A) (A) (A) (A) (A) (A) (A) (A) (A)
                 (A) (A) (A) (A) (A) (A) (A) (A) (A) (A) (A) (A)
                 (A) (A) (A) (A) (A) (A) (A) (A) (A) (A) (A) (A)
                 (A) (A) (A) (A) (A) (A) (A) (A) (A) (A) (A) (A)
                 (A) (A) (A) (A) (A) (A) (A) (A) (A) (A) (A) (A)
                 (A) (A) (A) (A) (A) (A) (A) (A) (A) (A) (A) (A)
                 (A) (A) (A) (A) (A) (A) (A) (A) (A) (A) (A) (A)
                 (A) (A) (A) (A) (A) (A) (A) (A) (A) (A) (A) (A)
                 (A) (A) (A) (A) (A) (A) (A) (A) (A) (A) (A) (A)
                 (A) (A) (A) (A) (A) (A) (A) (A) (A) (A) (A) (A)
                 (A) (A) (A) (A) (A) (A) (A) (A) (A) (A) (A) (A)
                 (A) (A) (A) (A) (A) (A) (A) (A) (A) (A) (A) (A)
                 (A) (A) (A) (A) (A) (A) (A) (A) (A) (A) (A) (A)
                 (A) (A) (A) (A) (A) (A) (A) (A) (A) (A) (A) (A)
                 (A) (A) (A) (A) (A) (A) (A) (A) (A) (A) (A) (A)
                 (A) (A) (A) (A) (A) (A) (A) (A) (A) (A) (A) (A)
                 (A) (A) (A) (A) (A) (A) (A) (A) (A) (A) (A) (A)
                 (A) (A) (A) (A) (A) (A) (A) (A) (A) (A) (A) (A)
                 (A) (A) (A) (A) (A) (A) (A) (A) (A) (A) (A) (A)
                 (A) (A) (A) (A) (A) (A) (A) (A) (A) (A) (A) (A)
                 (A) (A) (A) (A) (A) (A) (A) (A) (A) (A) (A) (A)
                 (A) (A) (A) (A) (A) (A) (A) (A) (A) (A) (A) (A)
                 (A) (A) (A) (A) (A) (A) (A) (A) (A) (A) (A) (A)
                 (A) (A) (A) (A) (A) (A) (A) (A) (A) (A) (A) (A)
                 (A) (A) (A) (A) (A) (A) (A) (A) (A) (A) (A) (A)
                 (A) (A) (A) (A) (A) (A) (A) (A) (A) (A) (A) (A)
                 (A) (A) (A) (A) (A) (A) (A) (A) (A) (A) (A) (A)
                 (A) (A) (A) (A) (A) (A) (A) (A) (A) (A) (A) (A)
                 (A) (A) (A) (A) (A) (A) (A) (A) (A) (A) (A) (A)
                 (A) (A) (A) (A) (A) (A) (A) (A) (A) (A) (A) (A)
                 (A) (A) (A) (A) (A) (A) (A) (A) (A) (A) (A) (A)
                 (A) (A) (A) (A) (A) (A)
<<<<<<< HEAD
     4 initial guesses have been made.
 Convergence on wavefunction:    0.001000000000000
 Iteration     1 Dimension     4 NMult     0 NNew      4
 CISAX will form     4 AO SS matrices at one time.
 New state      1 was old state      2
 Iteration     2 Dimension     6 NMult     4 NNew      2
 Iteration     3 Dimension     8 NMult     6 NNew      2
 Iteration     4 Dimension    10 NMult     8 NNew      2
 Iteration     5 Dimension    12 NMult    10 NNew      2
 Iteration     6 Dimension    14 NMult    12 NNew      2
 Iteration     7 Dimension    16 NMult    14 NNew      2
 Iteration     8 Dimension    18 NMult    16 NNew      2
 Iteration     9 Dimension    20 NMult    18 NNew      2
=======
     8 initial guesses have been made.
 Convergence on wavefunction:    0.001000000000000
 Iteration     1 Dimension     8 NMult     0 NNew      8
 CISAX will form     8 AO SS matrices at one time.
 Iteration     2 Dimension    12 NMult     8 NNew      4
 Iteration     3 Dimension    16 NMult    12 NNew      4
 Iteration     4 Dimension    20 NMult    16 NNew      4
 Iteration     5 Dimension    24 NMult    20 NNew      4
 Iteration     6 Dimension    28 NMult    24 NNew      4
>>>>>>> 8e03b5b5abfc0030b3aa597dc0de36371bfbd096
 ***********************************************************************
 Excited states from <AA,BB:AA,BB> singles matrix:
 ***********************************************************************
 
 Ground to excited state transition densities written to RWF  633
 Ground to excited state transition electric dipole moments (Au):
       state          X           Y           Z        Dip. S.      Osc.
<<<<<<< HEAD
         1        -0.0276     -2.4329     -0.3253      6.0257      0.2804
 Ground to excited state transition velocity dipole moments (Au):
       state          X           Y           Z        Dip. S.      Osc.
         1         0.0019      0.1650      0.0229      0.0278      0.2652
 Ground to excited state transition magnetic dipole moments (Au):
       state          X           Y           Z
         1         0.3656      0.4344     -3.3226
 Ground to excited state transition velocity quadrupole moments (Au):
       state          XX          YY          ZZ          XY          XZ          YZ
         1        -0.2155      0.4006      0.0391     -2.0432     -0.2995      0.2038
 <0|del|b> * <b|rxdel|0> + <0|del|b> * <b|delr+rdel|0>
 Rotatory Strengths (R) in cgs (10**-40 erg-esu-cm/Gauss)
       state          XX          YY          ZZ    R(velocity)    E-M Angle
         1       -10.2147   -143.1072    114.3310    -12.9969       90.39
 1/2[<0|r|b>*<b|rxdel|0> + (<0|rxdel|b>*<b|r|0>)*]
 Rotatory Strengths (R) in cgs (10**-40 erg-esu-cm/Gauss)
       state          XX          YY          ZZ     R(length)
         1         7.1316    747.3124   -764.4111     -3.3224
  1/2[<0|del|b>*<b|r|0> + (<0|r|b>*<b|del|0>)*] (Au)
       state          X           Y           Z        Dip. S.   Osc.(frdel)
         1        -0.0001     -0.4015     -0.0075      0.4090      0.2727

 Excitation energies and oscillator strengths:
 
 Excited State   1:      Singlet-A      1.8993 eV  652.78 nm  f=0.2804  <S**2>=0.000
     240 -> 243        0.22740
     241 -> 242        0.66420
 This state for optimization and/or second-order correction.
 Total Energy, E(TD-HF/TD-DFT) =  -2932.56516317    
 Copying the excited state density for this state as the 1-particle RhoCI density.
 SavETr:  write IOETrn=   770 NScale= 10 NData=  16 NLR=1 NState=    1 LETran=      28.
 Hyperfine terms turned off by default for NAtoms > 100.
=======
         1         0.4738     -2.1545     -0.0700      4.8711      0.2626
 Ground to excited state transition velocity dipole moments (Au):
       state          X           Y           Z        Dip. S.      Osc.
         1        -0.0370      0.1694      0.0060      0.0301      0.2481
 Ground to excited state transition magnetic dipole moments (Au):
       state          X           Y           Z
         1         0.5145      0.2426     -3.7940
 Ground to excited state transition velocity quadrupole moments (Au):
       state          XX          YY          ZZ          XY          XZ          YZ
         1         1.2008     -0.1719      0.0665     -2.2515      0.0418      0.0817
 <0|del|b> * <b|rxdel|0> + <0|del|b> * <b|delr+rdel|0>
 Rotatory Strengths (R) in cgs (10**-40 erg-esu-cm/Gauss)
       state          XX          YY          ZZ    R(velocity)    E-M Angle
         1        -8.6872   -136.7206    140.5512     -1.6189       90.05
 1/2[<0|r|b>*<b|rxdel|0> + (<0|rxdel|b>*<b|r|0>)*]
 Rotatory Strengths (R) in cgs (10**-40 erg-esu-cm/Gauss)
       state          XX          YY          ZZ     R(length)
         1      -172.3770    369.6498   -187.7865      3.1621
  1/2[<0|del|b>*<b|r|0> + (<0|r|b>*<b|del|0>)*] (Au)
       state          X           Y           Z        Dip. S.   Osc.(frdel)
         1        -0.0175     -0.3649     -0.0004      0.3829      0.2553

 Excitation energies and oscillator strengths:
 
 Excited State   1:      Singlet-A      2.2003 eV  563.48 nm  f=0.2626  <S**2>=0.000
     240 -> 242       -0.16173
     240 -> 243       -0.17890
     241 -> 242        0.64808
     241 -> 243       -0.12477
 This state for optimization and/or second-order correction.
 Total Energy, E(TD-HF/TD-KS) =  -2932.46140038    
 Copying the excited state density for this state as the 1-particle RhoCI density.
 SavETr:  write IOETrn=   770 NScale= 10 NData=  16 NLR=1 NState=    1 LETran=      28.
>>>>>>> 8e03b5b5abfc0030b3aa597dc0de36371bfbd096

 **********************************************************************

            Population analysis using the SCF density.

 **********************************************************************

 Orbital symmetries:
       Occupied  (A) (A) (A) (A) (A) (A) (A) (A) (A) (A) (A) (A)
                 (A) (A) (A) (A) (A) (A) (A) (A) (A) (A) (A) (A)
                 (A) (A) (A) (A) (A) (A) (A) (A) (A) (A) (A) (A)
                 (A) (A) (A) (A) (A) (A) (A) (A) (A) (A) (A) (A)
                 (A) (A) (A) (A) (A) (A) (A) (A) (A) (A) (A) (A)
                 (A) (A) (A) (A) (A) (A) (A) (A) (A) (A) (A) (A)
                 (A) (A) (A) (A) (A) (A) (A) (A) (A) (A) (A) (A)
                 (A) (A) (A) (A) (A) (A) (A) (A) (A) (A) (A) (A)
                 (A) (A) (A) (A) (A) (A) (A) (A) (A) (A) (A) (A)
                 (A) (A) (A) (A) (A) (A) (A) (A) (A) (A) (A) (A)
                 (A) (A) (A) (A) (A) (A) (A) (A) (A) (A) (A) (A)
                 (A) (A) (A) (A) (A) (A) (A) (A) (A) (A) (A) (A)
                 (A) (A) (A) (A) (A) (A) (A) (A) (A) (A) (A) (A)
                 (A) (A) (A) (A) (A) (A) (A) (A) (A) (A) (A) (A)
                 (A) (A) (A) (A) (A) (A) (A) (A) (A) (A) (A) (A)
                 (A) (A) (A) (A) (A) (A) (A) (A) (A) (A) (A) (A)
                 (A) (A) (A) (A) (A) (A) (A) (A) (A) (A) (A) (A)
                 (A) (A) (A) (A) (A) (A) (A) (A) (A) (A) (A) (A)
                 (A) (A) (A) (A) (A) (A) (A) (A) (A) (A) (A) (A)
                 (A) (A) (A) (A) (A) (A) (A) (A) (A) (A) (A) (A)
                 (A)
       Virtual   (A) (A) (A) (A) (A) (A) (A) (A) (A) (A) (A) (A)
                 (A) (A) (A) (A) (A) (A) (A) (A) (A) (A) (A) (A)
                 (A) (A) (A) (A) (A) (A) (A) (A) (A) (A) (A) (A)
                 (A) (A) (A) (A) (A) (A) (A) (A) (A) (A) (A) (A)
                 (A) (A) (A) (A) (A) (A) (A) (A) (A) (A) (A) (A)
                 (A) (A) (A) (A) (A) (A) (A) (A) (A) (A) (A) (A)
                 (A) (A) (A) (A) (A) (A) (A) (A) (A) (A) (A) (A)
                 (A) (A) (A) (A) (A) (A) (A) (A) (A) (A) (A) (A)
                 (A) (A) (A) (A) (A) (A) (A) (A) (A) (A) (A) (A)
                 (A) (A) (A) (A) (A) (A) (A) (A) (A) (A) (A) (A)
                 (A) (A) (A) (A) (A) (A) (A) (A) (A) (A) (A) (A)
                 (A) (A) (A) (A) (A) (A) (A) (A) (A) (A) (A) (A)
                 (A) (A) (A) (A) (A) (A) (A) (A) (A) (A) (A) (A)
                 (A) (A) (A) (A) (A) (A) (A) (A) (A) (A) (A) (A)
                 (A) (A) (A) (A) (A) (A) (A) (A) (A) (A) (A) (A)
                 (A) (A) (A) (A) (A) (A) (A) (A) (A) (A) (A) (A)
                 (A) (A) (A) (A) (A) (A) (A) (A) (A) (A) (A) (A)
                 (A) (A) (A) (A) (A) (A) (A) (A) (A) (A) (A) (A)
                 (A) (A) (A) (A) (A) (A) (A) (A) (A) (A) (A) (A)
                 (A) (A) (A) (A) (A) (A) (A) (A) (A) (A) (A) (A)
                 (A) (A) (A) (A) (A) (A) (A) (A) (A) (A) (A) (A)
                 (A) (A) (A) (A) (A) (A) (A) (A) (A) (A) (A) (A)
                 (A) (A) (A) (A) (A) (A) (A) (A) (A) (A) (A) (A)
                 (A) (A) (A) (A) (A) (A) (A) (A) (A) (A) (A) (A)
                 (A) (A) (A) (A) (A) (A) (A) (A) (A) (A) (A) (A)
                 (A) (A) (A) (A) (A) (A) (A) (A) (A) (A) (A) (A)
                 (A) (A) (A) (A) (A) (A) (A) (A) (A) (A) (A) (A)
                 (A) (A) (A) (A) (A) (A) (A) (A) (A) (A) (A) (A)
                 (A) (A) (A) (A) (A) (A) (A) (A) (A) (A) (A) (A)
                 (A) (A) (A) (A) (A) (A) (A) (A) (A) (A) (A) (A)
                 (A) (A) (A) (A) (A) (A) (A) (A) (A) (A) (A) (A)
                 (A) (A) (A) (A) (A) (A) (A) (A) (A) (A) (A) (A)
                 (A) (A) (A) (A) (A) (A) (A) (A) (A) (A) (A) (A)
                 (A) (A) (A) (A) (A) (A) (A) (A) (A) (A) (A) (A)
                 (A) (A) (A) (A) (A) (A) (A) (A) (A) (A) (A) (A)
                 (A) (A) (A) (A) (A) (A) (A) (A) (A) (A) (A) (A)
                 (A) (A) (A) (A) (A) (A) (A) (A) (A) (A) (A) (A)
                 (A) (A) (A) (A) (A) (A) (A) (A) (A) (A) (A) (A)
                 (A) (A) (A) (A) (A) (A) (A) (A) (A) (A) (A) (A)
                 (A) (A) (A) (A) (A) (A) (A) (A) (A) (A) (A) (A)
                 (A) (A) (A) (A) (A) (A) (A) (A) (A) (A) (A) (A)
                 (A) (A) (A) (A) (A) (A) (A) (A) (A) (A) (A) (A)
                 (A) (A) (A) (A) (A) (A) (A) (A) (A) (A) (A) (A)
                 (A) (A) (A) (A) (A) (A) (A) (A) (A) (A) (A) (A)
                 (A) (A) (A) (A) (A) (A) (A) (A) (A) (A) (A) (A)
                 (A) (A) (A) (A) (A) (A) (A) (A) (A) (A) (A) (A)
                 (A) (A) (A) (A) (A) (A) (A) (A) (A) (A) (A) (A)
                 (A) (A) (A) (A) (A) (A) (A) (A) (A) (A) (A) (A)
                 (A) (A) (A) (A) (A) (A) (A) (A) (A) (A) (A) (A)
                 (A) (A) (A) (A) (A) (A) (A) (A) (A) (A) (A) (A)
                 (A) (A) (A) (A) (A) (A) (A) (A) (A) (A) (A) (A)
                 (A) (A) (A) (A) (A) (A) (A) (A) (A) (A) (A) (A)
                 (A) (A) (A) (A) (A) (A) (A) (A) (A) (A) (A) (A)
                 (A) (A) (A) (A) (A) (A) (A) (A) (A) (A) (A) (A)
                 (A) (A) (A) (A) (A) (A) (A) (A) (A) (A) (A) (A)
                 (A) (A) (A) (A) (A) (A) (A) (A) (A) (A) (A) (A)
                 (A) (A) (A) (A) (A) (A) (A) (A) (A) (A) (A) (A)
                 (A) (A) (A) (A) (A) (A) (A) (A) (A) (A) (A) (A)
                 (A) (A) (A) (A) (A) (A) (A) (A) (A) (A) (A) (A)
                 (A) (A) (A) (A) (A) (A) (A) (A) (A) (A) (A) (A)
                 (A) (A) (A) (A) (A) (A) (A) (A) (A) (A) (A) (A)
                 (A) (A) (A) (A) (A) (A) (A) (A) (A) (A) (A) (A)
                 (A) (A) (A) (A) (A) (A) (A) (A) (A) (A) (A) (A)
                 (A) (A) (A) (A) (A) (A) (A) (A) (A) (A) (A) (A)
                 (A) (A) (A) (A) (A) (A) (A) (A) (A) (A) (A) (A)
                 (A) (A) (A) (A) (A) (A) (A) (A) (A) (A) (A) (A)
                 (A) (A) (A) (A) (A) (A) (A) (A) (A) (A) (A) (A)
                 (A) (A) (A) (A) (A) (A) (A) (A) (A) (A) (A) (A)
                 (A) (A) (A) (A) (A) (A) (A) (A) (A) (A) (A) (A)
                 (A) (A) (A) (A) (A) (A) (A) (A) (A) (A) (A) (A)
                 (A) (A) (A) (A) (A) (A) (A) (A) (A) (A) (A) (A)
                 (A) (A) (A) (A) (A) (A) (A) (A) (A) (A) (A) (A)
                 (A) (A) (A) (A) (A) (A) (A) (A) (A) (A) (A) (A)
                 (A) (A) (A) (A) (A) (A) (A) (A) (A) (A) (A) (A)
                 (A) (A) (A) (A) (A) (A) (A) (A) (A) (A) (A) (A)
                 (A) (A) (A) (A) (A) (A) (A) (A) (A) (A) (A) (A)
                 (A) (A) (A) (A) (A) (A) (A) (A) (A) (A) (A) (A)
                 (A) (A) (A) (A) (A) (A) (A) (A) (A) (A) (A) (A)
                 (A) (A) (A) (A) (A) (A) (A) (A) (A) (A) (A) (A)
                 (A) (A) (A) (A) (A) (A) (A) (A) (A) (A) (A) (A)
                 (A) (A) (A) (A) (A) (A) (A) (A) (A) (A) (A) (A)
                 (A) (A) (A) (A) (A) (A) (A) (A) (A) (A) (A) (A)
                 (A) (A) (A) (A) (A) (A) (A) (A) (A) (A) (A) (A)
                 (A) (A) (A) (A) (A) (A) (A) (A) (A) (A) (A) (A)
                 (A) (A) (A) (A) (A) (A) (A) (A) (A) (A) (A) (A)
                 (A) (A) (A) (A) (A) (A) (A) (A) (A) (A) (A) (A)
                 (A) (A) (A) (A) (A) (A) (A) (A) (A) (A) (A) (A)
                 (A) (A) (A) (A) (A) (A) (A) (A) (A) (A) (A) (A)
                 (A) (A) (A) (A) (A) (A) (A) (A) (A) (A) (A) (A)
                 (A) (A) (A) (A) (A) (A) (A) (A) (A) (A) (A) (A)
                 (A) (A) (A) (A) (A) (A) (A) (A) (A) (A) (A) (A)
                 (A) (A) (A) (A) (A) (A)
 The electronic state is 1-A.
<<<<<<< HEAD
 Alpha  occ. eigenvalues --  -46.83376 -19.27871 -19.27098 -19.20967 -19.20749
 Alpha  occ. eigenvalues --  -19.19638 -14.42022 -14.39611 -14.39395 -14.38208
 Alpha  occ. eigenvalues --  -10.39287 -10.38932 -10.34790 -10.33641 -10.33102
 Alpha  occ. eigenvalues --  -10.30995 -10.30258 -10.30216 -10.29036 -10.28998
 Alpha  occ. eigenvalues --  -10.28875 -10.28679 -10.28653 -10.28392 -10.28217
 Alpha  occ. eigenvalues --  -10.28188 -10.27978 -10.27955 -10.27910 -10.27669
 Alpha  occ. eigenvalues --  -10.27598 -10.27544 -10.27359 -10.27353 -10.27292
 Alpha  occ. eigenvalues --  -10.27102 -10.27057 -10.27032 -10.26952 -10.26914
 Alpha  occ. eigenvalues --  -10.26729 -10.26587 -10.26585 -10.26559 -10.26367
 Alpha  occ. eigenvalues --  -10.26335 -10.26311 -10.26247 -10.26241 -10.26201
 Alpha  occ. eigenvalues --  -10.26177 -10.26117 -10.26054 -10.26053 -10.25866
 Alpha  occ. eigenvalues --  -10.25750 -10.25658 -10.25551 -10.25548 -10.24993
 Alpha  occ. eigenvalues --  -10.24933 -10.24896 -10.24841 -10.24794 -10.24526
 Alpha  occ. eigenvalues --   -3.12620  -1.87307  -1.86880  -1.86801  -1.20687
 Alpha  occ. eigenvalues --   -1.17911  -1.16640  -1.09121  -1.06248  -1.04190
 Alpha  occ. eigenvalues --   -1.03192  -1.02443  -1.01677  -0.91616  -0.91234
 Alpha  occ. eigenvalues --   -0.90894  -0.90083  -0.89392  -0.88256  -0.87968
 Alpha  occ. eigenvalues --   -0.87689  -0.87652  -0.87372  -0.86804  -0.86412
 Alpha  occ. eigenvalues --   -0.84695  -0.83717  -0.82848  -0.82558  -0.81794
 Alpha  occ. eigenvalues --   -0.81435  -0.80862  -0.79876  -0.79415  -0.78145
 Alpha  occ. eigenvalues --   -0.77264  -0.76579  -0.76234  -0.75365  -0.75087
 Alpha  occ. eigenvalues --   -0.74877  -0.74536  -0.73936  -0.73124  -0.71905
 Alpha  occ. eigenvalues --   -0.71165  -0.70792  -0.70058  -0.69601  -0.67670
 Alpha  occ. eigenvalues --   -0.67207  -0.66592  -0.65250  -0.64805  -0.64404
 Alpha  occ. eigenvalues --   -0.63958  -0.63628  -0.63472  -0.62413  -0.61555
 Alpha  occ. eigenvalues --   -0.60758  -0.60365  -0.59717  -0.59448  -0.58952
 Alpha  occ. eigenvalues --   -0.58118  -0.58087  -0.57637  -0.57324  -0.56465
 Alpha  occ. eigenvalues --   -0.56041  -0.55595  -0.55389  -0.54902  -0.54296
 Alpha  occ. eigenvalues --   -0.54139  -0.53641  -0.53609  -0.53354  -0.53118
 Alpha  occ. eigenvalues --   -0.53007  -0.52912  -0.52060  -0.51210  -0.51104
 Alpha  occ. eigenvalues --   -0.50910  -0.50777  -0.50758  -0.50400  -0.50101
 Alpha  occ. eigenvalues --   -0.50015  -0.49660  -0.49615  -0.49422  -0.49250
 Alpha  occ. eigenvalues --   -0.49112  -0.48808  -0.48599  -0.48450  -0.48151
 Alpha  occ. eigenvalues --   -0.47817  -0.47748  -0.47497  -0.47259  -0.47240
 Alpha  occ. eigenvalues --   -0.47068  -0.46721  -0.46509  -0.46445  -0.46190
 Alpha  occ. eigenvalues --   -0.45931  -0.45562  -0.45317  -0.45147  -0.44958
 Alpha  occ. eigenvalues --   -0.44634  -0.44487  -0.44275  -0.44085  -0.43952
 Alpha  occ. eigenvalues --   -0.43743  -0.43654  -0.43041  -0.42945  -0.42651
 Alpha  occ. eigenvalues --   -0.42583  -0.42507  -0.42258  -0.42072  -0.42006
 Alpha  occ. eigenvalues --   -0.41889  -0.41711  -0.41454  -0.41293  -0.41058
 Alpha  occ. eigenvalues --   -0.40978  -0.40625  -0.40564  -0.40223  -0.40108
 Alpha  occ. eigenvalues --   -0.39986  -0.39762  -0.39521  -0.39503  -0.39123
 Alpha  occ. eigenvalues --   -0.39066  -0.38795  -0.38651  -0.38089  -0.37903
 Alpha  occ. eigenvalues --   -0.37569  -0.37267  -0.36690  -0.36535  -0.36418
 Alpha  occ. eigenvalues --   -0.36343  -0.35916  -0.35741  -0.35633  -0.35321
 Alpha  occ. eigenvalues --   -0.34732  -0.34610  -0.34594  -0.34098  -0.33811
 Alpha  occ. eigenvalues --   -0.33425  -0.32598  -0.31602  -0.30625  -0.29587
 Alpha  occ. eigenvalues --   -0.29448  -0.29032  -0.28524  -0.26952  -0.22522
 Alpha  occ. eigenvalues --   -0.20592
 Alpha virt. eigenvalues --   -0.06799  -0.02169   0.02325   0.04234   0.05296
 Alpha virt. eigenvalues --    0.05463   0.05988   0.06499   0.06809   0.07290
 Alpha virt. eigenvalues --    0.08334   0.10816   0.10930   0.11291   0.11673
 Alpha virt. eigenvalues --    0.11933   0.12300   0.12492   0.12978   0.13065
 Alpha virt. eigenvalues --    0.13441   0.13752   0.13858   0.14083   0.14217
 Alpha virt. eigenvalues --    0.14519   0.14593   0.14814   0.14924   0.15261
 Alpha virt. eigenvalues --    0.15401   0.15496   0.16075   0.16180   0.16562
 Alpha virt. eigenvalues --    0.16596   0.17009   0.17162   0.17275   0.17396
 Alpha virt. eigenvalues --    0.17617   0.17745   0.17788   0.18208   0.18452
 Alpha virt. eigenvalues --    0.18594   0.18689   0.18979   0.19128   0.19230
 Alpha virt. eigenvalues --    0.19298   0.19642   0.19825   0.19870   0.19916
 Alpha virt. eigenvalues --    0.20242   0.20469   0.20535   0.20576   0.20671
 Alpha virt. eigenvalues --    0.20813   0.20923   0.21160   0.21203   0.21286
 Alpha virt. eigenvalues --    0.21456   0.21629   0.21692   0.22013   0.22056
 Alpha virt. eigenvalues --    0.22286   0.22365   0.22593   0.22948   0.23201
 Alpha virt. eigenvalues --    0.23399   0.23889   0.23906   0.24162   0.24231
 Alpha virt. eigenvalues --    0.24342   0.24680   0.24702   0.24877   0.25170
 Alpha virt. eigenvalues --    0.25372   0.25452   0.25623   0.26008   0.26031
 Alpha virt. eigenvalues --    0.26305   0.26550   0.26696   0.26936   0.27030
 Alpha virt. eigenvalues --    0.27325   0.27644   0.27691   0.27926   0.28003
 Alpha virt. eigenvalues --    0.28158   0.28389   0.28503   0.29057   0.29093
 Alpha virt. eigenvalues --    0.29219   0.29312   0.29459   0.30133   0.30181
 Alpha virt. eigenvalues --    0.30261   0.30630   0.30914   0.30980   0.31319
 Alpha virt. eigenvalues --    0.31548   0.31951   0.32038   0.32283   0.32624
 Alpha virt. eigenvalues --    0.32801   0.33408   0.33617   0.33819   0.34209
 Alpha virt. eigenvalues --    0.34332   0.34582   0.35050   0.35149   0.35627
 Alpha virt. eigenvalues --    0.36121   0.36427   0.36810   0.38276   0.38338
 Alpha virt. eigenvalues --    0.39085   0.39480   0.39912   0.40028   0.40402
 Alpha virt. eigenvalues --    0.40631   0.41951   0.42350   0.42780   0.43189
 Alpha virt. eigenvalues --    0.43296   0.43705   0.44666   0.44707   0.46106
 Alpha virt. eigenvalues --    0.47055   0.47506   0.47825   0.48544   0.48768
 Alpha virt. eigenvalues --    0.49270   0.50267   0.51581   0.52168   0.52324
 Alpha virt. eigenvalues --    0.52989   0.53456   0.53573   0.53694   0.54506
 Alpha virt. eigenvalues --    0.54799   0.55162   0.55226   0.55330   0.55722
 Alpha virt. eigenvalues --    0.55866   0.56180   0.56398   0.56519   0.56857
 Alpha virt. eigenvalues --    0.57221   0.57690   0.57826   0.57839   0.58111
 Alpha virt. eigenvalues --    0.58134   0.58364   0.58533   0.58820   0.59099
 Alpha virt. eigenvalues --    0.59562   0.59745   0.60084   0.60520   0.60715
 Alpha virt. eigenvalues --    0.61059   0.61156   0.61218   0.61274   0.61360
 Alpha virt. eigenvalues --    0.61964   0.62102   0.62254   0.62449   0.63043
 Alpha virt. eigenvalues --    0.63195   0.63306   0.63351   0.63621   0.63961
 Alpha virt. eigenvalues --    0.64063   0.64268   0.64488   0.64903   0.64980
 Alpha virt. eigenvalues --    0.65238   0.65424   0.65764   0.66021   0.66535
 Alpha virt. eigenvalues --    0.66675   0.67017   0.67289   0.67456   0.67630
 Alpha virt. eigenvalues --    0.67960   0.68299   0.68523   0.68852   0.68965
 Alpha virt. eigenvalues --    0.69480   0.69580   0.69808   0.69999   0.70212
 Alpha virt. eigenvalues --    0.70609   0.71149   0.71565   0.71667   0.71795
 Alpha virt. eigenvalues --    0.72088   0.72204   0.72423   0.73022   0.73269
 Alpha virt. eigenvalues --    0.73548   0.73689   0.73891   0.74155   0.74192
 Alpha virt. eigenvalues --    0.74230   0.74660   0.74780   0.74877   0.75111
 Alpha virt. eigenvalues --    0.75392   0.75793   0.75966   0.76065   0.76185
 Alpha virt. eigenvalues --    0.76335   0.76924   0.77291   0.77476   0.77757
 Alpha virt. eigenvalues --    0.77896   0.78119   0.78447   0.78967   0.79361
 Alpha virt. eigenvalues --    0.79404   0.79467   0.79551   0.79893   0.80156
 Alpha virt. eigenvalues --    0.80584   0.80940   0.81103   0.81309   0.81444
 Alpha virt. eigenvalues --    0.81643   0.81787   0.82208   0.82395   0.82880
 Alpha virt. eigenvalues --    0.83276   0.83534   0.83828   0.84155   0.84228
 Alpha virt. eigenvalues --    0.84343   0.84565   0.84662   0.84934   0.85303
 Alpha virt. eigenvalues --    0.85479   0.85678   0.85802   0.85875   0.86339
 Alpha virt. eigenvalues --    0.86358   0.86515   0.86635   0.87087   0.87431
 Alpha virt. eigenvalues --    0.87885   0.88028   0.88112   0.88266   0.88381
 Alpha virt. eigenvalues --    0.88631   0.88856   0.89182   0.89320   0.89436
 Alpha virt. eigenvalues --    0.89740   0.90160   0.90361   0.90572   0.90692
 Alpha virt. eigenvalues --    0.90767   0.90838   0.91021   0.91262   0.91522
 Alpha virt. eigenvalues --    0.91741   0.91862   0.91916   0.92005   0.92376
 Alpha virt. eigenvalues --    0.92720   0.93111   0.93380   0.93484   0.93666
 Alpha virt. eigenvalues --    0.93756   0.94061   0.94129   0.94359   0.94484
 Alpha virt. eigenvalues --    0.94669   0.94747   0.94947   0.95264   0.95420
 Alpha virt. eigenvalues --    0.95662   0.95774   0.95978   0.96072   0.96164
 Alpha virt. eigenvalues --    0.96384   0.96756   0.96979   0.97355   0.97632
 Alpha virt. eigenvalues --    0.97838   0.98055   0.98264   0.98447   0.98725
 Alpha virt. eigenvalues --    0.98939   0.99241   0.99534   0.99835   1.00173
 Alpha virt. eigenvalues --    1.00214   1.00278   1.00587   1.00747   1.00890
 Alpha virt. eigenvalues --    1.01039   1.01216   1.01249   1.01407   1.01763
 Alpha virt. eigenvalues --    1.01854   1.02403   1.02569   1.02642   1.02854
 Alpha virt. eigenvalues --    1.03347   1.03504   1.03557   1.03875   1.04216
 Alpha virt. eigenvalues --    1.04637   1.04960   1.05064   1.05754   1.05878
 Alpha virt. eigenvalues --    1.05912   1.06221   1.06629   1.06748   1.07286
 Alpha virt. eigenvalues --    1.07823   1.08250   1.08873   1.09313   1.09704
 Alpha virt. eigenvalues --    1.09986   1.10043   1.10171   1.10272   1.10784
 Alpha virt. eigenvalues --    1.11179   1.11747   1.12085   1.12209   1.12849
 Alpha virt. eigenvalues --    1.13355   1.13492   1.14029   1.14341   1.15030
 Alpha virt. eigenvalues --    1.15893   1.16226   1.16358   1.16711   1.17032
 Alpha virt. eigenvalues --    1.17343   1.17877   1.18595   1.18970   1.19270
 Alpha virt. eigenvalues --    1.19967   1.21175   1.21769   1.22409   1.22628
 Alpha virt. eigenvalues --    1.23137   1.23371   1.24490   1.24765   1.24866
 Alpha virt. eigenvalues --    1.25351   1.25746   1.26258   1.26965   1.27333
 Alpha virt. eigenvalues --    1.27981   1.28122   1.28658   1.28770   1.28982
 Alpha virt. eigenvalues --    1.29672   1.29823   1.30512   1.32314   1.32875
 Alpha virt. eigenvalues --    1.33363   1.33720   1.34057   1.35094   1.36338
 Alpha virt. eigenvalues --    1.36398   1.36627   1.37025   1.37225   1.37820
 Alpha virt. eigenvalues --    1.37909   1.38041   1.38891   1.39123   1.39677
 Alpha virt. eigenvalues --    1.40594   1.40668   1.41564   1.42168   1.42326
 Alpha virt. eigenvalues --    1.42523   1.43453   1.43672   1.44292   1.44610
 Alpha virt. eigenvalues --    1.44796   1.45239   1.45798   1.46568   1.46787
 Alpha virt. eigenvalues --    1.47034   1.48325   1.48714   1.48841   1.49283
 Alpha virt. eigenvalues --    1.50124   1.51193   1.51547   1.51942   1.52421
 Alpha virt. eigenvalues --    1.52626   1.52859   1.53604   1.54052   1.54185
 Alpha virt. eigenvalues --    1.54653   1.55082   1.55564   1.55943   1.56175
 Alpha virt. eigenvalues --    1.57121   1.57545   1.58205   1.58820   1.59274
 Alpha virt. eigenvalues --    1.59791   1.60164   1.60705   1.60858   1.61240
 Alpha virt. eigenvalues --    1.61604   1.61946   1.62382   1.62469   1.63021
 Alpha virt. eigenvalues --    1.63945   1.64851   1.65205   1.65697   1.65854
 Alpha virt. eigenvalues --    1.66118   1.66257   1.66767   1.67017   1.67687
 Alpha virt. eigenvalues --    1.67927   1.68146   1.68357   1.68911   1.69451
 Alpha virt. eigenvalues --    1.70086   1.70303   1.70795   1.70987   1.71200
 Alpha virt. eigenvalues --    1.71790   1.71952   1.72269   1.72982   1.73764
 Alpha virt. eigenvalues --    1.74392   1.74467   1.75224   1.75822   1.76471
 Alpha virt. eigenvalues --    1.76567   1.76783   1.77568   1.77916   1.78273
 Alpha virt. eigenvalues --    1.78405   1.79144   1.79422   1.79457   1.79731
 Alpha virt. eigenvalues --    1.79917   1.80148   1.80240   1.81031   1.81678
 Alpha virt. eigenvalues --    1.82000   1.82491   1.82729   1.83175   1.83794
 Alpha virt. eigenvalues --    1.84069   1.84241   1.84329   1.84828   1.85022
 Alpha virt. eigenvalues --    1.85408   1.85595   1.86136   1.86278   1.86856
 Alpha virt. eigenvalues --    1.86929   1.87210   1.87402   1.87645   1.87889
 Alpha virt. eigenvalues --    1.88610   1.88735   1.88798   1.88910   1.89071
 Alpha virt. eigenvalues --    1.89560   1.89837   1.89991   1.90205   1.90443
 Alpha virt. eigenvalues --    1.90551   1.90914   1.91261   1.91412   1.91696
 Alpha virt. eigenvalues --    1.91898   1.91959   1.92263   1.92476   1.92746
 Alpha virt. eigenvalues --    1.93067   1.93303   1.93554   1.93656   1.93763
 Alpha virt. eigenvalues --    1.93912   1.94254   1.94480   1.94550   1.94978
 Alpha virt. eigenvalues --    1.95052   1.95470   1.95605   1.95690   1.96351
 Alpha virt. eigenvalues --    1.96656   1.96726   1.97034   1.97241   1.97521
 Alpha virt. eigenvalues --    1.97804   1.98159   1.98257   1.98314   1.98719
 Alpha virt. eigenvalues --    1.99305   1.99458   1.99606   2.00244   2.00523
 Alpha virt. eigenvalues --    2.00644   2.00978   2.01256   2.02074   2.02367
 Alpha virt. eigenvalues --    2.02750   2.03080   2.03456   2.03543   2.04066
 Alpha virt. eigenvalues --    2.04112   2.04280   2.04394   2.04546   2.04953
 Alpha virt. eigenvalues --    2.05535   2.05837   2.06220   2.06305   2.06734
 Alpha virt. eigenvalues --    2.07013   2.07197   2.07271   2.07995   2.08082
 Alpha virt. eigenvalues --    2.08379   2.09172   2.09308   2.09320   2.09929
 Alpha virt. eigenvalues --    2.10180   2.10270   2.10426   2.11048   2.11299
 Alpha virt. eigenvalues --    2.11607   2.11880   2.12139   2.12475   2.12576
 Alpha virt. eigenvalues --    2.12871   2.12996   2.13209   2.13369   2.13619
 Alpha virt. eigenvalues --    2.14008   2.14439   2.14624   2.14921   2.15037
 Alpha virt. eigenvalues --    2.15312   2.15620   2.16129   2.16351   2.16573
 Alpha virt. eigenvalues --    2.16685   2.17044   2.17256   2.17516   2.17622
 Alpha virt. eigenvalues --    2.18318   2.18716   2.19285   2.19675   2.20066
 Alpha virt. eigenvalues --    2.20098   2.20937   2.21125   2.21460   2.21930
[...]
 Alpha virt. eigenvalues --    2.20648   2.21238   2.21550   2.22115   2.22255
 Alpha virt. eigenvalues --    2.22729   2.22938   2.23066   2.23833   2.24111
 Alpha virt. eigenvalues --    2.24743   2.25101   2.25151   2.25317   2.26219
 Alpha virt. eigenvalues --    2.26406   2.26819   2.27137   2.27718   2.27931
 Alpha virt. eigenvalues --    2.28058   2.28410   2.28993   2.29441   2.29605
 Alpha virt. eigenvalues --    2.30034   2.30381   2.30505   2.30616   2.31089
 Alpha virt. eigenvalues --    2.31774   2.32046   2.32219   2.32459   2.33199
 Alpha virt. eigenvalues --    2.33447   2.33618   2.33626   2.33650   2.34224
 Alpha virt. eigenvalues --    2.34888   2.35058   2.35903   2.35994   2.36100
 Alpha virt. eigenvalues --    2.36664   2.36759   2.37049   2.37585   2.37701
 Alpha virt. eigenvalues --    2.38272   2.38509   2.39198   2.39373   2.39455
 Alpha virt. eigenvalues --    2.39759   2.40169   2.40419   2.40641   2.41210
 Alpha virt. eigenvalues --    2.41473   2.41578   2.41790   2.42123   2.42260
 Alpha virt. eigenvalues --    2.42957   2.43653   2.43864   2.43911   2.44183
 Alpha virt. eigenvalues --    2.44393   2.44653   2.44957   2.45356   2.45632
 Alpha virt. eigenvalues --    2.45944   2.46517   2.46870   2.46971   2.47669
 Alpha virt. eigenvalues --    2.47828   2.48179   2.48491   2.48582   2.48832
 Alpha virt. eigenvalues --    2.49508   2.49876   2.50076   2.50216   2.50643
 Alpha virt. eigenvalues --    2.51062   2.51424   2.51857   2.52148   2.52395
 Alpha virt. eigenvalues --    2.53210   2.53410   2.53514   2.53520   2.54025
 Alpha virt. eigenvalues --    2.54241   2.54579   2.55225   2.55411   2.55615
 Alpha virt. eigenvalues --    2.55995   2.56194   2.56704   2.56973   2.57494
 Alpha virt. eigenvalues --    2.57693   2.57965   2.58283   2.58346   2.58652
 Alpha virt. eigenvalues --    2.59383   2.59553   2.60531   2.60704   2.61094
 Alpha virt. eigenvalues --    2.61256   2.61622   2.61678   2.62249   2.62642
 Alpha virt. eigenvalues --    2.63485   2.64137   2.64465   2.64654   2.64835
 Alpha virt. eigenvalues --    2.65313   2.65802   2.66177   2.66474   2.66809
 Alpha virt. eigenvalues --    2.67132   2.67353   2.67779   2.68177   2.68399
 Alpha virt. eigenvalues --    2.68821   2.68932   2.69245   2.69623   2.69893
 Alpha virt. eigenvalues --    2.70069   2.70186   2.70393   2.70932   2.71605
 Alpha virt. eigenvalues --    2.71994   2.72266   2.72371   2.72767   2.72979
 Alpha virt. eigenvalues --    2.73166   2.73828   2.73987   2.74163   2.74477
 Alpha virt. eigenvalues --    2.74567   2.74986   2.75610   2.75819   2.76325
 Alpha virt. eigenvalues --    2.76643   2.76979   2.77172   2.77353   2.77523
 Alpha virt. eigenvalues --    2.77865   2.78062   2.78519   2.78673   2.78788
 Alpha virt. eigenvalues --    2.79442   2.79972   2.80167   2.80409   2.80794
 Alpha virt. eigenvalues --    2.81310   2.81409   2.81735   2.82116   2.82220
 Alpha virt. eigenvalues --    2.82630   2.82923   2.83360   2.83648   2.83783
 Alpha virt. eigenvalues --    2.84523   2.84770   2.84958   2.85520   2.85617
 Alpha virt. eigenvalues --    2.86134   2.86388   2.86840   2.87184   2.87415
 Alpha virt. eigenvalues --    2.87777   2.88237   2.88685   2.89119   2.89654
 Alpha virt. eigenvalues --    2.89898   2.90312   2.90669   2.91066   2.91847
 Alpha virt. eigenvalues --    2.92068   2.92929   2.93063   2.93213   2.93563
 Alpha virt. eigenvalues --    2.93874   2.94244   2.94575   2.94612   2.94827
 Alpha virt. eigenvalues --    2.95217   2.95959   2.96236   2.97218   2.97441
 Alpha virt. eigenvalues --    2.98202   2.98332   2.98699   2.98996   2.99436
 Alpha virt. eigenvalues --    2.99510   2.99919   3.00346   3.00851   3.00984
 Alpha virt. eigenvalues --    3.01691   3.02094   3.02787   3.03041   3.03992
 Alpha virt. eigenvalues --    3.04850   3.05426   3.05975   3.06454   3.06697
 Alpha virt. eigenvalues --    3.07223   3.07696   3.07732   3.08053   3.08244
 Alpha virt. eigenvalues --    3.08894   3.09165   3.09307   3.10384   3.10800
 Alpha virt. eigenvalues --    3.11578   3.12418   3.13320   3.13631   3.14039
 Alpha virt. eigenvalues --    3.14630   3.15120   3.16153   3.17497   3.17606
 Alpha virt. eigenvalues --    3.18173   3.19292   3.19562   3.21018   3.21638
 Alpha virt. eigenvalues --    3.21850   3.23344   3.24751   3.25047   3.25514
 Alpha virt. eigenvalues --    3.26617   3.27092   3.27409   3.27701   3.28603
 Alpha virt. eigenvalues --    3.30040   3.30274   3.30446   3.31009   3.31834
 Alpha virt. eigenvalues --    3.32647   3.33244   3.34533   3.36002   3.36323
 Alpha virt. eigenvalues --    3.36558   3.36723   3.37119   3.37981   3.39001
 Alpha virt. eigenvalues --    3.40109   3.40181   3.40605   3.41211   3.41589
 Alpha virt. eigenvalues --    3.43066   3.43245   3.43266   3.43936   3.45879
 Alpha virt. eigenvalues --    3.46802   3.46803   3.47507   3.47656   3.48868
 Alpha virt. eigenvalues --    3.49070   3.49417   3.50156   3.50493   3.50790
 Alpha virt. eigenvalues --    3.50916   3.51309   3.51821   3.52135   3.52462
 Alpha virt. eigenvalues --    3.52981   3.54188   3.55152   3.56540   3.57274
 Alpha virt. eigenvalues --    3.58365   3.60390   3.61304   3.61435   3.62331
 Alpha virt. eigenvalues --    3.63421   3.65595   3.68952   3.69701   3.70270
 Alpha virt. eigenvalues --    3.72425   3.78299   3.80128   3.80314   3.81768
 Alpha virt. eigenvalues --    3.83800   3.89167   3.95232   4.07067   4.12705
 Alpha virt. eigenvalues --    4.14507   4.18476   4.19636   4.21230   4.23069
 Alpha virt. eigenvalues --    4.23385   4.24290   4.25732   4.27579   4.28191
 Alpha virt. eigenvalues --    4.29245   4.29997   4.31367   4.32583   4.35022
 Alpha virt. eigenvalues --    4.36175   4.37656   4.38186   4.40429   4.40661
 Alpha virt. eigenvalues --    4.41488   4.44427   4.44451   4.45490   4.46053
 Alpha virt. eigenvalues --    4.47738   4.48225   4.48590   4.50208   4.50946
 Alpha virt. eigenvalues --    4.53327   4.53404   4.53509   4.55018   4.56056
 Alpha virt. eigenvalues --    4.57839   4.58094   4.59538   4.60266   4.60833
 Alpha virt. eigenvalues --    4.61995   4.62702   4.63059   4.63309   4.65322
 Alpha virt. eigenvalues --    4.68384   4.70053   4.70253   4.71363   4.74127
 Alpha virt. eigenvalues --    4.74405   4.75607   4.77482   4.78674   4.79841
 Alpha virt. eigenvalues --    4.82261   4.83796   4.84049   4.85132   4.87017
 Alpha virt. eigenvalues --    4.89439   4.94274   5.00287
          Condensed to atoms (all electrons):
 Mulliken charges:
               1
     1  Mg   0.826754
     2  C    0.101977
     3  C   -0.220283
     4  C   -0.217201
     5  C   -0.152213
     6  N   -0.618822
     7  C    0.220470
     8  C   -0.055929
     9  C   -0.165054
    10  C    0.370753
    11  C   -0.318852
    12  C   -0.162429
    13  C   -0.266281
    14  C    0.597149
    15  O   -0.475371
    16  O   -0.470512
    17  N   -0.733179
    18  C    0.315083
    19  C    0.089493
    20  C   -0.032513
    21  C    0.357164
    22  C   -0.364768
    23  C   -0.107551
    24  C   -0.241632
    25  N   -0.643366
    26  C    0.268743
    27  C    0.080470
    28  C   -0.004179
    29  C    0.271326
    30  C   -0.390921
    31  C   -0.206402
    32  C   -0.313691
    33  N   -0.668825
    34  C    0.245164
    35  C    0.025558
    36  C    0.053081
    37  C    0.180795
    38  C   -0.381066
    39  C    0.344856
    40  O   -0.489220
    41  C   -0.318961
    42  C    0.619304
    43  O   -0.472946
    44  O   -0.436953
    45  C   -0.093505
    46  C    0.003669
    47  C   -0.118996
    48  C    0.107417
    49  C   -0.363381
    50  C   -0.211520
    51  C   -0.169917
    52  C   -0.167692
    53  C   -0.060854
    54  C   -0.317083
    55  C   -0.133517
    56  C   -0.168722
    57  C   -0.180892
    58  C   -0.066974
    59  C   -0.314150
    60  C   -0.181164
    61  C   -0.183969
    62  C   -0.178238
    63  C   -0.065112
    64  C   -0.310760
    65  C   -0.275740
    66  H    0.055660
    67  H    0.095069
    68  H    0.095067
    69  H    0.091687
    70  H    0.103120
    71  H    0.119757
    72  H    0.097535
    73  H    0.128111
    74  H    0.126941
    75  H    0.113013
    76  H    0.125669
    77  H    0.131706
    78  H    0.124181
    79  H    0.110282
    80  H    0.118452
    81  H    0.116570
    82  H    0.106370
    83  H    0.109792
    84  H    0.119629
    85  H    0.121218
    86  H    0.117050
    87  H    0.111883
    88  H    0.103368
    89  H    0.083142
    90  H    0.105586
    91  H    0.115386
    92  H    0.124164
    93  H    0.134754
    94  H    0.085481
    95  H    0.153723
    96  H    0.127065
    97  H    0.143069
    98  H    0.123781
    99  H    0.127197
   100  H    0.117857
   101  H    0.087231
   102  H    0.113047
   103  H    0.097092
   104  H    0.140626
   105  H    0.109411
   106  H    0.101113
   107  H    0.081493
   108  H    0.101944
   109  H    0.084680
   110  H    0.083889
   111  H    0.064822
   112  H    0.084087
   113  H    0.095670
   114  H    0.122615
   115  H    0.046980
   116  H    0.066825
   117  H    0.080309
   118  H    0.094463
   119  H    0.081069
   120  H    0.097945
   121  H    0.088697
   122  H    0.103686
   123  H    0.110231
   124  H    0.094484
   125  H    0.062486
   126  H    0.099096
   127  H    0.110848
   128  H    0.096691
   129  H    0.080737
   130  H    0.074219
   131  H    0.065360
   132  H    0.112589
   133  H    0.110681
   134  H    0.117469
   135  H    0.077034
   136  H    0.082497
   137  H    0.106630
 Sum of Mulliken charges =   0.00000
 Mulliken charges with hydrogens summed into heavy atoms:
               1
     1  Mg   0.826754
     2  C    0.101977
     3  C   -0.164623
     4  C   -0.122132
     5  C   -0.057146
     6  N   -0.618822
     7  C    0.220470
     8  C    0.035758
     9  C   -0.061935
    10  C    0.370753
    11  C    0.026551
    12  C    0.077525
    13  C   -0.008906
    14  C    0.597149
    15  O   -0.475371
    16  O   -0.470512
    17  N   -0.733179
    18  C    0.315083
    19  C    0.089493
    20  C   -0.032513
    21  C    0.357164
    22  C   -0.011853
    23  C    0.009019
    24  C   -0.025470
    25  N   -0.643366
    26  C    0.268743
    27  C    0.080470
    28  C   -0.004179
    29  C    0.271326
    30  C   -0.033025
    31  C    0.008849
    32  C   -0.009576
    33  N   -0.668825
    34  C    0.245164
    35  C    0.025558
    36  C    0.053081
    37  C    0.180795
    38  C   -0.036666
    39  C    0.344856
    40  O   -0.489220
    41  C   -0.165239
    42  C    0.619304
    43  O   -0.472946
    44  O   -0.436953
    45  C    0.300410
    46  C    0.248722
    47  C   -0.031764
    48  C    0.107417
    49  C   -0.012616
    50  C   -0.000996
    51  C    0.013520
    52  C    0.000876
    53  C    0.003968
    54  C   -0.014711
    55  C   -0.019712
    56  C    0.006050
    57  C   -0.001878
    58  C    0.021723
    59  C   -0.005750
    60  C   -0.019583
    61  C    0.023570
    62  C   -0.023281
    63  C    0.000248
    64  C    0.029979
    65  C   -0.009579
 Electronic spatial extent (au):  <R**2>=         179723.0983
 Charge=              0.0000 electrons
 Dipole moment (field-independent basis, Debye):
    X=              1.4110    Y=              6.5829    Z=             -0.0530  Tot=              6.7326
 Quadrupole moment (field-independent basis, Debye-Ang):
   XX=           -330.5371   YY=           -394.0262   ZZ=           -395.5362
   XY=            -43.0702   XZ=              9.4661   YZ=             -2.7770
 Traceless Quadrupole moment (field-independent basis, Debye-Ang):
   XX=             42.8294   YY=            -20.6597   ZZ=            -22.1697
   XY=            -43.0702   XZ=              9.4661   YZ=             -2.7770
 Octapole moment (field-independent basis, Debye-Ang**2):
  XXX=           -818.6050  YYY=            179.0101  ZZZ=             14.0147  XYY=            -19.9785
  XXY=            216.2610  XXZ=           -333.8945  XZZ=            -41.6982  YZZ=            -23.3639
  YYZ=             71.8223  XYZ=            -71.6671
 Hexadecapole moment (field-independent basis, Debye-Ang**3):
 XXXX=        -217517.7697 YYYY=         -17375.5613 ZZZZ=          -4467.7968 XXXY=          -2633.2302
 XXXZ=            609.0861 YYYX=          -1579.8201 YYYZ=           -106.4033 ZZZX=            -25.1050
 ZZZY=           -163.2623 XXYY=         -39901.5073 XXZZ=         -39168.6307 YYZZ=          -3428.9455
 XXYZ=           -223.3212 YYXZ=            -80.3602 ZZXY=             11.7203
 N-N= 8.737037740539D+03 E-N=-2.429661032115D+04  KE= 2.905084009887D+03
 1\1\GINC-PEDRO-RYZENSSD\SP\RCAM-B3LYP TD-FC\6-31G(d,p)\C55H72Mg1N4O5\P
 ADAWAN\02-Jul-2019\0\\# td=(NStates=1) CAM-B3LYP/6-31G(d,p)\\TD\\0,1\M
 g,0,-7.0802986029,0.59821857,0.0124489323\C,0,-4.8105256706,-1.9339945
 779,0.7222787606\C,0,-4.8158515141,2.8633347808,1.0980461695\C,0,-9.36
 49712326,3.1514806436,-0.3912219819\C,0,-9.5048407978,-1.7649120022,-0
 .9816245916\N,0,-5.106264051,0.4775675749,0.6888993082\C,0,-4.38254796
 09,-0.6910089229,1.004508474\C,0,-2.9359125967,-0.3750469304,1.3056409
 183\C,0,-3.0062840668,1.0775904273,1.7783585666\C,0,-4.4010270976,1.49
 56803168,1.1216891988\C,0,-2.9847635585,1.2553078189,3.2851599249\C,0,
 -1.9800114621,-0.6491201734,0.1179957579\C,0,-0.5376911917,-0.30110445
 76,0.4764317725\C,0,0.4821693541,-0.5527787908,-0.6404694274\O,0,0.222
 6935095,-0.9389393015,-1.7457309048\O,0,1.7136631768,-0.2541928157,-0.
 2362004089\N,0,-7.0642368716,2.5731329031,0.2468533808\C,0,-6.03449272
 83,3.3592068965,0.6567692105\C,0,-6.4020474578,4.7772720166,0.75967665
 49\C,0,-7.6633290399,4.7793185634,0.3481232036\C,0,-8.0876930409,3.461
 9753928,-0.0038978435\C,0,-5.4140393606,5.8055930252,1.2876835289\C,0,
 -8.5538131789,6.0126923029,0.0467216576\C,0,-8.6445283441,7.1240485235
 ,0.9650027501\N,0,-9.116853958,0.6342562867,-0.4638704207\C,0,-9.84960
 12198,1.7134612992,-0.7064269668\C,0,-11.2150205987,1.4863269718,-1.17
 70394234\C,0,-11.3163840423,0.1480301671,-1.2477934933\C,0,-9.85067074
 78,-0.4359155659,-0.8680818243\C,0,-12.3321820419,2.3811786889,-1.4743
 542102\C,0,-12.3626008064,-0.7591333234,-1.7738181903\C,0,-12.10812830
 12,-1.1164440556,-3.3142765463\N,0,-7.2361830866,-1.4215317668,-0.2162
 563026\C,0,-8.1590761474,-2.239129085,-0.6154965049\C,0,-7.7577119168,
 -3.6930775753,-0.5797252498\C,0,-6.4721711012,-3.6261669537,-0.0295846
 904\C,0,-6.1805206485,-2.2538036617,0.1686996742\C,0,-8.6509325607,-4.
 8513979822,-0.9049189703\C,0,-5.2488593562,-4.3403379173,0.2302158942\
 O,0,-5.0858774256,-5.5834328267,0.2197990106\C,0,-4.119585538,-3.28361
 41512,0.667036569\C,0,-3.506481279,-3.6573309544,1.9928996629\O,0,-3.8
 676083614,-3.1628830245,3.0150141825\O,0,-2.7323244261,-4.707985521,1.
 8662052014\C,0,-2.2527158595,-5.1839726264,3.1454094764\C,0,2.74337684
 94,-0.6172095156,-1.2033215326\C,0,3.9958916782,-0.3817563519,-0.59227
 93769\C,0,5.0650199864,0.3556618316,-1.1118409568\C,0,5.0675851815,1.1
 45277177,-2.329287094\C,0,6.4149558284,0.5446863188,-0.3236188471\C,0,
 7.5838059185,-0.0190122481,-1.0497319237\C,0,8.8875406267,-0.016676798
 1,-0.1121330261\C,0,10.140834708,-0.5210591776,-0.8638773582\C,0,10.05
 56922694,-2.076478584,-1.1325567207\C,0,11.4198548624,-0.3169354743,-0
 .0799871301\C,0,12.7024651542,-0.5002940805,-0.7649165146\C,0,13.91030
 04984,-0.1618173845,0.2105281203\C,0,15.3839345184,-0.149498679,-0.496
 5178916\C,0,15.7788795569,-1.5804956834,-1.0058702047\C,0,16.419146020
 5,0.2851328733,0.43952846\C,0,17.8912537148,0.3924106395,-0.2881746321
 \C,0,18.7764080103,1.2092791449,0.7017906121\C,0,20.3599346627,1.26386
 67202,0.2408488481\C,0,20.4174130951,2.2401823154,-1.015492542\C,0,21.
 115572488,1.8274956859,1.3297783412\H,0,-4.2654480293,3.708756397,1.45
 11897059\H,0,-10.0679971924,4.0242232573,-0.4125166432\H,0,-10.3308363
 73,-2.3569450353,-1.3400206543\H,0,-2.7769341503,-0.7190102149,2.12792
 34835\H,0,-2.2679303982,1.7504186245,1.3785785083\H,0,-2.101714629,0.8
 604464975,3.7538090944\H,0,-3.0253575958,2.4183358911,3.5938415496\H,0
 ,-3.7623496777,0.6280874927,3.7742498378\H,0,-2.0082933142,-1.53907386
 78,-0.3199359028\H,0,-2.229214594,-0.0742801776,-0.8208321228\H,0,-0.4
 815216696,0.761600774,0.9366140605\H,0,-0.1852863306,-1.0817926945,1.1
 777017254\H,0,-5.7376025357,6.898888533,1.0094166509\H,0,-5.7540023896
 ,5.8214455077,2.523278625\H,0,-4.2162255786,5.5254837148,0.9656297386\
 H,0,-9.0894109936,6.0477509232,-0.8604362718\H,0,-9.4078620021,7.95480
 62195,0.8487144932\H,0,-8.0835278186,7.2368500845,1.8245308386\H,0,-12
 .0744515503,3.1272230483,-2.2890619109\H,0,-13.3362032895,1.9475886501
 ,-1.7026714586\H,0,-12.6353052616,2.9118298377,-0.5068519292\H,0,-12.3
 745422326,-1.691578603,-1.0998649414\H,0,-13.1681955385,-0.2749742342,
 -1.7272182493\H,0,-12.8384902016,-1.9762523114,-3.7270925938\H,0,-12.3
 553891031,-0.3300575434,-4.1658800837\H,0,-11.0836846478,-1.6089857657
 ,-3.4870673267\H,0,-8.7746570687,-5.0167924221,-1.9915324173\H,0,-8.21
 75711219,-5.8684068449,-0.5135309661\H,0,-9.8585457395,-4.7517001913,-
 0.5667184944\H,0,-3.3522659225,-3.4630095517,0.0306177903\H,0,-1.56419
 4586,-4.460672507,3.5609190072\H,0,-3.0959392025,-5.4173033479,3.81869
 47084\H,0,-1.7343815497,-6.1522845017,2.9571496679\H,0,2.5136706712,-1
 .6742392598,-1.6191958846\H,0,2.5126487425,-0.0179875192,-2.0866018124
 \H,0,3.9241633219,-1.0498872039,0.4377169877\H,0,4.0515941229,1.457914
 5019,-2.7981681865\H,0,5.673822794,2.1786781267,-2.0102574939\H,0,5.56
 4593767,0.5976708746,-3.116820413\H,0,6.7070027632,1.5017441744,-0.083
 5857158\H,0,6.3991240318,0.2275847211,0.6175214688\H,0,7.6359109758,-1
 .2102902642,-1.2044017638\H,0,7.7579182277,0.4527084789,-1.9228552091\
 H,0,9.321504202,0.9833262176,-0.0167640442\H,0,8.4867871674,-0.6430598
 122,0.8330811718\H,0,10.2790054519,0.2558981275,-1.7865235419\H,0,9.20
 3685354,-2.2948974662,-1.9392298478\H,0,10.9924718029,-2.3905558395,-1
 .6008043243\H,0,9.9648493709,-2.685220464,-0.3826477045\H,0,11.2079484
 757,0.8282950597,0.3610775953\H,0,11.2765707105,-1.0409700583,0.890439
 6656\H,0,12.7079141103,-1.6634045017,-1.0875464222\H,0,12.7818619387,0
 .1672374147,-1.634026764\H,0,13.8057320099,1.0031928753,0.4556229053\H
 ,0,14.0304557987,-0.9178113858,0.9651830348\H,0,15.0504983383,0.561275
 6126,-1.2190762656\H,0,15.7918566286,-2.3186221543,-0.2369851524\H,0,1
 5.0656296137,-1.9034127169,-1.617369152\H,0,16.8803276622,-1.467002225
 1,-1.238215291\H,0,16.2574009408,1.3263004637,0.9962961739\H,0,16.6248
 169289,-0.3259017653,1.2902017814\H,0,18.0481557543,-0.5179683442,-0.5
 698203224\H,0,17.6594130058,0.8762549444,-1.2333569115\H,0,18.34525531
 81,2.3008142391,0.7311611214\H,0,18.6334505054,0.8231965007,1.82474247
 45\H,0,20.6897638891,0.0471808663,0.3069577598\H,0,19.8205861652,3.091
 1426762,-0.725796173\H,0,21.4096752196,2.2188385367,-1.359287292\H,0,1
 9.9149654009,1.8299748083,-1.7617331423\H,0,21.2494509203,0.907958905,
 2.0683064478\H,0,22.1816998763,2.0404652762,0.9938743537\H,0,20.833003
 0302,2.7162917125,1.8387043109\\Version=ES64L-G09RevD.01\State=1-A\HF=
 -2932.5422605\RMSD=5.283e-09\PG=C01 [X(C55H72Mg1N4O5)]\\@


 WE HAVE SEEN THAT MAN ON THE AVERAGE DOES NOT LIVE ABOVE
 TWO-AND-TWENTY YEARS.  DURING THESE TWO AND TWENTY
 YEARS HE IS LIABLE TO TWO AND TWENTY THOUSAND EVILS,
 MANY OF WHICH ARE INCURABLE.  YET EVEN IN THIS DREADFUL STATE
 MEN STILL STRUT AND POSE ON THE STAGE OF LIFE.
 THEY MAKE LOVE AT THE RISK OF DESTRUCTION,
 INTRIGUE, CARRY ON WAR, AND FORM PROJECTS, JUST AS IF THEY
 WERE TO LIVE IN LUXURY AND HAPPINESS FOR A THOUSAND
 AGES.

                                              -- VOLTAIRE
 Job cpu time:       0 days  6 hours 12 minutes 27.3 seconds.
 File lengths (MBytes):  RWF=   2106 Int=      0 D2E=      0 Chk=    163 Scr=      1
 Normal termination of Gaussian 09 at Tue Jul  2 19:15:16 2019.
>>>>>>> 8e03b5b5abfc0030b3aa597dc0de36371bfbd096
