 Entering Gaussian System, Link 0=g16
 Input=Geometria-54-.com
 Output=Geometria-54-.log
 Initial command:
 /usr/local/g16/l1.exe "/home/padawan/israel-mol/chlorophyll-a/spectra/emi/Gau-54494.inp" -scrdir="/home/padawan/israel-mol/chlorophyll-a/spectra/emi/"
 Entering Link 1 = /usr/local/g16/l1.exe PID=     54496.
  
 Copyright (c) 1988,1990,1992,1993,1995,1998,2003,2009,2016,
            Gaussian, Inc.  All Rights Reserved.
  
 This is part of the Gaussian(R) 16 program.  It is based on
 the Gaussian(R) 09 system (copyright 2009, Gaussian, Inc.),
 the Gaussian(R) 03 system (copyright 2003, Gaussian, Inc.),
 the Gaussian(R) 98 system (copyright 1998, Gaussian, Inc.),
 the Gaussian(R) 94 system (copyright 1995, Gaussian, Inc.),
 the Gaussian 92(TM) system (copyright 1992, Gaussian, Inc.),
 the Gaussian 90(TM) system (copyright 1990, Gaussian, Inc.),
 the Gaussian 88(TM) system (copyright 1988, Gaussian, Inc.),
 the Gaussian 86(TM) system (copyright 1986, Carnegie Mellon
 University), and the Gaussian 82(TM) system (copyright 1983,
 Carnegie Mellon University). Gaussian is a federally registered
 trademark of Gaussian, Inc.
  
 This software contains proprietary and confidential information,
 including trade secrets, belonging to Gaussian, Inc.
  
 This software is provided under written license and may be
 used, copied, transmitted, or stored only in accord with that
 written license.
  
 The following legend is applicable only to US Government
 contracts under FAR:
  
                    RESTRICTED RIGHTS LEGEND
  
 Use, reproduction and disclosure by the US Government is
 subject to restrictions as set forth in subparagraphs (a)
 and (c) of the Commercial Computer Software - Restricted
 Rights clause in FAR 52.227-19.
  
 Gaussian, Inc.
 340 Quinnipiac St., Bldg. 40, Wallingford CT 06492
  
  
 ---------------------------------------------------------------
 Warning -- This program may not be used in any manner that
 competes with the business of Gaussian, Inc. or will provide
 assistance to any competitor of Gaussian, Inc.  The licensee
 of this program is prohibited from giving any competitor of
 Gaussian, Inc. access to this program.  By using this program,
 the user acknowledges that Gaussian, Inc. is engaged in the
 business of creating and licensing software in the field of
 computational chemistry and represents and warrants to the
 licensee that it is not a competitor of Gaussian, Inc. and that
 it will not use this program in any manner prohibited above.
 ---------------------------------------------------------------
  

 Cite this work as:
 Gaussian 16, Revision A.03,
 M. J. Frisch, G. W. Trucks, H. B. Schlegel, G. E. Scuseria, 
 M. A. Robb, J. R. Cheeseman, G. Scalmani, V. Barone, 
 G. A. Petersson, H. Nakatsuji, X. Li, M. Caricato, A. V. Marenich, 
 J. Bloino, B. G. Janesko, R. Gomperts, B. Mennucci, H. P. Hratchian, 
 J. V. Ortiz, A. F. Izmaylov, J. L. Sonnenberg, D. Williams-Young, 
 F. Ding, F. Lipparini, F. Egidi, J. Goings, B. Peng, A. Petrone, 
 T. Henderson, D. Ranasinghe, V. G. Zakrzewski, J. Gao, N. Rega, 
 G. Zheng, W. Liang, M. Hada, M. Ehara, K. Toyota, R. Fukuda, 
 J. Hasegawa, M. Ishida, T. Nakajima, Y. Honda, O. Kitao, H. Nakai, 
 T. Vreven, K. Throssell, J. A. Montgomery, Jr., J. E. Peralta, 
 F. Ogliaro, M. J. Bearpark, J. J. Heyd, E. N. Brothers, K. N. Kudin, 
 V. N. Staroverov, T. A. Keith, R. Kobayashi, J. Normand, 
 K. Raghavachari, A. P. Rendell, J. C. Burant, S. S. Iyengar, 
 J. Tomasi, M. Cossi, J. M. Millam, M. Klene, C. Adamo, R. Cammi, 
 J. W. Ochterski, R. L. Martin, K. Morokuma, O. Farkas, 
 J. B. Foresman, and D. J. Fox, Gaussian, Inc., Wallingford CT, 2016.
 
 ******************************************
 Gaussian 16:  ES64L-G16RevA.03 25-Dec-2016
                30-Jun-2019 
 ******************************************
 %nproc=4
 Will use up to    4 processors via shared memory.
 %Mem=2GB
 -------------------------------------
 # td=(NStates=1) CAM-B3LYP/6-31G(d,p)
 -------------------------------------
 1/38=1,172=1/1;
 2/12=2,17=6,18=5,40=1/2;
 3/5=1,6=6,7=101,11=9,25=1,30=1,74=-40/1,2,3,8;
 4//1;
 5/5=2,38=5/2;
 8/6=1,10=2,108=1/1;
 9/41=1,42=1,70=2/14;
 6/7=2,8=2,9=2,10=2/1;
 99/5=1,9=1/99;
 --
 TD
 --
 Symbolic Z-matrix:
 Charge =  0 Multiplicity = 1
 12                   -7.18154   0.69175   0.06762 
 6                    -4.82003  -1.92087   0.58204 
 6                    -4.81153   2.79724   1.21478 
 6                    -9.45199   3.03557  -0.34927 
 6                    -9.50399  -1.74802  -0.96262 
 7                    -5.0711    0.47805   0.72569 
 6                    -4.32227  -0.74277   0.85483 
 6                    -2.90824  -0.26637   1.34001 
 6                    -3.0116    1.09341   1.77593 
 6                    -4.4568    1.55615   1.25963 
 6                    -2.8485    1.409     3.31378 
 6                    -1.90153  -0.58291   0.20421 
 6                    -0.43689  -0.3902    0.56623 
 6                     0.52018  -0.68218  -0.58367 
 8                     0.2557   -1.20759  -1.57912 
 8                     1.83983  -0.32597  -0.2085 
 7                    -7.13699   2.61133   0.30823 
 6                    -6.07313   3.29823   0.77616 
 6                    -6.40143   4.77617   0.88776 
 6                    -7.70863   4.81924   0.28926 
 6                    -8.12692   3.466    -0.00971 
 6                    -5.51497   5.91782   1.1843 
 6                    -8.43405   6.05382   0.04946 
 6                    -8.42639   7.12826   0.92716 
 7                    -9.06085   0.7144   -0.63252 
 6                    -9.82302   1.78179  -0.74843 
 6                    -11.19066   1.41214  -1.15015 
 6                    -11.11415   0.09013  -1.32885 
 6                    -9.83995  -0.38019  -0.93413 
 6                    -12.24328   2.49543  -1.53724 
 6                    -12.28346  -0.75099  -1.89025 
 6                    -12.17114  -1.13924  -3.43582 
 7                    -7.22822  -1.42766  -0.12652 
 6                    -8.26342  -2.30034  -0.59698 
 6                    -7.82379  -3.68812  -0.58789 
 6                    -6.46181  -3.67368  -0.13601 
 6                    -6.1697   -2.23601   0.0832 
 6                    -8.5584   -4.91412  -0.90014 
 6                    -5.33905  -4.42511   0.26286 
 8                    -5.15357  -5.589     0.23799 
 6                    -4.15986  -3.33437   0.57639 
 6                    -3.53941  -3.59518   1.95498 
 8                    -3.76968  -3.06981   3.0725 
 8                    -2.73602  -4.66407   1.90059 
 6                    -2.30017  -5.28376   3.10137 
 6                     2.79099  -0.63635  -1.21951 
 6                     4.14281  -0.40026  -0.58958 
 6                     5.15434   0.38552  -0.98116 
 6                     5.03604   1.29088  -2.22764 
 6                     6.37393   0.35407  -0.10495 
 6                     7.59892  -0.13868  -0.96485 
 6                     8.91124  -0.06061  -0.19052 
 6                     10.18616  -0.57953  -0.79329 
 6                     9.9968   -2.15035  -1.17314 
 6                     11.41898  -0.28936   0.12542 
 6                     12.71137  -0.42618  -0.72717 
 6                     13.91178  -0.16189   0.14772 
 6                     15.28474  -0.16209  -0.61862 
 6                     15.53746  -1.47082  -1.23775 
 6                     16.3587   0.28142   0.3561 
 6                     17.8098   0.49385  -0.28583 
 6                     18.71103   1.10666   0.64527 
 6                     20.20588   1.32615   0.1025 
 6                     20.26053   2.3373   -0.99239 
 6                     21.05895   1.87795   1.36243 
 1                    -4.22561   3.58587   1.28191 
 1                    -10.08566   3.77042  -0.66046 
 1                    -10.13849  -2.63682  -1.5733 
 1                    -2.4579   -0.92049   2.13076 
 1                    -2.12469   1.57128   1.40077 
 1                    -1.83921   1.25874   3.58945 
 1                    -2.94303   2.53028   3.45312 
 1                    -3.43503   0.92437   3.61476 
 1                    -2.11673  -1.46626  -0.1973 
 1                    -2.0391    0.03103  -0.52699 
 1                    -0.25916   0.61756   0.99986 
 1                    -0.2503   -1.14743   1.32408 
 1                    -5.8594    6.86375   0.54164 
 1                    -5.48428   6.16297   2.1896 
 1                    -4.43511   5.84757   0.72743 
 1                    -9.01017   6.15293  -0.76529 
 1                    -9.28516   7.87986   0.58753 
 1                    -7.81333   7.05113   1.96915 
 1                    -11.95271   2.96525  -2.24079 
 1                    -13.16541   1.85169  -1.84378 
 1                    -12.23749   2.87719  -0.45602 
 1                    -12.38883  -1.57698  -1.15385 
 1                    -13.17108  -0.25944  -1.74086 
 1                    -13.05618  -1.73181  -3.7014 
 1                    -11.9455  -0.05214  -4.19466 
 1                    -11.19673  -1.75315  -3.6727 
 1                    -8.45685  -5.06883  -2.1205 
 1                    -8.01529  -5.8498   -0.42519 
 1                    -9.60461  -4.87218  -0.48899 
 1                    -3.15026  -3.26307  -0.00316 
 1                    -1.69917  -4.66256   3.83342 
 1                    -3.24399  -5.76113   3.42922 
 1                    -1.54666  -6.12922   2.74851 
 1                     2.7024   -1.69839  -1.66297 
 1                     2.77915  -0.08196  -2.12446 
 1                     4.36369  -1.10827   0.30538 
 1                     4.04933   1.55063  -2.543 
 1                     5.26538   2.25557  -1.92998 
 1                     5.60162   0.87489  -2.9898 
 1                     6.62176   1.40508  -0.11362 
 1                     6.14021  -0.20671   0.86344 
 1                     7.24075  -1.12164  -1.33221 
 1                     7.83511   0.24133  -1.96981 
 1                     9.1521    0.93606   0.13269 
 1                     8.78795  -0.74885   0.70126 
 1                     10.25556   0.00663  -1.79433 
 1                     9.22078  -2.42424  -1.80072 
 1                     10.87182  -2.47011  -1.75814 
 1                     9.87665  -2.59515  -0.29018 
 1                     11.38678   0.79154   0.36664 
 1                     11.41187  -0.98141   0.97801 
 1                     12.81619  -1.40504  -1.13733 
 1                     12.81015   0.05118  -1.63609 
 1                     13.8947   1.00915   0.58174 
 1                     14.00339  -0.70314   1.08401 
 1                     15.34202   0.61191  -1.48563 
 1                     15.49981  -2.36897  -0.53878 
 1                     14.94089  -1.76237  -2.10822 
 1                     16.52704  -1.61611  -1.70695 
 1                     15.87555   1.26382   0.87092 
 1                     16.20798  -0.48169   1.17999 
 1                     18.20092  -0.55705  -0.32917 
 1                     17.87581   0.93438  -1.31288 
 1                     18.26582   2.08263   1.00441 
 1                     18.78169   0.67985   1.61506 
 1                     20.60019   0.2767   -0.09426 
 1                     19.93767   3.3476   -0.66881 
 1                     21.25644   2.60142  -1.32826 
 1                     19.66472   1.83353  -1.7934 
 1                     20.98723   1.0929    2.31814 
 1                     22.05802   1.89385   1.05557 
 1                     20.64977   2.91118   1.68746 
 
 Stoichiometry    C55H72MgN4O5
 Framework group  C1[X(C55H72MgN4O5)]
 Deg. of freedom   405
 Full point group                 C1      NOp   1
 Largest Abelian subgroup         C1      NOp   1
 Largest concise Abelian subgroup C1      NOp   1
                         Standard orientation:                         
 ---------------------------------------------------------------------
 Center     Atomic      Atomic             Coordinates (Angstroms)
 Number     Number       Type             X           Y           Z
 ---------------------------------------------------------------------
      1         12           0       -7.181751    0.695144    0.067529
      2          6           0       -4.821218   -1.917486    0.586373
      3          6           0       -4.811393    2.801528    1.212316
      4          6           0       -9.451337    3.039087   -0.353375
      5          6           0       -9.504693   -1.745364   -0.959858
      6          7           0       -5.071566    0.481719    0.726497
      7          6           0       -4.323164   -0.739154    0.857606
      8          6           0       -2.909116   -0.262499    1.342498
      9          6           0       -3.012169    1.097938    1.776425
     10          6           0       -4.457074    1.560389    1.259057
     11          6           0       -2.849395    1.415691    3.313869
     12          6           0       -1.902192   -0.581003    0.207438
     13          6           0       -0.437590   -0.388239    0.569588
     14          6           0        0.519714   -0.682178   -0.579626
     15          8           0        0.255339   -1.208930   -1.574394
     16          8           0        1.839365   -0.325847   -0.204592
     17          7           0       -7.136661    2.615053    0.305383
     18          6           0       -6.072706    3.302291    0.772624
     19          6           0       -6.400566    4.780496    0.882002
     20          6           0       -7.707590    4.823122    0.283071
     21          6           0       -8.126222    3.469579   -0.014064
     22          6           0       -5.513827    5.922291    1.177151
     23          6           0       -8.432546    6.057580    0.041295
     24          6           0       -8.424785    7.133283    0.917446
     25          7           0       -9.060857    0.717392   -0.633173
     26          6           0       -9.822654    1.784851   -0.750838
     27          6           0      -11.190299    1.415061   -1.152405
     28          6           0      -11.114166    0.092775   -1.329185
     29          6           0       -9.840223   -0.377387   -0.933427
     30          6           0      -12.242469    2.498128   -1.541354
     31          6           0      -12.283586   -0.748786   -1.889700
     32          6           0      -12.170958   -1.139290   -3.434677
     33          7           0       -7.229057   -1.424528   -0.123575
     34          6           0       -8.264398   -2.297547   -0.593076
     35          6           0       -7.825216   -3.685455   -0.581856
     36          6           0       -6.463359   -3.670803   -0.129614
     37          6           0       -6.170851   -2.232912    0.087605
     38          6           0       -8.560134   -4.911676   -0.892550
     39          6           0       -5.340950   -4.422011    0.270647
     40          8           0       -5.155840   -5.586001    0.247507
     41          6           0       -4.161501   -3.331199    0.582937
     42          6           0       -3.541526   -3.590228    1.962073
     43          8           0       -3.771936   -3.063175    3.078775
     44          8           0       -2.738462   -4.659448    1.909451
     45          6           0       -2.303143   -5.277549    3.111241
     46          6           0        2.790715   -0.637987   -1.214893
     47          6           0        4.142429   -0.401418   -0.584919
     48          6           0        5.154322    0.383478   -0.977344
     49          6           0        5.036664    1.287077   -2.225159
     50          6           0        6.373659    0.352893   -0.100746
     51          6           0        7.598728   -0.141487   -0.959598
     52          6           0        8.910861   -0.062718   -0.185010
     53          6           0       10.185781   -0.582905   -0.786674
     54          6           0        9.996023   -2.154211   -1.164315
     55          6           0       11.418441   -0.291814    0.131968
     56          6           0       12.711018   -0.430267   -0.720067
     57          6           0       13.911271   -0.165101    0.154784
     58          6           0       15.284450   -0.166845   -0.611171
     59          6           0       15.536917   -1.476550   -1.228349
     60          6           0       16.358273    0.277728    0.363211
     61          6           0       17.809617    0.488769   -0.278621
     62          6           0       18.710787    1.102629    0.651859
     63          6           0       20.205857    1.320865    0.109184
     64          6           0       20.261135    2.330419   -0.987141
     65          6           0       21.058747    1.874204    1.368564
     66          1           0       -4.225243    3.590073    1.278480
     67          1           0      -10.084684    3.773689   -0.665805
     68          1           0      -10.139302   -2.634842   -1.569437
     69          1           0       -2.459209   -0.915628    2.134314
     70          1           0       -2.124992    1.574983    1.400829
     71          1           0       -1.840229    1.265499    3.590038
     72          1           0       -2.943605    2.537194    3.451563
     73          1           0       -3.436161    0.931675    3.615382
     74          1           0       -2.117562   -1.464854   -0.192869
     75          1           0       -2.039353    0.031932   -0.524691
     76          1           0       -0.259658    0.620088    1.001816
     77          1           0       -0.251456   -1.144432    1.328575
     78          1           0       -5.857780    6.867396    0.533030
     79          1           0       -5.483336    6.168874    2.182098
     80          1           0       -4.433859    5.851031    0.720679
     81          1           0       -9.008408    6.155706   -0.773758
     82          1           0       -9.283223    7.884667    0.576493
     83          1           0       -7.812046    7.057460    1.959715
     84          1           0      -11.951548    2.966839   -2.245494
     85          1           0      -13.164711    1.854241   -1.847221
     86          1           0      -12.236853    2.881439   -0.460679
     87          1           0      -12.389427   -1.573676   -1.152142
     88          1           0      -13.171084   -0.256739   -1.741268
     89          1           0      -13.056110   -1.731961   -3.699654
     90          1           0      -11.944752   -0.053360   -4.195022
     91          1           0      -11.196669   -1.753855   -3.670396
     92          1           0       -8.458283   -5.068168   -2.112654
     93          1           0       -8.017454   -5.846845   -0.416104
     94          1           0       -9.606443   -4.868808   -0.481757
     95          1           0       -3.151712   -3.261056    0.003575
     96          1           0       -1.702148   -4.655487    3.842566
     97          1           0       -3.247211   -5.754140    3.439513
     98          1           0       -1.549806   -6.123756    2.759814
     99          1           0        2.701909   -1.700636   -1.656845
    100          1           0        2.779300   -0.084899   -2.120636
    101          1           0        4.362832   -1.108214    0.311124
    102          1           0        4.050127    1.546689   -2.541175
    103          1           0        5.266228    2.252115   -1.928826
    104          1           0        5.602320    0.869806   -2.986561
    105          1           0        6.621829    1.403817   -0.110862
    106          1           0        6.139484   -0.206414    0.868377
    107          1           0        7.240351   -1.124858   -1.325645
    108          1           0        7.835320    0.237002   -1.965034
    109          1           0        9.151943    0.934342    0.136834
    110          1           0        8.787096   -0.749633    0.707724
    111          1           0       10.255653    0.001789   -1.788541
    112          1           0        9.220092   -2.428761   -1.791714
    113          1           0       10.871108   -2.475100   -1.748608
    114          1           0        9.875487   -2.597706   -0.280747
    115          1           0       11.386510    0.789447    0.371617
    116          1           0       11.410870   -0.982635    0.985546
    117          1           0       12.815649   -1.409752   -1.128787
    118          1           0       12.810214    0.045745   -1.629640
    119          1           0       13.894444    1.006568    0.587106
    120          1           0       14.002448   -0.705035    1.091881
    121          1           0       15.342213    0.605888   -1.479281
    122          1           0       15.498786   -2.373674   -0.528089
    123          1           0       14.940500   -1.769157   -2.098561
    124          1           0       16.526589   -1.622824   -1.697060
    125          1           0       15.875295    1.261024    0.876484
    126          1           0       16.207074   -0.484147    1.188157
    127          1           0       18.200419   -0.562320   -0.320330
    128          1           0       17.876065    0.927798   -1.306286
    129          1           0       18.265784    2.079261    1.009462
    130          1           0       18.781032    0.677197    1.622279
    131          1           0       20.599893    0.271008   -0.085952
    132          1           0       19.938508    3.341283   -0.665107
    133          1           0       21.257226    2.593732   -1.323115
    134          1           0       19.665392    1.825680   -1.787588
    135          1           0       20.986516    1.090550    2.325383
    136          1           0       22.057909    1.889343    1.061961
    137          1           0       20.649814    2.908032    1.691989
 ---------------------------------------------------------------------
 Rotational constants (GHZ):           0.0634612           0.0061254           0.0057733
 Standard basis: 6-31G(d,p) (6D, 7F)
 There are  1339 symmetry adapted cartesian basis functions of A   symmetry.
 There are  1339 symmetry adapted basis functions of A   symmetry.
  1339 basis functions,  2348 primitive gaussians,  1339 cartesian basis functions
   241 alpha electrons      241 beta electrons
       nuclear repulsion energy      8737.0941553032 Hartrees.
 NAtoms=  137 NActive=  137 NUniq=  137 SFac= 1.00D+00 NAtFMM=   60 NAOKFM=T Big=T
 Integral buffers will be    131072 words long.
 Raffenetti 1 integral format.
 Two-electron integral symmetry is turned on.
 One-electron integrals computed using PRISM.
 NBasis=  1339 RedAO= T EigKep=  3.10D-04  NBF=  1339
 NBsUse=  1339 1.00D-06 EigRej= -1.00D+00 NBFU=  1339
 ExpMin= 4.21D-02 ExpMax= 1.17D+04 ExpMxC= 1.76D+03 IAcc=3 IRadAn=         5 AccDes= 0.00D+00
 Harris functional with IExCor=20419 and IRadAn=       5 diagonalized for initial guess.
 HarFok:  IExCor=20419 AccDes= 0.00D+00 IRadAn=         5 IDoV= 1 UseB2=F ITyADJ=14
 ICtDFT=  3500011 ScaDFX=  1.000000  1.000000  1.000000  1.000000
 FoFCou: FMM=F IPFlag=           0 FMFlag=      100000 FMFlg1=        2001
         NFxFlg=           0 DoJE=T BraDBF=F KetDBF=T FulRan=T
         wScrn=  0.000000 ICntrl=       500 IOpCl=  0 I1Cent=   200000004 NGrid=           0
         NMat0=    1 NMatS0=      1 NMatT0=    0 NMatD0=    1 NMtDS0=    0 NMtDT0=    0
 Petite list used in FoFCou.
 Requested convergence on RMS density matrix=1.00D-08 within 128 cycles.
 Requested convergence on MAX density matrix=1.00D-06.
 Requested convergence on             energy=1.00D-06.
 No special actions if energy rises.
 SCF Done:  E(RCAM-B3LYP) =  -2932.55067569     A.U. after   15 cycles
            NFock= 15  Conv=0.78D-08     -V/T= 2.0089
 DoSCS=F DFT=T ScalE2(SS,OS)=  1.000000  1.000000
 ExpMin= 4.21D-02 ExpMax= 1.17D+04 ExpMxC= 1.76D+03 IAcc=3 IRadAn=         5 AccDes= 0.00D+00
 HarFok:  IExCor=  205 AccDes= 0.00D+00 IRadAn=         5 IDoV=-2 UseB2=F ITyADJ=14
 ICtDFT= 12500011 ScaDFX=  1.000000  1.000000  1.000000  1.000000
 GSVD:  LWork=       -5313 too small for GESVD, short by       24840 words or       24840 for optimal perf.
 Range of M.O.s used for correlation:    70  1339
 NBasis=  1339 NAE=   241 NBE=   241 NFC=    69 NFV=     0
 NROrb=   1270 NOA=   172 NOB=   172 NVA=  1098 NVB=  1098
 Orbital symmetries:
       Occupied  (A) (A) (A) (A) (A) (A) (A) (A) (A) (A) (A) (A)
                 (A) (A) (A) (A) (A) (A) (A) (A) (A) (A) (A) (A)
                 (A) (A) (A) (A) (A) (A) (A) (A) (A) (A) (A) (A)
                 (A) (A) (A) (A) (A) (A) (A) (A) (A) (A) (A) (A)
                 (A) (A) (A) (A) (A) (A) (A) (A) (A) (A) (A) (A)
                 (A) (A) (A) (A) (A) (A) (A) (A) (A) (A) (A) (A)
                 (A) (A) (A) (A) (A) (A) (A) (A) (A) (A) (A) (A)
                 (A) (A) (A) (A) (A) (A) (A) (A) (A) (A) (A) (A)
                 (A) (A) (A) (A) (A) (A) (A) (A) (A) (A) (A) (A)
                 (A) (A) (A) (A) (A) (A) (A) (A) (A) (A) (A) (A)
                 (A) (A) (A) (A) (A) (A) (A) (A) (A) (A) (A) (A)
                 (A) (A) (A) (A) (A) (A) (A) (A) (A) (A) (A) (A)
                 (A) (A) (A) (A) (A) (A) (A) (A) (A) (A) (A) (A)
                 (A) (A) (A) (A) (A) (A) (A) (A) (A) (A) (A) (A)
                 (A) (A) (A) (A) (A) (A) (A) (A) (A) (A) (A) (A)
                 (A) (A) (A) (A) (A) (A) (A) (A) (A) (A) (A) (A)
                 (A) (A) (A) (A) (A) (A) (A) (A) (A) (A) (A) (A)
                 (A) (A) (A) (A) (A) (A) (A) (A) (A) (A) (A) (A)
                 (A) (A) (A) (A) (A) (A) (A) (A) (A) (A) (A) (A)
                 (A) (A) (A) (A) (A) (A) (A) (A) (A) (A) (A) (A)
                 (A)
       Virtual   (A) (A) (A) (A) (A) (A) (A) (A) (A) (A) (A) (A)
                 (A) (A) (A) (A) (A) (A) (A) (A) (A) (A) (A) (A)
                 (A) (A) (A) (A) (A) (A) (A) (A) (A) (A) (A) (A)
                 (A) (A) (A) (A) (A) (A) (A) (A) (A) (A) (A) (A)
                 (A) (A) (A) (A) (A) (A) (A) (A) (A) (A) (A) (A)
                 (A) (A) (A) (A) (A) (A) (A) (A) (A) (A) (A) (A)
                 (A) (A) (A) (A) (A) (A) (A) (A) (A) (A) (A) (A)
                 (A) (A) (A) (A) (A) (A) (A) (A) (A) (A) (A) (A)
                 (A) (A) (A) (A) (A) (A) (A) (A) (A) (A) (A) (A)
                 (A) (A) (A) (A) (A) (A) (A) (A) (A) (A) (A) (A)
                 (A) (A) (A) (A) (A) (A) (A) (A) (A) (A) (A) (A)
                 (A) (A) (A) (A) (A) (A) (A) (A) (A) (A) (A) (A)
                 (A) (A) (A) (A) (A) (A) (A) (A) (A) (A) (A) (A)
                 (A) (A) (A) (A) (A) (A) (A) (A) (A) (A) (A) (A)
                 (A) (A) (A) (A) (A) (A) (A) (A) (A) (A) (A) (A)
                 (A) (A) (A) (A) (A) (A) (A) (A) (A) (A) (A) (A)
                 (A) (A) (A) (A) (A) (A) (A) (A) (A) (A) (A) (A)
                 (A) (A) (A) (A) (A) (A) (A) (A) (A) (A) (A) (A)
                 (A) (A) (A) (A) (A) (A) (A) (A) (A) (A) (A) (A)
                 (A) (A) (A) (A) (A) (A) (A) (A) (A) (A) (A) (A)
                 (A) (A) (A) (A) (A) (A) (A) (A) (A) (A) (A) (A)
                 (A) (A) (A) (A) (A) (A) (A) (A) (A) (A) (A) (A)
                 (A) (A) (A) (A) (A) (A) (A) (A) (A) (A) (A) (A)
                 (A) (A) (A) (A) (A) (A) (A) (A) (A) (A) (A) (A)
                 (A) (A) (A) (A) (A) (A) (A) (A) (A) (A) (A) (A)
                 (A) (A) (A) (A) (A) (A) (A) (A) (A) (A) (A) (A)
                 (A) (A) (A) (A) (A) (A) (A) (A) (A) (A) (A) (A)
                 (A) (A) (A) (A) (A) (A) (A) (A) (A) (A) (A) (A)
                 (A) (A) (A) (A) (A) (A) (A) (A) (A) (A) (A) (A)
                 (A) (A) (A) (A) (A) (A) (A) (A) (A) (A) (A) (A)
                 (A) (A) (A) (A) (A) (A) (A) (A) (A) (A) (A) (A)
                 (A) (A) (A) (A) (A) (A) (A) (A) (A) (A) (A) (A)
                 (A) (A) (A) (A) (A) (A) (A) (A) (A) (A) (A) (A)
                 (A) (A) (A) (A) (A) (A) (A) (A) (A) (A) (A) (A)
                 (A) (A) (A) (A) (A) (A) (A) (A) (A) (A) (A) (A)
                 (A) (A) (A) (A) (A) (A) (A) (A) (A) (A) (A) (A)
                 (A) (A) (A) (A) (A) (A) (A) (A) (A) (A) (A) (A)
                 (A) (A) (A) (A) (A) (A) (A) (A) (A) (A) (A) (A)
                 (A) (A) (A) (A) (A) (A) (A) (A) (A) (A) (A) (A)
                 (A) (A) (A) (A) (A) (A) (A) (A) (A) (A) (A) (A)
                 (A) (A) (A) (A) (A) (A) (A) (A) (A) (A) (A) (A)
                 (A) (A) (A) (A) (A) (A) (A) (A) (A) (A) (A) (A)
                 (A) (A) (A) (A) (A) (A) (A) (A) (A) (A) (A) (A)
                 (A) (A) (A) (A) (A) (A) (A) (A) (A) (A) (A) (A)
                 (A) (A) (A) (A) (A) (A) (A) (A) (A) (A) (A) (A)
                 (A) (A) (A) (A) (A) (A) (A) (A) (A) (A) (A) (A)
                 (A) (A) (A) (A) (A) (A) (A) (A) (A) (A) (A) (A)
                 (A) (A) (A) (A) (A) (A) (A) (A) (A) (A) (A) (A)
                 (A) (A) (A) (A) (A) (A) (A) (A) (A) (A) (A) (A)
                 (A) (A) (A) (A) (A) (A) (A) (A) (A) (A) (A) (A)
                 (A) (A) (A) (A) (A) (A) (A) (A) (A) (A) (A) (A)
                 (A) (A) (A) (A) (A) (A) (A) (A) (A) (A) (A) (A)
                 (A) (A) (A) (A) (A) (A) (A) (A) (A) (A) (A) (A)
                 (A) (A) (A) (A) (A) (A) (A) (A) (A) (A) (A) (A)
                 (A) (A) (A) (A) (A) (A) (A) (A) (A) (A) (A) (A)
                 (A) (A) (A) (A) (A) (A) (A) (A) (A) (A) (A) (A)
                 (A) (A) (A) (A) (A) (A) (A) (A) (A) (A) (A) (A)
                 (A) (A) (A) (A) (A) (A) (A) (A) (A) (A) (A) (A)
                 (A) (A) (A) (A) (A) (A) (A) (A) (A) (A) (A) (A)
                 (A) (A) (A) (A) (A) (A) (A) (A) (A) (A) (A) (A)
                 (A) (A) (A) (A) (A) (A) (A) (A) (A) (A) (A) (A)
                 (A) (A) (A) (A) (A) (A) (A) (A) (A) (A) (A) (A)
                 (A) (A) (A) (A) (A) (A) (A) (A) (A) (A) (A) (A)
                 (A) (A) (A) (A) (A) (A) (A) (A) (A) (A) (A) (A)
                 (A) (A) (A) (A) (A) (A) (A) (A) (A) (A) (A) (A)
                 (A) (A) (A) (A) (A) (A) (A) (A) (A) (A) (A) (A)
                 (A) (A) (A) (A) (A) (A) (A) (A) (A) (A) (A) (A)
                 (A) (A) (A) (A) (A) (A) (A) (A) (A) (A) (A) (A)
                 (A) (A) (A) (A) (A) (A) (A) (A) (A) (A) (A) (A)
                 (A) (A) (A) (A) (A) (A) (A) (A) (A) (A) (A) (A)
                 (A) (A) (A) (A) (A) (A) (A) (A) (A) (A) (A) (A)
                 (A) (A) (A) (A) (A) (A) (A) (A) (A) (A) (A) (A)
                 (A) (A) (A) (A) (A) (A) (A) (A) (A) (A) (A) (A)
                 (A) (A) (A) (A) (A) (A) (A) (A) (A) (A) (A) (A)
                 (A) (A) (A) (A) (A) (A) (A) (A) (A) (A) (A) (A)
                 (A) (A) (A) (A) (A) (A) (A) (A) (A) (A) (A) (A)
                 (A) (A) (A) (A) (A) (A) (A) (A) (A) (A) (A) (A)
                 (A) (A) (A) (A) (A) (A) (A) (A) (A) (A) (A) (A)
                 (A) (A) (A) (A) (A) (A) (A) (A) (A) (A) (A) (A)
                 (A) (A) (A) (A) (A) (A) (A) (A) (A) (A) (A) (A)
                 (A) (A) (A) (A) (A) (A) (A) (A) (A) (A) (A) (A)
                 (A) (A) (A) (A) (A) (A) (A) (A) (A) (A) (A) (A)
                 (A) (A) (A) (A) (A) (A) (A) (A) (A) (A) (A) (A)
                 (A) (A) (A) (A) (A) (A) (A) (A) (A) (A) (A) (A)
                 (A) (A) (A) (A) (A) (A) (A) (A) (A) (A) (A) (A)
                 (A) (A) (A) (A) (A) (A) (A) (A) (A) (A) (A) (A)
                 (A) (A) (A) (A) (A) (A) (A) (A) (A) (A) (A) (A)
                 (A) (A) (A) (A) (A) (A) (A) (A) (A) (A) (A) (A)
                 (A) (A) (A) (A) (A) (A) (A) (A) (A) (A) (A) (A)
                 (A) (A) (A) (A) (A) (A) (A) (A) (A) (A) (A) (A)
                 (A) (A) (A) (A) (A) (A) (A) (A) (A) (A) (A) (A)
                 (A) (A) (A) (A) (A) (A)
     4 initial guesses have been made.
 Convergence on wavefunction:    0.001000000000000
 Iteration     1 Dimension     4 NMult     0 NNew      4
 CISAX will form     4 AO SS matrices at one time.
 New state      1 was old state      2
 Iteration     2 Dimension     6 NMult     4 NNew      2
 Iteration     3 Dimension     8 NMult     6 NNew      2
 Iteration     4 Dimension    10 NMult     8 NNew      2
 Iteration     5 Dimension    12 NMult    10 NNew      2
 Iteration     6 Dimension    14 NMult    12 NNew      2
 Iteration     7 Dimension    16 NMult    14 NNew      2
 Iteration     8 Dimension    18 NMult    16 NNew      2
 ***********************************************************************
 Excited states from <AA,BB:AA,BB> singles matrix:
 ***********************************************************************
 
 Ground to excited state transition densities written to RWF  633
 Ground to excited state transition electric dipole moments (Au):
       state          X           Y           Z        Dip. S.      Osc.
         1        -0.4344     -2.4746     -0.3986      6.4710      0.3135
 Ground to excited state transition velocity dipole moments (Au):
       state          X           Y           Z        Dip. S.      Osc.
         1         0.0299      0.1749      0.0289      0.0323      0.2965
 Ground to excited state transition magnetic dipole moments (Au):
       state          X           Y           Z
         1         0.5961      0.6171     -4.2188
 Ground to excited state transition velocity quadrupole moments (Au):
       state          XX          YY          ZZ          XY          XZ          YZ
         1        -0.8182      0.2240      0.0195     -2.2143     -0.3779      0.1170
 <0|del|b> * <b|rxdel|0> + <0|del|b> * <b|delr+rdel|0>
 Rotatory Strengths (R) in cgs (10**-40 erg-esu-cm/Gauss)
       state          XX          YY          ZZ    R(velocity)    E-M Angle
         1       -56.2993   -177.7260    273.2713     13.0820       89.70
 1/2[<0|r|b>*<b|rxdel|0> + (<0|rxdel|b>*<b|r|0>)*]
 Rotatory Strengths (R) in cgs (10**-40 erg-esu-cm/Gauss)
       state          XX          YY          ZZ     R(length)
         1       183.0945   1079.9059  -1189.1050     24.6318
  1/2[<0|del|b>*<b|r|0> + (<0|r|b>*<b|del|0>)*] (Au)
       state          X           Y           Z        Dip. S.   Osc.(frdel)
         1        -0.0130     -0.4328     -0.0115      0.4573      0.3049

 Excitation energies and oscillator strengths:
 
 Excited State   1:      Singlet-A      1.9772 eV  627.06 nm  f=0.3135  <S**2>=0.000
     240 -> 243       -0.19301
     241 -> 242        0.67339
 This state for optimization and/or second-order correction.
 Total Energy, E(TD-HF/TD-DFT) =  -2932.47801440    
 Copying the excited state density for this state as the 1-particle RhoCI density.
 SavETr:  write IOETrn=   770 NScale= 10 NData=  16 NLR=1 NState=    1 LETran=      28.
 Hyperfine terms turned off by default for NAtoms > 100.

 **********************************************************************

            Population analysis using the SCF density.

 **********************************************************************

 Orbital symmetries:
       Occupied  (A) (A) (A) (A) (A) (A) (A) (A) (A) (A) (A) (A)
                 (A) (A) (A) (A) (A) (A) (A) (A) (A) (A) (A) (A)
                 (A) (A) (A) (A) (A) (A) (A) (A) (A) (A) (A) (A)
                 (A) (A) (A) (A) (A) (A) (A) (A) (A) (A) (A) (A)
                 (A) (A) (A) (A) (A) (A) (A) (A) (A) (A) (A) (A)
                 (A) (A) (A) (A) (A) (A) (A) (A) (A) (A) (A) (A)
                 (A) (A) (A) (A) (A) (A) (A) (A) (A) (A) (A) (A)
                 (A) (A) (A) (A) (A) (A) (A) (A) (A) (A) (A) (A)
                 (A) (A) (A) (A) (A) (A) (A) (A) (A) (A) (A) (A)
                 (A) (A) (A) (A) (A) (A) (A) (A) (A) (A) (A) (A)
                 (A) (A) (A) (A) (A) (A) (A) (A) (A) (A) (A) (A)
                 (A) (A) (A) (A) (A) (A) (A) (A) (A) (A) (A) (A)
                 (A) (A) (A) (A) (A) (A) (A) (A) (A) (A) (A) (A)
                 (A) (A) (A) (A) (A) (A) (A) (A) (A) (A) (A) (A)
                 (A) (A) (A) (A) (A) (A) (A) (A) (A) (A) (A) (A)
                 (A) (A) (A) (A) (A) (A) (A) (A) (A) (A) (A) (A)
                 (A) (A) (A) (A) (A) (A) (A) (A) (A) (A) (A) (A)
                 (A) (A) (A) (A) (A) (A) (A) (A) (A) (A) (A) (A)
                 (A) (A) (A) (A) (A) (A) (A) (A) (A) (A) (A) (A)
                 (A) (A) (A) (A) (A) (A) (A) (A) (A) (A) (A) (A)
                 (A)
       Virtual   (A) (A) (A) (A) (A) (A) (A) (A) (A) (A) (A) (A)
                 (A) (A) (A) (A) (A) (A) (A) (A) (A) (A) (A) (A)
                 (A) (A) (A) (A) (A) (A) (A) (A) (A) (A) (A) (A)
                 (A) (A) (A) (A) (A) (A) (A) (A) (A) (A) (A) (A)
                 (A) (A) (A) (A) (A) (A) (A) (A) (A) (A) (A) (A)
                 (A) (A) (A) (A) (A) (A) (A) (A) (A) (A) (A) (A)
                 (A) (A) (A) (A) (A) (A) (A) (A) (A) (A) (A) (A)
                 (A) (A) (A) (A) (A) (A) (A) (A) (A) (A) (A) (A)
                 (A) (A) (A) (A) (A) (A) (A) (A) (A) (A) (A) (A)
                 (A) (A) (A) (A) (A) (A) (A) (A) (A) (A) (A) (A)
                 (A) (A) (A) (A) (A) (A) (A) (A) (A) (A) (A) (A)
                 (A) (A) (A) (A) (A) (A) (A) (A) (A) (A) (A) (A)
                 (A) (A) (A) (A) (A) (A) (A) (A) (A) (A) (A) (A)
                 (A) (A) (A) (A) (A) (A) (A) (A) (A) (A) (A) (A)
                 (A) (A) (A) (A) (A) (A) (A) (A) (A) (A) (A) (A)
                 (A) (A) (A) (A) (A) (A) (A) (A) (A) (A) (A) (A)
                 (A) (A) (A) (A) (A) (A) (A) (A) (A) (A) (A) (A)
                 (A) (A) (A) (A) (A) (A) (A) (A) (A) (A) (A) (A)
                 (A) (A) (A) (A) (A) (A) (A) (A) (A) (A) (A) (A)
                 (A) (A) (A) (A) (A) (A) (A) (A) (A) (A) (A) (A)
                 (A) (A) (A) (A) (A) (A) (A) (A) (A) (A) (A) (A)
                 (A) (A) (A) (A) (A) (A) (A) (A) (A) (A) (A) (A)
                 (A) (A) (A) (A) (A) (A) (A) (A) (A) (A) (A) (A)
                 (A) (A) (A) (A) (A) (A) (A) (A) (A) (A) (A) (A)
                 (A) (A) (A) (A) (A) (A) (A) (A) (A) (A) (A) (A)
                 (A) (A) (A) (A) (A) (A) (A) (A) (A) (A) (A) (A)
                 (A) (A) (A) (A) (A) (A) (A) (A) (A) (A) (A) (A)
                 (A) (A) (A) (A) (A) (A) (A) (A) (A) (A) (A) (A)
                 (A) (A) (A) (A) (A) (A) (A) (A) (A) (A) (A) (A)
                 (A) (A) (A) (A) (A) (A) (A) (A) (A) (A) (A) (A)
                 (A) (A) (A) (A) (A) (A) (A) (A) (A) (A) (A) (A)
                 (A) (A) (A) (A) (A) (A) (A) (A) (A) (A) (A) (A)
                 (A) (A) (A) (A) (A) (A) (A) (A) (A) (A) (A) (A)
                 (A) (A) (A) (A) (A) (A) (A) (A) (A) (A) (A) (A)
                 (A) (A) (A) (A) (A) (A) (A) (A) (A) (A) (A) (A)
                 (A) (A) (A) (A) (A) (A) (A) (A) (A) (A) (A) (A)
                 (A) (A) (A) (A) (A) (A) (A) (A) (A) (A) (A) (A)
                 (A) (A) (A) (A) (A) (A) (A) (A) (A) (A) (A) (A)
                 (A) (A) (A) (A) (A) (A) (A) (A) (A) (A) (A) (A)
                 (A) (A) (A) (A) (A) (A) (A) (A) (A) (A) (A) (A)
                 (A) (A) (A) (A) (A) (A) (A) (A) (A) (A) (A) (A)
                 (A) (A) (A) (A) (A) (A) (A) (A) (A) (A) (A) (A)
                 (A) (A) (A) (A) (A) (A) (A) (A) (A) (A) (A) (A)
                 (A) (A) (A) (A) (A) (A) (A) (A) (A) (A) (A) (A)
                 (A) (A) (A) (A) (A) (A) (A) (A) (A) (A) (A) (A)
                 (A) (A) (A) (A) (A) (A) (A) (A) (A) (A) (A) (A)
                 (A) (A) (A) (A) (A) (A) (A) (A) (A) (A) (A) (A)
                 (A) (A) (A) (A) (A) (A) (A) (A) (A) (A) (A) (A)
                 (A) (A) (A) (A) (A) (A) (A) (A) (A) (A) (A) (A)
                 (A) (A) (A) (A) (A) (A) (A) (A) (A) (A) (A) (A)
                 (A) (A) (A) (A) (A) (A) (A) (A) (A) (A) (A) (A)
                 (A) (A) (A) (A) (A) (A) (A) (A) (A) (A) (A) (A)
                 (A) (A) (A) (A) (A) (A) (A) (A) (A) (A) (A) (A)
                 (A) (A) (A) (A) (A) (A) (A) (A) (A) (A) (A) (A)
                 (A) (A) (A) (A) (A) (A) (A) (A) (A) (A) (A) (A)
                 (A) (A) (A) (A) (A) (A) (A) (A) (A) (A) (A) (A)
                 (A) (A) (A) (A) (A) (A) (A) (A) (A) (A) (A) (A)
                 (A) (A) (A) (A) (A) (A) (A) (A) (A) (A) (A) (A)
                 (A) (A) (A) (A) (A) (A) (A) (A) (A) (A) (A) (A)
                 (A) (A) (A) (A) (A) (A) (A) (A) (A) (A) (A) (A)
                 (A) (A) (A) (A) (A) (A) (A) (A) (A) (A) (A) (A)
                 (A) (A) (A) (A) (A) (A) (A) (A) (A) (A) (A) (A)
                 (A) (A) (A) (A) (A) (A) (A) (A) (A) (A) (A) (A)
                 (A) (A) (A) (A) (A) (A) (A) (A) (A) (A) (A) (A)
                 (A) (A) (A) (A) (A) (A) (A) (A) (A) (A) (A) (A)
                 (A) (A) (A) (A) (A) (A) (A) (A) (A) (A) (A) (A)
                 (A) (A) (A) (A) (A) (A) (A) (A) (A) (A) (A) (A)
                 (A) (A) (A) (A) (A) (A) (A) (A) (A) (A) (A) (A)
                 (A) (A) (A) (A) (A) (A) (A) (A) (A) (A) (A) (A)
                 (A) (A) (A) (A) (A) (A) (A) (A) (A) (A) (A) (A)
                 (A) (A) (A) (A) (A) (A) (A) (A) (A) (A) (A) (A)
                 (A) (A) (A) (A) (A) (A) (A) (A) (A) (A) (A) (A)
                 (A) (A) (A) (A) (A) (A) (A) (A) (A) (A) (A) (A)
                 (A) (A) (A) (A) (A) (A) (A) (A) (A) (A) (A) (A)
                 (A) (A) (A) (A) (A) (A) (A) (A) (A) (A) (A) (A)
                 (A) (A) (A) (A) (A) (A) (A) (A) (A) (A) (A) (A)
                 (A) (A) (A) (A) (A) (A) (A) (A) (A) (A) (A) (A)
                 (A) (A) (A) (A) (A) (A) (A) (A) (A) (A) (A) (A)
                 (A) (A) (A) (A) (A) (A) (A) (A) (A) (A) (A) (A)
                 (A) (A) (A) (A) (A) (A) (A) (A) (A) (A) (A) (A)
                 (A) (A) (A) (A) (A) (A) (A) (A) (A) (A) (A) (A)
                 (A) (A) (A) (A) (A) (A) (A) (A) (A) (A) (A) (A)
                 (A) (A) (A) (A) (A) (A) (A) (A) (A) (A) (A) (A)
                 (A) (A) (A) (A) (A) (A) (A) (A) (A) (A) (A) (A)
                 (A) (A) (A) (A) (A) (A) (A) (A) (A) (A) (A) (A)
                 (A) (A) (A) (A) (A) (A) (A) (A) (A) (A) (A) (A)
                 (A) (A) (A) (A) (A) (A) (A) (A) (A) (A) (A) (A)
                 (A) (A) (A) (A) (A) (A) (A) (A) (A) (A) (A) (A)
                 (A) (A) (A) (A) (A) (A) (A) (A) (A) (A) (A) (A)
                 (A) (A) (A) (A) (A) (A) (A) (A) (A) (A) (A) (A)
                 (A) (A) (A) (A) (A) (A) (A) (A) (A) (A) (A) (A)
                 (A) (A) (A) (A) (A) (A)
 The electronic state is 1-A.
 Alpha  occ. eigenvalues --  -46.84437 -19.25287 -19.25179 -19.22249 -19.20362
 Alpha  occ. eigenvalues --  -19.19276 -14.40849 -14.40007 -14.39893 -14.39752
 Alpha  occ. eigenvalues --  -10.39101 -10.38422 -10.35203 -10.31861 -10.30937
 Alpha  occ. eigenvalues --  -10.30589 -10.30309 -10.30098 -10.30093 -10.29903
 Alpha  occ. eigenvalues --  -10.29869 -10.29504 -10.29382 -10.29185 -10.29125
 Alpha  occ. eigenvalues --  -10.29070 -10.28970 -10.28635 -10.28427 -10.28003
 Alpha  occ. eigenvalues --  -10.27717 -10.27436 -10.27379 -10.27042 -10.26631
 Alpha  occ. eigenvalues --  -10.26600 -10.26589 -10.26534 -10.26505 -10.26484
 Alpha  occ. eigenvalues --  -10.26305 -10.26248 -10.26186 -10.26130 -10.26027
 Alpha  occ. eigenvalues --  -10.25815 -10.25777 -10.25768 -10.25732 -10.25725
 Alpha  occ. eigenvalues --  -10.25637 -10.25555 -10.25456 -10.25421 -10.24939
 Alpha  occ. eigenvalues --  -10.24636 -10.24521 -10.24389 -10.24144 -10.23839
 Alpha  occ. eigenvalues --  -10.23815 -10.23761 -10.23632 -10.22940 -10.22745
 Alpha  occ. eigenvalues --   -3.13561  -1.88260  -1.87781  -1.87768  -1.18805
 Alpha  occ. eigenvalues --   -1.17237  -1.13121  -1.10492  -1.05883  -1.05327
 Alpha  occ. eigenvalues --   -1.04228  -1.02425  -1.01380  -0.91676  -0.90829
 Alpha  occ. eigenvalues --   -0.90667  -0.90263  -0.89272  -0.89175  -0.88973
 Alpha  occ. eigenvalues --   -0.88333  -0.87954  -0.87876  -0.87307  -0.86263
 Alpha  occ. eigenvalues --   -0.84615  -0.84086  -0.83556  -0.82662  -0.82520
 Alpha  occ. eigenvalues --   -0.81620  -0.81174  -0.80872  -0.80158  -0.78679
 Alpha  occ. eigenvalues --   -0.78434  -0.77523  -0.76802  -0.75590  -0.75446
 Alpha  occ. eigenvalues --   -0.75192  -0.74989  -0.74471  -0.73280  -0.72942
 Alpha  occ. eigenvalues --   -0.71271  -0.70528  -0.69687  -0.68705  -0.68360
 Alpha  occ. eigenvalues --   -0.66892  -0.66447  -0.65500  -0.65150  -0.64357
 Alpha  occ. eigenvalues --   -0.63831  -0.63135  -0.62760  -0.62283  -0.61713
 Alpha  occ. eigenvalues --   -0.61298  -0.60743  -0.60219  -0.59970  -0.59206
 Alpha  occ. eigenvalues --   -0.58995  -0.58042  -0.57462  -0.56584  -0.56365
 Alpha  occ. eigenvalues --   -0.55847  -0.55797  -0.55331  -0.54887  -0.54757
 Alpha  occ. eigenvalues --   -0.54321  -0.53893  -0.53777  -0.53684  -0.53467
 Alpha  occ. eigenvalues --   -0.52880  -0.52737  -0.52239  -0.52060  -0.51904
 Alpha  occ. eigenvalues --   -0.51578  -0.51327  -0.51226  -0.51066  -0.50628
 Alpha  occ. eigenvalues --   -0.50357  -0.50151  -0.49929  -0.49693  -0.49460
 Alpha  occ. eigenvalues --   -0.49405  -0.49077  -0.48842  -0.48628  -0.48360
 Alpha  occ. eigenvalues --   -0.48091  -0.47811  -0.47659  -0.47615  -0.47252
 Alpha  occ. eigenvalues --   -0.47055  -0.46831  -0.46800  -0.46411  -0.46269
 Alpha  occ. eigenvalues --   -0.45996  -0.45841  -0.45569  -0.45225  -0.45098
 Alpha  occ. eigenvalues --   -0.45004  -0.44703  -0.44614  -0.44413  -0.44293
 Alpha  occ. eigenvalues --   -0.44219  -0.44158  -0.43922  -0.43516  -0.43393
 Alpha  occ. eigenvalues --   -0.43324  -0.43110  -0.42816  -0.42750  -0.42465
 Alpha  occ. eigenvalues --   -0.42241  -0.41944  -0.41562  -0.41478  -0.41116
 Alpha  occ. eigenvalues --   -0.40809  -0.40681  -0.40339  -0.40216  -0.39587
 Alpha  occ. eigenvalues --   -0.39420  -0.39286  -0.39160  -0.39154  -0.38952
 Alpha  occ. eigenvalues --   -0.38408  -0.38262  -0.37994  -0.37707  -0.37163
 Alpha  occ. eigenvalues --   -0.36587  -0.36505  -0.36451  -0.36333  -0.36315
 Alpha  occ. eigenvalues --   -0.36215  -0.35745  -0.35612  -0.35400  -0.35330
 Alpha  occ. eigenvalues --   -0.35227  -0.34860  -0.34490  -0.34467  -0.32939
 Alpha  occ. eigenvalues --   -0.32722  -0.32213  -0.31799  -0.31464  -0.30327
 Alpha  occ. eigenvalues --   -0.29634  -0.28867  -0.28725  -0.27652  -0.23586
 Alpha  occ. eigenvalues --   -0.21616
 Alpha virt. eigenvalues --   -0.07499  -0.02654   0.01757   0.03659   0.05927
 Alpha virt. eigenvalues --    0.06188   0.06477   0.06962   0.07345   0.07913
 Alpha virt. eigenvalues --    0.08463   0.09780   0.11065   0.11462   0.11945
 Alpha virt. eigenvalues --    0.12197   0.12245   0.12895   0.13238   0.13272
 Alpha virt. eigenvalues --    0.13385   0.13843   0.14141   0.14326   0.14590
 Alpha virt. eigenvalues --    0.14738   0.14876   0.14922   0.14988   0.15420
 Alpha virt. eigenvalues --    0.15940   0.16237   0.16249   0.16314   0.16822
 Alpha virt. eigenvalues --    0.16861   0.17122   0.17401   0.17479   0.17700
 Alpha virt. eigenvalues --    0.17931   0.18071   0.18146   0.18312   0.18345
 Alpha virt. eigenvalues --    0.18769   0.18844   0.18982   0.19258   0.19331
 Alpha virt. eigenvalues --    0.19401   0.19483   0.19627   0.19819   0.20033
 Alpha virt. eigenvalues --    0.20117   0.20407   0.20521   0.20638   0.20893
 Alpha virt. eigenvalues --    0.21208   0.21285   0.21615   0.21661   0.21693
 Alpha virt. eigenvalues --    0.21937   0.22068   0.22863   0.22907   0.23070
 Alpha virt. eigenvalues --    0.23101   0.23287   0.23475   0.23559   0.23878
 Alpha virt. eigenvalues --    0.24133   0.24497   0.24739   0.24756   0.25032
 Alpha virt. eigenvalues --    0.25195   0.25342   0.25493   0.25672   0.25734
 Alpha virt. eigenvalues --    0.25981   0.26189   0.26455   0.26502   0.26639
 Alpha virt. eigenvalues --    0.26910   0.26989   0.27378   0.27516   0.27630
 Alpha virt. eigenvalues --    0.27838   0.27927   0.28021   0.28397   0.28529
 Alpha virt. eigenvalues --    0.28755   0.28803   0.28944   0.29091   0.29355
 Alpha virt. eigenvalues --    0.29673   0.29817   0.29993   0.30224   0.30457
 Alpha virt. eigenvalues --    0.30893   0.30935   0.31123   0.31262   0.31444
 Alpha virt. eigenvalues --    0.31680   0.31977   0.32670   0.32752   0.32922
 Alpha virt. eigenvalues --    0.33150   0.33572   0.33722   0.34005   0.34480
 Alpha virt. eigenvalues --    0.34684   0.34836   0.35113   0.35706   0.35830
 Alpha virt. eigenvalues --    0.36202   0.36877   0.37221   0.37627   0.38124
 Alpha virt. eigenvalues --    0.38673   0.39303   0.39510   0.39902   0.40741
 Alpha virt. eigenvalues --    0.41078   0.41163   0.41862   0.42001   0.42562
 Alpha virt. eigenvalues --    0.43148   0.43744   0.44033   0.45118   0.45822
 Alpha virt. eigenvalues --    0.46130   0.47164   0.47355   0.48355   0.49492
 Alpha virt. eigenvalues --    0.49627   0.50164   0.50432   0.50917   0.51909
 Alpha virt. eigenvalues --    0.52344   0.52794   0.52875   0.53709   0.54006
 Alpha virt. eigenvalues --    0.54605   0.54828   0.54939   0.55074   0.55096
 Alpha virt. eigenvalues --    0.55722   0.55734   0.56325   0.56403   0.56987
 Alpha virt. eigenvalues --    0.57446   0.57662   0.57841   0.57907   0.58351
 Alpha virt. eigenvalues --    0.58638   0.58799   0.58873   0.59112   0.59182
 Alpha virt. eigenvalues --    0.59327   0.59655   0.59922   0.60032   0.60180
 Alpha virt. eigenvalues --    0.60361   0.60437   0.60847   0.61125   0.61449
 Alpha virt. eigenvalues --    0.61790   0.61847   0.62003   0.62665   0.62742
 Alpha virt. eigenvalues --    0.63072   0.63146   0.63454   0.63820   0.64197
 Alpha virt. eigenvalues --    0.64355   0.64574   0.64866   0.65165   0.65268
 Alpha virt. eigenvalues --    0.65860   0.66214   0.66300   0.66378   0.66456
 Alpha virt. eigenvalues --    0.66581   0.66913   0.67050   0.67297   0.67427
 Alpha virt. eigenvalues --    0.67556   0.67706   0.67937   0.68377   0.68480
 Alpha virt. eigenvalues --    0.68892   0.69096   0.69587   0.70184   0.70761
 Alpha virt. eigenvalues --    0.70897   0.71057   0.71175   0.71657   0.71971
 Alpha virt. eigenvalues --    0.72112   0.72591   0.72784   0.73056   0.73150
 Alpha virt. eigenvalues --    0.73437   0.73636   0.74011   0.74280   0.74546
 Alpha virt. eigenvalues --    0.74885   0.74942   0.75075   0.75322   0.75536
 Alpha virt. eigenvalues --    0.76023   0.76324   0.76550   0.76858   0.77327
 Alpha virt. eigenvalues --    0.77494   0.77600   0.77880   0.78246   0.78433
 Alpha virt. eigenvalues --    0.78653   0.78800   0.79432   0.79561   0.79751
 Alpha virt. eigenvalues --    0.79988   0.80164   0.80336   0.80427   0.80650
 Alpha virt. eigenvalues --    0.80995   0.81213   0.81428   0.81627   0.81915
 Alpha virt. eigenvalues --    0.82299   0.82363   0.82552   0.82915   0.83170
 Alpha virt. eigenvalues --    0.83447   0.84032   0.84255   0.84467   0.84615
 Alpha virt. eigenvalues --    0.84788   0.84880   0.85335   0.85466   0.85796
 Alpha virt. eigenvalues --    0.86075   0.86172   0.86325   0.86658   0.86936
 Alpha virt. eigenvalues --    0.87188   0.87274   0.87697   0.87822   0.88172
 Alpha virt. eigenvalues --    0.88346   0.88578   0.88786   0.89025   0.89052
 Alpha virt. eigenvalues --    0.89276   0.89489   0.89828   0.90007   0.90240
 Alpha virt. eigenvalues --    0.90282   0.90578   0.90911   0.91269   0.91328
 Alpha virt. eigenvalues --    0.91541   0.91646   0.91728   0.91943   0.92158
 Alpha virt. eigenvalues --    0.92162   0.92453   0.92720   0.92781   0.93028
 Alpha virt. eigenvalues --    0.93420   0.93567   0.93759   0.93792   0.93976
 Alpha virt. eigenvalues --    0.94241   0.94280   0.94592   0.94803   0.95007
 Alpha virt. eigenvalues --    0.95113   0.95237   0.95515   0.95667   0.96009
 Alpha virt. eigenvalues --    0.96142   0.96343   0.96486   0.96745   0.97090
 Alpha virt. eigenvalues --    0.97340   0.97492   0.97910   0.98006   0.98305
 Alpha virt. eigenvalues --    0.98506   0.98712   0.98930   0.99068   0.99266
 Alpha virt. eigenvalues --    0.99295   0.99811   0.99998   1.00031   1.00310
 Alpha virt. eigenvalues --    1.00563   1.00854   1.00954   1.01117   1.01330
 Alpha virt. eigenvalues --    1.01455   1.01763   1.02069   1.02299   1.02465
 Alpha virt. eigenvalues --    1.02862   1.02941   1.03011   1.03061   1.03346
 Alpha virt. eigenvalues --    1.03534   1.03596   1.03964   1.04038   1.04250
 Alpha virt. eigenvalues --    1.04620   1.04863   1.05346   1.05564   1.05628
 Alpha virt. eigenvalues --    1.05705   1.06004   1.06554   1.06686   1.07242
 Alpha virt. eigenvalues --    1.07929   1.08097   1.08211   1.08855   1.09465
 Alpha virt. eigenvalues --    1.09616   1.10059   1.10590   1.10844   1.11347
 Alpha virt. eigenvalues --    1.11886   1.12100   1.12248   1.12409   1.12767
 Alpha virt. eigenvalues --    1.13702   1.14093   1.14987   1.15097   1.15414
 Alpha virt. eigenvalues --    1.16153   1.16194   1.16602   1.16880   1.17907
 Alpha virt. eigenvalues --    1.18086   1.18964   1.19477   1.19809   1.20280
 Alpha virt. eigenvalues --    1.20918   1.21777   1.22267   1.22570   1.23042
 Alpha virt. eigenvalues --    1.23658   1.23752   1.24058   1.24395   1.24597
 Alpha virt. eigenvalues --    1.24768   1.25554   1.26428   1.27053   1.27524
 Alpha virt. eigenvalues --    1.28405   1.28491   1.28632   1.29201   1.29529
 Alpha virt. eigenvalues --    1.30357   1.30505   1.31354   1.32084   1.32530
 Alpha virt. eigenvalues --    1.32885   1.33103   1.34632   1.34820   1.35527
 Alpha virt. eigenvalues --    1.35649   1.35775   1.36748   1.37009   1.37370
 Alpha virt. eigenvalues --    1.37926   1.38404   1.39551   1.39973   1.40302
 Alpha virt. eigenvalues --    1.40433   1.41526   1.42627   1.42979   1.43494
 Alpha virt. eigenvalues --    1.44040   1.44305   1.44452   1.45078   1.46087
 Alpha virt. eigenvalues --    1.46478   1.46837   1.47434   1.47742   1.48355
 Alpha virt. eigenvalues --    1.49052   1.49649   1.50169   1.50814   1.51118
 Alpha virt. eigenvalues --    1.51195   1.51601   1.51976   1.52005   1.52684
 Alpha virt. eigenvalues --    1.53087   1.53608   1.54249   1.54325   1.54959
 Alpha virt. eigenvalues --    1.55378   1.56067   1.56192   1.56834   1.57635
 Alpha virt. eigenvalues --    1.58607   1.59171   1.59605   1.60018   1.60047
 Alpha virt. eigenvalues --    1.60641   1.60722   1.60750   1.61176   1.61355
 Alpha virt. eigenvalues --    1.62254   1.62692   1.62927   1.63172   1.63502
 Alpha virt. eigenvalues --    1.64231   1.64654   1.64808   1.65154   1.65770
 Alpha virt. eigenvalues --    1.66149   1.66273   1.66575   1.66787   1.67080
 Alpha virt. eigenvalues --    1.67751   1.67905   1.68286   1.68464   1.68672
 Alpha virt. eigenvalues --    1.68883   1.69450   1.69883   1.70647   1.71003
 Alpha virt. eigenvalues --    1.71394   1.71634   1.72544   1.72875   1.73397
 Alpha virt. eigenvalues --    1.74061   1.74201   1.74814   1.75421   1.76105
 Alpha virt. eigenvalues --    1.76166   1.76207   1.76490   1.76900   1.77262
 Alpha virt. eigenvalues --    1.77347   1.77934   1.78476   1.78521   1.79178
 Alpha virt. eigenvalues --    1.80000   1.80436   1.80864   1.81012   1.81246
 Alpha virt. eigenvalues --    1.81572   1.82021   1.82912   1.83082   1.83457
 Alpha virt. eigenvalues --    1.83979   1.84028   1.84197   1.84337   1.84868
 Alpha virt. eigenvalues --    1.85005   1.85541   1.85746   1.86223   1.86396
 Alpha virt. eigenvalues --    1.86733   1.87367   1.87472   1.87863   1.88002
 Alpha virt. eigenvalues --    1.88732   1.88796   1.89308   1.89640   1.89699
 Alpha virt. eigenvalues --    1.89848   1.89874   1.90115   1.90404   1.90888
 Alpha virt. eigenvalues --    1.91090   1.91483   1.92008   1.92368   1.92453
 Alpha virt. eigenvalues --    1.92615   1.92879   1.93054   1.93210   1.93844
 Alpha virt. eigenvalues --    1.93918   1.94158   1.94190   1.94380   1.95004
 Alpha virt. eigenvalues --    1.95337   1.95665   1.95912   1.96321   1.96561
 Alpha virt. eigenvalues --    1.96672   1.96909   1.97136   1.97351   1.97475
 Alpha virt. eigenvalues --    1.97906   1.98076   1.98285   1.98583   1.98717
 Alpha virt. eigenvalues --    1.99592   1.99846   2.00043   2.00520   2.00692
 Alpha virt. eigenvalues --    2.00961   2.01080   2.01141   2.01332   2.01662
 Alpha virt. eigenvalues --    2.01761   2.01838   2.02519   2.02737   2.03110
 Alpha virt. eigenvalues --    2.03346   2.03489   2.04199   2.04487   2.04659
 Alpha virt. eigenvalues --    2.05110   2.05323   2.05620   2.05745   2.06256
 Alpha virt. eigenvalues --    2.06298   2.06806   2.07161   2.07485   2.07540
 Alpha virt. eigenvalues --    2.07922   2.08102   2.08384   2.09237   2.09320
 Alpha virt. eigenvalues --    2.09754   2.10113   2.10238   2.10482   2.10527
 Alpha virt. eigenvalues --    2.10598   2.11226   2.11549   2.11825   2.12115
 Alpha virt. eigenvalues --    2.12627   2.13342   2.13397   2.13936   2.14348
 Alpha virt. eigenvalues --    2.14659   2.14891   2.15066   2.15106   2.15604
 Alpha virt. eigenvalues --    2.15947   2.16003   2.16158   2.16569   2.16689
 Alpha virt. eigenvalues --    2.17000   2.17377   2.17578   2.17747   2.17912
 Alpha virt. eigenvalues --    2.18662   2.18768   2.18988   2.19101   2.19811
 Alpha virt. eigenvalues --    2.20041   2.20287   2.20424   2.20557   2.20638
 Alpha virt. eigenvalues --    2.20931   2.21492   2.22257   2.22530   2.23207
 Alpha virt. eigenvalues --    2.23379   2.23658   2.23814   2.24053   2.25339
 Alpha virt. eigenvalues --    2.25448   2.25553   2.25712   2.26219   2.26425
 Alpha virt. eigenvalues --    2.26601   2.26983   2.27358   2.27826   2.28025
 Alpha virt. eigenvalues --    2.28063   2.28941   2.28965   2.29426   2.29850
 Alpha virt. eigenvalues --    2.30081   2.30528   2.30785   2.30849   2.31454
 Alpha virt. eigenvalues --    2.31692   2.32055   2.32129   2.32478   2.32838
 Alpha virt. eigenvalues --    2.33383   2.33916   2.34089   2.34505   2.34765
 Alpha virt. eigenvalues --    2.34843   2.35513   2.35990   2.36855   2.37432
 Alpha virt. eigenvalues --    2.37747   2.37954   2.38062   2.38450   2.38503
 Alpha virt. eigenvalues --    2.39279   2.39539   2.39884   2.40086   2.40327
 Alpha virt. eigenvalues --    2.40421   2.40533   2.40589   2.40835   2.41106
 Alpha virt. eigenvalues --    2.41575   2.41865   2.42092   2.42404   2.42638
 Alpha virt. eigenvalues --    2.43479   2.43510   2.43622   2.43873   2.44530
 Alpha virt. eigenvalues --    2.44821   2.45455   2.45606   2.45896   2.46035
 Alpha virt. eigenvalues --    2.46291   2.46573   2.46828   2.47001   2.47476
 Alpha virt. eigenvalues --    2.47661   2.47956   2.48040   2.48477   2.48845
 Alpha virt. eigenvalues --    2.49339   2.49484   2.49800   2.49941   2.49979
 Alpha virt. eigenvalues --    2.50021   2.51162   2.51512   2.51788   2.52129
 Alpha virt. eigenvalues --    2.52638   2.53555   2.53834   2.54162   2.54856
 Alpha virt. eigenvalues --    2.55191   2.55214   2.55676   2.56183   2.56486
 Alpha virt. eigenvalues --    2.56556   2.57433   2.57843   2.58133   2.58491
 Alpha virt. eigenvalues --    2.59038   2.59297   2.59522   2.59961   2.60388
 Alpha virt. eigenvalues --    2.60781   2.60993   2.61419   2.61483   2.61540
 Alpha virt. eigenvalues --    2.61871   2.62348   2.62868   2.63184   2.63566
 Alpha virt. eigenvalues --    2.63809   2.63910   2.64138   2.64674   2.64759
 Alpha virt. eigenvalues --    2.64943   2.65408   2.65524   2.66145   2.66400
 Alpha virt. eigenvalues --    2.66778   2.67546   2.67804   2.67935   2.68233
 Alpha virt. eigenvalues --    2.68870   2.69907   2.70398   2.70583   2.70742
 Alpha virt. eigenvalues --    2.71362   2.71658   2.71787   2.72196   2.72786
 Alpha virt. eigenvalues --    2.72973   2.73241   2.73668   2.73916   2.74162
 Alpha virt. eigenvalues --    2.74271   2.74548   2.74938   2.75038   2.75698
 Alpha virt. eigenvalues --    2.75821   2.76158   2.76688   2.76741   2.77494
 Alpha virt. eigenvalues --    2.77649   2.78209   2.78397   2.78651   2.78834
 Alpha virt. eigenvalues --    2.79175   2.79276   2.79605   2.80288   2.80749
 Alpha virt. eigenvalues --    2.81007   2.81329   2.81722   2.81986   2.82285
 Alpha virt. eigenvalues --    2.82337   2.83275   2.83763   2.84065   2.84215
 Alpha virt. eigenvalues --    2.84359   2.84434   2.85425   2.85625   2.85920
 Alpha virt. eigenvalues --    2.86459   2.86791   2.87066   2.87478   2.87644
 Alpha virt. eigenvalues --    2.88078   2.88411   2.88549   2.88810   2.89028
 Alpha virt. eigenvalues --    2.89249   2.89340   2.90127   2.90669   2.91291
 Alpha virt. eigenvalues --    2.91735   2.91992   2.92199   2.92504   2.92678
 Alpha virt. eigenvalues --    2.93333   2.93549   2.93883   2.94181   2.94434
 Alpha virt. eigenvalues --    2.94981   2.95397   2.95585   2.96154   2.96563
 Alpha virt. eigenvalues --    2.96857   2.98072   2.98358   2.98652   2.98814
 Alpha virt. eigenvalues --    2.99151   2.99944   3.00272   3.00402   3.00674
 Alpha virt. eigenvalues --    3.00930   3.01305   3.01802   3.02224   3.02305
 Alpha virt. eigenvalues --    3.03090   3.03482   3.04126   3.04386   3.05195
 Alpha virt. eigenvalues --    3.05793   3.05912   3.06427   3.06779   3.07201
 Alpha virt. eigenvalues --    3.07716   3.08486   3.08678   3.08858   3.09378
 Alpha virt. eigenvalues --    3.09886   3.10129   3.11208   3.11850   3.12011
 Alpha virt. eigenvalues --    3.13716   3.13986   3.15292   3.16141   3.17228
 Alpha virt. eigenvalues --    3.17606   3.17995   3.19019   3.19072   3.19387
 Alpha virt. eigenvalues --    3.19581   3.21346   3.24513   3.25970   3.26418
 Alpha virt. eigenvalues --    3.26633   3.26875   3.27850   3.28489   3.29413
 Alpha virt. eigenvalues --    3.29687   3.30145   3.30587   3.31647   3.32708
 Alpha virt. eigenvalues --    3.32738   3.34435   3.34449   3.35118   3.35456
 Alpha virt. eigenvalues --    3.36085   3.36122   3.37462   3.37549   3.38616
 Alpha virt. eigenvalues --    3.38730   3.39077   3.39195   3.39839   3.41277
 Alpha virt. eigenvalues --    3.42019   3.42095   3.42392   3.42891   3.43866
 Alpha virt. eigenvalues --    3.44838   3.45491   3.45729   3.46185   3.46318
 Alpha virt. eigenvalues --    3.46517   3.46747   3.47499   3.48444   3.49596
 Alpha virt. eigenvalues --    3.50267   3.50759   3.51544   3.52290   3.52541
 Alpha virt. eigenvalues --    3.52624   3.53063   3.55397   3.55624   3.56668
 Alpha virt. eigenvalues --    3.56815   3.57359   3.58622   3.58800   3.60277
 Alpha virt. eigenvalues --    3.60517   3.60615   3.60892   3.61466   3.62860
 Alpha virt. eigenvalues --    3.64846   3.65031   3.65596   3.68675   3.69095
 Alpha virt. eigenvalues --    3.70727   3.73163   3.74924   3.75821   3.76087
 Alpha virt. eigenvalues --    3.88821   3.90383   4.07900   4.11641   4.14237
 Alpha virt. eigenvalues --    4.15047   4.19987   4.20691   4.22427   4.24313
 Alpha virt. eigenvalues --    4.25834   4.26073   4.26427   4.27653   4.28869
 Alpha virt. eigenvalues --    4.30592   4.31618   4.33107   4.34430   4.36123
 Alpha virt. eigenvalues --    4.36219   4.37198   4.39209   4.40311   4.41164
 Alpha virt. eigenvalues --    4.41598   4.43096   4.43454   4.44552   4.47266
 Alpha virt. eigenvalues --    4.47664   4.48185   4.49637   4.50887   4.51674
 Alpha virt. eigenvalues --    4.52560   4.54144   4.54721   4.55803   4.57352
 Alpha virt. eigenvalues --    4.57774   4.58066   4.58472   4.60872   4.61621
 Alpha virt. eigenvalues --    4.61707   4.63011   4.64073   4.65324   4.66796
 Alpha virt. eigenvalues --    4.68685   4.70020   4.70421   4.72700   4.73100
 Alpha virt. eigenvalues --    4.73948   4.76101   4.79071   4.80181   4.80868
 Alpha virt. eigenvalues --    4.85171   4.85391   4.85824   4.87204   4.89785
 Alpha virt. eigenvalues --    4.89981   4.94563   5.02267
          Condensed to atoms (all electrons):
 Mulliken charges:
               1
     1  Mg   0.843983
     2  C    0.106171
     3  C   -0.140490
     4  C   -0.150827
     5  C   -0.176623
     6  N   -0.657999
     7  C    0.270906
     8  C   -0.138839
     9  C   -0.168394
    10  C    0.370522
    11  C   -0.248083
    12  C   -0.165546
    13  C   -0.284142
    14  C    0.608652
    15  O   -0.415124
    16  O   -0.496912
    17  N   -0.734540
    18  C    0.273534
    19  C    0.025748
    20  C   -0.012355
    21  C    0.300818
    22  C   -0.392987
    23  C   -0.091734
    24  C   -0.240466
    25  N   -0.695764
    26  C    0.308012
    27  C   -0.053463
    28  C    0.010729
    29  C    0.285524
    30  C   -0.305037
    31  C   -0.229796
    32  C   -0.285486
    33  N   -0.685430
    34  C    0.256107
    35  C    0.042542
    36  C    0.034329
    37  C    0.242099
    38  C   -0.384160
    39  C    0.366524
    40  O   -0.433504
    41  C   -0.343823
    42  C    0.587840
    43  O   -0.501441
    44  O   -0.435503
    45  C   -0.073343
    46  C    0.015592
    47  C   -0.140882
    48  C    0.102021
    49  C   -0.365335
    50  C   -0.212634
    51  C   -0.201696
    52  C   -0.148571
    53  C   -0.083718
    54  C   -0.319175
    55  C   -0.169514
    56  C   -0.180793
    57  C   -0.166308
    58  C   -0.053014
    59  C   -0.310872
    60  C   -0.167754
    61  C   -0.174929
    62  C   -0.158061
    63  C   -0.071454
    64  C   -0.294252
    65  C   -0.303168
    66  H    0.067568
    67  H    0.079758
    68  H    0.108137
    69  H    0.114238
    70  H    0.094614
    71  H    0.103762
    72  H    0.093898
    73  H    0.108899
    74  H    0.112542
    75  H    0.117018
    76  H    0.129193
    77  H    0.141427
    78  H    0.121299
    79  H    0.137068
    80  H    0.111074
    81  H    0.098782
    82  H    0.102214
    83  H    0.113971
    84  H    0.132960
    85  H    0.100183
    86  H    0.132309
    87  H    0.104158
    88  H    0.109898
    89  H    0.117735
    90  H    0.066220
    91  H    0.103447
    92  H    0.116214
    93  H    0.145198
    94  H    0.123753
    95  H    0.156484
    96  H    0.128458
    97  H    0.137103
    98  H    0.107489
    99  H    0.110563
   100  H    0.107579
   101  H    0.066756
   102  H    0.119087
   103  H    0.118679
   104  H    0.132213
   105  H    0.106147
   106  H    0.113545
   107  H    0.094324
   108  H    0.093622
   109  H    0.089149
   110  H    0.071674
   111  H    0.059401
   112  H    0.109783
   113  H    0.095116
   114  H    0.110602
   115  H    0.100935
   116  H    0.100596
   117  H    0.102192
   118  H    0.104000
   119  H    0.047335
   120  H    0.094589
   121  H    0.071267
   122  H    0.086617
   123  H    0.100350
   124  H    0.096670
   125  H    0.066533
   126  H    0.085799
   127  H    0.096338
   128  H    0.096636
   129  H    0.071210
   130  H    0.095616
   131  H    0.083023
   132  H    0.105640
   133  H    0.102302
   134  H    0.097436
   135  H    0.068259
   136  H    0.108696
   137  H    0.094933
 Sum of Mulliken charges =  -0.00000
 Mulliken charges with hydrogens summed into heavy atoms:
               1
     1  Mg   0.843983
     2  C    0.106171
     3  C   -0.072921
     4  C   -0.071069
     5  C   -0.068487
     6  N   -0.657999
     7  C    0.270906
     8  C   -0.024601
     9  C   -0.073780
    10  C    0.370522
    11  C    0.058477
    12  C    0.064014
    13  C   -0.013522
    14  C    0.608652
    15  O   -0.415124
    16  O   -0.496912
    17  N   -0.734540
    18  C    0.273534
    19  C    0.025748
    20  C   -0.012355
    21  C    0.300818
    22  C   -0.023546
    23  C    0.007048
    24  C   -0.024281
    25  N   -0.695764
    26  C    0.308012
    27  C   -0.053463
    28  C    0.010729
    29  C    0.285524
    30  C    0.060416
    31  C   -0.015740
    32  C    0.001917
    33  N   -0.685430
    34  C    0.256107
    35  C    0.042542
    36  C    0.034329
    37  C    0.242099
    38  C    0.001005
    39  C    0.366524
    40  O   -0.433504
    41  C   -0.187339
    42  C    0.587840
    43  O   -0.501441
    44  O   -0.435503
    45  C    0.299707
    46  C    0.233735
    47  C   -0.074126
    48  C    0.102021
    49  C    0.004645
    50  C    0.007058
    51  C   -0.013750
    52  C    0.012251
    53  C   -0.024317
    54  C   -0.003674
    55  C    0.032017
    56  C    0.025399
    57  C   -0.024383
    58  C    0.018253
    59  C   -0.027235
    60  C   -0.015422
    61  C    0.018044
    62  C    0.008765
    63  C    0.011569
    64  C    0.011126
    65  C   -0.031280
 Electronic spatial extent (au):  <R**2>=         178722.4055
 Charge=              0.0000 electrons
 Dipole moment (field-independent basis, Debye):
    X=             -0.3854    Y=              4.6227    Z=             -1.6072  Tot=              4.9093
 Quadrupole moment (field-independent basis, Debye-Ang):
   XX=           -331.0597   YY=           -389.4422   ZZ=           -396.5669
   XY=            -23.4683   XZ=             10.2624   YZ=             -1.7530
 Traceless Quadrupole moment (field-independent basis, Debye-Ang):
   XX=             41.2966   YY=            -17.0859   ZZ=            -24.2107
   XY=            -23.4683   XZ=             10.2624   YZ=             -1.7530
 Octapole moment (field-independent basis, Debye-Ang**2):
  XXX=           -612.7057  YYY=            107.1290  ZZZ=             -5.7322  XYY=            -73.3770
  XXY=             18.7934  XXZ=           -358.5552  XZZ=              6.6344  YZZ=            -19.6048
  YYZ=             35.1079  XYZ=            -45.9208
 Hexadecapole moment (field-independent basis, Debye-Ang**3):
 XXXX=        -214632.6280 YYYY=         -17770.0084 ZZZZ=          -4586.2794 XXXY=           -397.4725
 XXXZ=           -704.4230 YYYX=           -814.9624 YYYZ=           -235.2577 ZZZX=            -83.4742
 ZZZY=            -93.0956 XXYY=         -39572.7681 XXZZ=         -38778.2727 YYZZ=          -3504.4322
 XXYZ=           -203.7140 YYXZ=             86.7912 ZZXY=            -99.4589
 N-N= 8.737094155303D+03 E-N=-2.429802135663D+04  KE= 2.906548154551D+03
 1\1\GINC-RYZEN-SSD3\SP\RCAM-B3LYP TD-FC\6-31G(d,p)\C55H72Mg1N4O5\PADAW
 AN\30-Jun-2019\0\\# td=(NStates=1) CAM-B3LYP/6-31G(d,p)\\TD\\0,1\Mg,0,
 -7.1815387269,0.6917479229,0.0676244498\C,0,-4.8200266207,-1.920873265
 7,0.5820447372\C,0,-4.811531082,2.7972381711,1.2147778427\C,0,-9.45198
 99345,3.0355690524,-0.3492677865\C,0,-9.5039907128,-1.748020313,-0.962
 6226914\N,0,-5.0711005347,0.4780476229,0.7256929876\C,0,-4.3222719333,
 -0.7427740994,0.8548335066\C,0,-2.9082398294,-0.2663660623,1.340014355
 6\C,0,-3.0116045989,1.0934120095,1.7759283235\C,0,-4.4568026752,1.5561
 463634,1.2596329932\C,0,-2.8484999321,1.4090031884,3.3137827872\C,0,-1
 .9015336144,-0.5829135528,0.2042143797\C,0,-0.4368911117,-0.3902033675
 ,0.5662307524\C,0,0.5201831555,-0.6821817311,-0.5836737479\O,0,0.25569
 68098,-1.2075861662,-1.5791242441\O,0,1.8398257931,-0.3259699934,-0.20
 84976387\N,0,-7.1369941473,2.6113267225,0.3082295185\C,0,-6.0731265917
 ,3.2982307989,0.7761611497\C,0,-6.4014273958,4.7761719066,0.8877594631
 \C,0,-7.7086335704,4.8192425558,0.289257317\C,0,-8.1269169633,3.465995
 7949,-0.0097084245\C,0,-5.5149694536,5.9178242483,1.1843031908\C,0,-8.
 4340512027,6.0538164153,0.0494619316\C,0,-8.42638653,7.1282589445,0.92
 71589657\N,0,-9.0608483574,0.7144043015,-0.6325172854\C,0,-9.823018561
 6,1.7817881319,-0.7484311672\C,0,-11.1906581624,1.4121395531,-1.150146
 7342\C,0,-11.1141538193,0.0901343775,-1.3288515992\C,0,-9.8399496757,-
 0.3801899933,-0.9341284289\C,0,-12.243283152,2.495430114,-1.5372404988
 \C,0,-12.2834628926,-0.7509925094,-1.8902498335\C,0,-12.1711446029,-1.
 1392363348,-3.4358187005\N,0,-7.2282222905,-1.4276623798,-0.1265173287
 \C,0,-8.2634165815,-2.3003352056,-0.5969846537\C,0,-7.8237885245,-3.68
 81170792,-0.5878860659\C,0,-6.4618100651,-3.6736817052,-0.1360053324\C
 ,0,-6.1696995664,-2.2360118825,0.0832011243\C,0,-8.5584033077,-4.91412
 42548,-0.9001384922\C,0,-5.3390483751,-4.4251063941,0.2628591585\O,0,-
 5.1535741953,-5.5890033837,0.2379908298\C,0,-4.1598595654,-3.334369226
 7,0.5763875041\C,0,-3.5394145724,-3.5951847398,1.9549758705\O,0,-3.769
 6785685,-3.0698137176,3.0724999311\O,0,-2.7360247962,-4.6640711295,1.9
 005886398\C,0,-2.300170605,-5.2837626054,3.101365072\C,0,2.7909916109,
 -0.6363514297,-1.2195131517\C,0,4.1428063696,-0.4002582021,-0.58957910
 69\C,0,5.1543389183,0.3855248179,-0.9811578885\C,0,5.0360420272,1.2908
 817375,-2.227636929\C,0,6.373931726,0.3540672569,-0.1049469799\C,0,7.5
 989174296,-0.1386842153,-0.9648534358\C,0,8.9112429969,-0.0606111915,-
 0.1905208649\C,0,10.1861592404,-0.5795250242,-0.7932902995\C,0,9.99679
 63798,-2.1503459707,-1.1731407791\C,0,11.4189847754,-0.2893627171,0.12
 54234109\C,0,12.7113660443,-0.4261766688,-0.7271727402\C,0,13.91178064
 65,-0.1618873915,0.1477218397\C,0,15.2847445994,-0.1620899381,-0.61862
 01018\C,0,15.5374554144,-1.4708247163,-1.237753393\C,0,16.3586999759,0
 .2814225023,0.3561001172\C,0,17.809795569,0.4938507835,-0.285834398\C,
 0,18.7110314726,1.1066588829,0.6452749605\C,0,20.2058792571,1.32615294
 88,0.1024950127\C,0,20.2605274065,2.3373020274,-0.9923902317\C,0,21.05
 89468255,1.8779507314,1.3624316066\H,0,-4.2256140459,3.5858741088,1.28
 19127782\H,0,-10.0856589586,3.7704178768,-0.6604614376\H,0,-10.1384871
 381,-2.6368230231,-1.5733039826\H,0,-2.4579022471,-0.9204903629,2.1307
 637676\H,0,-2.1246860738,1.5712807107,1.4007707275\H,0,-1.8392083783,1
 .2587363265,3.5894526588\H,0,-2.9430293629,2.5302770852,3.4531174771\H
 ,0,-3.4350269454,0.9243671207,3.6147638892\H,0,-2.1167341583,-1.466256
 5861,-0.1973036396\H,0,-2.0390955821,0.0310303534,-0.5269927389\H,0,-0
 .2591594333,0.6175563695,0.9998603851\H,0,-0.2503028323,-1.1474292581,
 1.3240763628\H,0,-5.8594047159,6.8637450186,0.5416398732\H,0,-5.484275
 4169,6.1629696601,2.1895952566\H,0,-4.4351074667,5.847565923,0.7274259
 182\H,0,-9.0101730698,6.1529314412,-0.7652867569\H,0,-9.2851597319,7.8
 798587248,0.5875283746\H,0,-7.8133307989,7.0511315127,1.9691453\H,0,-1
 1.952709376,2.9652468507,-2.2407870834\H,0,-13.1654062098,1.8516890601
 ,-1.8437755691\H,0,-12.2374854796,2.8771863733,-0.4560168457\H,0,-12.3
 888336618,-1.5769771428,-1.1538503399\H,0,-13.1710758265,-0.2594426811
 ,-1.7408596135\H,0,-13.0561819708,-1.731807867,-3.7014000245\H,0,-11.9
 45498114,-0.0521397516,-4.194662962\H,0,-11.1967259519,-1.7531501821,-
 3.6726958896\H,0,-8.4568452875,-5.0688276257,-2.1204953136\H,0,-8.0152
 908939,-5.8498049847,-0.4251921322\H,0,-9.6046103459,-4.8721822395,-0.
 4889907217\H,0,-3.1502557215,-3.2630695577,-0.0031555871\H,0,-1.699168
 0833,-4.662562696,3.8334162569\H,0,-3.243994008,-5.7611277304,3.429215
 7605\H,0,-1.5466627778,-6.1292221954,2.7485088038\H,0,2.7023995441,-1.
 6983916751,-1.662970262\H,0,2.7791453921,-0.0819639168,-2.1244555978\H
 ,0,4.3636872743,-1.1082730425,0.3053837544\H,0,4.0493338969,1.55063377
 38,-2.54300267\H,0,5.2653819499,2.2555658155,-1.9299794661\H,0,5.60161
 74693,0.8748885964,-2.9897977108\H,0,6.6217642393,1.4050845085,-0.1136
 187191\H,0,6.1402081402,-0.2067087083,0.8634360603\H,0,7.2407514598,-1
 .1216413993,-1.3322145451\H,0,7.8351059465,0.2413273408,-1.9698099046\
 H,0,9.1520972613,0.9360614911,0.1326909013\H,0,8.7879472834,-0.7488503
 912,0.7012579895\H,0,10.2555631077,0.006633201,-1.7943343229\H,0,9.220
 7770632,-2.4242404005,-1.8007159964\H,0,10.8718197377,-2.4701137953,-1
 .7581400579\H,0,9.8766505511,-2.5951514571,-0.2901784575\H,0,11.386776
 3585,0.7915413843,0.3666381513\H,0,11.4118742408,-0.9814141027,0.97800
 84224\H,0,12.8161949384,-1.4050386651,-1.1373314007\H,0,12.810154768,0
 .0511758086,-1.63608697\H,0,13.8947009068,1.0091534713,0.5817355166\H,
 0,14.0033930924,-0.7031399187,1.084014918\H,0,15.3420174902,0.61191067
 61,-1.4856329213\H,0,15.4998074236,-2.3689671888,-0.5387753314\H,0,14.
 9408871394,-1.7623686125,-2.1082182369\H,0,16.5270423336,-1.6161071356
 ,-1.7069521647\H,0,15.875552756,1.2638242161,0.8709236367\H,0,16.20797
 52447,-0.4816873438,1.1799907603\H,0,18.2009210308,-0.5570522526,-0.32
 9166257\H,0,17.875814646,0.934380757,-1.3128848643\H,0,18.2658173743,2
 .0826324209,1.0044084461\H,0,18.7816853288,0.6798521662,1.6150615065\H
 ,0,20.6001949322,0.2767038186,-0.0942623622\H,0,19.9376678734,3.347598
 3217,-0.6688104744\H,0,21.2564398961,2.6014167945,-1.3282641897\H,0,19
 .6647203764,1.8335251633,-1.7933963086\H,0,20.9872346987,1.0928973988,
 2.3181414313\H,0,22.0580175081,1.8938506148,1.0555705234\H,0,20.649774
 7074,2.9111812014,1.6874591864\\Version=ES64L-G16RevA.03\State=1-A\HF=
 -2932.5506757\RMSD=7.815e-09\PG=C01 [X(C55H72Mg1N4O5)]\\@


 THE RARE EARTHS PERPLEX US IN OUR RESEARCHES,
 BAFFLE US IN OUR SPECULATIONS, AND HAUNT US IN OUR
 VERY DREAMS.  THEY STRETCH LIKE AN UNKNOWN BEFORE US,
 MOCKING, MYSTIFYING, AND MURMURING STRANGE REVELATIONS
 AND POSSIBILITIES.  -- SIR WILLIAM CROOKE, 1832-1919
 Job cpu time:       0 days 14 hours 19 minutes 13.5 seconds.
 Elapsed time:       0 days  3 hours 35 minutes 14.4 seconds.
 File lengths (MBytes):  RWF=   6809 Int=      0 D2E=      0 Chk=    181 Scr=      1
 Normal termination of Gaussian 16 at Sun Jun 30 16:07:47 2019.
