 Entering Gaussian System, Link 0=g16
 Input=Geometria-369-.com
 Output=Geometria-369-.log
 Initial command:
 /usr/local/g09/l1.exe "/home/padawan/israel-mol/chlorophyll-a/spectra/emi/Gau-20063.inp" -scrdir="/home/padawan/israel-mol/chlorophyll-a/spectra/emi/"
 Entering Link 1 = /usr/local/g09/l1.exe PID=     20065.
  
 Copyright (c) 1988,1990,1992,1993,1995,1998,2003,2009,2013,
            Gaussian, Inc.  All Rights Reserved.
  
 This is part of the Gaussian(R) 09 program.  It is based on
 the Gaussian(R) 03 system (copyright 2003, Gaussian, Inc.),
 the Gaussian(R) 98 system (copyright 1998, Gaussian, Inc.),
 the Gaussian(R) 94 system (copyright 1995, Gaussian, Inc.),
 the Gaussian 92(TM) system (copyright 1992, Gaussian, Inc.),
 the Gaussian 90(TM) system (copyright 1990, Gaussian, Inc.),
 the Gaussian 88(TM) system (copyright 1988, Gaussian, Inc.),
 the Gaussian 86(TM) system (copyright 1986, Carnegie Mellon
 University), and the Gaussian 82(TM) system (copyright 1983,
 Carnegie Mellon University). Gaussian is a federally registered
 trademark of Gaussian, Inc.
  
 This software contains proprietary and confidential information,
 including trade secrets, belonging to Gaussian, Inc.
  
 This software is provided under written license and may be
 used, copied, transmitted, or stored only in accord with that
 written license.
  
 The following legend is applicable only to US Government
 contracts under FAR:
  
                    RESTRICTED RIGHTS LEGEND
  
 Use, reproduction and disclosure by the US Government is
 subject to restrictions as set forth in subparagraphs (a)
 and (c) of the Commercial Computer Software - Restricted
 Rights clause in FAR 52.227-19.
  
 Gaussian, Inc.
 340 Quinnipiac St., Bldg. 40, Wallingford CT 06492
  
  
 ---------------------------------------------------------------
 Warning -- This program may not be used in any manner that
 competes with the business of Gaussian, Inc. or will provide
 assistance to any competitor of Gaussian, Inc.  The licensee
 of this program is prohibited from giving any competitor of
 Gaussian, Inc. access to this program.  By using this program,
 the user acknowledges that Gaussian, Inc. is engaged in the
 business of creating and licensing software in the field of
 computational chemistry and represents and warrants to the
 licensee that it is not a competitor of Gaussian, Inc. and that
 it will not use this program in any manner prohibited above.
 ---------------------------------------------------------------
  

 Cite this work as:
 Gaussian 09, Revision D.01,
 M. J. Frisch, G. W. Trucks, H. B. Schlegel, G. E. Scuseria, 
 M. A. Robb, J. R. Cheeseman, G. Scalmani, V. Barone, B. Mennucci, 
 G. A. Petersson, H. Nakatsuji, M. Caricato, X. Li, H. P. Hratchian, 
 A. F. Izmaylov, J. Bloino, G. Zheng, J. L. Sonnenberg, M. Hada, 
 M. Ehara, K. Toyota, R. Fukuda, J. Hasegawa, M. Ishida, T. Nakajima, 
 Y. Honda, O. Kitao, H. Nakai, T. Vreven, J. A. Montgomery, Jr., 
 J. E. Peralta, F. Ogliaro, M. Bearpark, J. J. Heyd, E. Brothers, 
 K. N. Kudin, V. N. Staroverov, T. Keith, R. Kobayashi, J. Normand, 
 K. Raghavachari, A. Rendell, J. C. Burant, S. S. Iyengar, J. Tomasi, 
 M. Cossi, N. Rega, J. M. Millam, M. Klene, J. E. Knox, J. B. Cross, 
 V. Bakken, C. Adamo, J. Jaramillo, R. Gomperts, R. E. Stratmann, 
 O. Yazyev, A. J. Austin, R. Cammi, C. Pomelli, J. W. Ochterski, 
 R. L. Martin, K. Morokuma, V. G. Zakrzewski, G. A. Voth, 
 P. Salvador, J. J. Dannenberg, S. Dapprich, A. D. Daniels, 
 O. Farkas, J. B. Foresman, J. V. Ortiz, J. Cioslowski, 
 and D. J. Fox, Gaussian, Inc., Wallingford CT, 2013.
 
 ******************************************
 Gaussian 09:  ES64L-G09RevD.01 24-Apr-2013
                 5-Jul-2019 
 ******************************************
 %nproc=4
 Will use up to    4 processors via shared memory.
 %Mem=2GB
 -------------------------------------
 # td=(NStates=1) CAM-B3LYP/6-31G(d,p)
 -------------------------------------
 1/38=1/1;
 2/12=2,17=6,18=5,40=1/2;
 3/5=1,6=6,7=101,11=9,16=1,25=1,30=1,74=-40/1,2,8,3;
 4//1;
 5/5=2,38=5/2;
 8/6=1,10=2,108=1/1;
 9/41=1,42=1,70=2/14;
 6/7=2,8=2,9=2,10=2/1;
 99/5=1,9=1/99;
 --
 TD
 --
 Symbolic Z-matrix:
 Charge =  0 Multiplicity = 1
 12                   -7.16146   0.58169   0.03681 
 6                    -4.77835  -1.96662   0.51771 
 6                    -4.88203   2.78704   1.37751 
 6                    -9.34368   3.09771  -0.57215 
 6                    -9.53686  -1.75406  -0.84139 
 7                    -5.16114   0.42082   0.78721 
 6                    -4.3471   -0.74829   0.78457 
 6                    -2.97222  -0.39804   1.25522 
 6                    -3.05181   0.96168   1.62255 
 6                    -4.45669   1.42523   1.27205 
 6                    -2.94111   1.29369   3.19152 
 6                    -1.87775  -0.64336   0.16284 
 6                    -0.48226  -0.32335   0.65485 
 6                     0.51851  -0.58018  -0.46205 
 8                     0.21852  -1.04     -1.57702 
 8                     1.72138  -0.28004  -0.22322 
 7                    -7.08167   2.58194   0.33406 
 6                    -6.09271   3.23589   0.90456 
 6                    -6.43401   4.65012   0.91952 
 6                    -7.68816   4.82493   0.3334 
 6                    -8.13355   3.49404  -0.00132 
 6                    -5.54701   5.82101   1.24391 
 6                    -8.4957    6.04502   0.11048 
 6                    -8.37743   7.23997   0.75925 
 7                    -9.09436   0.58968  -0.53864 
 6                    -9.81635   1.8034   -0.80352 
 6                    -11.236    1.4855   -1.2174 
 6                    -11.31286   0.07566  -1.1936 
 6                    -10.00498  -0.43143  -0.88222 
 6                    -12.31912   2.49442  -1.48823 
 6                    -12.40831  -0.76731  -1.81336 
 6                    -12.35465  -0.87399  -3.28339 
 7                    -7.25678  -1.45373  -0.13205 
 6                    -8.26993  -2.34227  -0.54965 
 6                    -7.77373  -3.61236  -0.57484 
 6                    -6.42388  -3.65107  -0.14155 
 6                    -6.19567  -2.20701   0.04044 
 6                    -8.6215   -4.82284  -0.87121 
 6                    -5.30678  -4.36256   0.13794 
 8                    -5.17864  -5.55442   0.15616 
 6                    -4.11099  -3.36625   0.6168 
 6                    -3.5125   -3.54753   1.9189 
 8                    -4.01034  -3.11414   2.98736 
 8                    -2.56314  -4.48645   1.87358 
 6                    -2.17485  -5.10931   3.02873 
 6                     2.75566  -0.69043  -1.24369 
 6                     4.07753  -0.44431  -0.58804 
 6                     5.07981   0.29614  -1.09921 
 6                     5.0011    1.31672  -2.18548 
 6                     6.40964   0.38302  -0.25382 
 6                     7.63402  -0.23044  -0.99706 
 6                     8.97754  -0.20233  -0.32388 
 6                     10.23413  -0.70002  -1.07702 
 6                     10.17075  -2.146    -1.41645 
 6                     11.42058  -0.37807  -0.05855 
 6                     12.76699  -0.52248  -0.66658 
 6                     13.97966   0.00041   0.24692 
 6                     15.41126  -0.26566  -0.36266 
 6                     15.71599  -1.78813  -0.60427 
 6                     16.44161   0.50205   0.42239 
 6                     17.76572   0.56304  -0.0874 
 6                     18.80008   1.31978   0.64817 
 6                     20.30731   1.37333   0.12048 
 6                     20.45531   2.27908  -1.16285 
 6                     21.15491   2.02529   1.23605 
 1                    -4.21112   3.42876   1.64777 
 1                    -10.09875   3.78861  -0.63201 
 1                    -10.1458  -2.54819  -0.98108 
 1                    -3.0613   -0.85596   2.19554 
 1                    -2.20004   1.60555   1.30852 
 1                    -2.01201   1.067     3.57961 
 1                    -3.14114   2.36988   3.38511 
 1                    -3.72485   0.75437   3.8351 
 1                    -1.71386  -1.57979  -0.30105 
 1                    -2.04812   0.04095  -0.80053 
 1                    -0.33309   0.60802   1.1342 
 1                    -0.28974  -1.12824   1.49676 
 1                    -5.71611   6.70389   0.70995 
 1                    -5.80659   6.18537   2.28293 
 1                    -4.40128   5.46896   1.23804 
 1                    -9.23416   6.02532  -0.47875 
 1                    -8.82835   8.03876   0.49632 
 1                    -7.62607   7.35488   1.62879 
 1                    -12.07031   3.17306  -2.45006 
 1                    -13.20033   1.89644  -1.7292 
 1                    -12.22744   3.04542  -0.50426 
 1                    -12.67509  -1.73877  -1.33549 
 1                    -13.33353  -0.38448  -1.5697 
 1                    -13.27028  -1.32316  -3.66876 
 1                    -12.24228   0.09548  -3.88837 
 1                    -11.49686  -1.41162  -3.48083 
 1                    -8.92813  -4.75968  -2.09654 
 1                    -7.91031  -5.59772  -0.84938 
 1                    -9.34486  -4.92864  -0.23238 
 1                    -3.46341  -3.4513   -0.36161 
 1                    -1.57582  -4.29782   3.51969 
 1                    -2.96909  -5.4303    3.65164 
 1                    -1.61093  -6.03079   2.85786 
 1                     2.6548   -1.83404  -1.34696 
 1                     2.39955  -0.06495  -2.02439 
 1                     4.32028  -1.06027   0.24422 
 1                     3.98106   1.16984  -2.69566 
 1                     5.24055   2.50295  -1.92643 
 1                     6.00817   1.11953  -2.9199 
 1                     6.58355   1.44561  -0.1309 
 1                     6.45097  -0.11627   0.63517 
 1                     7.22141  -1.28149  -1.31325 
 1                     7.72131   0.18694  -1.99373 
 1                     9.26561   0.7718   -0.0696 
 1                     8.9202   -0.8167    0.63239 
 1                     10.33182   0.06029  -1.89405 
 1                     9.289    -2.3874   -2.17851 
 1                     10.91143  -2.39418  -1.88156 
 1                     9.9788   -2.75686  -0.41778 
 1                     11.35087   0.85424   0.15367 
 1                     11.30047  -0.76359   1.052 
 1                     13.02534  -1.60175  -0.90062 
 1                     12.80755   0.26603  -1.64403 
 1                     13.93137   0.88782   0.54827 
 1                     14.08282  -0.67112   1.15918 
 1                     15.50012   0.26371  -1.39186 
 1                     15.86081  -2.31993   0.45821 
 1                     14.85272  -2.38736  -1.10069 
 1                     16.57217  -1.89535  -1.08907 
 1                     16.04419   1.45797   0.65722 
 1                     16.55927  -0.08419   1.33557 
 1                     18.11782  -0.57081  -0.50248 
 1                     17.80689   0.96442  -1.05417 
 1                     18.34163   2.26172   0.58334 
 1                     18.90362   0.82647   1.68549 
 1                     20.65479   0.25251  -0.30323 
 1                     19.9539   3.29065  -1.0147 
 1                     21.54106   2.40582  -1.26138 
 1                     20.03481   1.69865  -1.95271 
 1                     21.00414   1.32155   1.96841 
 1                     22.32446   2.12922   0.89343 
 1                     20.8785   2.94953   1.52109 
 
 Stoichiometry    C55H72MgN4O5
 Framework group  C1[X(C55H72MgN4O5)]
 Deg. of freedom   405
 Full point group                 C1      NOp   1
 Largest Abelian subgroup         C1      NOp   1
 Largest concise Abelian subgroup C1      NOp   1
                         Standard orientation:                         
 ---------------------------------------------------------------------
 Center     Atomic      Atomic             Coordinates (Angstroms)
 Number     Number       Type             X           Y           Z
 ---------------------------------------------------------------------
      1         12           0       -7.161412    0.582737    0.035724
      2          6           0       -4.778721   -1.965638    0.518294
      3          6           0       -4.881989    2.788428    1.375874
      4          6           0       -9.343199    3.098742   -0.574854
      5          6           0       -9.536926   -1.753125   -0.841885
      6          7           0       -5.161270    0.421974    0.786609
      7          6           0       -4.347378   -0.747244    0.784676
      8          6           0       -2.972544   -0.396940    1.255447
      9          6           0       -3.052045    0.962958    1.622137
     10          6           0       -4.456799    1.426523    1.271134
     11          6           0       -2.941628    1.295685    3.190973
     12          6           0       -1.877884   -0.642901    0.163411
     13          6           0       -0.482450   -0.322832    0.655560
     14          6           0        0.518517   -0.580308   -0.461016
     15          8           0        0.218700   -1.040606   -1.575837
     16          8           0        1.721376   -0.280199   -0.222074
     17          7           0       -7.081439    2.583122    0.332064
     18          6           0       -6.092516    3.237215    0.902467
     19          6           0       -6.433647    4.651489    0.916699
     20          6           0       -7.687655    4.826185    0.330239
     21          6           0       -8.133137    3.495190   -0.003956
     22          6           0       -5.546572    5.822425    1.240726
     23          6           0       -8.494995    6.046264    0.106583
     24          6           0       -8.376716    7.241504    0.754827
     25          7           0       -9.094198    0.590703   -0.540128
     26          6           0       -9.815980    1.804388   -0.805718
     27          6           0      -11.235588    1.486467   -1.219750
     28          6           0      -11.312628    0.076654   -1.195307
     29          6           0      -10.004867   -0.430451   -0.883427
     30          6           0      -12.318526    2.495398   -1.491263
     31          6           0      -12.408045   -0.766476   -1.814906
     32          6           0      -12.354103   -0.873839   -3.284877
     33          7           0       -7.256947   -1.452751   -0.132211
     34          6           0       -8.270122   -2.341354   -0.549610
     35          6           0       -7.774080   -3.611517   -0.574114
     36          6           0       -6.424317   -3.650192   -0.140519
     37          6           0       -6.195972   -2.206076    0.040841
     38          6           0       -8.621934   -4.822025   -0.870089
     39          6           0       -5.307361   -4.361691    0.139524
     40          8           0       -5.179373   -5.553558    0.158329
     41          6           0       -4.111556   -3.365308    0.618174
     42          6           0       -3.513354   -3.546056    1.920482
     43          8           0       -4.011362   -3.112108    2.988637
     44          8           0       -2.564096   -4.485117    1.875786
     45          6           0       -2.176122   -5.107481    3.031307
     46          6           0        2.755810   -0.691191   -1.242137
     47          6           0        4.077576   -0.444936   -0.586332
     48          6           0        5.080055    0.295152   -1.097639
     49          6           0        5.001691    1.315247   -2.184401
     50          6           0        6.409715    0.382265   -0.252017
     51          6           0        7.634178   -0.231694   -0.994715
     52          6           0        8.977561   -0.203429   -0.321279
     53          6           0       10.234250   -0.701625   -1.073923
     54          6           0       10.170761   -2.147752   -1.412692
     55          6           0       11.420530   -0.379353   -0.055364
     56          6           0       12.767044   -0.524205   -0.663041
     57          6           0       13.979586   -0.001046    0.250465
     58          6           0       15.411279   -0.267574   -0.358702
     59          6           0       15.715877   -1.790190   -0.599539
     60          6           0       16.441563    0.500378    0.426206
     61          6           0       17.765788    0.560962   -0.083341
     62          6           0       18.800089    1.317918    0.652091
     63          6           0       20.307433    1.371035    0.124689
     64          6           0       20.455807    2.276170   -1.159024
     65          6           0       21.154881    2.023406    1.240134
     66          1           0       -4.211060    3.430192    1.645971
     67          1           0      -10.098173    3.789711   -0.635188
     68          1           0      -10.145929   -2.547248   -0.981337
     69          1           0       -3.061881   -0.854418    2.195965
     70          1           0       -2.200135    1.606583    1.307983
     71          1           0       -2.012632    1.069056    3.579361
     72          1           0       -3.141565    2.371988    3.384023
     73          1           0       -3.725564    0.756758    3.834637
     74          1           0       -1.714016   -1.579565   -0.300016
     75          1           0       -2.047966    0.040984   -0.800312
     76          1           0       -0.333266    0.608734    1.134513
     77          1           0       -0.290204   -1.127356    1.497886
     78          1           0       -5.715451    6.705073    0.706319
     79          1           0       -5.806316    6.187296    2.279529
     80          1           0       -4.400885    5.470225    1.235253
     81          1           0       -9.233334    6.026384   -0.482786
     82          1           0       -8.827486    8.040232    0.491431
     83          1           0       -7.625522    7.356727    1.624468
     84          1           0      -12.069434    3.173559   -2.453359
     85          1           0      -13.199759    1.897418   -1.732147
     86          1           0      -12.226985    3.046846   -0.507536
     87          1           0      -12.675051   -1.737680   -1.336637
     88          1           0      -13.333275   -0.383410   -1.571615
     89          1           0      -13.269709   -1.323072   -3.670221
     90          1           0      -12.241484    0.095331   -3.890282
     91          1           0      -11.496332   -1.411663   -3.481884
     92          1           0       -8.928306   -4.759397   -2.095518
     93          1           0       -7.910845   -5.596987   -0.847762
     94          1           0       -9.345443   -4.927443   -0.231358
     95          1           0       -3.463777   -3.450888   -0.360066
     96          1           0       -1.577091   -4.295838    3.522021
     97          1           0       -2.970528   -5.428094    3.654202
     98          1           0       -1.612281   -6.029117    2.860982
     99          1           0        2.654837   -1.834835   -1.344901
    100          1           0        2.399937   -0.066035   -2.023201
    101          1           0        4.320082   -1.060535    0.246260
    102          1           0        3.981737    1.168247   -2.694719
    103          1           0        5.241235    2.501564   -1.925848
    104          1           0        6.008888    1.117591   -2.918520
    105          1           0        6.583735    1.444889   -0.129553
    106          1           0        6.450804   -0.116618    0.637218
    107          1           0        7.221502   -1.282833   -1.310509
    108          1           0        7.721729    0.185219   -1.991566
    109          1           0        9.265698    0.770774   -0.067386
    110          1           0        8.919949   -0.817350    0.635270
    111          1           0       10.332199    0.058290   -1.891291
    112          1           0        9.289139   -2.389398   -2.174831
    113          1           0       10.911507   -2.396240   -1.877542
    114          1           0        9.978527   -2.758128   -0.413785
    115          1           0       11.350926    0.853063    0.156272
    116          1           0       11.300142   -0.764344    1.055341
    117          1           0       13.025304   -1.603618   -0.896528
    118          1           0       12.807906    0.263840   -1.640849
    119          1           0       13.931351    0.886512    0.551394
    120          1           0       14.082479   -0.672161    1.163058
    121          1           0       15.500423    0.261304   -1.388128
    122          1           0       15.860413   -2.321521    0.463221
    123          1           0       14.852631   -2.389548   -1.095857
    124          1           0       16.572138   -1.897738   -1.084113
    125          1           0       16.044213    1.456455    0.660516
    126          1           0       16.558964   -0.085455    1.339681
    127          1           0       18.117836   -0.573125   -0.497822
    128          1           0       17.807204    0.961894   -1.050283
    129          1           0       18.341773    2.259884    0.586731
    130          1           0       18.903351    0.825073    1.689665
    131          1           0       20.654864    0.249980   -0.298430
    132          1           0       19.954494    3.287877   -1.011444
    133          1           0       21.541594    2.402732   -1.257389
    134          1           0       20.035399    1.695431   -1.948707
    135          1           0       21.003873    1.320028    1.972786
    136          1           0       22.324522    2.127041    0.897712
    137          1           0       20.878527    2.947811    1.524692
 ---------------------------------------------------------------------
 Rotational constants (GHZ):      0.0646497      0.0060682      0.0057241
 Standard basis: 6-31G(d,p) (6D, 7F)
 There are  1339 symmetry adapted cartesian basis functions of A   symmetry.
 There are  1339 symmetry adapted basis functions of A   symmetry.
  1339 basis functions,  2348 primitive gaussians,  1339 cartesian basis functions
   241 alpha electrons      241 beta electrons
       nuclear repulsion energy      8751.4213757710 Hartrees.
 NAtoms=  137 NActive=  137 NUniq=  137 SFac= 1.00D+00 NAtFMM=   60 NAOKFM=T Big=T
 Integral buffers will be    131072 words long.
 Raffenetti 1 integral format.
 Two-electron integral symmetry is turned on.
 One-electron integrals computed using PRISM.
 NBasis=  1339 RedAO= T EigKep=  2.58D-04  NBF=  1339
 NBsUse=  1339 1.00D-06 EigRej= -1.00D+00 NBFU=  1339
 ExpMin= 4.21D-02 ExpMax= 1.17D+04 ExpMxC= 1.76D+03 IAcc=2 IRadAn=         4 AccDes= 0.00D+00
 Harris functional with IExCor=20419 and IRadAn=       4 diagonalized for initial guess.
 HarFok:  IExCor=20419 AccDes= 0.00D+00 IRadAn=         4 IDoV= 1 UseB2=F ITyADJ=14
 ICtDFT=  3500011 ScaDFX=  1.000000  1.000000  1.000000  1.000000
 FoFCou: FMM=F IPFlag=           0 FMFlag=      100000 FMFlg1=        2001
         NFxFlg=           0 DoJE=T BraDBF=F KetDBF=T FulRan=T
         wScrn=  0.000000 ICntrl=     500 IOpCl=  0 I1Cent=   200000004 NGrid=           0
         NMat0=    1 NMatS0=      1 NMatT0=    0 NMatD0=    1 NMtDS0=    0 NMtDT0=    0
 Petite list used in FoFCou.
 Requested convergence on RMS density matrix=1.00D-08 within 128 cycles.
 Requested convergence on MAX density matrix=1.00D-06.
 Requested convergence on             energy=1.00D-06.
 No special actions if energy rises.
 SCF Done:  E(RCAM-B3LYP) =  -2932.60227209     A.U. after   16 cycles
            NFock= 16  Conv=0.80D-08     -V/T= 2.0088
 DoSCS=F DFT=T ScalE2(SS,OS)=  1.000000  1.000000
 ExpMin= 4.21D-02 ExpMax= 1.17D+04 ExpMxC= 1.76D+03 IAcc=3 IRadAn=         5 AccDes= 0.00D+00
 HarFok:  IExCor=  205 AccDes= 0.00D+00 IRadAn=         5 IDoV=-2 UseB2=F ITyADJ=14
 ICtDFT= 12500011 ScaDFX=  1.000000  1.000000  1.000000  1.000000
 Range of M.O.s used for correlation:    70  1339
 NBasis=  1339 NAE=   241 NBE=   241 NFC=    69 NFV=     0
 NROrb=   1270 NOA=   172 NOB=   172 NVA=  1098 NVB=  1098
 Would need an additional       2415464100000 words for in-memory AO integral storage.
 Orbital symmetries:
       Occupied  (A) (A) (A) (A) (A) (A) (A) (A) (A) (A) (A) (A)
                 (A) (A) (A) (A) (A) (A) (A) (A) (A) (A) (A) (A)
                 (A) (A) (A) (A) (A) (A) (A) (A) (A) (A) (A) (A)
                 (A) (A) (A) (A) (A) (A) (A) (A) (A) (A) (A) (A)
                 (A) (A) (A) (A) (A) (A) (A) (A) (A) (A) (A) (A)
                 (A) (A) (A) (A) (A) (A) (A) (A) (A) (A) (A) (A)
                 (A) (A) (A) (A) (A) (A) (A) (A) (A) (A) (A) (A)
                 (A) (A) (A) (A) (A) (A) (A) (A) (A) (A) (A) (A)
                 (A) (A) (A) (A) (A) (A) (A) (A) (A) (A) (A) (A)
                 (A) (A) (A) (A) (A) (A) (A) (A) (A) (A) (A) (A)
                 (A) (A) (A) (A) (A) (A) (A) (A) (A) (A) (A) (A)
                 (A) (A) (A) (A) (A) (A) (A) (A) (A) (A) (A) (A)
                 (A) (A) (A) (A) (A) (A) (A) (A) (A) (A) (A) (A)
                 (A) (A) (A) (A) (A) (A) (A) (A) (A) (A) (A) (A)
                 (A) (A) (A) (A) (A) (A) (A) (A) (A) (A) (A) (A)
                 (A) (A) (A) (A) (A) (A) (A) (A) (A) (A) (A) (A)
                 (A) (A) (A) (A) (A) (A) (A) (A) (A) (A) (A) (A)
                 (A) (A) (A) (A) (A) (A) (A) (A) (A) (A) (A) (A)
                 (A) (A) (A) (A) (A) (A) (A) (A) (A) (A) (A) (A)
                 (A) (A) (A) (A) (A) (A) (A) (A) (A) (A) (A) (A)
                 (A)
       Virtual   (A) (A) (A) (A) (A) (A) (A) (A) (A) (A) (A) (A)
                 (A) (A) (A) (A) (A) (A) (A) (A) (A) (A) (A) (A)
                 (A) (A) (A) (A) (A) (A) (A) (A) (A) (A) (A) (A)
                 (A) (A) (A) (A) (A) (A) (A) (A) (A) (A) (A) (A)
                 (A) (A) (A) (A) (A) (A) (A) (A) (A) (A) (A) (A)
                 (A) (A) (A) (A) (A) (A) (A) (A) (A) (A) (A) (A)
                 (A) (A) (A) (A) (A) (A) (A) (A) (A) (A) (A) (A)
                 (A) (A) (A) (A) (A) (A) (A) (A) (A) (A) (A) (A)
                 (A) (A) (A) (A) (A) (A) (A) (A) (A) (A) (A) (A)
                 (A) (A) (A) (A) (A) (A) (A) (A) (A) (A) (A) (A)
                 (A) (A) (A) (A) (A) (A) (A) (A) (A) (A) (A) (A)
                 (A) (A) (A) (A) (A) (A) (A) (A) (A) (A) (A) (A)
                 (A) (A) (A) (A) (A) (A) (A) (A) (A) (A) (A) (A)
                 (A) (A) (A) (A) (A) (A) (A) (A) (A) (A) (A) (A)
                 (A) (A) (A) (A) (A) (A) (A) (A) (A) (A) (A) (A)
                 (A) (A) (A) (A) (A) (A) (A) (A) (A) (A) (A) (A)
                 (A) (A) (A) (A) (A) (A) (A) (A) (A) (A) (A) (A)
                 (A) (A) (A) (A) (A) (A) (A) (A) (A) (A) (A) (A)
                 (A) (A) (A) (A) (A) (A) (A) (A) (A) (A) (A) (A)
                 (A) (A) (A) (A) (A) (A) (A) (A) (A) (A) (A) (A)
                 (A) (A) (A) (A) (A) (A) (A) (A) (A) (A) (A) (A)
                 (A) (A) (A) (A) (A) (A) (A) (A) (A) (A) (A) (A)
                 (A) (A) (A) (A) (A) (A) (A) (A) (A) (A) (A) (A)
                 (A) (A) (A) (A) (A) (A) (A) (A) (A) (A) (A) (A)
                 (A) (A) (A) (A) (A) (A) (A) (A) (A) (A) (A) (A)
                 (A) (A) (A) (A) (A) (A) (A) (A) (A) (A) (A) (A)
                 (A) (A) (A) (A) (A) (A) (A) (A) (A) (A) (A) (A)
                 (A) (A) (A) (A) (A) (A) (A) (A) (A) (A) (A) (A)
                 (A) (A) (A) (A) (A) (A) (A) (A) (A) (A) (A) (A)
                 (A) (A) (A) (A) (A) (A) (A) (A) (A) (A) (A) (A)
                 (A) (A) (A) (A) (A) (A) (A) (A) (A) (A) (A) (A)
                 (A) (A) (A) (A) (A) (A) (A) (A) (A) (A) (A) (A)
                 (A) (A) (A) (A) (A) (A) (A) (A) (A) (A) (A) (A)
                 (A) (A) (A) (A) (A) (A) (A) (A) (A) (A) (A) (A)
                 (A) (A) (A) (A) (A) (A) (A) (A) (A) (A) (A) (A)
                 (A) (A) (A) (A) (A) (A) (A) (A) (A) (A) (A) (A)
                 (A) (A) (A) (A) (A) (A) (A) (A) (A) (A) (A) (A)
                 (A) (A) (A) (A) (A) (A) (A) (A) (A) (A) (A) (A)
                 (A) (A) (A) (A) (A) (A) (A) (A) (A) (A) (A) (A)
                 (A) (A) (A) (A) (A) (A) (A) (A) (A) (A) (A) (A)
                 (A) (A) (A) (A) (A) (A) (A) (A) (A) (A) (A) (A)
                 (A) (A) (A) (A) (A) (A) (A) (A) (A) (A) (A) (A)
                 (A) (A) (A) (A) (A) (A) (A) (A) (A) (A) (A) (A)
                 (A) (A) (A) (A) (A) (A) (A) (A) (A) (A) (A) (A)
                 (A) (A) (A) (A) (A) (A) (A) (A) (A) (A) (A) (A)
                 (A) (A) (A) (A) (A) (A) (A) (A) (A) (A) (A) (A)
                 (A) (A) (A) (A) (A) (A) (A) (A) (A) (A) (A) (A)
                 (A) (A) (A) (A) (A) (A) (A) (A) (A) (A) (A) (A)
                 (A) (A) (A) (A) (A) (A) (A) (A) (A) (A) (A) (A)
                 (A) (A) (A) (A) (A) (A) (A) (A) (A) (A) (A) (A)
                 (A) (A) (A) (A) (A) (A) (A) (A) (A) (A) (A) (A)
                 (A) (A) (A) (A) (A) (A) (A) (A) (A) (A) (A) (A)
                 (A) (A) (A) (A) (A) (A) (A) (A) (A) (A) (A) (A)
                 (A) (A) (A) (A) (A) (A) (A) (A) (A) (A) (A) (A)
                 (A) (A) (A) (A) (A) (A) (A) (A) (A) (A) (A) (A)
                 (A) (A) (A) (A) (A) (A) (A) (A) (A) (A) (A) (A)
                 (A) (A) (A) (A) (A) (A) (A) (A) (A) (A) (A) (A)
                 (A) (A) (A) (A) (A) (A) (A) (A) (A) (A) (A) (A)
                 (A) (A) (A) (A) (A) (A) (A) (A) (A) (A) (A) (A)
                 (A) (A) (A) (A) (A) (A) (A) (A) (A) (A) (A) (A)
                 (A) (A) (A) (A) (A) (A) (A) (A) (A) (A) (A) (A)
                 (A) (A) (A) (A) (A) (A) (A) (A) (A) (A) (A) (A)
                 (A) (A) (A) (A) (A) (A) (A) (A) (A) (A) (A) (A)
                 (A) (A) (A) (A) (A) (A) (A) (A) (A) (A) (A) (A)
                 (A) (A) (A) (A) (A) (A) (A) (A) (A) (A) (A) (A)
                 (A) (A) (A) (A) (A) (A) (A) (A) (A) (A) (A) (A)
                 (A) (A) (A) (A) (A) (A) (A) (A) (A) (A) (A) (A)
                 (A) (A) (A) (A) (A) (A) (A) (A) (A) (A) (A) (A)
                 (A) (A) (A) (A) (A) (A) (A) (A) (A) (A) (A) (A)
                 (A) (A) (A) (A) (A) (A) (A) (A) (A) (A) (A) (A)
                 (A) (A) (A) (A) (A) (A) (A) (A) (A) (A) (A) (A)
                 (A) (A) (A) (A) (A) (A) (A) (A) (A) (A) (A) (A)
                 (A) (A) (A) (A) (A) (A) (A) (A) (A) (A) (A) (A)
                 (A) (A) (A) (A) (A) (A) (A) (A) (A) (A) (A) (A)
                 (A) (A) (A) (A) (A) (A) (A) (A) (A) (A) (A) (A)
                 (A) (A) (A) (A) (A) (A) (A) (A) (A) (A) (A) (A)
                 (A) (A) (A) (A) (A) (A) (A) (A) (A) (A) (A) (A)
                 (A) (A) (A) (A) (A) (A) (A) (A) (A) (A) (A) (A)
                 (A) (A) (A) (A) (A) (A) (A) (A) (A) (A) (A) (A)
                 (A) (A) (A) (A) (A) (A) (A) (A) (A) (A) (A) (A)
                 (A) (A) (A) (A) (A) (A) (A) (A) (A) (A) (A) (A)
                 (A) (A) (A) (A) (A) (A) (A) (A) (A) (A) (A) (A)
                 (A) (A) (A) (A) (A) (A) (A) (A) (A) (A) (A) (A)
                 (A) (A) (A) (A) (A) (A) (A) (A) (A) (A) (A) (A)
                 (A) (A) (A) (A) (A) (A) (A) (A) (A) (A) (A) (A)
                 (A) (A) (A) (A) (A) (A) (A) (A) (A) (A) (A) (A)
                 (A) (A) (A) (A) (A) (A) (A) (A) (A) (A) (A) (A)
                 (A) (A) (A) (A) (A) (A) (A) (A) (A) (A) (A) (A)
                 (A) (A) (A) (A) (A) (A) (A) (A) (A) (A) (A) (A)
                 (A) (A) (A) (A) (A) (A) (A) (A) (A) (A) (A) (A)
                 (A) (A) (A) (A) (A) (A) (A) (A) (A) (A) (A) (A)
                 (A) (A) (A) (A) (A) (A)
     8 initial guesses have been made.
 Convergence on wavefunction:    0.001000000000000
 Iteration     1 Dimension     8 NMult     0 NNew      8
 CISAX will form     8 AO SS matrices at one time.
 Iteration     2 Dimension    12 NMult     8 NNew      4
 Iteration     3 Dimension    16 NMult    12 NNew      4
 Iteration     4 Dimension    20 NMult    16 NNew      4
 Iteration     5 Dimension    24 NMult    20 NNew      4
 Iteration     6 Dimension    28 NMult    24 NNew      4
 ***********************************************************************
 Excited states from <AA,BB:AA,BB> singles matrix:
 ***********************************************************************
 
 Ground to excited state transition densities written to RWF  633
 Ground to excited state transition electric dipole moments (Au):
       state          X           Y           Z        Dip. S.      Osc.
         1         0.4250      2.2637      0.4563      5.5132      0.2783
 Ground to excited state transition velocity dipole moments (Au):
       state          X           Y           Z        Dip. S.      Osc.
         1        -0.0303     -0.1659     -0.0330      0.0295      0.2600
 Ground to excited state transition magnetic dipole moments (Au):
       state          X           Y           Z
         1        -0.8408     -0.6930      4.6185
 Ground to excited state transition velocity quadrupole moments (Au):
       state          XX          YY          ZZ          XY          XZ          YZ
         1         0.7096     -0.0250     -0.0447      2.0823      0.4011     -0.1375
 <0|del|b> * <b|rxdel|0> + <0|del|b> * <b|delr+rdel|0>
 Rotatory Strengths (R) in cgs (10**-40 erg-esu-cm/Gauss)
       state          XX          YY          ZZ    R(velocity)    E-M Angle
         1      -184.6698   -252.5503    325.4479    -37.2574       90.84
 1/2[<0|r|b>*<b|rxdel|0> + (<0|rxdel|b>*<b|r|0>)*]
 Rotatory Strengths (R) in cgs (10**-40 erg-esu-cm/Gauss)
       state          XX          YY          ZZ     R(length)
         1       252.7104   1109.3206  -1490.2644    -42.7445
  1/2[<0|del|b>*<b|r|0> + (<0|r|b>*<b|del|0>)*] (Au)
       state          X           Y           Z        Dip. S.   Osc.(frdel)
         1        -0.0129     -0.3756     -0.0151      0.4035      0.2690

 Excitation energies and oscillator strengths:
 
 Excited State   1:      Singlet-A      2.0605 eV  601.73 nm  f=0.2783  <S**2>=0.000
     240 -> 243       -0.18749
     241 -> 242        0.67195
 This state for optimization and/or second-order correction.
 Total Energy, E(TD-HF/TD-KS) =  -2932.52655107    
 Copying the excited state density for this state as the 1-particle RhoCI density.
 SavETr:  write IOETrn=   770 NScale= 10 NData=  16 NLR=1 NState=    1 LETran=      28.

 **********************************************************************

            Population analysis using the SCF density.

 **********************************************************************

 Orbital symmetries:
       Occupied  (A) (A) (A) (A) (A) (A) (A) (A) (A) (A) (A) (A)
                 (A) (A) (A) (A) (A) (A) (A) (A) (A) (A) (A) (A)
                 (A) (A) (A) (A) (A) (A) (A) (A) (A) (A) (A) (A)
                 (A) (A) (A) (A) (A) (A) (A) (A) (A) (A) (A) (A)
                 (A) (A) (A) (A) (A) (A) (A) (A) (A) (A) (A) (A)
                 (A) (A) (A) (A) (A) (A) (A) (A) (A) (A) (A) (A)
                 (A) (A) (A) (A) (A) (A) (A) (A) (A) (A) (A) (A)
                 (A) (A) (A) (A) (A) (A) (A) (A) (A) (A) (A) (A)
                 (A) (A) (A) (A) (A) (A) (A) (A) (A) (A) (A) (A)
                 (A) (A) (A) (A) (A) (A) (A) (A) (A) (A) (A) (A)
                 (A) (A) (A) (A) (A) (A) (A) (A) (A) (A) (A) (A)
                 (A) (A) (A) (A) (A) (A) (A) (A) (A) (A) (A) (A)
                 (A) (A) (A) (A) (A) (A) (A) (A) (A) (A) (A) (A)
                 (A) (A) (A) (A) (A) (A) (A) (A) (A) (A) (A) (A)
                 (A) (A) (A) (A) (A) (A) (A) (A) (A) (A) (A) (A)
                 (A) (A) (A) (A) (A) (A) (A) (A) (A) (A) (A) (A)
                 (A) (A) (A) (A) (A) (A) (A) (A) (A) (A) (A) (A)
                 (A) (A) (A) (A) (A) (A) (A) (A) (A) (A) (A) (A)
                 (A) (A) (A) (A) (A) (A) (A) (A) (A) (A) (A) (A)
                 (A) (A) (A) (A) (A) (A) (A) (A) (A) (A) (A) (A)
                 (A)
       Virtual   (A) (A) (A) (A) (A) (A) (A) (A) (A) (A) (A) (A)
                 (A) (A) (A) (A) (A) (A) (A) (A) (A) (A) (A) (A)
                 (A) (A) (A) (A) (A) (A) (A) (A) (A) (A) (A) (A)
                 (A) (A) (A) (A) (A) (A) (A) (A) (A) (A) (A) (A)
                 (A) (A) (A) (A) (A) (A) (A) (A) (A) (A) (A) (A)
                 (A) (A) (A) (A) (A) (A) (A) (A) (A) (A) (A) (A)
                 (A) (A) (A) (A) (A) (A) (A) (A) (A) (A) (A) (A)
                 (A) (A) (A) (A) (A) (A) (A) (A) (A) (A) (A) (A)
                 (A) (A) (A) (A) (A) (A) (A) (A) (A) (A) (A) (A)
                 (A) (A) (A) (A) (A) (A) (A) (A) (A) (A) (A) (A)
                 (A) (A) (A) (A) (A) (A) (A) (A) (A) (A) (A) (A)
                 (A) (A) (A) (A) (A) (A) (A) (A) (A) (A) (A) (A)
                 (A) (A) (A) (A) (A) (A) (A) (A) (A) (A) (A) (A)
                 (A) (A) (A) (A) (A) (A) (A) (A) (A) (A) (A) (A)
                 (A) (A) (A) (A) (A) (A) (A) (A) (A) (A) (A) (A)
                 (A) (A) (A) (A) (A) (A) (A) (A) (A) (A) (A) (A)
                 (A) (A) (A) (A) (A) (A) (A) (A) (A) (A) (A) (A)
                 (A) (A) (A) (A) (A) (A) (A) (A) (A) (A) (A) (A)
                 (A) (A) (A) (A) (A) (A) (A) (A) (A) (A) (A) (A)
                 (A) (A) (A) (A) (A) (A) (A) (A) (A) (A) (A) (A)
                 (A) (A) (A) (A) (A) (A) (A) (A) (A) (A) (A) (A)
                 (A) (A) (A) (A) (A) (A) (A) (A) (A) (A) (A) (A)
                 (A) (A) (A) (A) (A) (A) (A) (A) (A) (A) (A) (A)
                 (A) (A) (A) (A) (A) (A) (A) (A) (A) (A) (A) (A)
                 (A) (A) (A) (A) (A) (A) (A) (A) (A) (A) (A) (A)
                 (A) (A) (A) (A) (A) (A) (A) (A) (A) (A) (A) (A)
                 (A) (A) (A) (A) (A) (A) (A) (A) (A) (A) (A) (A)
                 (A) (A) (A) (A) (A) (A) (A) (A) (A) (A) (A) (A)
                 (A) (A) (A) (A) (A) (A) (A) (A) (A) (A) (A) (A)
                 (A) (A) (A) (A) (A) (A) (A) (A) (A) (A) (A) (A)
                 (A) (A) (A) (A) (A) (A) (A) (A) (A) (A) (A) (A)
                 (A) (A) (A) (A) (A) (A) (A) (A) (A) (A) (A) (A)
                 (A) (A) (A) (A) (A) (A) (A) (A) (A) (A) (A) (A)
                 (A) (A) (A) (A) (A) (A) (A) (A) (A) (A) (A) (A)
                 (A) (A) (A) (A) (A) (A) (A) (A) (A) (A) (A) (A)
                 (A) (A) (A) (A) (A) (A) (A) (A) (A) (A) (A) (A)
                 (A) (A) (A) (A) (A) (A) (A) (A) (A) (A) (A) (A)
                 (A) (A) (A) (A) (A) (A) (A) (A) (A) (A) (A) (A)
                 (A) (A) (A) (A) (A) (A) (A) (A) (A) (A) (A) (A)
                 (A) (A) (A) (A) (A) (A) (A) (A) (A) (A) (A) (A)
                 (A) (A) (A) (A) (A) (A) (A) (A) (A) (A) (A) (A)
                 (A) (A) (A) (A) (A) (A) (A) (A) (A) (A) (A) (A)
                 (A) (A) (A) (A) (A) (A) (A) (A) (A) (A) (A) (A)
                 (A) (A) (A) (A) (A) (A) (A) (A) (A) (A) (A) (A)
                 (A) (A) (A) (A) (A) (A) (A) (A) (A) (A) (A) (A)
                 (A) (A) (A) (A) (A) (A) (A) (A) (A) (A) (A) (A)
                 (A) (A) (A) (A) (A) (A) (A) (A) (A) (A) (A) (A)
                 (A) (A) (A) (A) (A) (A) (A) (A) (A) (A) (A) (A)
                 (A) (A) (A) (A) (A) (A) (A) (A) (A) (A) (A) (A)
                 (A) (A) (A) (A) (A) (A) (A) (A) (A) (A) (A) (A)
                 (A) (A) (A) (A) (A) (A) (A) (A) (A) (A) (A) (A)
                 (A) (A) (A) (A) (A) (A) (A) (A) (A) (A) (A) (A)
                 (A) (A) (A) (A) (A) (A) (A) (A) (A) (A) (A) (A)
                 (A) (A) (A) (A) (A) (A) (A) (A) (A) (A) (A) (A)
                 (A) (A) (A) (A) (A) (A) (A) (A) (A) (A) (A) (A)
                 (A) (A) (A) (A) (A) (A) (A) (A) (A) (A) (A) (A)
                 (A) (A) (A) (A) (A) (A) (A) (A) (A) (A) (A) (A)
                 (A) (A) (A) (A) (A) (A) (A) (A) (A) (A) (A) (A)
                 (A) (A) (A) (A) (A) (A) (A) (A) (A) (A) (A) (A)
                 (A) (A) (A) (A) (A) (A) (A) (A) (A) (A) (A) (A)
                 (A) (A) (A) (A) (A) (A) (A) (A) (A) (A) (A) (A)
                 (A) (A) (A) (A) (A) (A) (A) (A) (A) (A) (A) (A)
                 (A) (A) (A) (A) (A) (A) (A) (A) (A) (A) (A) (A)
                 (A) (A) (A) (A) (A) (A) (A) (A) (A) (A) (A) (A)
                 (A) (A) (A) (A) (A) (A) (A) (A) (A) (A) (A) (A)
                 (A) (A) (A) (A) (A) (A) (A) (A) (A) (A) (A) (A)
                 (A) (A) (A) (A) (A) (A) (A) (A) (A) (A) (A) (A)
                 (A) (A) (A) (A) (A) (A) (A) (A) (A) (A) (A) (A)
                 (A) (A) (A) (A) (A) (A) (A) (A) (A) (A) (A) (A)
                 (A) (A) (A) (A) (A) (A) (A) (A) (A) (A) (A) (A)
                 (A) (A) (A) (A) (A) (A) (A) (A) (A) (A) (A) (A)
                 (A) (A) (A) (A) (A) (A) (A) (A) (A) (A) (A) (A)
                 (A) (A) (A) (A) (A) (A) (A) (A) (A) (A) (A) (A)
                 (A) (A) (A) (A) (A) (A) (A) (A) (A) (A) (A) (A)
                 (A) (A) (A) (A) (A) (A) (A) (A) (A) (A) (A) (A)
                 (A) (A) (A) (A) (A) (A) (A) (A) (A) (A) (A) (A)
                 (A) (A) (A) (A) (A) (A) (A) (A) (A) (A) (A) (A)
                 (A) (A) (A) (A) (A) (A) (A) (A) (A) (A) (A) (A)
                 (A) (A) (A) (A) (A) (A) (A) (A) (A) (A) (A) (A)
                 (A) (A) (A) (A) (A) (A) (A) (A) (A) (A) (A) (A)
                 (A) (A) (A) (A) (A) (A) (A) (A) (A) (A) (A) (A)
                 (A) (A) (A) (A) (A) (A) (A) (A) (A) (A) (A) (A)
                 (A) (A) (A) (A) (A) (A) (A) (A) (A) (A) (A) (A)
                 (A) (A) (A) (A) (A) (A) (A) (A) (A) (A) (A) (A)
                 (A) (A) (A) (A) (A) (A) (A) (A) (A) (A) (A) (A)
                 (A) (A) (A) (A) (A) (A) (A) (A) (A) (A) (A) (A)
                 (A) (A) (A) (A) (A) (A) (A) (A) (A) (A) (A) (A)
                 (A) (A) (A) (A) (A) (A) (A) (A) (A) (A) (A) (A)
                 (A) (A) (A) (A) (A) (A) (A) (A) (A) (A) (A) (A)
                 (A) (A) (A) (A) (A) (A) (A) (A) (A) (A) (A) (A)
                 (A) (A) (A) (A) (A) (A) (A) (A) (A) (A) (A) (A)
                 (A) (A) (A) (A) (A) (A)
 The electronic state is 1-A.
 Alpha  occ. eigenvalues --  -46.83734 -19.26108 -19.26042 -19.20028 -19.18630
 Alpha  occ. eigenvalues --  -19.18552 -14.41348 -14.39665 -14.39042 -14.38746
 Alpha  occ. eigenvalues --  -10.39037 -10.38121 -10.33572 -10.33208 -10.31315
 Alpha  occ. eigenvalues --  -10.30349 -10.30318 -10.30170 -10.29908 -10.29738
 Alpha  occ. eigenvalues --  -10.29058 -10.28952 -10.28696 -10.28597 -10.28314
 Alpha  occ. eigenvalues --  -10.27949 -10.27890 -10.27716 -10.27554 -10.27521
 Alpha  occ. eigenvalues --  -10.27505 -10.27462 -10.27461 -10.27437 -10.27311
 Alpha  occ. eigenvalues --  -10.27225 -10.27142 -10.27074 -10.26972 -10.26953
 Alpha  occ. eigenvalues --  -10.26712 -10.26697 -10.26558 -10.26540 -10.26248
 Alpha  occ. eigenvalues --  -10.26227 -10.26049 -10.25789 -10.25744 -10.25711
 Alpha  occ. eigenvalues --  -10.25691 -10.25596 -10.25350 -10.25298 -10.24823
 Alpha  occ. eigenvalues --  -10.24769 -10.24700 -10.24587 -10.24564 -10.24457
 Alpha  occ. eigenvalues --  -10.24445 -10.24245 -10.24223 -10.23957 -10.23726
 Alpha  occ. eigenvalues --   -3.12817  -1.87524  -1.87071  -1.86982  -1.19800
 Alpha  occ. eigenvalues --   -1.18882  -1.10752  -1.07467  -1.06420  -1.04637
 Alpha  occ. eigenvalues --   -1.03447  -1.03153  -1.00316  -0.91588  -0.91532
 Alpha  occ. eigenvalues --   -0.91299  -0.90702  -0.90031  -0.89532  -0.89006
 Alpha  occ. eigenvalues --   -0.88284  -0.87909  -0.87352  -0.87008  -0.86488
 Alpha  occ. eigenvalues --   -0.85293  -0.84626  -0.84158  -0.84051  -0.83556
 Alpha  occ. eigenvalues --   -0.81968  -0.81762  -0.81490  -0.80587  -0.78403
 Alpha  occ. eigenvalues --   -0.77985  -0.77207  -0.76763  -0.76102  -0.76049
 Alpha  occ. eigenvalues --   -0.75844  -0.75184  -0.74807  -0.74259  -0.72915
 Alpha  occ. eigenvalues --   -0.71046  -0.70473  -0.69904  -0.69286  -0.68827
 Alpha  occ. eigenvalues --   -0.68303  -0.66392  -0.65474  -0.64943  -0.64669
 Alpha  occ. eigenvalues --   -0.63709  -0.62813  -0.62515  -0.62286  -0.62127
 Alpha  occ. eigenvalues --   -0.61489  -0.61440  -0.60867  -0.60681  -0.59941
 Alpha  occ. eigenvalues --   -0.59329  -0.58295  -0.57425  -0.57159  -0.57111
 Alpha  occ. eigenvalues --   -0.56752  -0.56003  -0.55869  -0.55862  -0.55361
 Alpha  occ. eigenvalues --   -0.54868  -0.54729  -0.54155  -0.53734  -0.53626
 Alpha  occ. eigenvalues --   -0.53291  -0.52842  -0.52712  -0.52542  -0.52021
 Alpha  occ. eigenvalues --   -0.51588  -0.51320  -0.51190  -0.50804  -0.50565
 Alpha  occ. eigenvalues --   -0.50267  -0.50175  -0.50060  -0.49759  -0.49641
 Alpha  occ. eigenvalues --   -0.49519  -0.49142  -0.48990  -0.48726  -0.48446
 Alpha  occ. eigenvalues --   -0.48252  -0.47938  -0.47879  -0.47687  -0.47575
 Alpha  occ. eigenvalues --   -0.47468  -0.47078  -0.46876  -0.46633  -0.46369
 Alpha  occ. eigenvalues --   -0.45819  -0.45630  -0.45425  -0.45223  -0.45064
 Alpha  occ. eigenvalues --   -0.44778  -0.44659  -0.44528  -0.44294  -0.44217
 Alpha  occ. eigenvalues --   -0.44072  -0.43828  -0.43727  -0.43263  -0.43019
 Alpha  occ. eigenvalues --   -0.42978  -0.42856  -0.42481  -0.42418  -0.42283
 Alpha  occ. eigenvalues --   -0.42185  -0.41774  -0.41578  -0.41445  -0.41234
 Alpha  occ. eigenvalues --   -0.41138  -0.41076  -0.40489  -0.40372  -0.40065
 Alpha  occ. eigenvalues --   -0.39842  -0.39767  -0.39523  -0.39364  -0.39144
 Alpha  occ. eigenvalues --   -0.38730  -0.38302  -0.38263  -0.38073  -0.37331
 Alpha  occ. eigenvalues --   -0.37200  -0.37060  -0.36825  -0.36462  -0.36210
 Alpha  occ. eigenvalues --   -0.36156  -0.36096  -0.35889  -0.35385  -0.35233
 Alpha  occ. eigenvalues --   -0.35224  -0.34892  -0.34838  -0.34072  -0.33262
 Alpha  occ. eigenvalues --   -0.33067  -0.32554  -0.31630  -0.30482  -0.30244
 Alpha  occ. eigenvalues --   -0.29173  -0.28864  -0.27995  -0.27381  -0.23500
 Alpha  occ. eigenvalues --   -0.21298
 Alpha virt. eigenvalues --   -0.06735  -0.02361   0.02242   0.03735   0.04317
 Alpha virt. eigenvalues --    0.04494   0.06108   0.06942   0.07422   0.07671
 Alpha virt. eigenvalues --    0.09330   0.10862   0.11073   0.11413   0.11679
 Alpha virt. eigenvalues --    0.12059   0.12254   0.12625   0.12799   0.13189
 Alpha virt. eigenvalues --    0.13658   0.13830   0.14000   0.14260   0.14426
 Alpha virt. eigenvalues --    0.15104   0.15304   0.15373   0.15583   0.15808
 Alpha virt. eigenvalues --    0.15872   0.16027   0.16249   0.16361   0.16610
 Alpha virt. eigenvalues --    0.16971   0.17033   0.17336   0.17690   0.17697
 Alpha virt. eigenvalues --    0.17855   0.18010   0.18076   0.18103   0.18253
 Alpha virt. eigenvalues --    0.18512   0.18717   0.18832   0.19056   0.19079
 Alpha virt. eigenvalues --    0.19326   0.19545   0.20062   0.20133   0.20388
 Alpha virt. eigenvalues --    0.20545   0.20753   0.20860   0.21076   0.21157
 Alpha virt. eigenvalues --    0.21385   0.21441   0.21626   0.21713   0.22031
 Alpha virt. eigenvalues --    0.22142   0.22159   0.22488   0.22670   0.22751
 Alpha virt. eigenvalues --    0.22847   0.22901   0.22969   0.23432   0.23733
 Alpha virt. eigenvalues --    0.23824   0.23980   0.24230   0.24569   0.24657
 Alpha virt. eigenvalues --    0.24679   0.25008   0.25145   0.25370   0.25624
 Alpha virt. eigenvalues --    0.25747   0.25994   0.26377   0.26451   0.26568
 Alpha virt. eigenvalues --    0.26628   0.26833   0.27175   0.27399   0.27444
 Alpha virt. eigenvalues --    0.27647   0.28280   0.28451   0.28570   0.28843
 Alpha virt. eigenvalues --    0.29116   0.29243   0.29723   0.29753   0.29857
 Alpha virt. eigenvalues --    0.30081   0.30102   0.30471   0.30603   0.30775
 Alpha virt. eigenvalues --    0.31213   0.31262   0.31424   0.31623   0.31923
 Alpha virt. eigenvalues --    0.31956   0.32418   0.32526   0.32915   0.33030
 Alpha virt. eigenvalues --    0.33589   0.33991   0.34348   0.34417   0.34770
 Alpha virt. eigenvalues --    0.35258   0.35331   0.35877   0.36123   0.36287
 Alpha virt. eigenvalues --    0.36679   0.37636   0.37679   0.38373   0.39115
 Alpha virt. eigenvalues --    0.39367   0.39712   0.40170   0.40400   0.41573
 Alpha virt. eigenvalues --    0.41683   0.42117   0.42612   0.42981   0.43221
 Alpha virt. eigenvalues --    0.44060   0.44481   0.45132   0.45865   0.46306
 Alpha virt. eigenvalues --    0.47150   0.47378   0.47838   0.48296   0.49728
 Alpha virt. eigenvalues --    0.50544   0.51070   0.51813   0.52106   0.52611
 Alpha virt. eigenvalues --    0.53030   0.53138   0.53519   0.53991   0.54126
 Alpha virt. eigenvalues --    0.54610   0.54655   0.55050   0.55330   0.55606
 Alpha virt. eigenvalues --    0.55760   0.56171   0.56399   0.56649   0.56689
 Alpha virt. eigenvalues --    0.56943   0.56998   0.57445   0.57602   0.58039
 Alpha virt. eigenvalues --    0.58352   0.58726   0.58845   0.59014   0.59324
 Alpha virt. eigenvalues --    0.59452   0.59767   0.59843   0.59885   0.59963
 Alpha virt. eigenvalues --    0.60403   0.60740   0.60850   0.61132   0.61346
 Alpha virt. eigenvalues --    0.61488   0.61633   0.61936   0.62282   0.62663
 Alpha virt. eigenvalues --    0.62743   0.62971   0.63359   0.63544   0.63917
 Alpha virt. eigenvalues --    0.64310   0.64800   0.64904   0.65169   0.65593
 Alpha virt. eigenvalues --    0.66061   0.66199   0.66375   0.66654   0.66802
 Alpha virt. eigenvalues --    0.67076   0.67412   0.67515   0.67583   0.68020
 Alpha virt. eigenvalues --    0.68091   0.68331   0.68674   0.68813   0.68940
 Alpha virt. eigenvalues --    0.69655   0.69973   0.70089   0.70255   0.70620
 Alpha virt. eigenvalues --    0.70715   0.71105   0.71305   0.71597   0.71915
 Alpha virt. eigenvalues --    0.72109   0.72240   0.72464   0.72553   0.73199
 Alpha virt. eigenvalues --    0.73401   0.73736   0.73752   0.74202   0.74459
 Alpha virt. eigenvalues --    0.74593   0.74758   0.75076   0.75202   0.75438
 Alpha virt. eigenvalues --    0.76201   0.76374   0.76643   0.76897   0.77024
 Alpha virt. eigenvalues --    0.77168   0.77521   0.77793   0.78265   0.78390
 Alpha virt. eigenvalues --    0.78577   0.78758   0.78964   0.79427   0.79829
 Alpha virt. eigenvalues --    0.80093   0.80273   0.80434   0.80560   0.80745
 Alpha virt. eigenvalues --    0.80996   0.81387   0.81575   0.82042   0.82257
 Alpha virt. eigenvalues --    0.82482   0.82955   0.83037   0.83157   0.83592
 Alpha virt. eigenvalues --    0.83771   0.84110   0.84285   0.84294   0.84575
 Alpha virt. eigenvalues --    0.84730   0.84902   0.85213   0.85266   0.85628
 Alpha virt. eigenvalues --    0.85828   0.85983   0.86507   0.86588   0.86646
 Alpha virt. eigenvalues --    0.86906   0.87326   0.87356   0.87491   0.87635
 Alpha virt. eigenvalues --    0.87882   0.88185   0.88365   0.88507   0.88611
 Alpha virt. eigenvalues --    0.89126   0.89391   0.89620   0.89688   0.90122
 Alpha virt. eigenvalues --    0.90172   0.90273   0.90543   0.90697   0.90841
 Alpha virt. eigenvalues --    0.91085   0.91366   0.91515   0.91554   0.91814
 Alpha virt. eigenvalues --    0.91948   0.92278   0.92325   0.92955   0.93072
 Alpha virt. eigenvalues --    0.93218   0.93264   0.93720   0.94067   0.94194
 Alpha virt. eigenvalues --    0.94401   0.94695   0.94935   0.95045   0.95197
 Alpha virt. eigenvalues --    0.95643   0.95724   0.96191   0.96429   0.96555
 Alpha virt. eigenvalues --    0.96880   0.96950   0.97091   0.97368   0.97610
 Alpha virt. eigenvalues --    0.97746   0.98069   0.98098   0.98263   0.98324
 Alpha virt. eigenvalues --    0.98804   0.98982   0.99048   0.99511   0.99584
 Alpha virt. eigenvalues --    0.99969   1.00232   1.00333   1.00666   1.01153
 Alpha virt. eigenvalues --    1.01194   1.01423   1.01569   1.01779   1.01984
 Alpha virt. eigenvalues --    1.02233   1.02387   1.02967   1.03020   1.03308
 Alpha virt. eigenvalues --    1.03684   1.03981   1.04166   1.04296   1.04607
 Alpha virt. eigenvalues --    1.04961   1.05173   1.05239   1.05431   1.05468
 Alpha virt. eigenvalues --    1.05556   1.05757   1.06007   1.06051   1.06397
 Alpha virt. eigenvalues --    1.06864   1.07046   1.07247   1.07387   1.08005
 Alpha virt. eigenvalues --    1.08350   1.08504   1.08548   1.09503   1.09588
 Alpha virt. eigenvalues --    1.09806   1.10407   1.10624   1.10994   1.11289
 Alpha virt. eigenvalues --    1.11330   1.12080   1.12485   1.12513   1.13058
 Alpha virt. eigenvalues --    1.13493   1.13669   1.14444   1.14749   1.15259
 Alpha virt. eigenvalues --    1.15586   1.17036   1.17132   1.17472   1.18389
 Alpha virt. eigenvalues --    1.18550   1.19041   1.19464   1.19814   1.20262
 Alpha virt. eigenvalues --    1.20889   1.21212   1.21933   1.22234   1.22644
 Alpha virt. eigenvalues --    1.23210   1.23791   1.24045   1.25231   1.25609
 Alpha virt. eigenvalues --    1.25787   1.26088   1.26319   1.27117   1.27688
 Alpha virt. eigenvalues --    1.27956   1.28354   1.29746   1.30133   1.30334
 Alpha virt. eigenvalues --    1.31044   1.31296   1.31876   1.32184   1.33324
 Alpha virt. eigenvalues --    1.34023   1.34612   1.34764   1.35204   1.35337
 Alpha virt. eigenvalues --    1.36015   1.36220   1.36511   1.37122   1.37248
 Alpha virt. eigenvalues --    1.37844   1.37962   1.39449   1.40222   1.40683
 Alpha virt. eigenvalues --    1.41585   1.41835   1.42138   1.42473   1.42681
 Alpha virt. eigenvalues --    1.43367   1.43777   1.44115   1.44306   1.44974
 Alpha virt. eigenvalues --    1.45752   1.46117   1.46835   1.47016   1.48958
 Alpha virt. eigenvalues --    1.49168   1.49843   1.50305   1.50834   1.51617
 Alpha virt. eigenvalues --    1.51826   1.52028   1.52487   1.52769   1.53568
 Alpha virt. eigenvalues --    1.53759   1.54094   1.54684   1.55430   1.56193
 Alpha virt. eigenvalues --    1.56522   1.56546   1.57252   1.57367   1.57484
 Alpha virt. eigenvalues --    1.57550   1.57833   1.57972   1.58842   1.58965
 Alpha virt. eigenvalues --    1.59447   1.59609   1.60649   1.61228   1.61454
 Alpha virt. eigenvalues --    1.61978   1.62329   1.62523   1.62871   1.63333
 Alpha virt. eigenvalues --    1.63440   1.63834   1.64478   1.64961   1.65449
 Alpha virt. eigenvalues --    1.65535   1.65626   1.65765   1.66272   1.66405
 Alpha virt. eigenvalues --    1.67063   1.67410   1.67851   1.68522   1.69012
 Alpha virt. eigenvalues --    1.69609   1.70583   1.70810   1.70932   1.71652
 Alpha virt. eigenvalues --    1.71948   1.72653   1.72864   1.73354   1.73950
 Alpha virt. eigenvalues --    1.74163   1.74301   1.75473   1.75643   1.76174
 Alpha virt. eigenvalues --    1.76880   1.77052   1.77253   1.77574   1.78234
 Alpha virt. eigenvalues --    1.78552   1.78687   1.79308   1.79963   1.80870
 Alpha virt. eigenvalues --    1.81113   1.81248   1.81801   1.82380   1.82985
 Alpha virt. eigenvalues --    1.83585   1.83790   1.83965   1.84367   1.84838
 Alpha virt. eigenvalues --    1.84875   1.84993   1.85356   1.85572   1.85880
 Alpha virt. eigenvalues --    1.86462   1.86745   1.87124   1.87239   1.87471
 Alpha virt. eigenvalues --    1.87530   1.87815   1.88277   1.88425   1.88588
 Alpha virt. eigenvalues --    1.88951   1.89209   1.89587   1.89770   1.89978
 Alpha virt. eigenvalues --    1.90302   1.91037   1.91293   1.91494   1.91557
 Alpha virt. eigenvalues --    1.91832   1.92023   1.92107   1.92381   1.92949
 Alpha virt. eigenvalues --    1.93223   1.93742   1.93776   1.93987   1.94454
 Alpha virt. eigenvalues --    1.94726   1.94830   1.94990   1.95674   1.95940
 Alpha virt. eigenvalues --    1.95994   1.96150   1.96265   1.96585   1.96945
 Alpha virt. eigenvalues --    1.97131   1.97371   1.97437   1.97751   1.97958
 Alpha virt. eigenvalues --    1.98429   1.98592   1.98752   1.99174   1.99311
 Alpha virt. eigenvalues --    1.99877   1.99913   2.00400   2.00623   2.00744
 Alpha virt. eigenvalues --    2.00989   2.01251   2.01674   2.01824   2.02060
 Alpha virt. eigenvalues --    2.02541   2.02629   2.03041   2.03389   2.03577
 Alpha virt. eigenvalues --    2.04212   2.04503   2.04549   2.04928   2.05367
 Alpha virt. eigenvalues --    2.05769   2.05905   2.06309   2.06477   2.06937
 Alpha virt. eigenvalues --    2.07284   2.07476   2.07753   2.07915   2.08304
 Alpha virt. eigenvalues --    2.08687   2.09005   2.09047   2.09393   2.09626
 Alpha virt. eigenvalues --    2.09888   2.10161   2.10368   2.10525   2.10987
 Alpha virt. eigenvalues --    2.11048   2.11311   2.11531   2.11845   2.12003
 Alpha virt. eigenvalues --    2.12476   2.12985   2.13265   2.13541   2.13952
 Alpha virt. eigenvalues --    2.14041   2.14442   2.14521   2.14634   2.15125
 Alpha virt. eigenvalues --    2.15342   2.15496   2.15751   2.16199   2.16422
 Alpha virt. eigenvalues --    2.16799   2.16884   2.17198   2.17866   2.18415
 Alpha virt. eigenvalues --    2.18522   2.18795   2.19074   2.19283   2.20138
 Alpha virt. eigenvalues --    2.20415   2.21093   2.21543   2.22054   2.22181
 Alpha virt. eigenvalues --    2.22430   2.22530   2.22890   2.22981   2.23026
 Alpha virt. eigenvalues --    2.23629   2.23861   2.24337   2.24476   2.24571
 Alpha virt. eigenvalues --    2.24750   2.25211   2.25728   2.26269   2.26393
 Alpha virt. eigenvalues --    2.26605   2.26971   2.27499   2.27642   2.28003
 Alpha virt. eigenvalues --    2.28238   2.28393   2.28769   2.29477   2.30160
 Alpha virt. eigenvalues --    2.30629   2.30892   2.31285   2.31339   2.32027
 Alpha virt. eigenvalues --    2.32345   2.32582   2.32873   2.32909   2.33909
 Alpha virt. eigenvalues --    2.33972   2.34419   2.34548   2.34761   2.35038
 Alpha virt. eigenvalues --    2.35335   2.36042   2.36114   2.36704   2.36947
 Alpha virt. eigenvalues --    2.37060   2.37146   2.37640   2.37778   2.38063
 Alpha virt. eigenvalues --    2.38689   2.38721   2.38989   2.39395   2.39565
 Alpha virt. eigenvalues --    2.40026   2.40590   2.41071   2.41330   2.41656
 Alpha virt. eigenvalues --    2.41926   2.41967   2.42220   2.42754   2.43328
 Alpha virt. eigenvalues --    2.43489   2.43668   2.44723   2.45032   2.45288
 Alpha virt. eigenvalues --    2.45566   2.45726   2.46533   2.46781   2.47020
 Alpha virt. eigenvalues --    2.47212   2.47326   2.48001   2.48272   2.48951
 Alpha virt. eigenvalues --    2.49139   2.49529   2.49770   2.50256   2.50488
 Alpha virt. eigenvalues --    2.50711   2.50857   2.51226   2.51429   2.51779
 Alpha virt. eigenvalues --    2.51880   2.52587   2.53009   2.53402   2.53519
 Alpha virt. eigenvalues --    2.53661   2.53821   2.54467   2.54987   2.55160
 Alpha virt. eigenvalues --    2.55202   2.55334   2.55944   2.56113   2.56853
 Alpha virt. eigenvalues --    2.57364   2.58069   2.58389   2.58810   2.59347
 Alpha virt. eigenvalues --    2.59686   2.60092   2.60205   2.60567   2.60978
 Alpha virt. eigenvalues --    2.61227   2.61761   2.62259   2.62492   2.62661
 Alpha virt. eigenvalues --    2.62955   2.63326   2.63658   2.64176   2.64931
 Alpha virt. eigenvalues --    2.65214   2.65266   2.65577   2.65767   2.66505
 Alpha virt. eigenvalues --    2.66692   2.66970   2.67035   2.67672   2.67846
 Alpha virt. eigenvalues --    2.68234   2.68699   2.69071   2.69372   2.69514
 Alpha virt. eigenvalues --    2.69881   2.70134   2.70284   2.70671   2.71204
 Alpha virt. eigenvalues --    2.71333   2.71534   2.71659   2.72087   2.72224
 Alpha virt. eigenvalues --    2.72804   2.73251   2.73552   2.73724   2.74076
 Alpha virt. eigenvalues --    2.74564   2.74821   2.74955   2.75367   2.75506
 Alpha virt. eigenvalues --    2.75644   2.76430   2.76838   2.77027   2.77079
 Alpha virt. eigenvalues --    2.77460   2.77686   2.78272   2.78878   2.78946
 Alpha virt. eigenvalues --    2.79376   2.80025   2.80243   2.80665   2.80851
 Alpha virt. eigenvalues --    2.81159   2.82027   2.82234   2.82392   2.82668
 Alpha virt. eigenvalues --    2.82921   2.83406   2.83565   2.83964   2.84014
 Alpha virt. eigenvalues --    2.84667   2.84912   2.85184   2.85593   2.86183
 Alpha virt. eigenvalues --    2.86511   2.87722   2.87921   2.88280   2.88768
 Alpha virt. eigenvalues --    2.88834   2.89196   2.89413   2.89605   2.89665
 Alpha virt. eigenvalues --    2.90528   2.91065   2.91303   2.91510   2.92220
 Alpha virt. eigenvalues --    2.92445   2.92933   2.93051   2.93178   2.93334
 Alpha virt. eigenvalues --    2.94036   2.94164   2.94308   2.94315   2.95458
 Alpha virt. eigenvalues --    2.96098   2.96427   2.96601   2.97062   2.97099
 Alpha virt. eigenvalues --    2.97435   2.97994   2.98216   2.98748   2.99259
 Alpha virt. eigenvalues --    2.99352   3.00251   3.00278   3.00406   3.01002
 Alpha virt. eigenvalues --    3.01862   3.02188   3.02551   3.02809   3.02885
 Alpha virt. eigenvalues --    3.03779   3.04127   3.04557   3.04946   3.05770
 Alpha virt. eigenvalues --    3.06127   3.06367   3.06756   3.07446   3.07952
 Alpha virt. eigenvalues --    3.08521   3.08734   3.09106   3.09896   3.09960
 Alpha virt. eigenvalues --    3.10846   3.11556   3.12221   3.12456   3.13317
 Alpha virt. eigenvalues --    3.13675   3.15404   3.15964   3.17189   3.17357
 Alpha virt. eigenvalues --    3.18046   3.18429   3.19280   3.20743   3.20942
 Alpha virt. eigenvalues --    3.21164   3.21502   3.21905   3.23169   3.23349
 Alpha virt. eigenvalues --    3.24800   3.24837   3.25953   3.25977   3.27442
 Alpha virt. eigenvalues --    3.27977   3.28216   3.29681   3.29975   3.30026
 Alpha virt. eigenvalues --    3.31303   3.31371   3.31510   3.31963   3.32149
 Alpha virt. eigenvalues --    3.34073   3.35145   3.35890   3.36304   3.36566
 Alpha virt. eigenvalues --    3.37317   3.37907   3.39500   3.40237   3.41143
 Alpha virt. eigenvalues --    3.41569   3.42551   3.42716   3.43254   3.43352
 Alpha virt. eigenvalues --    3.43923   3.45267   3.46043   3.46709   3.48685
 Alpha virt. eigenvalues --    3.48840   3.49833   3.50460   3.51144   3.52413
 Alpha virt. eigenvalues --    3.52833   3.52885   3.53773   3.54014   3.54031
 Alpha virt. eigenvalues --    3.54804   3.55646   3.56024   3.57809   3.58093
 Alpha virt. eigenvalues --    3.58126   3.59380   3.61022   3.61148   3.61565
 Alpha virt. eigenvalues --    3.62349   3.63630   3.64815   3.64862   3.66226
 Alpha virt. eigenvalues --    3.70071   3.71644   3.71867   3.73140   3.74630
 Alpha virt. eigenvalues --    3.74929   3.76520   3.78097   3.78923   3.83461
 Alpha virt. eigenvalues --    3.90531   3.97887   4.00466   4.09591   4.09738
 Alpha virt. eigenvalues --    4.10364   4.17372   4.18274   4.21752   4.23350
 Alpha virt. eigenvalues --    4.23690   4.24413   4.27016   4.28080   4.29302
 Alpha virt. eigenvalues --    4.29726   4.29837   4.31303   4.31983   4.34435
 Alpha virt. eigenvalues --    4.34795   4.36264   4.36835   4.37808   4.40009
 Alpha virt. eigenvalues --    4.41489   4.41921   4.43994   4.44748   4.46168
 Alpha virt. eigenvalues --    4.47404   4.48577   4.49762   4.50032   4.51284
 Alpha virt. eigenvalues --    4.52533   4.53373   4.54831   4.55478   4.57285
 Alpha virt. eigenvalues --    4.58395   4.58541   4.59064   4.59583   4.60211
 Alpha virt. eigenvalues --    4.61053   4.61615   4.64867   4.64917   4.68741
 Alpha virt. eigenvalues --    4.69643   4.70399   4.71690   4.71966   4.72370
 Alpha virt. eigenvalues --    4.75025   4.75195   4.76123   4.78079   4.81887
 Alpha virt. eigenvalues --    4.84843   4.85584   4.87051   4.88599   4.88814
 Alpha virt. eigenvalues --    4.90782   4.99750   5.07344
          Condensed to atoms (all electrons):
 Mulliken charges:
               1
     1  Mg   0.814642
     2  C    0.064060
     3  C   -0.158242
     4  C   -0.189656
     5  C   -0.160910
     6  N   -0.641402
     7  C    0.231540
     8  C   -0.123530
     9  C   -0.181935
    10  C    0.381040
    11  C   -0.337845
    12  C   -0.170307
    13  C   -0.270953
    14  C    0.596274
    15  O   -0.525936
    16  O   -0.452665
    17  N   -0.755301
    18  C    0.401518
    19  C   -0.025360
    20  C    0.031379
    21  C    0.290057
    22  C   -0.374961
    23  C   -0.043204
    24  C   -0.226525
    25  N   -0.681309
    26  C    0.293792
    27  C   -0.007778
    28  C    0.028167
    29  C    0.301653
    30  C   -0.352365
    31  C   -0.247938
    32  C   -0.292590
    33  N   -0.711382
    34  C    0.272646
    35  C   -0.038927
    36  C    0.113489
    37  C    0.275200
    38  C   -0.349361
    39  C    0.278759
    40  O   -0.465558
    41  C   -0.293816
    42  C    0.637140
    43  O   -0.506604
    44  O   -0.428018
    45  C   -0.081251
    46  C    0.004243
    47  C   -0.123503
    48  C    0.128831
    49  C   -0.342617
    50  C   -0.211592
    51  C   -0.190549
    52  C   -0.152400
    53  C   -0.070738
    54  C   -0.265692
    55  C   -0.162388
    56  C   -0.160514
    57  C   -0.157213
    58  C   -0.068493
    59  C   -0.303120
    60  C   -0.148019
    61  C   -0.183115
    62  C   -0.152698
    63  C   -0.071273
    64  C   -0.302010
    65  C   -0.288674
    66  H    0.050537
    67  H    0.077076
    68  H    0.077257
    69  H    0.154684
    70  H    0.110916
    71  H    0.114981
    72  H    0.110346
    73  H    0.117543
    74  H    0.139182
    75  H    0.107425
    76  H    0.129328
    77  H    0.121454
    78  H    0.138863
    79  H    0.118994
    80  H    0.096563
    81  H    0.074876
    82  H    0.101712
    83  H    0.088683
    84  H    0.110414
    85  H    0.125175
    86  H    0.131853
    87  H    0.102043
    88  H    0.106094
    89  H    0.102248
    90  H    0.096538
    91  H    0.121854
    92  H    0.084750
    93  H    0.148821
    94  H    0.135711
    95  H    0.157946
    96  H    0.107879
    97  H    0.135841
    98  H    0.122729
    99  H    0.140916
   100  H    0.145205
   101  H    0.100939
   102  H    0.107709
   103  H    0.112702
   104  H    0.094559
   105  H    0.100222
   106  H    0.106450
   107  H    0.078235
   108  H    0.083589
   109  H    0.094655
   110  H    0.073200
   111  H    0.087802
   112  H    0.082342
   113  H    0.114198
   114  H    0.088678
   115  H    0.052329
   116  H    0.087238
   117  H    0.094072
   118  H    0.066043
   119  H    0.091063
   120  H    0.079251
   121  H    0.061535
   122  H    0.075257
   123  H    0.095274
   124  H    0.121179
   125  H    0.090298
   126  H    0.088248
   127  H    0.041272
   128  H    0.093270
   129  H    0.099153
   130  H    0.075418
   131  H    0.063619
   132  H    0.089875
   133  H    0.100991
   134  H    0.106359
   135  H    0.111531
   136  H    0.071262
   137  H    0.119555
 Sum of Mulliken charges =   0.00000
 Mulliken charges with hydrogens summed into heavy atoms:
               1
     1  Mg   0.814642
     2  C    0.064060
     3  C   -0.107705
     4  C   -0.112580
     5  C   -0.083653
     6  N   -0.641402
     7  C    0.231540
     8  C    0.031153
     9  C   -0.071019
    10  C    0.381040
    11  C    0.005025
    12  C    0.076300
    13  C   -0.020171
    14  C    0.596274
    15  O   -0.525936
    16  O   -0.452665
    17  N   -0.755301
    18  C    0.401518
    19  C   -0.025360
    20  C    0.031379
    21  C    0.290057
    22  C   -0.020541
    23  C    0.031671
    24  C   -0.036130
    25  N   -0.681309
    26  C    0.293792
    27  C   -0.007778
    28  C    0.028167
    29  C    0.301653
    30  C    0.015078
    31  C   -0.039801
    32  C    0.028050
    33  N   -0.711382
    34  C    0.272646
    35  C   -0.038927
    36  C    0.113489
    37  C    0.275200
    38  C    0.019920
    39  C    0.278759
    40  O   -0.465558
    41  C   -0.135870
    42  C    0.637140
    43  O   -0.506604
    44  O   -0.428018
    45  C    0.285198
    46  C    0.290364
    47  C   -0.022565
    48  C    0.128831
    49  C   -0.027646
    50  C   -0.004919
    51  C   -0.028725
    52  C    0.015455
    53  C    0.017063
    54  C    0.019525
    55  C   -0.022820
    56  C   -0.000400
    57  C    0.013101
    58  C   -0.006958
    59  C   -0.011410
    60  C    0.030528
    61  C   -0.048573
    62  C    0.021873
    63  C   -0.007654
    64  C   -0.004784
    65  C    0.013673
 Electronic spatial extent (au):  <R**2>=         180185.3243
 Charge=              0.0000 electrons
 Dipole moment (field-independent basis, Debye):
    X=              2.4431    Y=              6.0107    Z=             -0.1197  Tot=              6.4894
 Quadrupole moment (field-independent basis, Debye-Ang):
   XX=           -335.6324   YY=           -391.6140   ZZ=           -399.4165
   XY=            -26.3970   XZ=             16.1107   YZ=             -1.4442
 Traceless Quadrupole moment (field-independent basis, Debye-Ang):
   XX=             39.9219   YY=            -16.0597   ZZ=            -23.8622
   XY=            -26.3970   XZ=             16.1107   YZ=             -1.4442
 Octapole moment (field-independent basis, Debye-Ang**2):
  XXX=           -789.6055  YYY=            177.2574  ZZZ=             13.2099  XYY=            -30.7037
  XXY=            240.1580  XXZ=           -237.2498  XZZ=            -24.4171  YZZ=            -24.2173
  YYZ=             52.5295  XYZ=            -20.0576
 Hexadecapole moment (field-independent basis, Debye-Ang**3):
 XXXX=        -219846.2604 YYYY=         -17083.9143 ZZZZ=          -4419.4732 XXXY=            818.2373
 XXXZ=           2250.0582 YYYX=          -1411.1100 YYYZ=           -209.7798 ZZZX=             64.4580
 ZZZY=           -110.8606 XXYY=         -39902.1657 XXZZ=         -39526.1234 YYZZ=          -3490.4684
 XXYZ=            199.8251 YYXZ=             27.1047 ZZXY=            -44.7257
 N-N= 8.751421375771D+03 E-N=-2.432695276090D+04  KE= 2.907152266372D+03
 1\1\GINC-PEDRO-RYZENSSD\SP\RCAM-B3LYP TD-FC\6-31G(d,p)\C55H72Mg1N4O5\P
 ADAWAN\05-Jul-2019\0\\# td=(NStates=1) CAM-B3LYP/6-31G(d,p)\\TD\\0,1\M
 g,0,-7.1614567187,0.5816869168,0.0368113685\C,0,-4.7783524532,-1.96661
 78402,0.5177083035\C,0,-4.8820281317,2.787037151,1.3775141163\C,0,-9.3
 436791034,3.097705266,-0.5721500747\C,0,-9.5368640001,-1.7540609171,-0
 .8413905682\N,0,-5.1611395386,0.4208219003,0.7872091392\C,0,-4.3471044
 165,-0.7482946515,0.7845664798\C,0,-2.972216227,-0.3980392296,1.255215
 8758\C,0,-3.0518086193,0.9616788362,1.622552986\C,0,-4.4566926642,1.42
 52332721,1.2720542353\C,0,-2.941109193,1.2936916573,3.191520561\C,0,-1
 .8777512361,-0.6433595974,0.1628402423\C,0,-0.4822556482,-0.3233466819
 ,0.6548496143\C,0,0.5185129885,-0.5801815311,-0.4620515857\O,0,0.21852
 30924,-1.0399994075,-1.5770240341\O,0,1.7213839489,-0.2800353999,-0.22
 32191108\N,0,-7.0816686148,2.5819437842,0.3340621017\C,0,-6.0927085499
 ,3.2358945653,0.90456399\C,0,-6.4340106542,4.6501193013,0.9195226395\C
 ,0,-7.6881615232,4.8249331248,0.3334017315\C,0,-8.1335476264,3.4940385
 992,-0.0013175855\C,0,-5.547012658,5.8210145674,1.2439091514\C,0,-8.49
 56973673,6.0450155353,0.1104780332\C,0,-8.3774316345,7.2399701156,0.75
 9252175\N,0,-9.0943617088,0.5896818293,-0.5386378975\C,0,-9.8163478945
 ,1.8034002931,-0.8035166758\C,0,-11.2360026969,1.4854968888,-1.2174034
 598\C,0,-11.3128636903,0.0756629304,-1.1935980738\C,0,-10.0049761783,-
 0.4314251168,-0.8822232384\C,0,-12.3191207358,2.494420013,-1.488225597
 4\C,0,-12.4083053768,-0.7673141415,-1.8133621447\C,0,-12.3546529537,-0
 .8739898102,-3.2833934579\N,0,-7.2567751458,-1.4537349871,-0.132047881
 8\C,0,-8.2699272325,-2.342269399,-0.5496499202\C,0,-7.773733519,-3.612
 3595035,-0.5748447618\C,0,-6.4238762717,-3.6510694439,-0.1415458865\C,
 0,-6.1956721636,-2.2070089822,0.0404368479\C,0,-8.6214996174,-4.822835
 1259,-0.871205599\C,0,-5.3067751478,-4.3625601395,0.1379366663\O,0,-5.
 1786367016,-5.5544199254,0.156162647\C,0,-4.1109946789,-3.366252415,0.
 6168015455\C,0,-3.5125018811,-3.5475299743,1.9189022631\O,0,-4.0103426
 349,-3.11413815,2.9873614172\O,0,-2.5631375075,-4.4864533677,1.8735759
 385\C,0,-2.1748480727,-5.1093051596,3.0287278083\C,0,2.7556580775,-0.6
 904268373,-1.243685569\C,0,4.077529842,-0.4443126076,-0.5880389529\C,0
 ,5.0798114655,0.296135879,-1.0992096937\C,0,5.0010985329,1.3167243217,
 -2.1854827136\C,0,6.4096352963,0.3830201522,-0.2538218674\C,0,7.634020
 94,-0.2304433912,-0.9970566562\C,0,8.9775396266,-0.2023253629,-0.32388
 42012\C,0,10.2341340379,-0.7000170734,-1.0770186724\C,0,10.1707537756,
 -2.1459955357,-1.4164451095\C,0,11.4205849354,-0.378071588,-0.05855498
 69\C,0,12.7669916069,-0.5224762987,-0.6665766806\C,0,13.9796574341,0.0
 004088381,0.2469217597\C,0,15.4112572506,-0.2656602951,-0.3626645063\C
 ,0,15.7159932682,-1.7881264464,-0.6042700447\C,0,16.4416082667,0.50205
 45655,0.4223867459\C,0,17.7657211615,0.5630377022,-0.0874045551\C,0,18
 .8000803775,1.319780195,0.6481652495\C,0,20.3073094001,1.3733276663,0.
 1204768109\C,0,20.4553068845,2.2790762048,-1.1628472774\C,0,21.1549064
 214,2.0252854648,1.2360489683\H,0,-4.2111225968,3.4287583972,1.6477693
 638\H,0,-10.0987502677,3.788609696,-0.6320085924\H,0,-10.1457978692,-2
 .5481941602,-0.9810847607\H,0,-3.0613025872,-0.8559639103,2.1955402452
 \H,0,-2.2000436096,1.605554138,1.3085215026\H,0,-2.0120056581,1.066997
 1526,3.5796116747\H,0,-3.1411391739,2.3698810456,3.3851106765\H,0,-3.7
 248459273,0.754370121,3.8350959224\H,0,-1.7138638713,-1.5797879392,-0.
 3010540146\H,0,-2.0481164841,0.0409513455,-0.8005300926\H,0,-0.3330868
 261,0.6080154154,1.1342038195\H,0,-0.2897367757,-1.1282373389,1.496763
 6316\H,0,-5.7161103864,6.703889033,0.7099467039\H,0,-5.8065876482,6.18
 53719003,2.2829345906\H,0,-4.4012840844,5.4689580622,1.2380369793\H,0,
 -9.234155468,6.02531868,-0.478748103\H,0,-8.8283540513,8.0387646154,0.
 4963192537\H,0,-7.626072073,7.3548818877,1.6287912646\H,0,-12.07031113
 62,3.1730576318,-2.4500580105\H,0,-13.2003297022,1.8964435356,-1.72920
 41119\H,0,-12.2274444755,3.045423197,-0.5042616702\H,0,-12.6750922876,
 -1.7387733224,-1.3354885038\H,0,-13.3335320721,-0.3844751843,-1.569702
 4977\H,0,-13.2702833809,-1.3231570019,-3.6687567602\H,0,-12.242277792,
 0.0954750099,-3.8883723329\H,0,-11.4968559649,-1.4116160287,-3.4808267
 027\H,0,-8.9281324162,-4.7596767106,-2.0965429184\H,0,-7.9103103958,-5
 .5977197762,-0.8493845515\H,0,-9.3448643713,-4.9286378851,-0.232375060
 1\H,0,-3.4634070366,-3.4512983805,-0.3616114326\H,0,-1.5758157481,-4.2
 978162213,3.5196948848\H,0,-2.9690865173,-5.4303046481,3.6516380027\H,
 0,-1.6109292044,-6.0307923524,2.8578597389\H,0,2.6548047846,-1.8340352
 394,-1.3469586609\H,0,2.3995474323,-0.0649522156,-2.0243855908\H,0,4.3
 202829339,-1.060268242,0.2442176378\H,0,3.9810570692,1.169835694,-2.69
 56579355\H,0,5.2405494666,2.502950554,-1.9264291111\H,0,6.0081681244,1
 .1195330608,-2.9199007211\H,0,6.5835504179,1.4456085609,-0.1309004472\
 H,0,6.4509692163,-0.1162696644,0.635173234\H,0,7.2214095257,-1.2814873
 839,-1.3132526489\H,0,7.7213145674,0.1869419023,-1.9937322968\H,0,9.26
 56086125,0.7717950645,-0.0695993277\H,0,8.9202005088,-0.8166971759,0.6
 323911028\H,0,10.3318207335,0.0602885666,-1.8940542949\H,0,9.289003885
 9,-2.3873967162,-2.1785137762\H,0,10.9114336991,-2.3941762015,-1.88156
 24001\H,0,9.9788007661,-2.7568576278,-0.4177812178\H,0,11.3508727682,0
 .854237654,0.1536668542\H,0,11.3004731007,-0.7635923205,1.0519958212\H
 ,0,13.0253358525,-1.601748336,-0.9006177294\H,0,12.807554508,0.2660272
 937,-1.6440277641\H,0,13.9313745742,0.8878213381,0.5482721702\H,0,14.0
 828210352,-0.6711167164,1.1591824347\H,0,15.5001233008,0.2637058556,-1
 .3918635444\H,0,15.8608135243,-2.3199322853,0.4582143675\H,0,14.852718
 3225,-2.3873611117,-1.1006874838\H,0,16.5721668461,-1.8953450594,-1.08
 90703765\H,0,16.0441896197,1.4579736311,0.6572222665\H,0,16.5592703742
 ,-0.0841875939,1.3355663178\H,0,18.117822721,-0.5708136288,-0.50248358
 88\H,0,17.8068877533,0.9644237613,-1.0541689927\H,0,18.3416349561,2.26
 17203297,0.5833363389\H,0,18.9036175221,0.8264668277,1.6854885492\H,0,
 20.6547903917,0.2525113993,-0.3032332593\H,0,19.9538994965,3.290652627
 2,-1.0146950629\H,0,21.5410583579,2.4058172345,-1.2613775011\H,0,20.03
 48073851,1.698651676,-1.9527122402\H,0,21.0041363888,1.3215502641,1.96
 84064578\H,0,22.3244641527,2.1292241521,0.8934343097\H,0,20.8784975797
 ,2.9495250358,1.5210925498\\Version=ES64L-G09RevD.01\State=1-A\HF=-293
 2.6022721\RMSD=7.995e-09\PG=C01 [X(C55H72Mg1N4O5)]\\@


 A MUSTACHE HAIR ACROSS A CHIP IS LIKE A REDWOOD
 TREE FALLING THROUGH A HOUSING PROJECT.
 - AN IBM MANAGER IN EAST FISHKILL, NEW YORK
   AS QUOTED IN "FROM SANDS TO CIRCUITS", IBM INNOVATION JANUARY 1985.
 Job cpu time:       0 days  6 hours 10 minutes  2.8 seconds.
 File lengths (MBytes):  RWF=   2106 Int=      0 D2E=      0 Chk=    163 Scr=      1
 Normal termination of Gaussian 09 at Fri Jul  5 23:45:04 2019.
