 Entering Gaussian System, Link 0=g16
 Input=Geometria-145-.com
 Output=Geometria-145-.log
 Initial command:
 /usr/local/g16/l1.exe "/home/padawan/israel-mol/chlorophyll-a/spectra/emi/Gau-29797.inp" -scrdir="/home/padawan/israel-mol/chlorophyll-a/spectra/emi/"
 Entering Link 1 = /usr/local/g16/l1.exe PID=     29799.
  
 Copyright (c) 1988,1990,1992,1993,1995,1998,2003,2009,2016,
            Gaussian, Inc.  All Rights Reserved.
  
 This is part of the Gaussian(R) 16 program.  It is based on
 the Gaussian(R) 09 system (copyright 2009, Gaussian, Inc.),
 the Gaussian(R) 03 system (copyright 2003, Gaussian, Inc.),
 the Gaussian(R) 98 system (copyright 1998, Gaussian, Inc.),
 the Gaussian(R) 94 system (copyright 1995, Gaussian, Inc.),
 the Gaussian 92(TM) system (copyright 1992, Gaussian, Inc.),
 the Gaussian 90(TM) system (copyright 1990, Gaussian, Inc.),
 the Gaussian 88(TM) system (copyright 1988, Gaussian, Inc.),
 the Gaussian 86(TM) system (copyright 1986, Carnegie Mellon
 University), and the Gaussian 82(TM) system (copyright 1983,
 Carnegie Mellon University). Gaussian is a federally registered
 trademark of Gaussian, Inc.
  
 This software contains proprietary and confidential information,
 including trade secrets, belonging to Gaussian, Inc.
  
 This software is provided under written license and may be
 used, copied, transmitted, or stored only in accord with that
 written license.
  
 The following legend is applicable only to US Government
 contracts under FAR:
  
                    RESTRICTED RIGHTS LEGEND
  
 Use, reproduction and disclosure by the US Government is
 subject to restrictions as set forth in subparagraphs (a)
 and (c) of the Commercial Computer Software - Restricted
 Rights clause in FAR 52.227-19.
  
 Gaussian, Inc.
 340 Quinnipiac St., Bldg. 40, Wallingford CT 06492
  
  
 ---------------------------------------------------------------
 Warning -- This program may not be used in any manner that
 competes with the business of Gaussian, Inc. or will provide
 assistance to any competitor of Gaussian, Inc.  The licensee
 of this program is prohibited from giving any competitor of
 Gaussian, Inc. access to this program.  By using this program,
 the user acknowledges that Gaussian, Inc. is engaged in the
 business of creating and licensing software in the field of
 computational chemistry and represents and warrants to the
 licensee that it is not a competitor of Gaussian, Inc. and that
 it will not use this program in any manner prohibited above.
 ---------------------------------------------------------------
  

 Cite this work as:
 Gaussian 16, Revision A.03,
 M. J. Frisch, G. W. Trucks, H. B. Schlegel, G. E. Scuseria, 
 M. A. Robb, J. R. Cheeseman, G. Scalmani, V. Barone, 
 G. A. Petersson, H. Nakatsuji, X. Li, M. Caricato, A. V. Marenich, 
 J. Bloino, B. G. Janesko, R. Gomperts, B. Mennucci, H. P. Hratchian, 
 J. V. Ortiz, A. F. Izmaylov, J. L. Sonnenberg, D. Williams-Young, 
 F. Ding, F. Lipparini, F. Egidi, J. Goings, B. Peng, A. Petrone, 
 T. Henderson, D. Ranasinghe, V. G. Zakrzewski, J. Gao, N. Rega, 
 G. Zheng, W. Liang, M. Hada, M. Ehara, K. Toyota, R. Fukuda, 
 J. Hasegawa, M. Ishida, T. Nakajima, Y. Honda, O. Kitao, H. Nakai, 
 T. Vreven, K. Throssell, J. A. Montgomery, Jr., J. E. Peralta, 
 F. Ogliaro, M. J. Bearpark, J. J. Heyd, E. N. Brothers, K. N. Kudin, 
 V. N. Staroverov, T. A. Keith, R. Kobayashi, J. Normand, 
 K. Raghavachari, A. P. Rendell, J. C. Burant, S. S. Iyengar, 
 J. Tomasi, M. Cossi, J. M. Millam, M. Klene, C. Adamo, R. Cammi, 
 J. W. Ochterski, R. L. Martin, K. Morokuma, O. Farkas, 
 J. B. Foresman, and D. J. Fox, Gaussian, Inc., Wallingford CT, 2016.
 
 ******************************************
 Gaussian 16:  ES64L-G16RevA.03 25-Dec-2016
                27-Jun-2019 
 ******************************************
 %nproc=4
 Will use up to    4 processors via shared memory.
 %Mem=2GB
 -------------------------------------
 # td=(NStates=1) CAM-B3LYP/6-31G(d,p)
 -------------------------------------
 1/38=1,172=1/1;
 2/12=2,17=6,18=5,40=1/2;
 3/5=1,6=6,7=101,11=9,25=1,30=1,74=-40/1,2,3,8;
 4//1;
 5/5=2,38=5/2;
 8/6=1,10=2,108=1/1;
 9/41=1,42=1,70=2/14;
 6/7=2,8=2,9=2,10=2/1;
 99/5=1,9=1/99;
 --
 TD
 --
 Symbolic Z-matrix:
 Charge =  0 Multiplicity = 1
 12                   -7.17219   0.62656   0.12568 
 6                    -4.8263   -1.91336   0.39932 
 6                    -4.77762   2.7613    1.03357 
 6                    -9.47979   3.05031  -0.35651 
 6                    -9.54847  -1.7664   -0.95462 
 7                    -5.13542   0.38348   0.76765 
 6                    -4.37627  -0.72967   0.83318 
 6                    -2.9679   -0.39975   1.27042 
 6                    -3.03676   1.02279   1.75294 
 6                    -4.40038   1.51583   1.11257 
 6                    -2.86293   1.27006   3.30303 
 6                    -1.86867  -0.61135   0.10996 
 6                    -0.44518  -0.26489   0.56711 
 6                     0.62626  -0.53582  -0.53279 
 8                     0.28709  -0.73153  -1.71798 
 8                     1.8394   -0.40355  -0.08046 
 7                    -7.144     2.59035   0.25802 
 6                    -6.09895   3.23827   0.73071 
 6                    -6.39183   4.63395   0.72809 
 6                    -7.61513   4.74505   0.25241 
 6                    -8.13994   3.37934   0.0963 
 6                    -5.59009   5.80901   1.05772 
 6                    -8.52541   5.92176   0.09652 
 6                    -8.4505    7.18371   0.68064 
 7                    -9.21475   0.62937  -0.53515 
 6                    -9.95053   1.78278  -0.64597 
 6                    -11.26906   1.44861  -1.31093 
 6                    -11.25115   0.09976  -1.40342 
 6                    -9.98025  -0.44285  -0.99032 
 6                    -12.35854   2.42616  -1.41961 
 6                    -12.35581  -0.72165  -1.84768 
 6                    -12.22523  -1.01512  -3.35767 
 7                    -7.28662  -1.4252   -0.01091 
 6                    -8.29962  -2.2979   -0.48756 
 6                    -7.84449  -3.6838   -0.3832 
 6                    -6.51608  -3.57538   0.07523 
 6                    -6.19514  -2.24648   0.17714 
 6                    -8.71148  -4.91297  -0.73673 
 6                    -5.25932  -4.39941   0.29242 
 8                    -5.15474  -5.58154   0.36899 
 6                    -4.18105  -3.2908    0.53921 
 6                    -3.5684   -3.72263   1.89297 
 8                    -3.82681  -3.22153   2.96493 
 8                    -2.6312   -4.71813   1.76605 
 6                    -2.1783   -5.18562   2.9765 
 6                     2.79974  -0.47834  -1.12974 
 6                     4.11125  -0.36475  -0.42138 
 6                     5.01825   0.52487  -0.87386 
 6                     5.01595   1.29479  -2.11208 
 6                     6.34015   0.55605  -0.07791 
 6                     7.59061   0.14974  -0.89351 
 6                     8.89792   0.0528   -0.10924 
 6                     10.21729  -0.43928  -0.90998 
 6                     10.15528  -1.93198  -1.28541 
 6                     11.4835  -0.26406   0.00784 
 6                     12.86245  -0.37047  -0.7419 
 6                     14.066   -0.08207   0.13239 
 6                     15.33135  -0.15132  -0.77232 
 6                     15.66058  -1.56538  -1.08141 
 6                     16.44029   0.31631   0.31121 
 6                     17.82902   0.35535  -0.36637 
 6                     18.7317   1.09421   0.569 
 6                     20.21228   1.13211   0.28737 
 6                     20.54797   2.03191  -0.97392 
 6                     21.09364   1.65094   1.49232 
 1                    -4.3224    3.55101   1.41223 
 1                    -10.1198   3.8844   -0.61225 
 1                    -10.38256  -2.45471  -1.46147 
 1                    -2.53306  -1.0484    2.06611 
 1                    -2.15092   1.4443    1.17962 
 1                    -2.02848   1.00345   3.45645 
 1                    -2.8763    2.44531   3.60774 
 1                    -3.672     0.61578   3.80339 
 1                    -2.05339  -1.72848  -0.23076 
 1                    -2.14889   0.19238  -0.69776 
 1                    -0.13174   0.69921   0.87638 
 1                    -0.16413  -1.02401   1.34445 
 1                    -5.98352   6.68653   0.69713 
 1                    -5.29408   5.96488   2.04943 
 1                    -4.56007   5.56337   0.56094 
 1                    -9.09357   5.75004  -0.78354 
 1                    -9.20299   8.06756   0.39015 
 1                    -7.71739   7.38378   1.425 
 1                    -11.83516   3.09404  -2.21753 
 1                    -13.26819   1.90611  -1.90723 
 1                    -12.47675   2.76906  -0.44666 
 1                    -12.75131  -1.82872  -1.66324 
 1                    -13.22748  -0.18363  -1.89485 
 1                    -12.97483  -1.43182  -3.76327 
 1                    -12.15796   0.01867  -3.83064 
 1                    -11.17009  -1.56295  -3.4759 
 1                    -9.05247  -4.9054   -1.69216 
 1                    -8.29766  -5.90411  -0.75077 
 1                    -9.62541  -5.08638   0.03793 
 1                    -3.42872  -3.44666  -0.28615 
 1                    -1.33776  -4.56468   3.54657 
 1                    -2.96459  -5.37332   3.77212 
 1                    -1.74904  -6.34687   2.62505 
 1                     2.85451  -1.41498  -1.6965 
 1                     2.63506   0.2047   -1.90175 
 1                     4.42192  -1.00925   0.42789 
 1                     4.02916   1.75895  -2.52615 
 1                     5.91332   2.29309  -1.9233 
 1                     5.48581   0.79844  -2.86588 
 1                     6.43644   1.60495   0.37199 
 1                     6.42296  -0.19175   0.81989 
 1                     7.48246  -0.94957  -1.46525 
 1                     7.85954   0.97445  -1.64118 
 1                     8.96618   1.06638   0.18882 
 1                     8.94331  -0.50409   0.85325 
 1                     10.3237   0.23358  -1.73369 
 1                     9.09233  -2.40693  -1.681 
 1                     11.08491  -2.03175  -1.80582 
 1                     10.31418  -2.50842  -0.38898 
 1                     11.71227   0.8338    0.57151 
 1                     11.49636  -0.76577   0.90528 
 1                     12.95274  -1.34946  -1.17265 
 1                     13.05294   0.24614  -1.5558 
 1                     13.96721   1.05237   0.47332 
 1                     14.14072  -0.87427   0.81834 
 1                     15.20275   0.64222  -1.64338 
 1                     15.86118  -2.321    -0.23361 
 1                     14.97264  -1.94156  -1.78653 
 1                     16.75098  -1.67673  -1.70836 
 1                     16.12679   1.50568   0.49761 
 1                     16.32361  -0.35543   1.09488 
 1                     18.1196  -0.70267  -0.57181 
 1                     17.8071   0.86365  -1.39165 
 1                     18.43279   2.13511   0.76109 
 1                     18.64339   0.4844    1.61562 
 1                     20.46425   0.1036    0.09605 
 1                     20.07009   3.09176  -0.82239 
 1                     21.64978   2.32148  -1.20893 
 1                     20.08345   1.62341  -1.78039 
 1                     20.85173   1.183     2.30812 
 1                     22.1772   1.38586   1.34725 
 1                     20.95102   2.73094   1.46186 
 
 Stoichiometry    C55H72MgN4O5
 Framework group  C1[X(C55H72MgN4O5)]
 Deg. of freedom   405
 Full point group                 C1      NOp   1
 Largest Abelian subgroup         C1      NOp   1
 Largest concise Abelian subgroup C1      NOp   1
                         Standard orientation:                         
 ---------------------------------------------------------------------
 Center     Atomic      Atomic             Coordinates (Angstroms)
 Number     Number       Type             X           Y           Z
 ---------------------------------------------------------------------
      1         12           0       -7.173860    0.622974    0.141760
      2          6           0       -4.828038   -1.922679    0.356379
      3          6           0       -4.779269    2.735987    1.099082
      4          6           0       -9.481392    3.057329   -0.284054
      5          6           0       -9.550159   -1.744184   -0.993928
      6          7           0       -5.137116    0.364990    0.777969
      7          6           0       -4.377994   -0.749401    0.817645
      8          6           0       -2.969629   -0.429761    1.262473
      9          6           0       -3.038472    0.981190    1.777913
     10          6           0       -4.402060    1.489007    1.149132
     11          6           0       -2.864690    1.192365    3.333341
     12          6           0       -1.870371   -0.614363    0.097452
     13          6           0       -0.446889   -0.278658    0.562570
     14          6           0        0.624585   -0.523980   -0.543294
     15          8           0        0.285445   -0.692092   -1.732722
     16          8           0        1.837706   -0.402286   -0.087981
     17          7           0       -7.145635    2.583161    0.319699
     18          6           0       -6.100579    3.219898    0.807342
     19          6           0       -6.393423    4.615262    0.837149
     20          6           0       -7.616713    4.737412    0.364141
     21          6           0       -8.141545    3.375713    0.176322
     22          6           0       -5.591667    5.782332    1.194016
     23          6           0       -8.526957    5.917457    0.235599
     24          6           0       -8.452034    7.165493    0.848894
     25          7           0       -9.216405    0.641182   -0.518889
     26          6           0       -9.952152    1.796876   -0.602905
     27          6           0      -11.270663    1.478284   -1.275493
     28          6           0      -11.252783    0.131939   -1.399296
     29          6           0       -9.981916   -0.420145   -0.998880
     30          6           0      -12.360125    2.458122   -1.361460
     31          6           0      -12.357451   -0.678894   -1.862553
     32          6           0      -12.226829   -0.937207   -3.378956
     33          7           0       -7.288335   -1.425059   -0.042467
     34          6           0       -8.301342   -2.286426   -0.539306
     35          6           0       -7.846248   -3.674380   -0.467154
     36          6           0       -6.517845   -3.576678   -0.006295
     37          6           0       -6.196884   -2.250514    0.126480
     38          6           0       -8.713254   -4.894990   -0.849183
     39          6           0       -5.261117   -4.405565    0.191735
     40          8           0       -5.156571   -5.589156    0.240822
     41          6           0       -4.182830   -3.303016    0.464253
     42          6           0       -3.570229   -3.766192    1.807629
     43          8           0       -3.828668   -3.290131    2.890935
     44          8           0       -2.633055   -4.758496    1.657637
     45          6           0       -2.180199   -5.254003    2.856920
     46          6           0        2.798084   -0.452697   -1.138685
     47          6           0        4.109575   -0.355638   -0.427833
     48          6           0        5.016603    0.544237   -0.859487
     49          6           0        5.014365    1.342724   -2.079481
     50          6           0        6.338481    0.556881   -0.062993
     51          6           0        7.588956    0.169608   -0.887766
     52          6           0        8.896243    0.054435   -0.105925
     53          6           0       10.215628   -0.418940   -0.917841
     54          6           0       10.153595   -1.902515   -1.327855
     55          6           0       11.481812   -0.265123    0.003846
     56          6           0       12.860783   -0.354118   -0.748126
     57          6           0       14.064307   -0.086138    0.132672
     58          6           0       15.329687   -0.134378   -0.773359
     59          6           0       15.658892   -1.540888   -1.115214
     60          6           0       16.438602    0.307917    0.320770
     61          6           0       17.827354    0.362657   -0.355674
     62          6           0       18.730028    1.079563    0.596639
     63          6           0       20.210614    1.123966    0.316019
     64          6           0       20.546362    2.052820   -0.924014
     65          6           0       21.091948    1.614631    1.532728
     66          1           0       -4.324048    3.516671    1.495999
     67          1           0      -10.121374    3.897150   -0.520362
     68          1           0      -10.384256   -2.420513   -1.516661
     69          1           0       -2.534834   -1.096738    2.042890
     70          1           0       -2.152606    1.415879    1.214573
     71          1           0       -2.030248    0.922244    3.480549
     72          1           0       -2.878044    2.360218    3.665278
     73          1           0       -3.673791    0.526653    3.818339
     74          1           0       -2.055104   -1.723277   -0.269141
     75          1           0       -2.150543    0.207917   -0.691388
     76          1           0       -0.133431    0.677993    0.894165
     77          1           0       -0.165885   -1.055638    1.322068
     78          1           0       -5.985065    6.667997    0.853896
     79          1           0       -5.295684    5.915106    2.189090
     80          1           0       -4.561640    5.548270    0.691694
     81          1           0       -9.095094    5.766244   -0.648226
     82          1           0       -9.204497    8.055866    0.578990
     83          1           0       -7.718946    7.348196    1.597721
     84          1           0      -11.836697    3.144346   -2.143636
     85          1           0      -13.269763    1.949566   -1.861064
     86          1           0      -12.478353    2.778318   -0.380806
     87          1           0      -12.752983   -1.789944   -1.703905
     88          1           0      -13.229108   -0.139898   -1.897236
     89          1           0      -12.976430   -1.344346   -3.794147
     90          1           0      -12.159519    0.107293   -3.827771
     91          1           0      -11.171702   -1.482165   -3.509845
     92          1           0       -9.054220   -4.865210   -1.804190
     93          1           0       -8.299458   -5.885542   -0.886239
     94          1           0       -9.627217   -5.086330   -0.078786
     95          1           0       -3.430479   -3.439667   -0.364489
     96          1           0       -1.339667   -4.646497    3.441285
     97          1           0       -2.966517   -5.460116    3.647936
     98          1           0       -1.750960   -6.406785    2.478590
     99          1           0        2.852853   -1.375924   -1.727053
    100          1           0        2.633444    0.248101   -1.894620
    101          1           0        4.420202   -1.019703    0.406240
    102          1           0        4.027601    1.816406   -2.482691
    103          1           0        5.911749    2.336343   -1.867531
    104          1           0        5.484233    0.864010   -2.844596
    105          1           0        6.434779    1.595049    0.411165
    106          1           0        6.421242   -0.211575    0.817198
    107          1           0        7.480797   -0.916126   -1.484900
    108          1           0        7.857931    1.011458   -1.616063
    109          1           0        8.964515    1.060819    0.215607
    110          1           0        8.941590   -0.524666    0.843373
    111          1           0       10.322078    0.272873   -1.725687
    112          1           0        9.090648   -2.368113   -1.734410
    113          1           0       11.083238   -1.990184   -1.850416
    114          1           0       10.312454   -2.499631   -0.445053
    115          1           0       11.710587    0.819334    0.592878
    116          1           0       11.494632   -0.787553    0.889386
    117          1           0       12.951061   -1.322839   -1.201505
    118          1           0       13.051312    0.281229   -1.547468
    119          1           0       13.965535    1.040073    0.499870
    120          1           0       14.138987   -0.894062    0.800029
    121          1           0       15.201138    0.679193   -1.625753
    122          1           0       15.859453   -2.316006   -0.285201
    123          1           0       14.970969   -1.900558   -1.828905
    124          1           0       16.749317   -1.637666   -1.744553
    125          1           0       16.125124    1.492645    0.534746
    126          1           0       16.321880   -0.381849    1.088623
    127          1           0       18.117922   -0.690304   -0.585631
    128          1           0       17.805480    0.894651   -1.368868
    129          1           0       18.431137    2.115725    0.812861
    130          1           0       18.641668    0.445605    1.628809
    131          1           0       20.462568    0.100166    0.100853
    132          1           0       20.068507    3.108876   -0.747912
    133          1           0       21.648190    2.347743   -1.152202
    134          1           0       20.081865    1.663183   -1.739770
    135          1           0       20.850002    1.127866    2.337423
    136          1           0       22.175506    1.352969    1.381567
    137          1           0       20.949359    2.695056    1.527358
 ---------------------------------------------------------------------
 Rotational constants (GHZ):           0.0653424           0.0060657           0.0057239
 Standard basis: 6-31G(d,p) (6D, 7F)
 There are  1339 symmetry adapted cartesian basis functions of A   symmetry.
 There are  1339 symmetry adapted basis functions of A   symmetry.
  1339 basis functions,  2348 primitive gaussians,  1339 cartesian basis functions
   241 alpha electrons      241 beta electrons
       nuclear repulsion energy      8743.3253752628 Hartrees.
 NAtoms=  137 NActive=  137 NUniq=  137 SFac= 1.00D+00 NAtFMM=   60 NAOKFM=T Big=T
 Integral buffers will be    131072 words long.
 Raffenetti 1 integral format.
 Two-electron integral symmetry is turned on.
 One-electron integrals computed using PRISM.
