 Entering Gaussian System, Link 0=g16
 Input=Geometria-50-.com
 Output=Geometria-50-.log
 Initial command:
 /usr/local/g16/l1.exe "/home/padawan/israel-mol/chlorophyll-a/spectra/emi/Gau-53142.inp" -scrdir="/home/padawan/israel-mol/chlorophyll-a/spectra/emi/"
 Entering Link 1 = /usr/local/g16/l1.exe PID=     53145.
  
 Copyright (c) 1988,1990,1992,1993,1995,1998,2003,2009,2016,
            Gaussian, Inc.  All Rights Reserved.
  
 This is part of the Gaussian(R) 16 program.  It is based on
 the Gaussian(R) 09 system (copyright 2009, Gaussian, Inc.),
 the Gaussian(R) 03 system (copyright 2003, Gaussian, Inc.),
 the Gaussian(R) 98 system (copyright 1998, Gaussian, Inc.),
 the Gaussian(R) 94 system (copyright 1995, Gaussian, Inc.),
 the Gaussian 92(TM) system (copyright 1992, Gaussian, Inc.),
 the Gaussian 90(TM) system (copyright 1990, Gaussian, Inc.),
 the Gaussian 88(TM) system (copyright 1988, Gaussian, Inc.),
 the Gaussian 86(TM) system (copyright 1986, Carnegie Mellon
 University), and the Gaussian 82(TM) system (copyright 1983,
 Carnegie Mellon University). Gaussian is a federally registered
 trademark of Gaussian, Inc.
  
 This software contains proprietary and confidential information,
 including trade secrets, belonging to Gaussian, Inc.
  
 This software is provided under written license and may be
 used, copied, transmitted, or stored only in accord with that
 written license.
  
 The following legend is applicable only to US Government
 contracts under FAR:
  
                    RESTRICTED RIGHTS LEGEND
  
 Use, reproduction and disclosure by the US Government is
 subject to restrictions as set forth in subparagraphs (a)
 and (c) of the Commercial Computer Software - Restricted
 Rights clause in FAR 52.227-19.
  
 Gaussian, Inc.
 340 Quinnipiac St., Bldg. 40, Wallingford CT 06492
  
  
 ---------------------------------------------------------------
 Warning -- This program may not be used in any manner that
 competes with the business of Gaussian, Inc. or will provide
 assistance to any competitor of Gaussian, Inc.  The licensee
 of this program is prohibited from giving any competitor of
 Gaussian, Inc. access to this program.  By using this program,
 the user acknowledges that Gaussian, Inc. is engaged in the
 business of creating and licensing software in the field of
 computational chemistry and represents and warrants to the
 licensee that it is not a competitor of Gaussian, Inc. and that
 it will not use this program in any manner prohibited above.
 ---------------------------------------------------------------
  

 Cite this work as:
 Gaussian 16, Revision A.03,
 M. J. Frisch, G. W. Trucks, H. B. Schlegel, G. E. Scuseria, 
 M. A. Robb, J. R. Cheeseman, G. Scalmani, V. Barone, 
 G. A. Petersson, H. Nakatsuji, X. Li, M. Caricato, A. V. Marenich, 
 J. Bloino, B. G. Janesko, R. Gomperts, B. Mennucci, H. P. Hratchian, 
 J. V. Ortiz, A. F. Izmaylov, J. L. Sonnenberg, D. Williams-Young, 
 F. Ding, F. Lipparini, F. Egidi, J. Goings, B. Peng, A. Petrone, 
 T. Henderson, D. Ranasinghe, V. G. Zakrzewski, J. Gao, N. Rega, 
 G. Zheng, W. Liang, M. Hada, M. Ehara, K. Toyota, R. Fukuda, 
 J. Hasegawa, M. Ishida, T. Nakajima, Y. Honda, O. Kitao, H. Nakai, 
 T. Vreven, K. Throssell, J. A. Montgomery, Jr., J. E. Peralta, 
 F. Ogliaro, M. J. Bearpark, J. J. Heyd, E. N. Brothers, K. N. Kudin, 
 V. N. Staroverov, T. A. Keith, R. Kobayashi, J. Normand, 
 K. Raghavachari, A. P. Rendell, J. C. Burant, S. S. Iyengar, 
 J. Tomasi, M. Cossi, J. M. Millam, M. Klene, C. Adamo, R. Cammi, 
 J. W. Ochterski, R. L. Martin, K. Morokuma, O. Farkas, 
 J. B. Foresman, and D. J. Fox, Gaussian, Inc., Wallingford CT, 2016.
 
 ******************************************
 Gaussian 16:  ES64L-G16RevA.03 25-Dec-2016
                30-Jun-2019 
 ******************************************
 %nproc=4
 Will use up to    4 processors via shared memory.
 %Mem=2GB
 -------------------------------------
 # td=(NStates=1) CAM-B3LYP/6-31G(d,p)
 -------------------------------------
 1/38=1,172=1/1;
 2/12=2,17=6,18=5,40=1/2;
 3/5=1,6=6,7=101,11=9,25=1,30=1,74=-40/1,2,3,8;
 4//1;
 5/5=2,38=5/2;
 8/6=1,10=2,108=1/1;
 9/41=1,42=1,70=2/14;
 6/7=2,8=2,9=2,10=2/1;
 99/5=1,9=1/99;
 --
 TD
 --
 Symbolic Z-matrix:
 Charge =  0 Multiplicity = 1
 12                   -7.12977   0.6161    0.1117 
 6                    -4.83388  -1.93224   0.46987 
 6                    -4.75525   2.91298   0.98691 
 6                    -9.38099   3.04438  -0.33846 
 6                    -9.48752  -1.79599  -0.85923 
 7                    -5.01878   0.44486   0.65839 
 6                    -4.2962   -0.72161   0.75334 
 6                    -2.9368   -0.41007   1.03692 
 6                    -3.03393   1.11418   1.49579 
 6                    -4.35941   1.51432   1.05526 
 6                    -2.84114   1.42989   2.99495 
 6                    -1.94716  -0.60632  -0.10485 
 6                    -0.47469  -0.44102   0.39623 
 6                     0.54312  -0.59104  -0.79956 
 8                     0.25766  -1.03588  -1.85814 
 8                     1.75753  -0.48586  -0.43373 
 7                    -7.20471   2.63158   0.34486 
 6                    -6.06712   3.41094   0.78299 
 6                    -6.39218   4.95435   0.76348 
 6                    -7.69871   4.96899   0.37314 
 6                    -8.18377   3.47881   0.10542 
 6                    -5.45298   6.04958   1.10263 
 6                    -8.60652   6.11571   0.18112 
 6                    -8.45822   7.32683   0.84218 
 7                    -9.08039   0.63052  -0.58452 
 6                    -9.81103   1.7303   -0.65569 
 6                    -11.17527   1.43981  -1.02733 
 6                    -11.22808   0.07547  -1.2001 
 6                    -9.94927  -0.4353   -0.80219 
 6                    -12.28135   2.40452  -1.27418 
 6                    -12.4293  -0.75434  -1.48813 
 6                    -12.45135  -1.22724  -2.93537 
 7                    -7.21165  -1.45067  -0.04453 
 6                    -8.22001  -2.29979  -0.52191 
 6                    -7.79629  -3.66976  -0.56096 
 6                    -6.4718   -3.59516  -0.11047 
 6                    -6.13037  -2.24333   0.07214 
 6                    -8.68908  -4.87344  -0.88848 
 6                    -5.29023  -4.41004   0.19734 
 8                    -5.17519  -5.57664   0.20034 
 6                    -4.18495  -3.32371   0.52327 
 6                    -3.72702  -3.7533    1.90453 
 8                    -3.85994  -3.24378   3.04365 
 8                    -2.85376  -4.81767   1.81326 
 6                    -2.44424  -5.34847   3.08355 
 6                     2.84211  -0.72853  -1.37783 
 6                     4.11825  -0.37267  -0.65571 
 6                     5.08417   0.43176  -1.04586 
 6                     5.05749   1.3391   -2.13379 
 6                     6.51551   0.45919  -0.18148 
 6                     7.70522  -0.20217  -0.86728 
 6                     9.00014  -0.11095  -0.06538 
 6                     10.25361  -0.60659  -0.87077 
 6                     10.17473  -2.08972  -1.06429 
 6                     11.41975  -0.32801   0.0356 
 6                     12.78118  -0.586    -0.67879 
 6                     13.99144  -0.19147   0.19331 
 6                     15.33218  -0.13042  -0.55732 
 6                     15.80125  -1.53039  -1.0419 
 6                     16.37155   0.45442   0.39357 
 6                     17.80317   0.50935  -0.16861 
 6                     18.87269   1.22135   0.76774 
 6                     20.28525   1.39509   0.2542 
 6                     20.36747   2.22995  -0.95582 
 6                     21.05521   2.00032   1.45294 
 1                    -4.09697   3.62099   1.56173 
 1                    -10.11656   3.97412  -0.55777 
 1                    -10.48011  -2.64532  -1.24916 
 1                    -2.71834  -1.15435   1.77078 
 1                    -2.14354   1.72487   0.93067 
 1                    -1.82995   1.08309   3.26915 
 1                    -2.7271    2.64101   3.2042 
 1                    -3.49587   0.90565   3.83297 
 1                    -2.01669  -1.59476  -0.4343 
 1                    -2.03573   0.14078  -0.88007 
 1                    -0.12845   0.59956   0.83721 
 1                    -0.25058  -1.05454   1.42017 
 1                    -5.97522   7.05156   0.56497 
 1                    -5.27289   6.04947   2.15058 
 1                    -4.55948   5.91825   0.58685 
 1                    -9.50576   6.2173   -0.6813 
 1                    -9.08791   8.1059    0.43031 
 1                    -7.88946   7.2186    1.6691 
 1                    -11.9856   2.94322  -2.16738 
 1                    -13.4029   2.12653  -1.56833 
 1                    -12.37792   3.3471   -0.59965 
 1                    -12.62362  -1.57233  -0.83481 
 1                    -13.3293  -0.23631  -1.39956 
 1                    -13.30217  -1.95046  -2.94558 
 1                    -12.95219  -0.24998  -3.51855 
 1                    -11.5256  -1.74208  -3.2795 
 1                    -8.73237  -4.78237  -1.99259 
 1                    -7.99696  -5.80964  -0.59512 
 1                    -9.6509   -5.0015   -0.25344 
 1                    -3.2789   -3.64773   0.04006 
 1                    -1.8453   -4.75612   3.58996 
 1                    -3.30702  -5.45084   3.81744 
 1                    -2.00538  -6.41855   2.97844 
 1                     2.64176  -1.69368  -1.86087 
 1                     2.70278  -0.01541  -2.20671 
 1                     4.29778  -1.2093    0.16438 
 1                     4.1242    1.28529  -2.81156 
 1                     5.16836   2.41327  -1.94649 
 1                     5.98628   1.12159  -2.79049 
 1                     6.39838   1.43874   0.28112 
 1                     6.43982  -0.25329   0.64076 
 1                     7.25661  -1.25175  -1.16349 
 1                     7.95932   0.3711   -1.85572 
 1                     9.32219   0.80463   0.23909 
 1                     8.99724  -0.77038   0.71191 
 1                     10.42021   0.01399  -1.83591 
 1                     9.44803  -2.59291  -1.90373 
 1                     11.05249  -2.88413  -1.15707 
 1                     9.98607  -2.86467  -0.30383 
 1                     11.43676   0.70336   0.36363 
 1                     11.31797  -0.89592   0.88609 
 1                     12.94523  -1.81019  -0.7284 
 1                     12.91639   0.06953  -1.64739 
 1                     13.8809   0.88226   0.61824 
 1                     13.91203  -0.77913   1.15571 
 1                     15.44565   0.39574  -1.31416 
 1                     15.95085  -2.10378  -0.01717 
 1                     15.07972  -2.12617  -1.67802 
 1                     16.85084  -1.40707  -1.54338 
 1                     16.13117   1.44747   0.67359 
 1                     16.31824  -0.08967   1.34599 
 1                     18.1271  -0.64102  -0.26988 
 1                     17.68515   0.88654  -1.21486 
 1                     18.53866   2.0968    1.19787 
 1                     18.81729   0.67613   1.66725 
 1                     20.94307   0.47438   0.11154 
 1                     19.59885   3.26062  -0.83714 
 1                     21.45551   2.87184  -1.1835 
 1                     20.07876   1.58482  -1.89774 
 1                     20.83426   1.40232   2.4483 
 1                     22.12147   1.83784   1.39876 
 1                     20.73588   2.9206    1.61188 
 
 Stoichiometry    C55H72MgN4O5
 Framework group  C1[X(C55H72MgN4O5)]
 Deg. of freedom   405
 Full point group                 C1      NOp   1
 Largest Abelian subgroup         C1      NOp   1
 Largest concise Abelian subgroup C1      NOp   1
                         Standard orientation:                         
 ---------------------------------------------------------------------
 Center     Atomic      Atomic             Coordinates (Angstroms)
 Number     Number       Type             X           Y           Z
 ---------------------------------------------------------------------
      1         12           0       -7.128807    0.625256    0.109534
      2          6           0       -4.835703   -1.925793    0.466341
      3          6           0       -4.751824    2.919042    0.986189
      4          6           0       -9.377361    3.056244   -0.339322
      5          6           0       -9.489128   -1.783699   -0.862913
      6          7           0       -5.018023    0.451405    0.656224
      7          6           0       -4.296722   -0.715911    0.750539
      8          6           0       -2.937001   -0.406014    1.034367
      9          6           0       -3.032489    1.118079    1.494114
     10          6           0       -4.357517    1.519915    1.053754
     11          6           0       -2.839432    1.432700    2.993467
     12          6           0       -1.947514   -0.602673   -0.107469
     13          6           0       -0.474896   -0.439269    0.393779
     14          6           0        0.542809   -0.589706   -0.802047
     15          8           0        0.256919   -1.033617   -1.860906
     16          8           0        1.757317   -0.486053   -0.436102
     17          7           0       -7.201563    2.640679    0.343864
     18          6           0       -6.063142    3.418549    0.782501
     19          6           0       -6.386522    4.962321    0.763866
     20          6           0       -7.693023    4.978607    0.373470
     21          6           0       -8.179690    3.489111    0.104868
     22          6           0       -5.446155    6.056329    1.103696
     23          6           0       -8.599571    6.126430    0.182071
     24          6           0       -8.449987    7.337000    0.843846
     25          7           0       -9.079373    0.642198   -0.586774
     26          6           0       -9.808809    1.742820   -0.657341
     27          6           0      -11.173345    1.454030   -1.029218
     28          6           0      -11.227630    0.089849   -1.202777
     29          6           0       -9.949401   -0.422541   -0.805098
     30          6           0      -12.278363    2.420084   -1.275562
     31          6           0      -12.429740   -0.738492   -1.491348
     32          6           0      -12.452238   -1.210520   -2.938863
     33          7           0       -7.212925   -1.441338   -0.047898
     34          6           0       -8.222186   -2.289074   -0.525818
     35          6           0       -7.799949   -3.659481   -0.565649
     36          6           0       -6.475406   -3.586592   -0.115051
     37          6           0       -6.132509   -2.235240    0.068364
     38          6           0       -8.694032   -4.862004   -0.893905
     39          6           0       -5.294741   -4.402937    0.192349
     40          8           0       -5.180963   -5.569660    0.194672
     41          6           0       -4.188294   -3.317993    0.518963
     42          6           0       -3.730901   -3.748885    1.899994
     43          8           0       -3.863317   -3.239883    3.039400
     44          8           0       -2.858789   -4.814147    1.808148
     45          6           0       -2.449907   -5.346132    3.078153
     46          6           0        2.841678   -0.729360   -1.380289
     47          6           0        4.118176   -0.375302   -0.657897
     48          6           0        5.084988    0.428297   -1.047541
     49          6           0        5.059351    1.336294   -2.134939
     50          6           0        6.516308    0.453667   -0.183076
     51          6           0        7.705334   -0.208588   -0.869201
     52          6           0        9.000317   -0.119238   -0.067180
     53          6           0       10.253280   -0.615775   -0.872796
     54          6           0       10.172805   -2.098708   -1.067183
     55          6           0       11.419687   -0.338989    0.033795
     56          6           0       12.780869   -0.598052   -0.680681
     57          6           0       13.991510   -0.205343    0.191701
     58          6           0       15.332353   -0.145312   -0.558828
     59          6           0       15.799926   -1.545514   -1.044198
     60          6           0       16.372314    0.437841    0.392459
     61          6           0       17.804024    0.491542   -0.169625
     62          6           0       18.874265    1.201833    0.767190
     63          6           0       20.287038    1.374333    0.253822
     64          6           0       20.370227    2.209807   -0.955705
     65          6           0       21.057596    1.978032    1.452952
     66          1           0       -4.092809    3.625999    1.561457
     67          1           0      -10.111907    3.986909   -0.558132
     68          1           0      -10.482624   -2.631731   -1.253383
     69          1           0       -2.719382   -1.150960    1.767799
     70          1           0       -2.141408    1.728120    0.929395
     71          1           0       -1.828632    1.084644    3.267514
     72          1           0       -2.724083    2.643576    3.203427
     73          1           0       -3.494777    0.908686    3.831145
     74          1           0       -2.018109   -1.590849   -0.437497
     75          1           0       -2.035230    0.144970   -0.882261
     76          1           0       -0.127538    0.600681    0.835380
     77          1           0       -0.251503   -1.053628    1.417366
     78          1           0       -5.967271    7.059195    0.566599
     79          1           0       -5.266118    6.055415    2.151660
     80          1           0       -4.552770    5.924332    0.587890
     81          1           0       -9.498661    6.229494   -0.680328
     82          1           0       -9.078809    8.116996    0.432400
     83          1           0       -7.881385    7.227671    1.670726
     84          1           0      -11.981989    2.958984   -2.168430
     85          1           0      -13.400203    2.143481   -1.569922
     86          1           0      -12.373943    3.362380   -0.600486
     87          1           0      -12.624982   -1.556643   -0.838512
     88          1           0      -13.329184   -0.219532   -1.402517
     89          1           0      -13.303838   -1.932812   -2.949540
     90          1           0      -12.951982   -0.232381   -3.521496
     91          1           0      -11.527028   -1.726171   -3.283244
     92          1           0       -8.737175   -4.770245   -1.997969
     93          1           0       -8.002948   -5.799127   -0.601057
     94          1           0       -9.656031   -4.989381   -0.258986
     95          1           0       -3.282570   -3.642718    0.035606
     96          1           0       -1.850356   -4.754732    3.584935
     97          1           0       -3.312840   -5.447987    3.811943
     98          1           0       -2.012210   -6.416630    2.972442
     99          1           0        2.640308   -1.694011   -1.863900
    100          1           0        2.703166   -0.015604   -2.208766
    101          1           0        4.296752   -1.212611    0.161711
    102          1           0        4.126034    1.283894   -2.812788
    103          1           0        5.171378    2.410239   -1.947014
    104          1           0        5.987928    1.118162   -2.791720
    105          1           0        6.400227    1.433075    0.280092
    106          1           0        6.439805   -0.259209    0.638755
    107          1           0        7.255602   -1.257511   -1.166036
    108          1           0        7.960106    0.364980   -1.857291
    109          1           0        9.323350    0.795809    0.237837
    110          1           0        8.996657   -0.779122    0.709724
    111          1           0       10.420607    0.005185   -1.837568
    112          1           0        9.445595   -2.600617   -1.906947
    113          1           0       11.049698   -2.894014   -1.160381
    114          1           0        9.983261   -2.873892   -0.307182
    115          1           0       11.437799    0.692170    0.362418
    116          1           0       11.317247   -0.907281    0.883945
    117          1           0       12.943584   -1.822387   -0.730996
    118          1           0       12.916832    0.057893   -1.648894
    119          1           0       13.882118    0.868261    0.617252
    120          1           0       13.911419   -0.793472    1.153762
    121          1           0       15.446432    0.381159   -1.315349
    122          1           0       15.948852   -2.119661   -0.019793
    123          1           0       15.077779   -2.140144   -1.680690
    124          1           0       16.849677   -1.423041   -1.545547
    125          1           0       16.132998    1.430992    0.673044
    126          1           0       16.318360   -0.106741    1.344554
    127          1           0       18.126706   -0.659124   -0.271545
    128          1           0       17.686457    0.869461   -1.215654
    129          1           0       18.541173    2.077399    1.197812
    130          1           0       18.818229    0.656153    1.666380
    131          1           0       20.943865    0.452995    0.110658
    132          1           0       19.602729    3.241242   -0.836465
    133          1           0       21.458978    2.850647   -1.182963
    134          1           0       20.080865    1.565537   -1.898014
    135          1           0       20.835950    1.379691    2.447957
    136          1           0       22.123689    1.814416    1.398733
    137          1           0       20.739267    2.898566    1.612411
 ---------------------------------------------------------------------
 Rotational constants (GHZ):           0.0632107           0.0060740           0.0057042
 Standard basis: 6-31G(d,p) (6D, 7F)
 There are  1339 symmetry adapted cartesian basis functions of A   symmetry.
 There are  1339 symmetry adapted basis functions of A   symmetry.
  1339 basis functions,  2348 primitive gaussians,  1339 cartesian basis functions
   241 alpha electrons      241 beta electrons
       nuclear repulsion energy      8710.9960894091 Hartrees.
 NAtoms=  137 NActive=  137 NUniq=  137 SFac= 1.00D+00 NAtFMM=   60 NAOKFM=T Big=T
 Integral buffers will be    131072 words long.
 Raffenetti 1 integral format.
 Two-electron integral symmetry is turned on.
 One-electron integrals computed using PRISM.
 NBasis=  1339 RedAO= T EigKep=  2.87D-04  NBF=  1339
 NBsUse=  1339 1.00D-06 EigRej= -1.00D+00 NBFU=  1339
 ExpMin= 4.21D-02 ExpMax= 1.17D+04 ExpMxC= 1.76D+03 IAcc=3 IRadAn=         5 AccDes= 0.00D+00
 Harris functional with IExCor=20419 and IRadAn=       5 diagonalized for initial guess.
 HarFok:  IExCor=20419 AccDes= 0.00D+00 IRadAn=         5 IDoV= 1 UseB2=F ITyADJ=14
 ICtDFT=  3500011 ScaDFX=  1.000000  1.000000  1.000000  1.000000
 FoFCou: FMM=F IPFlag=           0 FMFlag=      100000 FMFlg1=        2001
         NFxFlg=           0 DoJE=T BraDBF=F KetDBF=T FulRan=T
         wScrn=  0.000000 ICntrl=       500 IOpCl=  0 I1Cent=   200000004 NGrid=           0
         NMat0=    1 NMatS0=      1 NMatT0=    0 NMatD0=    1 NMtDS0=    0 NMtDT0=    0
 Petite list used in FoFCou.
 Requested convergence on RMS density matrix=1.00D-08 within 128 cycles.
 Requested convergence on MAX density matrix=1.00D-06.
 Requested convergence on             energy=1.00D-06.
 No special actions if energy rises.
 SCF Done:  E(RCAM-B3LYP) =  -2932.57540749     A.U. after   17 cycles
            NFock= 17  Conv=0.87D-08     -V/T= 2.0096
 DoSCS=F DFT=T ScalE2(SS,OS)=  1.000000  1.000000
 ExpMin= 4.21D-02 ExpMax= 1.17D+04 ExpMxC= 1.76D+03 IAcc=3 IRadAn=         5 AccDes= 0.00D+00
 HarFok:  IExCor=  205 AccDes= 0.00D+00 IRadAn=         5 IDoV=-2 UseB2=F ITyADJ=14
 ICtDFT= 12500011 ScaDFX=  1.000000  1.000000  1.000000  1.000000
 GSVD:  LWork=       -5313 too small for GESVD, short by       24840 words or       24840 for optimal perf.
 Range of M.O.s used for correlation:    70  1339
 NBasis=  1339 NAE=   241 NBE=   241 NFC=    69 NFV=     0
 NROrb=   1270 NOA=   172 NOB=   172 NVA=  1098 NVB=  1098
 Orbital symmetries:
       Occupied  (A) (A) (A) (A) (A) (A) (A) (A) (A) (A) (A) (A)
                 (A) (A) (A) (A) (A) (A) (A) (A) (A) (A) (A) (A)
                 (A) (A) (A) (A) (A) (A) (A) (A) (A) (A) (A) (A)
                 (A) (A) (A) (A) (A) (A) (A) (A) (A) (A) (A) (A)
                 (A) (A) (A) (A) (A) (A) (A) (A) (A) (A) (A) (A)
                 (A) (A) (A) (A) (A) (A) (A) (A) (A) (A) (A) (A)
                 (A) (A) (A) (A) (A) (A) (A) (A) (A) (A) (A) (A)
                 (A) (A) (A) (A) (A) (A) (A) (A) (A) (A) (A) (A)
                 (A) (A) (A) (A) (A) (A) (A) (A) (A) (A) (A) (A)
                 (A) (A) (A) (A) (A) (A) (A) (A) (A) (A) (A) (A)
                 (A) (A) (A) (A) (A) (A) (A) (A) (A) (A) (A) (A)
                 (A) (A) (A) (A) (A) (A) (A) (A) (A) (A) (A) (A)
                 (A) (A) (A) (A) (A) (A) (A) (A) (A) (A) (A) (A)
                 (A) (A) (A) (A) (A) (A) (A) (A) (A) (A) (A) (A)
                 (A) (A) (A) (A) (A) (A) (A) (A) (A) (A) (A) (A)
                 (A) (A) (A) (A) (A) (A) (A) (A) (A) (A) (A) (A)
                 (A) (A) (A) (A) (A) (A) (A) (A) (A) (A) (A) (A)
                 (A) (A) (A) (A) (A) (A) (A) (A) (A) (A) (A) (A)
                 (A) (A) (A) (A) (A) (A) (A) (A) (A) (A) (A) (A)
                 (A) (A) (A) (A) (A) (A) (A) (A) (A) (A) (A) (A)
                 (A)
       Virtual   (A) (A) (A) (A) (A) (A) (A) (A) (A) (A) (A) (A)
                 (A) (A) (A) (A) (A) (A) (A) (A) (A) (A) (A) (A)
                 (A) (A) (A) (A) (A) (A) (A) (A) (A) (A) (A) (A)
                 (A) (A) (A) (A) (A) (A) (A) (A) (A) (A) (A) (A)
                 (A) (A) (A) (A) (A) (A) (A) (A) (A) (A) (A) (A)
                 (A) (A) (A) (A) (A) (A) (A) (A) (A) (A) (A) (A)
                 (A) (A) (A) (A) (A) (A) (A) (A) (A) (A) (A) (A)
                 (A) (A) (A) (A) (A) (A) (A) (A) (A) (A) (A) (A)
                 (A) (A) (A) (A) (A) (A) (A) (A) (A) (A) (A) (A)
                 (A) (A) (A) (A) (A) (A) (A) (A) (A) (A) (A) (A)
                 (A) (A) (A) (A) (A) (A) (A) (A) (A) (A) (A) (A)
                 (A) (A) (A) (A) (A) (A) (A) (A) (A) (A) (A) (A)
                 (A) (A) (A) (A) (A) (A) (A) (A) (A) (A) (A) (A)
                 (A) (A) (A) (A) (A) (A) (A) (A) (A) (A) (A) (A)
                 (A) (A) (A) (A) (A) (A) (A) (A) (A) (A) (A) (A)
                 (A) (A) (A) (A) (A) (A) (A) (A) (A) (A) (A) (A)
                 (A) (A) (A) (A) (A) (A) (A) (A) (A) (A) (A) (A)
                 (A) (A) (A) (A) (A) (A) (A) (A) (A) (A) (A) (A)
                 (A) (A) (A) (A) (A) (A) (A) (A) (A) (A) (A) (A)
                 (A) (A) (A) (A) (A) (A) (A) (A) (A) (A) (A) (A)
                 (A) (A) (A) (A) (A) (A) (A) (A) (A) (A) (A) (A)
                 (A) (A) (A) (A) (A) (A) (A) (A) (A) (A) (A) (A)
                 (A) (A) (A) (A) (A) (A) (A) (A) (A) (A) (A) (A)
                 (A) (A) (A) (A) (A) (A) (A) (A) (A) (A) (A) (A)
                 (A) (A) (A) (A) (A) (A) (A) (A) (A) (A) (A) (A)
                 (A) (A) (A) (A) (A) (A) (A) (A) (A) (A) (A) (A)
                 (A) (A) (A) (A) (A) (A) (A) (A) (A) (A) (A) (A)
                 (A) (A) (A) (A) (A) (A) (A) (A) (A) (A) (A) (A)
                 (A) (A) (A) (A) (A) (A) (A) (A) (A) (A) (A) (A)
                 (A) (A) (A) (A) (A) (A) (A) (A) (A) (A) (A) (A)
                 (A) (A) (A) (A) (A) (A) (A) (A) (A) (A) (A) (A)
                 (A) (A) (A) (A) (A) (A) (A) (A) (A) (A) (A) (A)
                 (A) (A) (A) (A) (A) (A) (A) (A) (A) (A) (A) (A)
                 (A) (A) (A) (A) (A) (A) (A) (A) (A) (A) (A) (A)
                 (A) (A) (A) (A) (A) (A) (A) (A) (A) (A) (A) (A)
                 (A) (A) (A) (A) (A) (A) (A) (A) (A) (A) (A) (A)
                 (A) (A) (A) (A) (A) (A) (A) (A) (A) (A) (A) (A)
                 (A) (A) (A) (A) (A) (A) (A) (A) (A) (A) (A) (A)
                 (A) (A) (A) (A) (A) (A) (A) (A) (A) (A) (A) (A)
                 (A) (A) (A) (A) (A) (A) (A) (A) (A) (A) (A) (A)
                 (A) (A) (A) (A) (A) (A) (A) (A) (A) (A) (A) (A)
                 (A) (A) (A) (A) (A) (A) (A) (A) (A) (A) (A) (A)
                 (A) (A) (A) (A) (A) (A) (A) (A) (A) (A) (A) (A)
                 (A) (A) (A) (A) (A) (A) (A) (A) (A) (A) (A) (A)
                 (A) (A) (A) (A) (A) (A) (A) (A) (A) (A) (A) (A)
                 (A) (A) (A) (A) (A) (A) (A) (A) (A) (A) (A) (A)
                 (A) (A) (A) (A) (A) (A) (A) (A) (A) (A) (A) (A)
                 (A) (A) (A) (A) (A) (A) (A) (A) (A) (A) (A) (A)
                 (A) (A) (A) (A) (A) (A) (A) (A) (A) (A) (A) (A)
                 (A) (A) (A) (A) (A) (A) (A) (A) (A) (A) (A) (A)
                 (A) (A) (A) (A) (A) (A) (A) (A) (A) (A) (A) (A)
                 (A) (A) (A) (A) (A) (A) (A) (A) (A) (A) (A) (A)
                 (A) (A) (A) (A) (A) (A) (A) (A) (A) (A) (A) (A)
                 (A) (A) (A) (A) (A) (A) (A) (A) (A) (A) (A) (A)
                 (A) (A) (A) (A) (A) (A) (A) (A) (A) (A) (A) (A)
                 (A) (A) (A) (A) (A) (A) (A) (A) (A) (A) (A) (A)
                 (A) (A) (A) (A) (A) (A) (A) (A) (A) (A) (A) (A)
                 (A) (A) (A) (A) (A) (A) (A) (A) (A) (A) (A) (A)
                 (A) (A) (A) (A) (A) (A) (A) (A) (A) (A) (A) (A)
                 (A) (A) (A) (A) (A) (A) (A) (A) (A) (A) (A) (A)
                 (A) (A) (A) (A) (A) (A) (A) (A) (A) (A) (A) (A)
                 (A) (A) (A) (A) (A) (A) (A) (A) (A) (A) (A) (A)
                 (A) (A) (A) (A) (A) (A) (A) (A) (A) (A) (A) (A)
                 (A) (A) (A) (A) (A) (A) (A) (A) (A) (A) (A) (A)
                 (A) (A) (A) (A) (A) (A) (A) (A) (A) (A) (A) (A)
                 (A) (A) (A) (A) (A) (A) (A) (A) (A) (A) (A) (A)
                 (A) (A) (A) (A) (A) (A) (A) (A) (A) (A) (A) (A)
                 (A) (A) (A) (A) (A) (A) (A) (A) (A) (A) (A) (A)
                 (A) (A) (A) (A) (A) (A) (A) (A) (A) (A) (A) (A)
                 (A) (A) (A) (A) (A) (A) (A) (A) (A) (A) (A) (A)
                 (A) (A) (A) (A) (A) (A) (A) (A) (A) (A) (A) (A)
                 (A) (A) (A) (A) (A) (A) (A) (A) (A) (A) (A) (A)
                 (A) (A) (A) (A) (A) (A) (A) (A) (A) (A) (A) (A)
                 (A) (A) (A) (A) (A) (A) (A) (A) (A) (A) (A) (A)
                 (A) (A) (A) (A) (A) (A) (A) (A) (A) (A) (A) (A)
                 (A) (A) (A) (A) (A) (A) (A) (A) (A) (A) (A) (A)
                 (A) (A) (A) (A) (A) (A) (A) (A) (A) (A) (A) (A)
                 (A) (A) (A) (A) (A) (A) (A) (A) (A) (A) (A) (A)
                 (A) (A) (A) (A) (A) (A) (A) (A) (A) (A) (A) (A)
                 (A) (A) (A) (A) (A) (A) (A) (A) (A) (A) (A) (A)
                 (A) (A) (A) (A) (A) (A) (A) (A) (A) (A) (A) (A)
                 (A) (A) (A) (A) (A) (A) (A) (A) (A) (A) (A) (A)
                 (A) (A) (A) (A) (A) (A) (A) (A) (A) (A) (A) (A)
                 (A) (A) (A) (A) (A) (A) (A) (A) (A) (A) (A) (A)
                 (A) (A) (A) (A) (A) (A) (A) (A) (A) (A) (A) (A)
                 (A) (A) (A) (A) (A) (A) (A) (A) (A) (A) (A) (A)
                 (A) (A) (A) (A) (A) (A) (A) (A) (A) (A) (A) (A)
                 (A) (A) (A) (A) (A) (A) (A) (A) (A) (A) (A) (A)
                 (A) (A) (A) (A) (A) (A) (A) (A) (A) (A) (A) (A)
                 (A) (A) (A) (A) (A) (A) (A) (A) (A) (A) (A) (A)
                 (A) (A) (A) (A) (A) (A) (A) (A) (A) (A) (A) (A)
                 (A) (A) (A) (A) (A) (A)
     4 initial guesses have been made.
 Convergence on wavefunction:    0.001000000000000
 Iteration     1 Dimension     4 NMult     0 NNew      4
 CISAX will form     4 AO SS matrices at one time.
 Iteration     2 Dimension     6 NMult     4 NNew      2
 Iteration     3 Dimension     8 NMult     6 NNew      2
 Iteration     4 Dimension    10 NMult     8 NNew      2
 Iteration     5 Dimension    12 NMult    10 NNew      2
 Iteration     6 Dimension    14 NMult    12 NNew      2
 ***********************************************************************
 Excited states from <AA,BB:AA,BB> singles matrix:
 ***********************************************************************
 
 Ground to excited state transition densities written to RWF  633
 Ground to excited state transition electric dipole moments (Au):
       state          X           Y           Z        Dip. S.      Osc.
         1        -0.0579      1.8696      0.1846      3.5329      0.1900
 Ground to excited state transition velocity dipole moments (Au):
       state          X           Y           Z        Dip. S.      Osc.
         1         0.0058     -0.1456     -0.0153      0.0215      0.1773
 Ground to excited state transition magnetic dipole moments (Au):
       state          X           Y           Z
         1        -0.5945     -0.4428      3.9383
 Ground to excited state transition velocity quadrupole moments (Au):
       state          XX          YY          ZZ          XY          XZ          YZ
         1        -0.2398     -0.0660     -0.0306      1.9068      0.1417     -0.0806
 <0|del|b> * <b|rxdel|0> + <0|del|b> * <b|delr+rdel|0>
 Rotatory Strengths (R) in cgs (10**-40 erg-esu-cm/Gauss)
       state          XX          YY          ZZ    R(velocity)    E-M Angle
         1       -18.3106   -153.1032    179.0651      2.5504       89.91
 1/2[<0|r|b>*<b|rxdel|0> + (<0|rxdel|b>*<b|r|0>)*]
 Rotatory Strengths (R) in cgs (10**-40 erg-esu-cm/Gauss)
       state          XX          YY          ZZ     R(length)
         1       -24.3402    585.3807   -514.0589     15.6606
  1/2[<0|del|b>*<b|r|0> + (<0|r|b>*<b|del|0>)*] (Au)
       state          X           Y           Z        Dip. S.   Osc.(frdel)
         1        -0.0003     -0.2721     -0.0028      0.2753      0.1835

 Excitation energies and oscillator strengths:
 
 Excited State   1:      Singlet-A      2.1949 eV  564.88 nm  f=0.1900  <S**2>=0.000
     240 -> 242        0.11220
     240 -> 243       -0.27173
     241 -> 242        0.62530
     241 -> 243        0.11794
 This state for optimization and/or second-order correction.
 Total Energy, E(TD-HF/TD-DFT) =  -2932.49474658    
 Copying the excited state density for this state as the 1-particle RhoCI density.
 SavETr:  write IOETrn=   770 NScale= 10 NData=  16 NLR=1 NState=    1 LETran=      28.
 Hyperfine terms turned off by default for NAtoms > 100.

 **********************************************************************

            Population analysis using the SCF density.

 **********************************************************************

 Orbital symmetries:
       Occupied  (A) (A) (A) (A) (A) (A) (A) (A) (A) (A) (A) (A)
                 (A) (A) (A) (A) (A) (A) (A) (A) (A) (A) (A) (A)
                 (A) (A) (A) (A) (A) (A) (A) (A) (A) (A) (A) (A)
                 (A) (A) (A) (A) (A) (A) (A) (A) (A) (A) (A) (A)
                 (A) (A) (A) (A) (A) (A) (A) (A) (A) (A) (A) (A)
                 (A) (A) (A) (A) (A) (A) (A) (A) (A) (A) (A) (A)
                 (A) (A) (A) (A) (A) (A) (A) (A) (A) (A) (A) (A)
                 (A) (A) (A) (A) (A) (A) (A) (A) (A) (A) (A) (A)
                 (A) (A) (A) (A) (A) (A) (A) (A) (A) (A) (A) (A)
                 (A) (A) (A) (A) (A) (A) (A) (A) (A) (A) (A) (A)
                 (A) (A) (A) (A) (A) (A) (A) (A) (A) (A) (A) (A)
                 (A) (A) (A) (A) (A) (A) (A) (A) (A) (A) (A) (A)
                 (A) (A) (A) (A) (A) (A) (A) (A) (A) (A) (A) (A)
                 (A) (A) (A) (A) (A) (A) (A) (A) (A) (A) (A) (A)
                 (A) (A) (A) (A) (A) (A) (A) (A) (A) (A) (A) (A)
                 (A) (A) (A) (A) (A) (A) (A) (A) (A) (A) (A) (A)
                 (A) (A) (A) (A) (A) (A) (A) (A) (A) (A) (A) (A)
                 (A) (A) (A) (A) (A) (A) (A) (A) (A) (A) (A) (A)
                 (A) (A) (A) (A) (A) (A) (A) (A) (A) (A) (A) (A)
                 (A) (A) (A) (A) (A) (A) (A) (A) (A) (A) (A) (A)
                 (A)
       Virtual   (A) (A) (A) (A) (A) (A) (A) (A) (A) (A) (A) (A)
                 (A) (A) (A) (A) (A) (A) (A) (A) (A) (A) (A) (A)
                 (A) (A) (A) (A) (A) (A) (A) (A) (A) (A) (A) (A)
                 (A) (A) (A) (A) (A) (A) (A) (A) (A) (A) (A) (A)
                 (A) (A) (A) (A) (A) (A) (A) (A) (A) (A) (A) (A)
                 (A) (A) (A) (A) (A) (A) (A) (A) (A) (A) (A) (A)
                 (A) (A) (A) (A) (A) (A) (A) (A) (A) (A) (A) (A)
                 (A) (A) (A) (A) (A) (A) (A) (A) (A) (A) (A) (A)
                 (A) (A) (A) (A) (A) (A) (A) (A) (A) (A) (A) (A)
                 (A) (A) (A) (A) (A) (A) (A) (A) (A) (A) (A) (A)
                 (A) (A) (A) (A) (A) (A) (A) (A) (A) (A) (A) (A)
                 (A) (A) (A) (A) (A) (A) (A) (A) (A) (A) (A) (A)
                 (A) (A) (A) (A) (A) (A) (A) (A) (A) (A) (A) (A)
                 (A) (A) (A) (A) (A) (A) (A) (A) (A) (A) (A) (A)
                 (A) (A) (A) (A) (A) (A) (A) (A) (A) (A) (A) (A)
                 (A) (A) (A) (A) (A) (A) (A) (A) (A) (A) (A) (A)
                 (A) (A) (A) (A) (A) (A) (A) (A) (A) (A) (A) (A)
                 (A) (A) (A) (A) (A) (A) (A) (A) (A) (A) (A) (A)
                 (A) (A) (A) (A) (A) (A) (A) (A) (A) (A) (A) (A)
                 (A) (A) (A) (A) (A) (A) (A) (A) (A) (A) (A) (A)
                 (A) (A) (A) (A) (A) (A) (A) (A) (A) (A) (A) (A)
                 (A) (A) (A) (A) (A) (A) (A) (A) (A) (A) (A) (A)
                 (A) (A) (A) (A) (A) (A) (A) (A) (A) (A) (A) (A)
                 (A) (A) (A) (A) (A) (A) (A) (A) (A) (A) (A) (A)
                 (A) (A) (A) (A) (A) (A) (A) (A) (A) (A) (A) (A)
                 (A) (A) (A) (A) (A) (A) (A) (A) (A) (A) (A) (A)
                 (A) (A) (A) (A) (A) (A) (A) (A) (A) (A) (A) (A)
                 (A) (A) (A) (A) (A) (A) (A) (A) (A) (A) (A) (A)
                 (A) (A) (A) (A) (A) (A) (A) (A) (A) (A) (A) (A)
                 (A) (A) (A) (A) (A) (A) (A) (A) (A) (A) (A) (A)
                 (A) (A) (A) (A) (A) (A) (A) (A) (A) (A) (A) (A)
                 (A) (A) (A) (A) (A) (A) (A) (A) (A) (A) (A) (A)
                 (A) (A) (A) (A) (A) (A) (A) (A) (A) (A) (A) (A)
                 (A) (A) (A) (A) (A) (A) (A) (A) (A) (A) (A) (A)
                 (A) (A) (A) (A) (A) (A) (A) (A) (A) (A) (A) (A)
                 (A) (A) (A) (A) (A) (A) (A) (A) (A) (A) (A) (A)
                 (A) (A) (A) (A) (A) (A) (A) (A) (A) (A) (A) (A)
                 (A) (A) (A) (A) (A) (A) (A) (A) (A) (A) (A) (A)
                 (A) (A) (A) (A) (A) (A) (A) (A) (A) (A) (A) (A)
                 (A) (A) (A) (A) (A) (A) (A) (A) (A) (A) (A) (A)
                 (A) (A) (A) (A) (A) (A) (A) (A) (A) (A) (A) (A)
                 (A) (A) (A) (A) (A) (A) (A) (A) (A) (A) (A) (A)
                 (A) (A) (A) (A) (A) (A) (A) (A) (A) (A) (A) (A)
                 (A) (A) (A) (A) (A) (A) (A) (A) (A) (A) (A) (A)
                 (A) (A) (A) (A) (A) (A) (A) (A) (A) (A) (A) (A)
                 (A) (A) (A) (A) (A) (A) (A) (A) (A) (A) (A) (A)
                 (A) (A) (A) (A) (A) (A) (A) (A) (A) (A) (A) (A)
                 (A) (A) (A) (A) (A) (A) (A) (A) (A) (A) (A) (A)
                 (A) (A) (A) (A) (A) (A) (A) (A) (A) (A) (A) (A)
                 (A) (A) (A) (A) (A) (A) (A) (A) (A) (A) (A) (A)
                 (A) (A) (A) (A) (A) (A) (A) (A) (A) (A) (A) (A)
                 (A) (A) (A) (A) (A) (A) (A) (A) (A) (A) (A) (A)
                 (A) (A) (A) (A) (A) (A) (A) (A) (A) (A) (A) (A)
                 (A) (A) (A) (A) (A) (A) (A) (A) (A) (A) (A) (A)
                 (A) (A) (A) (A) (A) (A) (A) (A) (A) (A) (A) (A)
                 (A) (A) (A) (A) (A) (A) (A) (A) (A) (A) (A) (A)
                 (A) (A) (A) (A) (A) (A) (A) (A) (A) (A) (A) (A)
                 (A) (A) (A) (A) (A) (A) (A) (A) (A) (A) (A) (A)
                 (A) (A) (A) (A) (A) (A) (A) (A) (A) (A) (A) (A)
                 (A) (A) (A) (A) (A) (A) (A) (A) (A) (A) (A) (A)
                 (A) (A) (A) (A) (A) (A) (A) (A) (A) (A) (A) (A)
                 (A) (A) (A) (A) (A) (A) (A) (A) (A) (A) (A) (A)
                 (A) (A) (A) (A) (A) (A) (A) (A) (A) (A) (A) (A)
                 (A) (A) (A) (A) (A) (A) (A) (A) (A) (A) (A) (A)
                 (A) (A) (A) (A) (A) (A) (A) (A) (A) (A) (A) (A)
                 (A) (A) (A) (A) (A) (A) (A) (A) (A) (A) (A) (A)
                 (A) (A) (A) (A) (A) (A) (A) (A) (A) (A) (A) (A)
                 (A) (A) (A) (A) (A) (A) (A) (A) (A) (A) (A) (A)
                 (A) (A) (A) (A) (A) (A) (A) (A) (A) (A) (A) (A)
                 (A) (A) (A) (A) (A) (A) (A) (A) (A) (A) (A) (A)
                 (A) (A) (A) (A) (A) (A) (A) (A) (A) (A) (A) (A)
                 (A) (A) (A) (A) (A) (A) (A) (A) (A) (A) (A) (A)
                 (A) (A) (A) (A) (A) (A) (A) (A) (A) (A) (A) (A)
                 (A) (A) (A) (A) (A) (A) (A) (A) (A) (A) (A) (A)
                 (A) (A) (A) (A) (A) (A) (A) (A) (A) (A) (A) (A)
                 (A) (A) (A) (A) (A) (A) (A) (A) (A) (A) (A) (A)
                 (A) (A) (A) (A) (A) (A) (A) (A) (A) (A) (A) (A)
                 (A) (A) (A) (A) (A) (A) (A) (A) (A) (A) (A) (A)
                 (A) (A) (A) (A) (A) (A) (A) (A) (A) (A) (A) (A)
                 (A) (A) (A) (A) (A) (A) (A) (A) (A) (A) (A) (A)
                 (A) (A) (A) (A) (A) (A) (A) (A) (A) (A) (A) (A)
                 (A) (A) (A) (A) (A) (A) (A) (A) (A) (A) (A) (A)
                 (A) (A) (A) (A) (A) (A) (A) (A) (A) (A) (A) (A)
                 (A) (A) (A) (A) (A) (A) (A) (A) (A) (A) (A) (A)
                 (A) (A) (A) (A) (A) (A) (A) (A) (A) (A) (A) (A)
                 (A) (A) (A) (A) (A) (A) (A) (A) (A) (A) (A) (A)
                 (A) (A) (A) (A) (A) (A) (A) (A) (A) (A) (A) (A)
                 (A) (A) (A) (A) (A) (A) (A) (A) (A) (A) (A) (A)
                 (A) (A) (A) (A) (A) (A) (A) (A) (A) (A) (A) (A)
                 (A) (A) (A) (A) (A) (A) (A) (A) (A) (A) (A) (A)
                 (A) (A) (A) (A) (A) (A) (A) (A) (A) (A) (A) (A)
                 (A) (A) (A) (A) (A) (A)
 The electronic state is 1-A.
 Alpha  occ. eigenvalues --  -46.85172 -19.25656 -19.25449 -19.20377 -19.20169
 Alpha  occ. eigenvalues --  -19.19391 -14.41889 -14.40305 -14.39027 -14.38950
 Alpha  occ. eigenvalues --  -10.39133 -10.38099 -10.34646 -10.32482 -10.32189
 Alpha  occ. eigenvalues --  -10.31852 -10.30200 -10.29893 -10.29843 -10.29784
 Alpha  occ. eigenvalues --  -10.29383 -10.29238 -10.29209 -10.29143 -10.28968
 Alpha  occ. eigenvalues --  -10.28923 -10.28645 -10.28461 -10.28362 -10.28279
 Alpha  occ. eigenvalues --  -10.28263 -10.28137 -10.27903 -10.27808 -10.27662
 Alpha  occ. eigenvalues --  -10.27584 -10.27503 -10.27316 -10.27205 -10.27037
 Alpha  occ. eigenvalues --  -10.27019 -10.26955 -10.26833 -10.26804 -10.26786
 Alpha  occ. eigenvalues --  -10.26705 -10.26449 -10.26437 -10.26284 -10.26257
 Alpha  occ. eigenvalues --  -10.26248 -10.26214 -10.26196 -10.25855 -10.25797
 Alpha  occ. eigenvalues --  -10.25667 -10.25363 -10.24578 -10.24572 -10.24454
 Alpha  occ. eigenvalues --  -10.24451 -10.24245 -10.24207 -10.24077 -10.23813
 Alpha  occ. eigenvalues --   -3.14024  -1.88743  -1.88235  -1.88213  -1.20435
 Alpha  occ. eigenvalues --   -1.16450  -1.13402  -1.09391  -1.06178  -1.05880
 Alpha  occ. eigenvalues --   -1.03797  -1.02996  -1.02186  -0.92923  -0.91912
 Alpha  occ. eigenvalues --   -0.90938  -0.90460  -0.89937  -0.89869  -0.89165
 Alpha  occ. eigenvalues --   -0.88588  -0.88109  -0.86844  -0.86156  -0.85906
 Alpha  occ. eigenvalues --   -0.84989  -0.84253  -0.83379  -0.83011  -0.82703
 Alpha  occ. eigenvalues --   -0.81983  -0.80739  -0.80319  -0.79855  -0.78272
 Alpha  occ. eigenvalues --   -0.77836  -0.76927  -0.76613  -0.75780  -0.75311
 Alpha  occ. eigenvalues --   -0.75173  -0.74721  -0.74492  -0.74022  -0.71813
 Alpha  occ. eigenvalues --   -0.71627  -0.70303  -0.69326  -0.68691  -0.67827
 Alpha  occ. eigenvalues --   -0.66596  -0.66246  -0.65567  -0.65015  -0.64826
 Alpha  occ. eigenvalues --   -0.64232  -0.63415  -0.63257  -0.63117  -0.62302
 Alpha  occ. eigenvalues --   -0.61437  -0.60469  -0.60139  -0.59231  -0.58705
 Alpha  occ. eigenvalues --   -0.58472  -0.57715  -0.57331  -0.57041  -0.56684
 Alpha  occ. eigenvalues --   -0.56498  -0.55954  -0.55269  -0.54993  -0.54690
 Alpha  occ. eigenvalues --   -0.54298  -0.54177  -0.53574  -0.53281  -0.53019
 Alpha  occ. eigenvalues --   -0.52706  -0.52618  -0.52276  -0.52148  -0.51843
 Alpha  occ. eigenvalues --   -0.51813  -0.51641  -0.50840  -0.50519  -0.50383
 Alpha  occ. eigenvalues --   -0.50174  -0.49972  -0.49830  -0.49763  -0.49502
 Alpha  occ. eigenvalues --   -0.48785  -0.48657  -0.48642  -0.48358  -0.48203
 Alpha  occ. eigenvalues --   -0.48047  -0.47897  -0.47478  -0.47317  -0.47026
 Alpha  occ. eigenvalues --   -0.46715  -0.46490  -0.46297  -0.46149  -0.45968
 Alpha  occ. eigenvalues --   -0.45639  -0.45587  -0.45572  -0.45400  -0.45236
 Alpha  occ. eigenvalues --   -0.44385  -0.44243  -0.44014  -0.43766  -0.43709
 Alpha  occ. eigenvalues --   -0.43479  -0.43181  -0.42951  -0.42792  -0.42750
 Alpha  occ. eigenvalues --   -0.42692  -0.42287  -0.42176  -0.42046  -0.41797
 Alpha  occ. eigenvalues --   -0.41675  -0.41580  -0.41437  -0.41329  -0.41126
 Alpha  occ. eigenvalues --   -0.40874  -0.40491  -0.40437  -0.40184  -0.40111
 Alpha  occ. eigenvalues --   -0.39828  -0.39655  -0.39400  -0.39235  -0.39142
 Alpha  occ. eigenvalues --   -0.38482  -0.38417  -0.38121  -0.38115  -0.37811
 Alpha  occ. eigenvalues --   -0.37490  -0.37209  -0.37009  -0.36928  -0.36615
 Alpha  occ. eigenvalues --   -0.36520  -0.36037  -0.35831  -0.35614  -0.35545
 Alpha  occ. eigenvalues --   -0.35343  -0.35080  -0.34276  -0.33642  -0.33124
 Alpha  occ. eigenvalues --   -0.32877  -0.32854  -0.32303  -0.30753  -0.30716
 Alpha  occ. eigenvalues --   -0.29848  -0.28937  -0.28412  -0.27653  -0.23464
 Alpha  occ. eigenvalues --   -0.20849
 Alpha virt. eigenvalues --   -0.05244  -0.03307   0.01392   0.03770   0.05883
 Alpha virt. eigenvalues --    0.06032   0.06193   0.06415   0.07152   0.07570
 Alpha virt. eigenvalues --    0.08548   0.09561   0.10402   0.11057   0.11074
 Alpha virt. eigenvalues --    0.11908   0.12213   0.12286   0.12541   0.12615
 Alpha virt. eigenvalues --    0.13254   0.13277   0.13539   0.13821   0.14002
 Alpha virt. eigenvalues --    0.14141   0.14320   0.14816   0.14872   0.15126
 Alpha virt. eigenvalues --    0.15258   0.15501   0.15723   0.15736   0.16207
 Alpha virt. eigenvalues --    0.16321   0.16348   0.16486   0.16987   0.17176
 Alpha virt. eigenvalues --    0.17314   0.17508   0.17530   0.17809   0.18023
 Alpha virt. eigenvalues --    0.18262   0.18356   0.18499   0.18710   0.18877
 Alpha virt. eigenvalues --    0.19049   0.19185   0.19300   0.19625   0.19774
 Alpha virt. eigenvalues --    0.19902   0.19942   0.20174   0.20355   0.20430
 Alpha virt. eigenvalues --    0.20532   0.20570   0.20842   0.21017   0.21079
 Alpha virt. eigenvalues --    0.21239   0.21434   0.21741   0.21880   0.21938
 Alpha virt. eigenvalues --    0.22359   0.22903   0.23061   0.23389   0.23458
 Alpha virt. eigenvalues --    0.23609   0.23754   0.23934   0.23983   0.24114
 Alpha virt. eigenvalues --    0.24159   0.24372   0.24414   0.24640   0.25030
 Alpha virt. eigenvalues --    0.25194   0.25297   0.25489   0.25566   0.25655
 Alpha virt. eigenvalues --    0.25850   0.26228   0.26482   0.26556   0.26696
 Alpha virt. eigenvalues --    0.27279   0.27495   0.27773   0.27873   0.28200
 Alpha virt. eigenvalues --    0.28326   0.28514   0.28719   0.28999   0.29137
 Alpha virt. eigenvalues --    0.29344   0.29513   0.29860   0.30120   0.30143
 Alpha virt. eigenvalues --    0.30329   0.30524   0.30739   0.31024   0.31548
 Alpha virt. eigenvalues --    0.31757   0.31844   0.32064   0.32500   0.32896
 Alpha virt. eigenvalues --    0.33233   0.33420   0.33542   0.33659   0.33863
 Alpha virt. eigenvalues --    0.34695   0.34754   0.35410   0.35665   0.35900
 Alpha virt. eigenvalues --    0.36237   0.36333   0.36590   0.38151   0.38366
 Alpha virt. eigenvalues --    0.38381   0.39301   0.39731   0.40100   0.40621
 Alpha virt. eigenvalues --    0.40766   0.40948   0.41574   0.42176   0.42945
 Alpha virt. eigenvalues --    0.43062   0.43966   0.44328   0.44496   0.44842
 Alpha virt. eigenvalues --    0.46490   0.47192   0.47537   0.48718   0.49126
 Alpha virt. eigenvalues --    0.49791   0.50288   0.51110   0.51948   0.52095
 Alpha virt. eigenvalues --    0.52780   0.53110   0.53489   0.54367   0.54410
 Alpha virt. eigenvalues --    0.55067   0.55183   0.55243   0.55723   0.55812
 Alpha virt. eigenvalues --    0.56299   0.56503   0.56768   0.57066   0.57368
 Alpha virt. eigenvalues --    0.57532   0.57828   0.57949   0.58160   0.58353
 Alpha virt. eigenvalues --    0.58451   0.58756   0.58804   0.59382   0.59524
 Alpha virt. eigenvalues --    0.59592   0.59750   0.59757   0.59954   0.60306
 Alpha virt. eigenvalues --    0.60820   0.60881   0.61188   0.61373   0.61533
 Alpha virt. eigenvalues --    0.61695   0.61992   0.62344   0.62853   0.63065
 Alpha virt. eigenvalues --    0.63182   0.63346   0.63478   0.63655   0.64150
 Alpha virt. eigenvalues --    0.64341   0.64637   0.64822   0.65274   0.65456
 Alpha virt. eigenvalues --    0.65956   0.66190   0.66380   0.66670   0.66831
 Alpha virt. eigenvalues --    0.66864   0.67142   0.67295   0.67487   0.67865
 Alpha virt. eigenvalues --    0.67995   0.68198   0.68464   0.68661   0.68957
 Alpha virt. eigenvalues --    0.69553   0.69763   0.69868   0.69942   0.70531
 Alpha virt. eigenvalues --    0.71042   0.71183   0.71347   0.71542   0.71636
 Alpha virt. eigenvalues --    0.72011   0.72208   0.72529   0.72945   0.73130
 Alpha virt. eigenvalues --    0.73262   0.73669   0.73976   0.74003   0.74294
 Alpha virt. eigenvalues --    0.74338   0.74564   0.74685   0.75207   0.75337
 Alpha virt. eigenvalues --    0.75630   0.76238   0.76476   0.76860   0.76998
 Alpha virt. eigenvalues --    0.77226   0.77899   0.78190   0.78376   0.78564
 Alpha virt. eigenvalues --    0.78712   0.78934   0.79109   0.79430   0.79603
 Alpha virt. eigenvalues --    0.79629   0.79918   0.80151   0.80430   0.80678
 Alpha virt. eigenvalues --    0.81015   0.81068   0.81298   0.81599   0.81763
 Alpha virt. eigenvalues --    0.81833   0.82149   0.82573   0.82701   0.82932
 Alpha virt. eigenvalues --    0.83188   0.83417   0.83660   0.83800   0.83984
 Alpha virt. eigenvalues --    0.84104   0.84522   0.84744   0.85111   0.85331
 Alpha virt. eigenvalues --    0.85448   0.85616   0.85864   0.86047   0.86280
 Alpha virt. eigenvalues --    0.86409   0.86636   0.86679   0.87082   0.87415
 Alpha virt. eigenvalues --    0.87870   0.88032   0.88156   0.88284   0.88340
 Alpha virt. eigenvalues --    0.88708   0.88850   0.89011   0.89058   0.89170
 Alpha virt. eigenvalues --    0.89427   0.89922   0.90103   0.90318   0.90377
 Alpha virt. eigenvalues --    0.90410   0.90652   0.90952   0.91051   0.91141
 Alpha virt. eigenvalues --    0.91244   0.91725   0.91810   0.92135   0.92266
 Alpha virt. eigenvalues --    0.92598   0.92806   0.92924   0.92998   0.93396
 Alpha virt. eigenvalues --    0.93582   0.93757   0.94074   0.94299   0.94400
 Alpha virt. eigenvalues --    0.94545   0.94725   0.94800   0.95081   0.95319
 Alpha virt. eigenvalues --    0.95515   0.95659   0.95747   0.95813   0.96045
 Alpha virt. eigenvalues --    0.96109   0.96335   0.96477   0.96573   0.96845
 Alpha virt. eigenvalues --    0.97500   0.97870   0.98031   0.98429   0.98640
 Alpha virt. eigenvalues --    0.98838   0.99049   0.99275   0.99454   0.99803
 Alpha virt. eigenvalues --    1.00076   1.00239   1.00300   1.00805   1.00821
 Alpha virt. eigenvalues --    1.01073   1.01588   1.01837   1.01932   1.02193
 Alpha virt. eigenvalues --    1.02364   1.02586   1.02676   1.03035   1.03320
 Alpha virt. eigenvalues --    1.03842   1.03930   1.04121   1.04462   1.04573
 Alpha virt. eigenvalues --    1.04788   1.04901   1.05224   1.05300   1.05443
 Alpha virt. eigenvalues --    1.05700   1.05967   1.06200   1.06711   1.07124
 Alpha virt. eigenvalues --    1.07223   1.07395   1.07682   1.08682   1.09267
 Alpha virt. eigenvalues --    1.09381   1.09405   1.10182   1.10365   1.10432
 Alpha virt. eigenvalues --    1.10552   1.10933   1.11245   1.12030   1.12544
 Alpha virt. eigenvalues --    1.12807   1.13274   1.13815   1.14409   1.15413
 Alpha virt. eigenvalues --    1.15824   1.16307   1.17178   1.17485   1.18017
 Alpha virt. eigenvalues --    1.18542   1.18667   1.19469   1.19631   1.20208
 Alpha virt. eigenvalues --    1.20708   1.21136   1.22282   1.22853   1.23061
 Alpha virt. eigenvalues --    1.23196   1.23317   1.24127   1.24841   1.25112
 Alpha virt. eigenvalues --    1.25454   1.26089   1.26369   1.26501   1.26865
 Alpha virt. eigenvalues --    1.27741   1.27973   1.28278   1.28660   1.29881
 Alpha virt. eigenvalues --    1.30738   1.31132   1.31467   1.32160   1.33104
 Alpha virt. eigenvalues --    1.33302   1.34093   1.34576   1.35090   1.35650
 Alpha virt. eigenvalues --    1.35896   1.36119   1.36577   1.37159   1.37734
 Alpha virt. eigenvalues --    1.37971   1.38229   1.38986   1.39226   1.39563
 Alpha virt. eigenvalues --    1.40390   1.40900   1.41088   1.42462   1.43007
 Alpha virt. eigenvalues --    1.43130   1.43298   1.43775   1.44059   1.44485
 Alpha virt. eigenvalues --    1.44931   1.45882   1.46237   1.46758   1.47944
 Alpha virt. eigenvalues --    1.48047   1.48405   1.49241   1.49425   1.49903
 Alpha virt. eigenvalues --    1.50023   1.50109   1.50770   1.50956   1.51883
 Alpha virt. eigenvalues --    1.52186   1.52595   1.52996   1.53043   1.54890
 Alpha virt. eigenvalues --    1.55329   1.56117   1.56316   1.56452   1.56681
 Alpha virt. eigenvalues --    1.57270   1.58030   1.58219   1.58785   1.59051
 Alpha virt. eigenvalues --    1.59595   1.59726   1.60100   1.60902   1.61899
 Alpha virt. eigenvalues --    1.61958   1.62238   1.62548   1.62721   1.62892
 Alpha virt. eigenvalues --    1.63400   1.63873   1.63978   1.64699   1.64893
 Alpha virt. eigenvalues --    1.64994   1.65103   1.65714   1.66707   1.66978
 Alpha virt. eigenvalues --    1.67527   1.67837   1.68543   1.68881   1.68976
 Alpha virt. eigenvalues --    1.69249   1.69590   1.69847   1.70399   1.70605
 Alpha virt. eigenvalues --    1.70790   1.71384   1.71606   1.72035   1.72366
 Alpha virt. eigenvalues --    1.72671   1.73601   1.73802   1.74111   1.74681
 Alpha virt. eigenvalues --    1.75078   1.75478   1.75791   1.76646   1.77228
 Alpha virt. eigenvalues --    1.77541   1.77804   1.78174   1.78893   1.78967
 Alpha virt. eigenvalues --    1.79287   1.79505   1.80061   1.80290   1.80333
 Alpha virt. eigenvalues --    1.81291   1.81708   1.82085   1.82219   1.82381
 Alpha virt. eigenvalues --    1.83047   1.83231   1.83568   1.83760   1.84064
 Alpha virt. eigenvalues --    1.84941   1.85380   1.85894   1.86221   1.86548
 Alpha virt. eigenvalues --    1.86974   1.87356   1.87595   1.87847   1.88083
 Alpha virt. eigenvalues --    1.88448   1.88627   1.88708   1.89091   1.89266
 Alpha virt. eigenvalues --    1.89462   1.89752   1.90088   1.90291   1.90687
 Alpha virt. eigenvalues --    1.90886   1.91200   1.91381   1.91673   1.91755
 Alpha virt. eigenvalues --    1.91953   1.92384   1.92632   1.93038   1.93060
 Alpha virt. eigenvalues --    1.93381   1.93533   1.93872   1.94010   1.94175
 Alpha virt. eigenvalues --    1.94994   1.95205   1.95321   1.95536   1.95829
 Alpha virt. eigenvalues --    1.96031   1.96181   1.96229   1.96594   1.96849
 Alpha virt. eigenvalues --    1.96900   1.97240   1.97915   1.98020   1.98336
 Alpha virt. eigenvalues --    1.98839   1.99097   1.99444   1.99527   1.99864
 Alpha virt. eigenvalues --    2.00221   2.00600   2.00876   2.01304   2.01367
 Alpha virt. eigenvalues --    2.01555   2.01645   2.02152   2.02417   2.02778
 Alpha virt. eigenvalues --    2.03083   2.03217   2.03759   2.04247   2.04403
 Alpha virt. eigenvalues --    2.04528   2.04847   2.05121   2.05337   2.05874
 Alpha virt. eigenvalues --    2.05929   2.06061   2.06434   2.07040   2.07346
 Alpha virt. eigenvalues --    2.07421   2.07724   2.07869   2.08710   2.08915
 Alpha virt. eigenvalues --    2.09332   2.09425   2.09487   2.09707   2.09835
 Alpha virt. eigenvalues --    2.10567   2.10614   2.11396   2.11615   2.11764
 Alpha virt. eigenvalues --    2.11949   2.12099   2.12644   2.12781   2.12807
 Alpha virt. eigenvalues --    2.13154   2.13546   2.13910   2.13993   2.14301
 Alpha virt. eigenvalues --    2.14544   2.15258   2.15758   2.15768   2.15792
 Alpha virt. eigenvalues --    2.15997   2.16185   2.16434   2.16562   2.16679
 Alpha virt. eigenvalues --    2.17345   2.17466   2.17832   2.18322   2.18448
 Alpha virt. eigenvalues --    2.18567   2.18937   2.19391   2.19733   2.19869
 Alpha virt. eigenvalues --    2.19980   2.21020   2.21592   2.21826   2.21979
 Alpha virt. eigenvalues --    2.22700   2.22912   2.23339   2.23786   2.23978
 Alpha virt. eigenvalues --    2.24543   2.24773   2.25347   2.25550   2.25645
 Alpha virt. eigenvalues --    2.26141   2.26388   2.26961   2.27194   2.27519
 Alpha virt. eigenvalues --    2.27600   2.28213   2.28333   2.28467   2.28862
 Alpha virt. eigenvalues --    2.29394   2.30015   2.30128   2.30352   2.30430
 Alpha virt. eigenvalues --    2.30898   2.31367   2.32197   2.32368   2.32546
 Alpha virt. eigenvalues --    2.33070   2.33189   2.33537   2.33709   2.34044
 Alpha virt. eigenvalues --    2.34343   2.34759   2.34951   2.35122   2.35370
 Alpha virt. eigenvalues --    2.36231   2.36359   2.36425   2.36588   2.37022
 Alpha virt. eigenvalues --    2.37178   2.37389   2.37613   2.38124   2.38176
 Alpha virt. eigenvalues --    2.38509   2.38848   2.39354   2.39668   2.40388
 Alpha virt. eigenvalues --    2.40824   2.40890   2.40902   2.41641   2.41832
 Alpha virt. eigenvalues --    2.42237   2.42603   2.42816   2.43180   2.43252
 Alpha virt. eigenvalues --    2.43575   2.43800   2.44075   2.44459   2.44917
 Alpha virt. eigenvalues --    2.45083   2.45375   2.45807   2.45958   2.46247
 Alpha virt. eigenvalues --    2.46823   2.47219   2.47374   2.47650   2.47905
 Alpha virt. eigenvalues --    2.48146   2.48652   2.49555   2.49626   2.50245
 Alpha virt. eigenvalues --    2.50428   2.50688   2.51289   2.51651   2.51948
 Alpha virt. eigenvalues --    2.52559   2.53052   2.53577   2.53786   2.54101
 Alpha virt. eigenvalues --    2.54148   2.54336   2.54428   2.54481   2.54635
 Alpha virt. eigenvalues --    2.55081   2.55194   2.55673   2.56180   2.56444
 Alpha virt. eigenvalues --    2.56829   2.57231   2.57490   2.58001   2.58258
 Alpha virt. eigenvalues --    2.59212   2.59487   2.59676   2.60582   2.60599
 Alpha virt. eigenvalues --    2.60992   2.61611   2.62017   2.62040   2.62627
 Alpha virt. eigenvalues --    2.62869   2.63471   2.63573   2.63769   2.64128
 Alpha virt. eigenvalues --    2.64244   2.64383   2.65013   2.65347   2.65493
 Alpha virt. eigenvalues --    2.66144   2.66353   2.66695   2.66804   2.66983
 Alpha virt. eigenvalues --    2.67621   2.67868   2.68499   2.68902   2.69427
 Alpha virt. eigenvalues --    2.69492   2.69682   2.70065   2.70562   2.71036
 Alpha virt. eigenvalues --    2.71601   2.71811   2.72253   2.72997   2.73189
 Alpha virt. eigenvalues --    2.73428   2.73820   2.74146   2.74468   2.74871
 Alpha virt. eigenvalues --    2.74975   2.75068   2.75278   2.75375   2.75604
 Alpha virt. eigenvalues --    2.75907   2.76185   2.76560   2.76805   2.77238
 Alpha virt. eigenvalues --    2.77408   2.77721   2.78244   2.78733   2.79193
 Alpha virt. eigenvalues --    2.79208   2.79657   2.79897   2.80203   2.80854
 Alpha virt. eigenvalues --    2.80974   2.81266   2.81333   2.81929   2.82081
 Alpha virt. eigenvalues --    2.82210   2.82786   2.83118   2.83632   2.83688
 Alpha virt. eigenvalues --    2.84355   2.84702   2.85228   2.85333   2.85515
 Alpha virt. eigenvalues --    2.85580   2.86140   2.86660   2.86694   2.87014
 Alpha virt. eigenvalues --    2.87251   2.88305   2.88330   2.88419   2.89030
 Alpha virt. eigenvalues --    2.89364   2.89536   2.89893   2.90407   2.91047
 Alpha virt. eigenvalues --    2.91154   2.91293   2.92060   2.92438   2.93366
 Alpha virt. eigenvalues --    2.93537   2.93619   2.93788   2.94304   2.94555
 Alpha virt. eigenvalues --    2.94858   2.95595   2.95770   2.96226   2.96522
 Alpha virt. eigenvalues --    2.97194   2.97471   2.97911   2.98531   2.99094
 Alpha virt. eigenvalues --    2.99191   2.99715   2.99966   3.01342   3.01368
 Alpha virt. eigenvalues --    3.01510   3.02363   3.02486   3.02804   3.03574
 Alpha virt. eigenvalues --    3.03921   3.05145   3.05377   3.05765   3.05835
 Alpha virt. eigenvalues --    3.06090   3.06245   3.06490   3.07520   3.07838
 Alpha virt. eigenvalues --    3.07939   3.08105   3.09060   3.09208   3.09651
 Alpha virt. eigenvalues --    3.09839   3.10318   3.11885   3.12252   3.12530
 Alpha virt. eigenvalues --    3.12889   3.13380   3.13703   3.14756   3.15166
 Alpha virt. eigenvalues --    3.16205   3.17296   3.17356   3.17631   3.18613
 Alpha virt. eigenvalues --    3.19735   3.20886   3.21080   3.22537   3.23561
 Alpha virt. eigenvalues --    3.23804   3.24078   3.25296   3.25819   3.25918
 Alpha virt. eigenvalues --    3.27210   3.28726   3.29348   3.29847   3.30611
 Alpha virt. eigenvalues --    3.31281   3.32603   3.33455   3.35434   3.35809
 Alpha virt. eigenvalues --    3.36203   3.36220   3.36840   3.37094   3.37430
 Alpha virt. eigenvalues --    3.38180   3.39942   3.40686   3.41023   3.41438
 Alpha virt. eigenvalues --    3.43083   3.43893   3.44398   3.44443   3.44708
 Alpha virt. eigenvalues --    3.45144   3.45509   3.47314   3.47562   3.48128
 Alpha virt. eigenvalues --    3.48367   3.49263   3.49459   3.49571   3.50902
 Alpha virt. eigenvalues --    3.51304   3.51499   3.52314   3.52493   3.53549
 Alpha virt. eigenvalues --    3.53618   3.53783   3.54568   3.54712   3.55063
 Alpha virt. eigenvalues --    3.55770   3.57610   3.58150   3.59878   3.60747
 Alpha virt. eigenvalues --    3.61521   3.62272   3.63556   3.64731   3.65192
 Alpha virt. eigenvalues --    3.66483   3.69878   3.70572   3.71930   3.74482
 Alpha virt. eigenvalues --    3.75400   3.77408   3.78252   4.03516   4.08927
 Alpha virt. eigenvalues --    4.11806   4.14247   4.17577   4.19294   4.21362
 Alpha virt. eigenvalues --    4.22988   4.24323   4.24722   4.26812   4.28382
 Alpha virt. eigenvalues --    4.29083   4.29420   4.30952   4.31791   4.33511
 Alpha virt. eigenvalues --    4.34754   4.37278   4.39355   4.40055   4.41034
 Alpha virt. eigenvalues --    4.41404   4.42085   4.44410   4.45398   4.46144
 Alpha virt. eigenvalues --    4.46630   4.47111   4.48268   4.49673   4.50446
 Alpha virt. eigenvalues --    4.51595   4.53672   4.54029   4.56369   4.56659
 Alpha virt. eigenvalues --    4.58081   4.58981   4.59431   4.59871   4.60400
 Alpha virt. eigenvalues --    4.60623   4.61280   4.62274   4.63443   4.65755
 Alpha virt. eigenvalues --    4.68246   4.70610   4.70917   4.73235   4.73779
 Alpha virt. eigenvalues --    4.74416   4.75661   4.79054   4.79276   4.80889
 Alpha virt. eigenvalues --    4.82397   4.84778   4.86508   4.86759   4.87901
 Alpha virt. eigenvalues --    4.90561   4.95488   5.07748
          Condensed to atoms (all electrons):
 Mulliken charges:
               1
     1  Mg   0.829133
     2  C    0.129771
     3  C   -0.206583
     4  C   -0.216736
     5  C   -0.171041
     6  N   -0.652789
     7  C    0.299103
     8  C   -0.155086
     9  C   -0.178211
    10  C    0.390626
    11  C   -0.307274
    12  C   -0.149309
    13  C   -0.281607
    14  C    0.576383
    15  O   -0.469224
    16  O   -0.436611
    17  N   -0.701404
    18  C    0.258437
    19  C    0.035542
    20  C    0.020642
    21  C    0.359245
    22  C   -0.377032
    23  C   -0.114359
    24  C   -0.229433
    25  N   -0.692769
    26  C    0.343688
    27  C    0.044606
    28  C    0.044580
    29  C    0.244198
    30  C   -0.402352
    31  C   -0.251761
    32  C   -0.300795
    33  N   -0.704795
    34  C    0.253668
    35  C    0.015882
    36  C   -0.007760
    37  C    0.266827
    38  C   -0.364280
    39  C    0.370178
    40  O   -0.422883
    41  C   -0.372887
    42  C    0.612915
    43  O   -0.505818
    44  O   -0.457811
    45  C   -0.073215
    46  C   -0.002089
    47  C   -0.129723
    48  C    0.118646
    49  C   -0.377502
    50  C   -0.218722
    51  C   -0.176810
    52  C   -0.149168
    53  C   -0.062693
    54  C   -0.316163
    55  C   -0.177723
    56  C   -0.165321
    57  C   -0.175303
    58  C   -0.027179
    59  C   -0.310349
    60  C   -0.183074
    61  C   -0.195578
    62  C   -0.166386
    63  C   -0.044854
    64  C   -0.265705
    65  C   -0.312762
    66  H    0.081754
    67  H    0.072639
    68  H    0.079092
    69  H    0.126992
    70  H    0.101909
    71  H    0.113830
    72  H    0.086297
    73  H    0.124219
    74  H    0.133703
    75  H    0.122532
    76  H    0.105875
    77  H    0.118903
    78  H    0.112518
    79  H    0.139380
    80  H    0.137888
    81  H    0.088656
    82  H    0.112403
    83  H    0.115956
    84  H    0.130036
    85  H    0.108342
    86  H    0.108782
    87  H    0.111971
    88  H    0.108800
    89  H    0.096201
    90  H    0.084325
    91  H    0.117723
    92  H    0.136561
    93  H    0.130674
    94  H    0.127260
    95  H    0.176775
    96  H    0.132012
    97  H    0.122161
    98  H    0.110276
    99  H    0.143680
   100  H    0.112973
   101  H    0.082359
   102  H    0.107344
   103  H    0.126947
   104  H    0.116589
   105  H    0.109779
   106  H    0.103769
   107  H    0.105646
   108  H    0.074626
   109  H    0.102910
   110  H    0.104498
   111  H    0.086008
   112  H    0.081475
   113  H    0.080189
   114  H    0.104889
   115  H    0.089507
   116  H    0.100917
   117  H    0.081967
   118  H    0.084096
   119  H    0.067012
   120  H    0.086623
   121  H    0.090729
   122  H    0.078695
   123  H    0.101947
   124  H    0.093120
   125  H    0.092668
   126  H    0.083771
   127  H    0.079764
   128  H    0.087284
   129  H    0.096040
   130  H    0.100211
   131  H    0.086654
   132  H    0.059248
   133  H    0.072367
   134  H    0.102496
   135  H    0.075218
   136  H    0.102423
   137  H    0.113974
 Sum of Mulliken charges =  -0.00000
 Mulliken charges with hydrogens summed into heavy atoms:
               1
     1  Mg   0.829133
     2  C    0.129771
     3  C   -0.124829
     4  C   -0.144097
     5  C   -0.091948
     6  N   -0.652789
     7  C    0.299103
     8  C   -0.028094
     9  C   -0.076302
    10  C    0.390626
    11  C    0.017071
    12  C    0.106926
    13  C   -0.056829
    14  C    0.576383
    15  O   -0.469224
    16  O   -0.436611
    17  N   -0.701404
    18  C    0.258437
    19  C    0.035542
    20  C    0.020642
    21  C    0.359245
    22  C    0.012755
    23  C   -0.025702
    24  C   -0.001075
    25  N   -0.692769
    26  C    0.343688
    27  C    0.044606
    28  C    0.044580
    29  C    0.244198
    30  C   -0.055192
    31  C   -0.030990
    32  C   -0.002546
    33  N   -0.704795
    34  C    0.253668
    35  C    0.015882
    36  C   -0.007760
    37  C    0.266827
    38  C    0.030214
    39  C    0.370178
    40  O   -0.422883
    41  C   -0.196113
    42  C    0.612915
    43  O   -0.505818
    44  O   -0.457811
    45  C    0.291234
    46  C    0.254564
    47  C   -0.047364
    48  C    0.118646
    49  C   -0.026622
    50  C   -0.005175
    51  C    0.003462
    52  C    0.058241
    53  C    0.023315
    54  C   -0.049609
    55  C    0.012701
    56  C    0.000743
    57  C   -0.021668
    58  C    0.063550
    59  C   -0.036587
    60  C   -0.006634
    61  C   -0.028530
    62  C    0.029865
    63  C    0.041800
    64  C   -0.031593
    65  C   -0.021147
 Electronic spatial extent (au):  <R**2>=         180669.6951
 Charge=             -0.0000 electrons
 Dipole moment (field-independent basis, Debye):
    X=              3.3890    Y=              5.9418    Z=              1.0688  Tot=              6.9234
 Quadrupole moment (field-independent basis, Debye-Ang):
   XX=           -353.8548   YY=           -389.3596   ZZ=           -401.6354
   XY=            -24.8692   XZ=             16.0289   YZ=             -1.3568
 Traceless Quadrupole moment (field-independent basis, Debye-Ang):
   XX=             27.7618   YY=             -7.7430   ZZ=            -20.0188
   XY=            -24.8692   XZ=             16.0289   YZ=             -1.3568
 Octapole moment (field-independent basis, Debye-Ang**2):
  XXX=           -447.3701  YYY=            148.9569  ZZZ=             36.1834  XYY=            -83.7674
  XXY=            144.3631  XXZ=            -31.7819  XZZ=             22.3498  YZZ=            -18.2629
  YYZ=             41.0452  XYZ=            -31.8091
 Hexadecapole moment (field-independent basis, Debye-Ang**3):
 XXXX=        -221620.8833 YYYY=         -18013.2322 ZZZZ=          -4125.4004 XXXY=           -358.2692
 XXXZ=           3644.1559 YYYX=          -1412.9674 YYYZ=           -261.2105 ZZZX=           -107.2872
 ZZZY=           -137.8273 XXYY=         -40396.1830 XXZZ=         -39610.6435 YYZZ=          -3565.9987
 XXYZ=           -205.3414 YYXZ=            117.1264 ZZXY=             61.2063
 N-N= 8.710996089409D+03 E-N=-2.424385392347D+04  KE= 2.904607762462D+03
 1\1\GINC-RYZEN-SSD3\SP\RCAM-B3LYP TD-FC\6-31G(d,p)\C55H72Mg1N4O5\PADAW
 AN\30-Jun-2019\0\\# td=(NStates=1) CAM-B3LYP/6-31G(d,p)\\TD\\0,1\Mg,0,
 -7.1297735504,0.6161003581,0.1116988573\C,0,-4.8338780058,-1.932244402
 8,0.4698735201\C,0,-4.7552454534,2.9129797453,0.9869050554\C,0,-9.3809
 928348,3.0443799335,-0.3384567054\C,0,-9.4875190656,-1.7959851095,-0.8
 592323523\N,0,-5.0187753021,0.4448643045,0.6583862569\C,0,-4.296199326
 ,-0.7216119832,0.7533433575\C,0,-2.9368026857,-0.4100704327,1.03692404
 66\C,0,-3.0339268311,1.1141840867,1.4957903097\C,0,-4.3594129362,1.514
 322181,1.0552625562\C,0,-2.841139196,1.4298852766,2.994950904\C,0,-1.9
 471581768,-0.606315893,-0.1048465264\C,0,-0.4746948921,-0.441018449,0.
 3962337527\C,0,0.5431154487,-0.5910426172,-0.799555336\O,0,0.257657005
 8,-1.0358789955,-1.8581421459\O,0,1.7575275633,-0.485855982,-0.4337301
 619\N,0,-7.204710919,2.6315787477,0.3448631818\C,0,-6.0671159906,3.410
 94207,0.7829918328\C,0,-6.3921764707,4.9543497244,0.7634770349\C,0,-7.
 6987125783,4.9689875303,0.3731357049\C,0,-8.1837726489,3.478807076,0.1
 054230886\C,0,-5.452983255,6.0495774236,1.102625023\C,0,-8.6065184494,
 6.115712605,0.1811150969\C,0,-8.4582197133,7.3268288015,0.8421804678\N
 ,0,-9.0803903116,0.6305159127,-0.5845224859\C,0,-9.8110273624,1.730302
 9834,-0.6556918933\C,0,-11.1752666233,1.4398123203,-1.0273344529\C,0,-
 11.2280752114,0.0754729114,-1.2000987239\C,0,-9.9492706078,-0.43529550
 39,-0.8021852346\C,0,-12.2813469584,2.4045210231,-1.2741841932\C,0,-12
 .429297476,-0.7543428444,-1.4881296215\C,0,-12.4513526237,-1.227235134
 7,-2.9353686555\N,0,-7.2116506334,-1.4506746811,-0.0445291299\C,0,-8.2
 20012241,-2.2997851506,-0.5219071459\C,0,-7.7962857742,-3.669755243,-0
 .5609633736\C,0,-6.4718010642,-3.5951638534,-0.1104727792\C,0,-6.13036
 5633,-2.2433326146,0.0721400182\C,0,-8.689076375,-4.8734401864,-0.8884
 773261\C,0,-5.2902334936,-4.410044888,0.1973426069\O,0,-5.1751863565,-
 5.5766421476,0.2003370644\C,0,-4.1849520746,-3.3237081606,0.5232721925
 \C,0,-3.7270233332,-3.7533005514,1.904530826\O,0,-3.8599375944,-3.2437
 811143,3.0436470458\O,0,-2.8537565694,-4.817666489,1.8132599069\C,0,-2
 .4442350114,-5.348469076,3.0835532908\C,0,2.8421067224,-0.7285306477,-
 1.3778289833\C,0,4.1182539144,-0.3726654428,-0.6557057196\C,0,5.084171
 9016,0.4317594413,-1.0458643591\C,0,5.0574941724,1.339096559,-2.133787
 5441\C,0,6.5155058834,0.459187769,-0.1814846337\C,0,7.7052180597,-0.20
 2170564,-0.8672836789\C,0,9.0001418868,-0.110946225,-0.0653783506\C,0,
 10.2536059851,-0.6065877305,-0.8707680473\C,0,10.1747341736,-2.0897199
 081,-1.064289894\C,0,11.4197548524,-0.3280065815,0.035604429\C,0,12.78
 1183026,-0.5860026514,-0.6787879017\C,0,13.9914386123,-0.1914703498,0.
 1933063981\C,0,15.3321793428,-0.1304167708,-0.5573239722\C,0,15.801251
 7941,-1.5303906729,-1.0419038081\C,0,16.371551261,0.454419802,0.393573
 8646\C,0,17.8031749069,0.5093523336,-0.1686126759\C,0,18.8726876383,1.
 221350352,0.7677372067\C,0,20.2852471939,1.3950898425,0.2542001832\C,0
 ,20.3674681006,2.2299512923,-0.9558165744\C,0,21.0552064514,2.00032296
 86,1.4529406575\H,0,-4.0969711816,3.6209876202,1.56173076\H,0,-10.1165
 620489,3.9741182468,-0.5577711686\H,0,-10.4801113005,-2.6453238732,-1.
 2491615684\H,0,-2.7183382907,-1.1543537493,1.770777769\H,0,-2.14353795
 9,1.7248660692,0.9306737178\H,0,-1.8299474522,1.0830887618,3.269150628
 6\H,0,-2.7270977698,2.6410081583,3.2042025857\H,0,-3.49587303,0.905645
 2485,3.8329657094\H,0,-2.0166941543,-1.5947594363,-0.4342973389\H,0,-2
 .035725245,0.1407813285,-0.8800680464\H,0,-0.128446362,0.5995645704,0.
 8372141205\H,0,-0.2505828603,-1.0545399692,1.4201659718\H,0,-5.9752162
 97,7.0515638005,0.5649722064\H,0,-5.2728942788,6.0494683099,2.15058135
 52\H,0,-4.559479904,5.9182529917,0.5868518608\H,0,-9.5057626288,6.2172
 978779,-0.681298358\H,0,-9.0879100069,8.105901329,0.4303126531\H,0,-7.
 8894584116,7.2185982593,1.669095295\H,0,-11.9856026654,2.9432246485,-2
 .1673797427\H,0,-13.4028999592,2.1265265439,-1.5683280243\H,0,-12.3779
 195231,3.347103365,-0.5996512091\H,0,-12.6236171401,-1.5723266778,-0.8
 348084357\H,0,-13.3293016491,-0.2363103678,-1.399555483\H,0,-13.302166
 5693,-1.9504597322,-2.9455844429\H,0,-12.9521887831,-0.2499795356,-3.5
 185453502\H,0,-11.5255988392,-1.742079075,-3.2794965697\H,0,-8.7323728
 403,-4.7823689798,-1.9925925234\H,0,-7.9969590607,-5.8096409683,-0.595
 1191249\H,0,-9.6509049754,-5.0014951708,-0.2534371663\H,0,-3.278898585
 8,-3.6477280235,0.0400587344\H,0,-1.8453026968,-4.7561220519,3.5899619
 115\H,0,-3.3070203106,-5.4508367013,3.8174445834\H,0,-2.0053786494,-6.
 4185511283,2.9784417971\H,0,2.6417634804,-1.693681204,-1.860870052\H,0
 ,2.7027777554,-0.0154072611,-2.2067138236\H,0,4.2977806837,-1.20930314
 55,0.164379654\H,0,4.1242013836,1.2852872391,-2.8115595257\H,0,5.16836
 22479,2.4132715861,-1.9464911173\H,0,5.9862759352,1.1215932668,-2.7904
 877798\H,0,6.3983819011,1.4387378738,0.2811207549\H,0,6.4398181012,-0.
 2532933667,0.6407637931\H,0,7.256613046,-1.2517544106,-1.1634876724\H,
 0,7.9593183677,0.3711003181,-1.8557184954\H,0,9.322194271,0.8046283478
 ,0.2390915414\H,0,8.9972382125,-0.7703825445,0.7119090546\H,0,10.42020
 95724,0.0139939371,-1.8359084803\H,0,9.4480297885,-2.5929072672,-1.903
 7262974\H,0,11.0524878045,-2.8841251964,-1.1570699509\H,0,9.9860714931
 ,-2.8646684088,-0.3038298227\H,0,11.436761357,0.7033625665,0.363627850
 3\H,0,11.3179748509,-0.8959155529,0.8860892305\H,0,12.9452278417,-1.81
 01891801,-0.7284005077\H,0,12.916385391,0.0695276438,-1.6473881001\H,0
 ,13.8808995267,0.8822607821,0.6182391669\H,0,13.9120339565,-0.77912751
 75,1.1557120877\H,0,15.4456478533,0.3957390589,-1.3141557736\H,0,15.95
 08525282,-2.1037806702,-0.0171731712\H,0,15.0797210228,-2.1261749931,-
 1.6780152166\H,0,16.8508447139,-1.4070662315,-1.5433758071\H,0,16.1311
 683175,1.447472581,0.6735939037\H,0,16.3182362708,-0.0896681419,1.3459
 873599\H,0,18.1271036491,-0.6410206495,-0.2698803284\H,0,17.6851455791
 ,0.8865359725,-1.2148550613\H,0,18.5386646591,2.0968038381,1.197867792
 1\H,0,18.8172888892,0.6761317942,1.667246725\H,0,20.9430692196,0.47438
 35866,0.1115382178\H,0,19.598853992,3.2606196239,-0.8371373071\H,0,21.
 4555098031,2.8718438372,-1.1834997133\H,0,20.0787617806,1.5848202928,-
 1.8977367427\H,0,20.8342594011,1.4023183409,2.4483044476\H,0,22.121473
 8537,1.8378350132,1.3987648428\H,0,20.7358833182,2.9206021435,1.611881
 6287\\Version=ES64L-G16RevA.03\State=1-A\HF=-2932.5754075\RMSD=8.671e-
 09\PG=C01 [X(C55H72Mg1N4O5)]\\@


 YOU KNOW YOU'RE A TEACHER WHEN YOU SAY 2, WRITE 3, AND MEAN 4.
 -- RONALD ANSTROM, HIGH SCHOOL TEACHER, UNDERWOOD, N.D. 1974
 Job cpu time:       0 days 11 hours 21 minutes  7.5 seconds.
 Elapsed time:       0 days  2 hours 50 minutes 40.5 seconds.
 File lengths (MBytes):  RWF=   6809 Int=      0 D2E=      0 Chk=    181 Scr=      1
 Normal termination of Gaussian 16 at Sun Jun 30 12:32:32 2019.
