 Entering Gaussian System, Link 0=g16
 Input=Geometria-20-.com
 Output=Geometria-20-.log
 Initial command:
 /usr/local/g16/l1.exe "/home/padawan/israel-mol/chlorophyll-a/spectra/emi/Gau-25091.inp" -scrdir="/home/padawan/israel-mol/chlorophyll-a/spectra/emi/"
 Entering Link 1 = /usr/local/g16/l1.exe PID=     25093.
  
 Copyright (c) 1988,1990,1992,1993,1995,1998,2003,2009,2016,
            Gaussian, Inc.  All Rights Reserved.
  
 This is part of the Gaussian(R) 16 program.  It is based on
 the Gaussian(R) 09 system (copyright 2009, Gaussian, Inc.),
 the Gaussian(R) 03 system (copyright 2003, Gaussian, Inc.),
 the Gaussian(R) 98 system (copyright 1998, Gaussian, Inc.),
 the Gaussian(R) 94 system (copyright 1995, Gaussian, Inc.),
 the Gaussian 92(TM) system (copyright 1992, Gaussian, Inc.),
 the Gaussian 90(TM) system (copyright 1990, Gaussian, Inc.),
 the Gaussian 88(TM) system (copyright 1988, Gaussian, Inc.),
 the Gaussian 86(TM) system (copyright 1986, Carnegie Mellon
 University), and the Gaussian 82(TM) system (copyright 1983,
 Carnegie Mellon University). Gaussian is a federally registered
 trademark of Gaussian, Inc.
  
 This software contains proprietary and confidential information,
 including trade secrets, belonging to Gaussian, Inc.
  
 This software is provided under written license and may be
 used, copied, transmitted, or stored only in accord with that
 written license.
  
 The following legend is applicable only to US Government
 contracts under FAR:
  
                    RESTRICTED RIGHTS LEGEND
  
 Use, reproduction and disclosure by the US Government is
 subject to restrictions as set forth in subparagraphs (a)
 and (c) of the Commercial Computer Software - Restricted
 Rights clause in FAR 52.227-19.
  
 Gaussian, Inc.
 340 Quinnipiac St., Bldg. 40, Wallingford CT 06492
  
  
 ---------------------------------------------------------------
 Warning -- This program may not be used in any manner that
 competes with the business of Gaussian, Inc. or will provide
 assistance to any competitor of Gaussian, Inc.  The licensee
 of this program is prohibited from giving any competitor of
 Gaussian, Inc. access to this program.  By using this program,
 the user acknowledges that Gaussian, Inc. is engaged in the
 business of creating and licensing software in the field of
 computational chemistry and represents and warrants to the
 licensee that it is not a competitor of Gaussian, Inc. and that
 it will not use this program in any manner prohibited above.
 ---------------------------------------------------------------
  

 Cite this work as:
 Gaussian 16, Revision A.03,
 M. J. Frisch, G. W. Trucks, H. B. Schlegel, G. E. Scuseria, 
 M. A. Robb, J. R. Cheeseman, G. Scalmani, V. Barone, 
 G. A. Petersson, H. Nakatsuji, X. Li, M. Caricato, A. V. Marenich, 
 J. Bloino, B. G. Janesko, R. Gomperts, B. Mennucci, H. P. Hratchian, 
 J. V. Ortiz, A. F. Izmaylov, J. L. Sonnenberg, D. Williams-Young, 
 F. Ding, F. Lipparini, F. Egidi, J. Goings, B. Peng, A. Petrone, 
 T. Henderson, D. Ranasinghe, V. G. Zakrzewski, J. Gao, N. Rega, 
 G. Zheng, W. Liang, M. Hada, M. Ehara, K. Toyota, R. Fukuda, 
 J. Hasegawa, M. Ishida, T. Nakajima, Y. Honda, O. Kitao, H. Nakai, 
 T. Vreven, K. Throssell, J. A. Montgomery, Jr., J. E. Peralta, 
 F. Ogliaro, M. J. Bearpark, J. J. Heyd, E. N. Brothers, K. N. Kudin, 
 V. N. Staroverov, T. A. Keith, R. Kobayashi, J. Normand, 
 K. Raghavachari, A. P. Rendell, J. C. Burant, S. S. Iyengar, 
 J. Tomasi, M. Cossi, J. M. Millam, M. Klene, C. Adamo, R. Cammi, 
 J. W. Ochterski, R. L. Martin, K. Morokuma, O. Farkas, 
 J. B. Foresman, and D. J. Fox, Gaussian, Inc., Wallingford CT, 2016.
 
 ******************************************
 Gaussian 16:  ES64L-G16RevA.03 25-Dec-2016
                27-Jun-2019 
 ******************************************
 %nproc=4
 Will use up to    4 processors via shared memory.
 %Mem=2GB
 -------------------------------------
 # td=(NStates=1) CAM-B3LYP/6-31G(d,p)
 -------------------------------------
 1/38=1,172=1/1;
 2/12=2,17=6,18=5,40=1/2;
 3/5=1,6=6,7=101,11=9,25=1,30=1,74=-40/1,2,3,8;
 4//1;
 5/5=2,38=5/2;
 8/6=1,10=2,108=1/1;
 9/41=1,42=1,70=2/14;
 6/7=2,8=2,9=2,10=2/1;
 99/5=1,9=1/99;
 --
 TD
 --
 Symbolic Z-matrix:
 Charge =  0 Multiplicity = 1
 12                   -7.10913   0.67803   0.04656 
 6                    -4.83192  -1.94229   0.45575 
 6                    -4.83865   2.81649   1.18171 
 6                    -9.41638   3.17333  -0.44231 
 6                    -9.52875  -1.80849  -0.74934 
 7                    -5.06469   0.42223   0.69326 
 6                    -4.26575  -0.70125   0.73479 
 6                    -2.9322   -0.30442   1.27829 
 6                    -3.04192   1.1276    1.73841 
 6                    -4.35412   1.57127   1.14862 
 6                    -3.00609   1.18951   3.24362 
 6                    -1.86448  -0.55201   0.12345 
 6                    -0.45295  -0.41316   0.55833 
 6                     0.46078  -0.65358  -0.53808 
 8                     0.21472  -1.00169  -1.67742 
 8                     1.82719  -0.52992  -0.19478 
 7                    -7.14      2.66426   0.31444 
 6                    -6.04603   3.40902   0.76993 
 6                    -6.44776   4.83162   0.82484 
 6                    -7.79677   4.96305   0.27862 
 6                    -8.11902   3.59027  -0.09729 
 6                    -5.51329   5.86409   1.05682 
 6                    -8.6298    6.04128   0.29948 
 6                    -8.53279   7.1884    0.98124 
 7                    -9.13896   0.63696  -0.42973 
 6                    -9.84437   1.82956  -0.66693 
 6                    -11.2338   1.47859  -1.15281 
 6                    -11.27561   0.04396  -1.27472 
 6                    -9.90478  -0.47768  -0.82756 
 6                    -12.25565   2.45554  -1.5139 
 6                    -12.36591  -0.84436  -1.7714 
 6                    -12.35378  -1.00334  -3.37833 
 7                    -7.22378  -1.32535  -0.24872 
 6                    -8.21501  -2.18707  -0.52255 
 6                    -7.74466  -3.5827   -0.55377 
 6                    -6.38957  -3.43334  -0.16821 
 6                    -6.16515  -2.18109  -0.06843 
 6                    -8.53556  -4.817    -0.56758 
 6                    -5.31433  -4.32827   0.21767 
 8                    -5.14058  -5.52162   0.28135 
 6                    -4.17055  -3.31707   0.52591 
 6                    -3.49592  -3.6246    1.9119 
 8                    -3.76471  -3.03716   2.9484 
 8                    -2.68148  -4.7224    1.77495 
 6                    -2.17753  -5.31425   3.02807 
 6                     2.74842  -0.75015  -1.28663 
 6                     4.13758  -0.68161  -0.69388 
 6                     5.09941   0.25571  -0.96978 
 6                     5.04308   1.13438  -2.17203 
 6                     6.33033   0.21186  -0.1896 
 6                     7.65739  -0.39829  -0.93764 
 6                     8.95883  -0.19651  -0.14391 
 6                     10.27075  -0.62846  -0.92338 
 6                     10.18172  -2.07485  -1.48519 
 6                     11.42496  -0.2823   -0.10022 
 6                     12.75    -0.64717  -0.72437 
 6                     14.00672  -0.20965   0.20242 
 6                     15.4444  -0.27091  -0.4733 
 6                     15.75241  -1.68951  -0.93274 
 6                     16.35296   0.4161    0.40072 
 6                     17.79707   0.49423  -0.13022 
 6                     18.68369   1.35172   0.80446 
 6                     20.19156   1.54129   0.29771 
 6                     20.28412   2.25826  -1.03345 
 6                     21.12238   2.21466   1.3637 
 1                    -4.15538   3.56115   1.60645 
 1                    -10.33649   3.78329  -0.59518 
 1                    -10.43749  -2.34482  -1.07486 
 1                    -2.66007  -0.92157   2.22781 
 1                    -2.37317   1.70787   1.15578 
 1                    -2.07534   0.96709   3.56966 
 1                    -3.40767   2.12837   3.49796 
 1                    -3.55058   0.29584   3.41337 
 1                    -2.00217  -1.55851  -0.05304 
 1                    -2.07565   0.06366  -0.68856 
 1                    -0.10079   0.4672    0.87136 
 1                    -0.24208  -1.11614   1.34614 
 1                    -5.94544   6.92574   0.65101 
 1                    -5.51551   6.27467   2.13872 
 1                    -4.4369    5.69184   0.77146 
 1                    -9.77595   5.87343  -0.08293 
 1                    -9.53328   7.77565   1.24727 
 1                    -7.69869   7.15507   1.68056 
 1                    -12.04601   2.95213  -2.62062 
 1                    -13.24101   1.96177  -1.56919 
 1                    -12.46483   2.91478  -0.59202 
 1                    -12.44119  -1.78003  -1.112 
 1                    -13.2858  -0.47348  -1.41133 
 1                    -13.08986  -1.98398  -3.6355 
 1                    -12.7638  -0.29053  -3.90373 
 1                    -11.27349  -1.21181  -3.60565 
 1                    -9.12824  -4.77846  -1.65123 
 1                    -7.89169  -5.76236  -0.58485 
 1                    -9.4468   -4.85696   0.0644 
 1                    -3.4279   -3.4111   -0.28024 
 1                    -1.71872  -4.50991   3.67182 
 1                    -3.14782  -5.57178   3.64165 
 1                    -1.61189  -6.25762   2.82423 
 1                     2.57577  -1.80733  -1.56275 
 1                     2.70669  -0.02736  -2.18203 
 1                     4.32812  -1.22694   0.22383 
 1                     4.13757   1.32804  -2.67788 
 1                     5.41421   2.22111  -1.8744 
 1                     5.79388   1.01227  -3.21543 
 1                     6.43159   1.189     0.29098 
 1                     6.29602  -0.37048   0.5494 
 1                     7.52526  -1.35935  -1.21891 
 1                     7.67058   0.03344  -1.93176 
 1                     9.19194   0.87576   0.08574 
 1                     8.91869  -0.81278   0.64555 
 1                     10.30528  -0.14712  -1.9626 
 1                     9.18605  -2.18406  -2.02344 
 1                     11.15796  -2.48733  -2.06315 
 1                     10.2556  -2.59194  -0.49983 
 1                     11.63073   0.80879   0.08931 
 1                     11.33462  -0.63688   0.84843 
 1                     12.93041  -1.62259  -0.96809 
 1                     12.71446  -0.1782   -1.66806 
 1                     13.77169   0.8244    0.45877 
 1                     13.86449  -0.84784   1.25032 
 1                     15.36839   0.41779  -1.38796 
 1                     15.95289  -2.39225  -0.11545 
 1                     15.10076  -2.15569  -1.65252 
 1                     16.69516  -1.92763  -1.45773 
 1                     16.00962   1.49176   0.39322 
 1                     16.32832   0.16927   1.34998 
 1                     18.12912  -0.54634  -0.23269 
 1                     17.78807   1.1767   -1.28398 
 1                     18.29975   2.45044   0.92996 
 1                     18.86107   0.86118   1.76192 
 1                     20.54913   0.40888   0.27992 
 1                     20.05129   3.35374  -1.01154 
 1                     21.40042   2.34345  -1.39838 
 1                     19.76893   1.70014  -1.7578 
 1                     21.05918   1.78962   2.2965 
 1                     21.96666   2.15661   0.78001 
 1                     20.70605   3.08671   1.58372 
 
 Stoichiometry    C55H72MgN4O5
 Framework group  C1[X(C55H72MgN4O5)]
 Deg. of freedom   405
 Full point group                 C1      NOp   1
 Largest Abelian subgroup         C1      NOp   1
 Largest concise Abelian subgroup C1      NOp   1
                         Standard orientation:                         
 ---------------------------------------------------------------------
 Center     Atomic      Atomic             Coordinates (Angstroms)
 Number     Number       Type             X           Y           Z
 ---------------------------------------------------------------------
      1         12           0       -7.107967    0.671715    0.038818
      2          6           0       -4.827942   -1.943120    0.466947
      3          6           0       -4.840374    2.820535    1.160094
      4          6           0       -9.417850    3.160964   -0.468139
      5          6           0       -9.524445   -1.822977   -0.740877
      6          7           0       -5.063495    0.422711    0.688063
      7          6           0       -4.263292   -0.699547    0.737649
      8          6           0       -2.930417   -0.297463    1.278919
      9          6           0       -3.041942    1.137563    1.729123
     10          6           0       -4.354415    1.575666    1.135773
     11          6           0       -3.006781    1.209891    3.233875
     12          6           0       -1.861953   -0.551790    0.126229
     13          6           0       -0.450758   -0.408334    0.560697
     14          6           0        0.463682   -0.655266   -0.533671
     15          8           0        0.218478   -1.011496   -1.670686
     16          8           0        1.829821   -0.527689   -0.190694
     17          7           0       -7.141204    2.659713    0.292989
     18          6           0       -6.048262    3.408839    0.743764
     19          6           0       -6.451628    4.831321    0.788714
     20          6           0       -7.800568    4.957447    0.241067
     21          6           0       -8.121102    3.581744   -0.125493
     22          6           0       -5.518421    5.866430    1.013936
     23          6           0       -8.634829    6.034844    0.254170
     24          6           0       -8.539391    7.186754    0.928054
     25          7           0       -9.137554    0.625052   -0.437971
     26          6           0       -9.844228    1.815192   -0.683666
     27          6           0      -11.233066    1.459293   -1.167653
     28          6           0      -11.273195    0.023814   -1.279689
     29          6           0       -9.901948   -0.493170   -0.828410
     30          6           0      -12.255883    2.432567   -1.535868
     31          6           0      -12.362288   -0.869150   -1.770663
     32          6           0      -12.349338   -1.039187   -3.376460
     33          7           0       -7.220224   -1.333780   -0.242695
     34          6           0       -8.210365   -2.198497   -0.510965
     35          6           0       -7.738416   -3.593765   -0.532388
     36          6           0       -6.383653   -3.440210   -0.147332
     37          6           0       -6.160692   -2.187046   -0.056102
     38          6           0       -8.527908   -4.829039   -0.537993
     39          6           0       -5.307544   -4.331233    0.245130
     40          8           0       -5.132471   -5.523917    0.317091
     41          6           0       -4.165041   -3.316632    0.546839
     42          6           0       -3.490615   -3.613835    1.935178
     43          8           0       -3.760484   -3.019576    2.967496
     44          8           0       -2.674873   -4.711624    1.806110
     45          6           0       -2.170750   -5.294249    3.063478
     46          6           0        2.751729   -0.754391   -1.280644
     47          6           0        4.140572   -0.680180   -0.687837
     48          6           0        5.101454    0.256310   -0.969811
     49          6           0        5.044605    1.126603   -2.178114
     50          6           0        6.332105    0.219240   -0.188864
     51          6           0        7.660162   -0.394542   -0.932168
     52          6           0        8.961050   -0.185820   -0.139333
     53          6           0       10.273770   -0.621632   -0.915302
     54          6           0       10.186615   -2.071958   -1.467164
     55          6           0       11.427256   -0.268496   -0.094092
     56          6           0       12.752963   -0.636146   -0.715197
     57          6           0       14.008815   -0.190822    0.209047
     58          6           0       15.446834   -0.255098   -0.465665
     59          6           0       15.756635   -1.676475   -0.915205
     60          6           0       16.354263    0.438949    0.403955
     61          6           0       17.798500    0.515068   -0.126949
     62          6           0       18.683766    1.379990    0.802145
     63          6           0       20.191621    1.567782    0.294694
     64          6           0       20.283900    2.275666   -1.041348
     65          6           0       21.121255    2.249541    1.356380
     66          1           0       -4.158113    3.568883    1.579950
     67          1           0      -10.338599    3.768804   -0.625577
     68          1           0      -10.432439   -2.362580   -1.063051
     69          1           0       -2.657965   -0.907745    2.232781
     70          1           0       -2.373623    1.714575    1.142761
     71          1           0       -2.075916    0.990779    3.561810
     72          1           0       -3.409529    2.150019    3.481588
     73          1           0       -3.550326    0.316796    3.409575
     74          1           0       -1.998432   -1.559634   -0.043370
     75          1           0       -2.073498    0.058033   -0.690083
     76          1           0       -0.099724    0.474560    0.867788
     77          1           0       -0.239403   -1.105628    1.353414
     78          1           0       -5.951619    6.924768    0.600650
     79          1           0       -5.521539    6.284455    2.092979
     80          1           0       -4.441721    5.693445    0.730191
     81          1           0       -9.780634    5.863066   -0.127518
     82          1           0       -9.540661    7.774677    1.189639
     83          1           0       -7.705535    7.159191    1.627905
     84          1           0      -12.046360    2.921757   -2.645899
     85          1           0      -13.240659    1.937310   -1.588140
     86          1           0      -12.465947    2.897915   -0.617259
     87          1           0      -12.436766   -1.800335   -1.104859
     88          1           0      -13.282739   -0.496848   -1.413517
     89          1           0      -13.084194   -2.022414   -3.627154
     90          1           0      -12.759955   -0.330483   -3.906921
     91          1           0      -11.268722   -1.247982   -3.601911
     92          1           0       -9.120201   -4.798636   -1.622118
     93          1           0       -7.882955   -5.773753   -0.548499
     94          1           0       -9.439358   -4.865676    0.093891
     95          1           0       -3.421966   -3.415376   -0.258359
     96          1           0       -1.713113   -4.484972    3.701851
     97          1           0       -3.140998   -5.548652    3.678438
     98          1           0       -1.603958   -6.238356    2.866364
     99          1           0        2.580390   -1.813645   -1.549539
    100          1           0        2.709536   -0.037832   -2.181022
    101          1           0        4.331373   -1.218964    0.233680
    102          1           0        4.139077    1.315747   -2.685636
    103          1           0        5.414375    2.215787   -1.887838
    104          1           0        5.795953    0.998167   -3.220353
    105          1           0        6.432061    1.199783    0.285007
    106          1           0        6.298169   -0.358030    0.554118
    107          1           0        7.529233   -1.357662   -1.206862
    108          1           0        7.673254    0.030338   -1.929229
    109          1           0        9.192853    0.888272    0.083005
    110          1           0        8.921297   -0.796672    0.654338
    111          1           0       10.308169   -0.147428   -1.957799
    112          1           0        9.191283   -2.186006   -2.005034
    113          1           0       11.163547   -2.487296   -2.041884
    114          1           0       10.260683   -2.582164   -0.478233
    115          1           0       11.631716    0.824113    0.087995
    116          1           0       11.336941   -0.616630    0.856939
    117          1           0       12.934574   -1.613018   -0.952120
    118          1           0       12.717262   -0.173729   -1.662108
    119          1           0       13.772507    0.844709    0.458178
    120          1           0       13.866891   -0.821939    1.261269
    121          1           0       15.370406    0.427197   -1.385087
    122          1           0       15.957593   -2.373340   -0.093013
    123          1           0       15.105808   -2.148347   -1.632009
    124          1           0       16.699866   -1.917135   -1.438167
    125          1           0       16.009701    1.514141    0.388899
    126          1           0       16.329522    0.198641    1.354877
    127          1           0       18.131772   -0.525807   -0.222114
    128          1           0       17.789176    1.189564   -1.285392
    129          1           0       18.298530    2.479107    0.919920
    130          1           0       18.861326    0.896259    1.763028
    131          1           0       20.550486    0.435677    0.284839
    132          1           0       20.049816    3.371000   -1.027079
    133          1           0       21.400252    2.359607   -1.406416
    134          1           0       19.769634    1.711979   -1.762034
    135          1           0       21.058165    1.830860    2.292060
    136          1           0       21.965829    2.188424    0.773435
    137          1           0       20.703844    3.122606    1.570219
 ---------------------------------------------------------------------
 Rotational constants (GHZ):           0.0638978           0.0060874           0.0057337
 Standard basis: 6-31G(d,p) (6D, 7F)
 There are  1339 symmetry adapted cartesian basis functions of A   symmetry.
 There are  1339 symmetry adapted basis functions of A   symmetry.
  1339 basis functions,  2348 primitive gaussians,  1339 cartesian basis functions
   241 alpha electrons      241 beta electrons
       nuclear repulsion energy      8736.3812901223 Hartrees.
 NAtoms=  137 NActive=  137 NUniq=  137 SFac= 1.00D+00 NAtFMM=   60 NAOKFM=T Big=T
 Integral buffers will be    131072 words long.
 Raffenetti 1 integral format.
 Two-electron integral symmetry is turned on.
 One-electron integrals computed using PRISM.
 NBasis=  1339 RedAO= T EigKep=  3.24D-04  NBF=  1339
 NBsUse=  1339 1.00D-06 EigRej= -1.00D+00 NBFU=  1339
 ExpMin= 4.21D-02 ExpMax= 1.17D+04 ExpMxC= 1.76D+03 IAcc=3 IRadAn=         5 AccDes= 0.00D+00
 Harris functional with IExCor=20419 and IRadAn=       5 diagonalized for initial guess.
 HarFok:  IExCor=20419 AccDes= 0.00D+00 IRadAn=         5 IDoV= 1 UseB2=F ITyADJ=14
 ICtDFT=  3500011 ScaDFX=  1.000000  1.000000  1.000000  1.000000
 FoFCou: FMM=F IPFlag=           0 FMFlag=      100000 FMFlg1=        2001
         NFxFlg=           0 DoJE=T BraDBF=F KetDBF=T FulRan=T
         wScrn=  0.000000 ICntrl=       500 IOpCl=  0 I1Cent=   200000004 NGrid=           0
         NMat0=    1 NMatS0=      1 NMatT0=    0 NMatD0=    1 NMtDS0=    0 NMtDT0=    0
 Petite list used in FoFCou.
 Requested convergence on RMS density matrix=1.00D-08 within 128 cycles.
 Requested convergence on MAX density matrix=1.00D-06.
 Requested convergence on             energy=1.00D-06.
 No special actions if energy rises.
 SCF Done:  E(RCAM-B3LYP) =  -2932.61815085     A.U. after   18 cycles
            NFock= 18  Conv=0.93D-08     -V/T= 2.0091
 DoSCS=F DFT=T ScalE2(SS,OS)=  1.000000  1.000000
 ExpMin= 4.21D-02 ExpMax= 1.17D+04 ExpMxC= 1.76D+03 IAcc=3 IRadAn=         5 AccDes= 0.00D+00
 HarFok:  IExCor=  205 AccDes= 0.00D+00 IRadAn=         5 IDoV=-2 UseB2=F ITyADJ=14
 ICtDFT= 12500011 ScaDFX=  1.000000  1.000000  1.000000  1.000000
 GSVD:  LWork=       -5313 too small for GESVD, short by       24840 words or       24840 for optimal perf.
 Range of M.O.s used for correlation:    70  1339
 NBasis=  1339 NAE=   241 NBE=   241 NFC=    69 NFV=     0
 NROrb=   1270 NOA=   172 NOB=   172 NVA=  1098 NVB=  1098
 Orbital symmetries:
       Occupied  (A) (A) (A) (A) (A) (A) (A) (A) (A) (A) (A) (A)
                 (A) (A) (A) (A) (A) (A) (A) (A) (A) (A) (A) (A)
                 (A) (A) (A) (A) (A) (A) (A) (A) (A) (A) (A) (A)
                 (A) (A) (A) (A) (A) (A) (A) (A) (A) (A) (A) (A)
                 (A) (A) (A) (A) (A) (A) (A) (A) (A) (A) (A) (A)
                 (A) (A) (A) (A) (A) (A) (A) (A) (A) (A) (A) (A)
                 (A) (A) (A) (A) (A) (A) (A) (A) (A) (A) (A) (A)
                 (A) (A) (A) (A) (A) (A) (A) (A) (A) (A) (A) (A)
                 (A) (A) (A) (A) (A) (A) (A) (A) (A) (A) (A) (A)
                 (A) (A) (A) (A) (A) (A) (A) (A) (A) (A) (A) (A)
                 (A) (A) (A) (A) (A) (A) (A) (A) (A) (A) (A) (A)
                 (A) (A) (A) (A) (A) (A) (A) (A) (A) (A) (A) (A)
                 (A) (A) (A) (A) (A) (A) (A) (A) (A) (A) (A) (A)
                 (A) (A) (A) (A) (A) (A) (A) (A) (A) (A) (A) (A)
                 (A) (A) (A) (A) (A) (A) (A) (A) (A) (A) (A) (A)
                 (A) (A) (A) (A) (A) (A) (A) (A) (A) (A) (A) (A)
                 (A) (A) (A) (A) (A) (A) (A) (A) (A) (A) (A) (A)
                 (A) (A) (A) (A) (A) (A) (A) (A) (A) (A) (A) (A)
                 (A) (A) (A) (A) (A) (A) (A) (A) (A) (A) (A) (A)
                 (A) (A) (A) (A) (A) (A) (A) (A) (A) (A) (A) (A)
                 (A)
       Virtual   (A) (A) (A) (A) (A) (A) (A) (A) (A) (A) (A) (A)
                 (A) (A) (A) (A) (A) (A) (A) (A) (A) (A) (A) (A)
                 (A) (A) (A) (A) (A) (A) (A) (A) (A) (A) (A) (A)
                 (A) (A) (A) (A) (A) (A) (A) (A) (A) (A) (A) (A)
                 (A) (A) (A) (A) (A) (A) (A) (A) (A) (A) (A) (A)
                 (A) (A) (A) (A) (A) (A) (A) (A) (A) (A) (A) (A)
                 (A) (A) (A) (A) (A) (A) (A) (A) (A) (A) (A) (A)
                 (A) (A) (A) (A) (A) (A) (A) (A) (A) (A) (A) (A)
                 (A) (A) (A) (A) (A) (A) (A) (A) (A) (A) (A) (A)
                 (A) (A) (A) (A) (A) (A) (A) (A) (A) (A) (A) (A)
                 (A) (A) (A) (A) (A) (A) (A) (A) (A) (A) (A) (A)
                 (A) (A) (A) (A) (A) (A) (A) (A) (A) (A) (A) (A)
                 (A) (A) (A) (A) (A) (A) (A) (A) (A) (A) (A) (A)
                 (A) (A) (A) (A) (A) (A) (A) (A) (A) (A) (A) (A)
                 (A) (A) (A) (A) (A) (A) (A) (A) (A) (A) (A) (A)
                 (A) (A) (A) (A) (A) (A) (A) (A) (A) (A) (A) (A)
                 (A) (A) (A) (A) (A) (A) (A) (A) (A) (A) (A) (A)
                 (A) (A) (A) (A) (A) (A) (A) (A) (A) (A) (A) (A)
                 (A) (A) (A) (A) (A) (A) (A) (A) (A) (A) (A) (A)
                 (A) (A) (A) (A) (A) (A) (A) (A) (A) (A) (A) (A)
                 (A) (A) (A) (A) (A) (A) (A) (A) (A) (A) (A) (A)
                 (A) (A) (A) (A) (A) (A) (A) (A) (A) (A) (A) (A)
                 (A) (A) (A) (A) (A) (A) (A) (A) (A) (A) (A) (A)
                 (A) (A) (A) (A) (A) (A) (A) (A) (A) (A) (A) (A)
                 (A) (A) (A) (A) (A) (A) (A) (A) (A) (A) (A) (A)
                 (A) (A) (A) (A) (A) (A) (A) (A) (A) (A) (A) (A)
                 (A) (A) (A) (A) (A) (A) (A) (A) (A) (A) (A) (A)
                 (A) (A) (A) (A) (A) (A) (A) (A) (A) (A) (A) (A)
                 (A) (A) (A) (A) (A) (A) (A) (A) (A) (A) (A) (A)
                 (A) (A) (A) (A) (A) (A) (A) (A) (A) (A) (A) (A)
                 (A) (A) (A) (A) (A) (A) (A) (A) (A) (A) (A) (A)
                 (A) (A) (A) (A) (A) (A) (A) (A) (A) (A) (A) (A)
                 (A) (A) (A) (A) (A) (A) (A) (A) (A) (A) (A) (A)
                 (A) (A) (A) (A) (A) (A) (A) (A) (A) (A) (A) (A)
                 (A) (A) (A) (A) (A) (A) (A) (A) (A) (A) (A) (A)
                 (A) (A) (A) (A) (A) (A) (A) (A) (A) (A) (A) (A)
                 (A) (A) (A) (A) (A) (A) (A) (A) (A) (A) (A) (A)
                 (A) (A) (A) (A) (A) (A) (A) (A) (A) (A) (A) (A)
                 (A) (A) (A) (A) (A) (A) (A) (A) (A) (A) (A) (A)
                 (A) (A) (A) (A) (A) (A) (A) (A) (A) (A) (A) (A)
                 (A) (A) (A) (A) (A) (A) (A) (A) (A) (A) (A) (A)
                 (A) (A) (A) (A) (A) (A) (A) (A) (A) (A) (A) (A)
                 (A) (A) (A) (A) (A) (A) (A) (A) (A) (A) (A) (A)
                 (A) (A) (A) (A) (A) (A) (A) (A) (A) (A) (A) (A)
                 (A) (A) (A) (A) (A) (A) (A) (A) (A) (A) (A) (A)
                 (A) (A) (A) (A) (A) (A) (A) (A) (A) (A) (A) (A)
                 (A) (A) (A) (A) (A) (A) (A) (A) (A) (A) (A) (A)
                 (A) (A) (A) (A) (A) (A) (A) (A) (A) (A) (A) (A)
                 (A) (A) (A) (A) (A) (A) (A) (A) (A) (A) (A) (A)
                 (A) (A) (A) (A) (A) (A) (A) (A) (A) (A) (A) (A)
                 (A) (A) (A) (A) (A) (A) (A) (A) (A) (A) (A) (A)
                 (A) (A) (A) (A) (A) (A) (A) (A) (A) (A) (A) (A)
                 (A) (A) (A) (A) (A) (A) (A) (A) (A) (A) (A) (A)
                 (A) (A) (A) (A) (A) (A) (A) (A) (A) (A) (A) (A)
                 (A) (A) (A) (A) (A) (A) (A) (A) (A) (A) (A) (A)
                 (A) (A) (A) (A) (A) (A) (A) (A) (A) (A) (A) (A)
                 (A) (A) (A) (A) (A) (A) (A) (A) (A) (A) (A) (A)
                 (A) (A) (A) (A) (A) (A) (A) (A) (A) (A) (A) (A)
                 (A) (A) (A) (A) (A) (A) (A) (A) (A) (A) (A) (A)
                 (A) (A) (A) (A) (A) (A) (A) (A) (A) (A) (A) (A)
                 (A) (A) (A) (A) (A) (A) (A) (A) (A) (A) (A) (A)
                 (A) (A) (A) (A) (A) (A) (A) (A) (A) (A) (A) (A)
                 (A) (A) (A) (A) (A) (A) (A) (A) (A) (A) (A) (A)
                 (A) (A) (A) (A) (A) (A) (A) (A) (A) (A) (A) (A)
                 (A) (A) (A) (A) (A) (A) (A) (A) (A) (A) (A) (A)
                 (A) (A) (A) (A) (A) (A) (A) (A) (A) (A) (A) (A)
                 (A) (A) (A) (A) (A) (A) (A) (A) (A) (A) (A) (A)
                 (A) (A) (A) (A) (A) (A) (A) (A) (A) (A) (A) (A)
                 (A) (A) (A) (A) (A) (A) (A) (A) (A) (A) (A) (A)
                 (A) (A) (A) (A) (A) (A) (A) (A) (A) (A) (A) (A)
                 (A) (A) (A) (A) (A) (A) (A) (A) (A) (A) (A) (A)
                 (A) (A) (A) (A) (A) (A) (A) (A) (A) (A) (A) (A)
                 (A) (A) (A) (A) (A) (A) (A) (A) (A) (A) (A) (A)
                 (A) (A) (A) (A) (A) (A) (A) (A) (A) (A) (A) (A)
                 (A) (A) (A) (A) (A) (A) (A) (A) (A) (A) (A) (A)
                 (A) (A) (A) (A) (A) (A) (A) (A) (A) (A) (A) (A)
                 (A) (A) (A) (A) (A) (A) (A) (A) (A) (A) (A) (A)
                 (A) (A) (A) (A) (A) (A) (A) (A) (A) (A) (A) (A)
                 (A) (A) (A) (A) (A) (A) (A) (A) (A) (A) (A) (A)
                 (A) (A) (A) (A) (A) (A) (A) (A) (A) (A) (A) (A)
                 (A) (A) (A) (A) (A) (A) (A) (A) (A) (A) (A) (A)
                 (A) (A) (A) (A) (A) (A) (A) (A) (A) (A) (A) (A)
                 (A) (A) (A) (A) (A) (A) (A) (A) (A) (A) (A) (A)
                 (A) (A) (A) (A) (A) (A) (A) (A) (A) (A) (A) (A)
                 (A) (A) (A) (A) (A) (A) (A) (A) (A) (A) (A) (A)
                 (A) (A) (A) (A) (A) (A) (A) (A) (A) (A) (A) (A)
                 (A) (A) (A) (A) (A) (A) (A) (A) (A) (A) (A) (A)
                 (A) (A) (A) (A) (A) (A) (A) (A) (A) (A) (A) (A)
                 (A) (A) (A) (A) (A) (A) (A) (A) (A) (A) (A) (A)
                 (A) (A) (A) (A) (A) (A) (A) (A) (A) (A) (A) (A)
                 (A) (A) (A) (A) (A) (A) (A) (A) (A) (A) (A) (A)
                 (A) (A) (A) (A) (A) (A)
     4 initial guesses have been made.
 Convergence on wavefunction:    0.001000000000000
 Iteration     1 Dimension     4 NMult     0 NNew      4
 CISAX will form     4 AO SS matrices at one time.
 New state      1 was old state      2
 Iteration     2 Dimension     6 NMult     4 NNew      2
 Iteration     3 Dimension     8 NMult     6 NNew      2
 Iteration     4 Dimension    10 NMult     8 NNew      2
 Iteration     5 Dimension    12 NMult    10 NNew      2
 Iteration     6 Dimension    14 NMult    12 NNew      2
 Iteration     7 Dimension    16 NMult    14 NNew      2
 Iteration     8 Dimension    18 NMult    16 NNew      2
 Iteration     9 Dimension    20 NMult    18 NNew      2
 Iteration    10 Dimension    22 NMult    20 NNew      2
 ***********************************************************************
 Excited states from <AA,BB:AA,BB> singles matrix:
 ***********************************************************************
 
 Ground to excited state transition densities written to RWF  633
 Ground to excited state transition electric dipole moments (Au):
       state          X           Y           Z        Dip. S.      Osc.
         1        -0.4233      2.5208      0.1970      6.5726      0.3052
 Ground to excited state transition velocity dipole moments (Au):
       state          X           Y           Z        Dip. S.      Osc.
         1         0.0277     -0.1709     -0.0141      0.0302      0.2889
 Ground to excited state transition magnetic dipole moments (Au):
       state          X           Y           Z
         1        -0.3222     -0.2832      3.2968
 Ground to excited state transition velocity quadrupole moments (Au):
       state          XX          YY          ZZ          XY          XZ          YZ
         1        -0.5554     -0.5235     -0.0119      2.2627      0.1919     -0.1670
 <0|del|b> * <b|rxdel|0> + <0|del|b> * <b|delr+rdel|0>
 Rotatory Strengths (R) in cgs (10**-40 erg-esu-cm/Gauss)
       state          XX          YY          ZZ    R(velocity)    E-M Angle
         1        14.5679   -142.7646     57.4163    -23.5934       90.69
 1/2[<0|r|b>*<b|rxdel|0> + (<0|rxdel|b>*<b|r|0>)*]
 Rotatory Strengths (R) in cgs (10**-40 erg-esu-cm/Gauss)
       state          XX          YY          ZZ     R(length)
         1       -96.4470    504.8407   -459.2017    -16.9360
  1/2[<0|del|b>*<b|r|0> + (<0|r|b>*<b|del|0>)*] (Au)
       state          X           Y           Z        Dip. S.   Osc.(frdel)
         1        -0.0117     -0.4309     -0.0028      0.4454      0.2969

 Excitation energies and oscillator strengths:
 
 Excited State   1:      Singlet-A      1.8953 eV  654.15 nm  f=0.3052  <S**2>=0.000
     240 -> 243       -0.23197
     241 -> 242        0.66192
 This state for optimization and/or second-order correction.
 Total Energy, E(TD-HF/TD-DFT) =  -2932.54849819    
 Copying the excited state density for this state as the 1-particle RhoCI density.
 SavETr:  write IOETrn=   770 NScale= 10 NData=  16 NLR=1 NState=    1 LETran=      28.
 Hyperfine terms turned off by default for NAtoms > 100.

 **********************************************************************

            Population analysis using the SCF density.

 **********************************************************************

 Orbital symmetries:
       Occupied  (A) (A) (A) (A) (A) (A) (A) (A) (A) (A) (A) (A)
                 (A) (A) (A) (A) (A) (A) (A) (A) (A) (A) (A) (A)
                 (A) (A) (A) (A) (A) (A) (A) (A) (A) (A) (A) (A)
                 (A) (A) (A) (A) (A) (A) (A) (A) (A) (A) (A) (A)
                 (A) (A) (A) (A) (A) (A) (A) (A) (A) (A) (A) (A)
                 (A) (A) (A) (A) (A) (A) (A) (A) (A) (A) (A) (A)
                 (A) (A) (A) (A) (A) (A) (A) (A) (A) (A) (A) (A)
                 (A) (A) (A) (A) (A) (A) (A) (A) (A) (A) (A) (A)
                 (A) (A) (A) (A) (A) (A) (A) (A) (A) (A) (A) (A)
                 (A) (A) (A) (A) (A) (A) (A) (A) (A) (A) (A) (A)
                 (A) (A) (A) (A) (A) (A) (A) (A) (A) (A) (A) (A)
                 (A) (A) (A) (A) (A) (A) (A) (A) (A) (A) (A) (A)
                 (A) (A) (A) (A) (A) (A) (A) (A) (A) (A) (A) (A)
                 (A) (A) (A) (A) (A) (A) (A) (A) (A) (A) (A) (A)
                 (A) (A) (A) (A) (A) (A) (A) (A) (A) (A) (A) (A)
                 (A) (A) (A) (A) (A) (A) (A) (A) (A) (A) (A) (A)
                 (A) (A) (A) (A) (A) (A) (A) (A) (A) (A) (A) (A)
                 (A) (A) (A) (A) (A) (A) (A) (A) (A) (A) (A) (A)
                 (A) (A) (A) (A) (A) (A) (A) (A) (A) (A) (A) (A)
                 (A) (A) (A) (A) (A) (A) (A) (A) (A) (A) (A) (A)
                 (A)
       Virtual   (A) (A) (A) (A) (A) (A) (A) (A) (A) (A) (A) (A)
                 (A) (A) (A) (A) (A) (A) (A) (A) (A) (A) (A) (A)
                 (A) (A) (A) (A) (A) (A) (A) (A) (A) (A) (A) (A)
                 (A) (A) (A) (A) (A) (A) (A) (A) (A) (A) (A) (A)
                 (A) (A) (A) (A) (A) (A) (A) (A) (A) (A) (A) (A)
                 (A) (A) (A) (A) (A) (A) (A) (A) (A) (A) (A) (A)
                 (A) (A) (A) (A) (A) (A) (A) (A) (A) (A) (A) (A)
                 (A) (A) (A) (A) (A) (A) (A) (A) (A) (A) (A) (A)
                 (A) (A) (A) (A) (A) (A) (A) (A) (A) (A) (A) (A)
                 (A) (A) (A) (A) (A) (A) (A) (A) (A) (A) (A) (A)
                 (A) (A) (A) (A) (A) (A) (A) (A) (A) (A) (A) (A)
                 (A) (A) (A) (A) (A) (A) (A) (A) (A) (A) (A) (A)
                 (A) (A) (A) (A) (A) (A) (A) (A) (A) (A) (A) (A)
                 (A) (A) (A) (A) (A) (A) (A) (A) (A) (A) (A) (A)
                 (A) (A) (A) (A) (A) (A) (A) (A) (A) (A) (A) (A)
                 (A) (A) (A) (A) (A) (A) (A) (A) (A) (A) (A) (A)
                 (A) (A) (A) (A) (A) (A) (A) (A) (A) (A) (A) (A)
                 (A) (A) (A) (A) (A) (A) (A) (A) (A) (A) (A) (A)
                 (A) (A) (A) (A) (A) (A) (A) (A) (A) (A) (A) (A)
                 (A) (A) (A) (A) (A) (A) (A) (A) (A) (A) (A) (A)
                 (A) (A) (A) (A) (A) (A) (A) (A) (A) (A) (A) (A)
                 (A) (A) (A) (A) (A) (A) (A) (A) (A) (A) (A) (A)
                 (A) (A) (A) (A) (A) (A) (A) (A) (A) (A) (A) (A)
                 (A) (A) (A) (A) (A) (A) (A) (A) (A) (A) (A) (A)
                 (A) (A) (A) (A) (A) (A) (A) (A) (A) (A) (A) (A)
                 (A) (A) (A) (A) (A) (A) (A) (A) (A) (A) (A) (A)
                 (A) (A) (A) (A) (A) (A) (A) (A) (A) (A) (A) (A)
                 (A) (A) (A) (A) (A) (A) (A) (A) (A) (A) (A) (A)
                 (A) (A) (A) (A) (A) (A) (A) (A) (A) (A) (A) (A)
                 (A) (A) (A) (A) (A) (A) (A) (A) (A) (A) (A) (A)
                 (A) (A) (A) (A) (A) (A) (A) (A) (A) (A) (A) (A)
                 (A) (A) (A) (A) (A) (A) (A) (A) (A) (A) (A) (A)
                 (A) (A) (A) (A) (A) (A) (A) (A) (A) (A) (A) (A)
                 (A) (A) (A) (A) (A) (A) (A) (A) (A) (A) (A) (A)
                 (A) (A) (A) (A) (A) (A) (A) (A) (A) (A) (A) (A)
                 (A) (A) (A) (A) (A) (A) (A) (A) (A) (A) (A) (A)
                 (A) (A) (A) (A) (A) (A) (A) (A) (A) (A) (A) (A)
                 (A) (A) (A) (A) (A) (A) (A) (A) (A) (A) (A) (A)
                 (A) (A) (A) (A) (A) (A) (A) (A) (A) (A) (A) (A)
                 (A) (A) (A) (A) (A) (A) (A) (A) (A) (A) (A) (A)
                 (A) (A) (A) (A) (A) (A) (A) (A) (A) (A) (A) (A)
                 (A) (A) (A) (A) (A) (A) (A) (A) (A) (A) (A) (A)
                 (A) (A) (A) (A) (A) (A) (A) (A) (A) (A) (A) (A)
                 (A) (A) (A) (A) (A) (A) (A) (A) (A) (A) (A) (A)
                 (A) (A) (A) (A) (A) (A) (A) (A) (A) (A) (A) (A)
                 (A) (A) (A) (A) (A) (A) (A) (A) (A) (A) (A) (A)
                 (A) (A) (A) (A) (A) (A) (A) (A) (A) (A) (A) (A)
                 (A) (A) (A) (A) (A) (A) (A) (A) (A) (A) (A) (A)
                 (A) (A) (A) (A) (A) (A) (A) (A) (A) (A) (A) (A)
                 (A) (A) (A) (A) (A) (A) (A) (A) (A) (A) (A) (A)
                 (A) (A) (A) (A) (A) (A) (A) (A) (A) (A) (A) (A)
                 (A) (A) (A) (A) (A) (A) (A) (A) (A) (A) (A) (A)
                 (A) (A) (A) (A) (A) (A) (A) (A) (A) (A) (A) (A)
                 (A) (A) (A) (A) (A) (A) (A) (A) (A) (A) (A) (A)
                 (A) (A) (A) (A) (A) (A) (A) (A) (A) (A) (A) (A)
                 (A) (A) (A) (A) (A) (A) (A) (A) (A) (A) (A) (A)
                 (A) (A) (A) (A) (A) (A) (A) (A) (A) (A) (A) (A)
                 (A) (A) (A) (A) (A) (A) (A) (A) (A) (A) (A) (A)
                 (A) (A) (A) (A) (A) (A) (A) (A) (A) (A) (A) (A)
                 (A) (A) (A) (A) (A) (A) (A) (A) (A) (A) (A) (A)
                 (A) (A) (A) (A) (A) (A) (A) (A) (A) (A) (A) (A)
                 (A) (A) (A) (A) (A) (A) (A) (A) (A) (A) (A) (A)
                 (A) (A) (A) (A) (A) (A) (A) (A) (A) (A) (A) (A)
                 (A) (A) (A) (A) (A) (A) (A) (A) (A) (A) (A) (A)
                 (A) (A) (A) (A) (A) (A) (A) (A) (A) (A) (A) (A)
                 (A) (A) (A) (A) (A) (A) (A) (A) (A) (A) (A) (A)
                 (A) (A) (A) (A) (A) (A) (A) (A) (A) (A) (A) (A)
                 (A) (A) (A) (A) (A) (A) (A) (A) (A) (A) (A) (A)
                 (A) (A) (A) (A) (A) (A) (A) (A) (A) (A) (A) (A)
                 (A) (A) (A) (A) (A) (A) (A) (A) (A) (A) (A) (A)
                 (A) (A) (A) (A) (A) (A) (A) (A) (A) (A) (A) (A)
                 (A) (A) (A) (A) (A) (A) (A) (A) (A) (A) (A) (A)
                 (A) (A) (A) (A) (A) (A) (A) (A) (A) (A) (A) (A)
                 (A) (A) (A) (A) (A) (A) (A) (A) (A) (A) (A) (A)
                 (A) (A) (A) (A) (A) (A) (A) (A) (A) (A) (A) (A)
                 (A) (A) (A) (A) (A) (A) (A) (A) (A) (A) (A) (A)
                 (A) (A) (A) (A) (A) (A) (A) (A) (A) (A) (A) (A)
                 (A) (A) (A) (A) (A) (A) (A) (A) (A) (A) (A) (A)
                 (A) (A) (A) (A) (A) (A) (A) (A) (A) (A) (A) (A)
                 (A) (A) (A) (A) (A) (A) (A) (A) (A) (A) (A) (A)
                 (A) (A) (A) (A) (A) (A) (A) (A) (A) (A) (A) (A)
                 (A) (A) (A) (A) (A) (A) (A) (A) (A) (A) (A) (A)
                 (A) (A) (A) (A) (A) (A) (A) (A) (A) (A) (A) (A)
                 (A) (A) (A) (A) (A) (A) (A) (A) (A) (A) (A) (A)
                 (A) (A) (A) (A) (A) (A) (A) (A) (A) (A) (A) (A)
                 (A) (A) (A) (A) (A) (A) (A) (A) (A) (A) (A) (A)
                 (A) (A) (A) (A) (A) (A) (A) (A) (A) (A) (A) (A)
                 (A) (A) (A) (A) (A) (A) (A) (A) (A) (A) (A) (A)
                 (A) (A) (A) (A) (A) (A) (A) (A) (A) (A) (A) (A)
                 (A) (A) (A) (A) (A) (A) (A) (A) (A) (A) (A) (A)
                 (A) (A) (A) (A) (A) (A) (A) (A) (A) (A) (A) (A)
                 (A) (A) (A) (A) (A) (A)
 The electronic state is 1-A.
 Alpha  occ. eigenvalues --  -46.84120 -19.26540 -19.24709 -19.21662 -19.20975
 Alpha  occ. eigenvalues --  -19.20831 -14.41260 -14.40110 -14.39547 -14.39230
 Alpha  occ. eigenvalues --  -10.39994 -10.38834 -10.35245 -10.32858 -10.31540
 Alpha  occ. eigenvalues --  -10.30622 -10.30357 -10.30337 -10.30325 -10.29833
 Alpha  occ. eigenvalues --  -10.29277 -10.29182 -10.28217 -10.28154 -10.28117
 Alpha  occ. eigenvalues --  -10.28048 -10.27840 -10.27786 -10.27662 -10.27543
 Alpha  occ. eigenvalues --  -10.27538 -10.27484 -10.27479 -10.27341 -10.27255
 Alpha  occ. eigenvalues --  -10.27240 -10.27227 -10.27152 -10.27110 -10.26979
 Alpha  occ. eigenvalues --  -10.26838 -10.26833 -10.26627 -10.26599 -10.26451
 Alpha  occ. eigenvalues --  -10.26406 -10.26312 -10.26303 -10.25978 -10.25868
 Alpha  occ. eigenvalues --  -10.25851 -10.25676 -10.25668 -10.25455 -10.24753
 Alpha  occ. eigenvalues --  -10.24747 -10.24728 -10.24259 -10.24249 -10.24095
 Alpha  occ. eigenvalues --  -10.24059 -10.23708 -10.23332 -10.23326 -10.21842
 Alpha  occ. eigenvalues --   -3.13114  -1.87825  -1.87330  -1.87314  -1.16733
 Alpha  occ. eigenvalues --   -1.16406  -1.11913  -1.08972  -1.07736  -1.05353
 Alpha  occ. eigenvalues --   -1.02642  -1.01720  -0.99746  -0.93369  -0.91642
 Alpha  occ. eigenvalues --   -0.91150  -0.90559  -0.90173  -0.89760  -0.89275
 Alpha  occ. eigenvalues --   -0.88380  -0.87747  -0.87707  -0.87158  -0.86861
 Alpha  occ. eigenvalues --   -0.85011  -0.84687  -0.83771  -0.82785  -0.82402
 Alpha  occ. eigenvalues --   -0.81518  -0.80975  -0.80270  -0.79462  -0.78414
 Alpha  occ. eigenvalues --   -0.77837  -0.76768  -0.76744  -0.76341  -0.75983
 Alpha  occ. eigenvalues --   -0.75970  -0.74715  -0.74518  -0.73533  -0.72168
 Alpha  occ. eigenvalues --   -0.71653  -0.71112  -0.70228  -0.69299  -0.68600
 Alpha  occ. eigenvalues --   -0.67447  -0.67343  -0.65347  -0.65219  -0.65017
 Alpha  occ. eigenvalues --   -0.63487  -0.63229  -0.62236  -0.61986  -0.61893
 Alpha  occ. eigenvalues --   -0.61047  -0.60329  -0.59984  -0.59777  -0.59022
 Alpha  occ. eigenvalues --   -0.58582  -0.58265  -0.57729  -0.57676  -0.57130
 Alpha  occ. eigenvalues --   -0.56364  -0.55367  -0.55347  -0.55320  -0.54767
 Alpha  occ. eigenvalues --   -0.54335  -0.54083  -0.53866  -0.53411  -0.52981
 Alpha  occ. eigenvalues --   -0.52794  -0.52500  -0.52355  -0.52188  -0.51929
 Alpha  occ. eigenvalues --   -0.51618  -0.51306  -0.51034  -0.51016  -0.50756
 Alpha  occ. eigenvalues --   -0.50426  -0.50304  -0.50081  -0.49988  -0.49882
 Alpha  occ. eigenvalues --   -0.49576  -0.49352  -0.49216  -0.49092  -0.48546
 Alpha  occ. eigenvalues --   -0.47864  -0.47833  -0.47645  -0.47236  -0.47016
 Alpha  occ. eigenvalues --   -0.46871  -0.46724  -0.46552  -0.46266  -0.46122
 Alpha  occ. eigenvalues --   -0.45915  -0.45610  -0.45238  -0.45148  -0.44854
 Alpha  occ. eigenvalues --   -0.44549  -0.44393  -0.44235  -0.44118  -0.43938
 Alpha  occ. eigenvalues --   -0.43789  -0.43439  -0.43340  -0.43172  -0.43067
 Alpha  occ. eigenvalues --   -0.42895  -0.42602  -0.42557  -0.42383  -0.42288
 Alpha  occ. eigenvalues --   -0.42021  -0.41842  -0.41677  -0.41499  -0.41177
 Alpha  occ. eigenvalues --   -0.40932  -0.40854  -0.40625  -0.40537  -0.40476
 Alpha  occ. eigenvalues --   -0.40291  -0.40228  -0.40165  -0.39490  -0.39261
 Alpha  occ. eigenvalues --   -0.39059  -0.38720  -0.38545  -0.38541  -0.38348
 Alpha  occ. eigenvalues --   -0.37914  -0.37673  -0.37210  -0.37020  -0.36834
 Alpha  occ. eigenvalues --   -0.36227  -0.36107  -0.35762  -0.35421  -0.35391
 Alpha  occ. eigenvalues --   -0.35196  -0.34635  -0.34037  -0.33935  -0.33462
 Alpha  occ. eigenvalues --   -0.32978  -0.32866  -0.32595  -0.30810  -0.30415
 Alpha  occ. eigenvalues --   -0.28889  -0.28618  -0.27524  -0.26227  -0.22778
 Alpha  occ. eigenvalues --   -0.21274
 Alpha virt. eigenvalues --   -0.07479  -0.03181   0.01286   0.02953   0.04887
 Alpha virt. eigenvalues --    0.05459   0.06073   0.06248   0.06421   0.07049
 Alpha virt. eigenvalues --    0.08262   0.10254   0.10695   0.10938   0.11499
 Alpha virt. eigenvalues --    0.12069   0.12331   0.12496   0.13075   0.13161
 Alpha virt. eigenvalues --    0.13557   0.13656   0.14072   0.14715   0.14868
 Alpha virt. eigenvalues --    0.14899   0.15108   0.15186   0.15525   0.15694
 Alpha virt. eigenvalues --    0.16133   0.16252   0.16271   0.16303   0.16498
 Alpha virt. eigenvalues --    0.16849   0.16886   0.17326   0.17495   0.17559
 Alpha virt. eigenvalues --    0.17615   0.18019   0.18110   0.18412   0.18430
 Alpha virt. eigenvalues --    0.18603   0.18858   0.18890   0.19034   0.19335
 Alpha virt. eigenvalues --    0.19446   0.19489   0.19559   0.19827   0.19871
 Alpha virt. eigenvalues --    0.20262   0.20328   0.21028   0.21092   0.21230
 Alpha virt. eigenvalues --    0.21305   0.21589   0.21675   0.21958   0.22261
 Alpha virt. eigenvalues --    0.22298   0.22406   0.22724   0.22881   0.22935
 Alpha virt. eigenvalues --    0.23033   0.23104   0.23481   0.23582   0.23695
 Alpha virt. eigenvalues --    0.23933   0.24045   0.24162   0.24403   0.24576
 Alpha virt. eigenvalues --    0.24912   0.25351   0.25505   0.25674   0.25876
 Alpha virt. eigenvalues --    0.26085   0.26107   0.26211   0.26333   0.26795
 Alpha virt. eigenvalues --    0.26947   0.27129   0.27523   0.27602   0.27693
 Alpha virt. eigenvalues --    0.27878   0.28122   0.28311   0.28575   0.28796
 Alpha virt. eigenvalues --    0.28920   0.29061   0.29187   0.29287   0.29357
 Alpha virt. eigenvalues --    0.29666   0.29777   0.30361   0.30441   0.30601
 Alpha virt. eigenvalues --    0.30904   0.31055   0.31137   0.31228   0.31596
 Alpha virt. eigenvalues --    0.31877   0.32188   0.32355   0.32688   0.32717
 Alpha virt. eigenvalues --    0.32817   0.33143   0.33827   0.34129   0.34178
 Alpha virt. eigenvalues --    0.34471   0.34966   0.35469   0.35793   0.36113
 Alpha virt. eigenvalues --    0.36553   0.36627   0.36771   0.37310   0.38033
 Alpha virt. eigenvalues --    0.38773   0.39638   0.39741   0.39926   0.40999
 Alpha virt. eigenvalues --    0.41276   0.41407   0.41972   0.42419   0.42749
 Alpha virt. eigenvalues --    0.43511   0.44106   0.44201   0.44517   0.45339
 Alpha virt. eigenvalues --    0.46214   0.47066   0.47875   0.48349   0.48505
 Alpha virt. eigenvalues --    0.49278   0.50467   0.51458   0.51615   0.52017
 Alpha virt. eigenvalues --    0.52418   0.52676   0.52784   0.53981   0.54439
 Alpha virt. eigenvalues --    0.54583   0.54770   0.55117   0.55301   0.55692
 Alpha virt. eigenvalues --    0.55808   0.56004   0.56211   0.56443   0.56912
 Alpha virt. eigenvalues --    0.57155   0.57219   0.57632   0.58088   0.58195
 Alpha virt. eigenvalues --    0.58254   0.58397   0.58541   0.58653   0.59074
 Alpha virt. eigenvalues --    0.59366   0.59556   0.59851   0.59891   0.59912
 Alpha virt. eigenvalues --    0.60150   0.60310   0.60719   0.60927   0.61446
 Alpha virt. eigenvalues --    0.61763   0.61883   0.62242   0.62382   0.62500
 Alpha virt. eigenvalues --    0.62882   0.63138   0.63354   0.63500   0.63940
 Alpha virt. eigenvalues --    0.64176   0.64352   0.64548   0.65032   0.65482
 Alpha virt. eigenvalues --    0.65510   0.65723   0.66001   0.66608   0.66877
 Alpha virt. eigenvalues --    0.67073   0.67208   0.67318   0.67423   0.67681
 Alpha virt. eigenvalues --    0.68161   0.68393   0.69064   0.69348   0.69602
 Alpha virt. eigenvalues --    0.69708   0.69769   0.69934   0.70385   0.70604
 Alpha virt. eigenvalues --    0.70940   0.71068   0.71510   0.71983   0.72041
 Alpha virt. eigenvalues --    0.72262   0.72501   0.72596   0.72789   0.72927
 Alpha virt. eigenvalues --    0.73409   0.73494   0.73926   0.74123   0.74489
 Alpha virt. eigenvalues --    0.74678   0.75309   0.75774   0.76011   0.76337
 Alpha virt. eigenvalues --    0.76454   0.76535   0.76744   0.76998   0.77058
 Alpha virt. eigenvalues --    0.77429   0.77553   0.77716   0.78020   0.78083
 Alpha virt. eigenvalues --    0.78883   0.78974   0.79193   0.79748   0.79856
 Alpha virt. eigenvalues --    0.80026   0.80089   0.80456   0.80633   0.80793
 Alpha virt. eigenvalues --    0.81008   0.81279   0.81606   0.81885   0.82193
 Alpha virt. eigenvalues --    0.82485   0.82777   0.82869   0.83218   0.83331
 Alpha virt. eigenvalues --    0.83477   0.83524   0.83593   0.83829   0.84062
 Alpha virt. eigenvalues --    0.84403   0.84738   0.84933   0.85012   0.85406
 Alpha virt. eigenvalues --    0.85583   0.85934   0.86073   0.86485   0.86604
 Alpha virt. eigenvalues --    0.86754   0.86907   0.87094   0.87457   0.87574
 Alpha virt. eigenvalues --    0.87653   0.87809   0.87882   0.88070   0.88520
 Alpha virt. eigenvalues --    0.88789   0.88991   0.89157   0.89433   0.89645
 Alpha virt. eigenvalues --    0.89862   0.90121   0.90439   0.90646   0.90808
 Alpha virt. eigenvalues --    0.90888   0.91203   0.91374   0.91785   0.92055
 Alpha virt. eigenvalues --    0.92459   0.92592   0.92676   0.92766   0.93117
 Alpha virt. eigenvalues --    0.93166   0.93759   0.94044   0.94240   0.94354
 Alpha virt. eigenvalues --    0.94458   0.94565   0.94831   0.94906   0.95247
 Alpha virt. eigenvalues --    0.95328   0.95602   0.95942   0.96235   0.96389
 Alpha virt. eigenvalues --    0.96544   0.96777   0.96896   0.97032   0.97188
 Alpha virt. eigenvalues --    0.97472   0.97574   0.97777   0.98132   0.98271
 Alpha virt. eigenvalues --    0.98492   0.98755   0.99034   0.99124   0.99470
 Alpha virt. eigenvalues --    0.99664   0.99888   1.00084   1.00401   1.00578
 Alpha virt. eigenvalues --    1.00916   1.00983   1.01300   1.01792   1.01937
 Alpha virt. eigenvalues --    1.02210   1.02411   1.02494   1.02848   1.03085
 Alpha virt. eigenvalues --    1.03270   1.03371   1.03649   1.03857   1.04169
 Alpha virt. eigenvalues --    1.04511   1.04603   1.04882   1.04967   1.05142
 Alpha virt. eigenvalues --    1.05527   1.05835   1.06017   1.06350   1.06493
 Alpha virt. eigenvalues --    1.06559   1.06833   1.07189   1.07388   1.07927
 Alpha virt. eigenvalues --    1.08615   1.08928   1.09174   1.09331   1.09799
 Alpha virt. eigenvalues --    1.10170   1.10600   1.10817   1.10985   1.11732
 Alpha virt. eigenvalues --    1.12086   1.12153   1.12720   1.12779   1.12866
 Alpha virt. eigenvalues --    1.13181   1.14522   1.14886   1.15110   1.15300
 Alpha virt. eigenvalues --    1.15720   1.16044   1.16455   1.16724   1.17062
 Alpha virt. eigenvalues --    1.17585   1.17913   1.18241   1.18495   1.20363
 Alpha virt. eigenvalues --    1.20569   1.21294   1.21621   1.21831   1.22683
 Alpha virt. eigenvalues --    1.23221   1.23725   1.24620   1.24809   1.25121
 Alpha virt. eigenvalues --    1.25829   1.26214   1.26325   1.26443   1.26829
 Alpha virt. eigenvalues --    1.27113   1.28074   1.28482   1.29124   1.29521
 Alpha virt. eigenvalues --    1.30626   1.30975   1.32503   1.32655   1.33014
 Alpha virt. eigenvalues --    1.33075   1.33635   1.34008   1.34989   1.35457
 Alpha virt. eigenvalues --    1.35627   1.35926   1.36207   1.36782   1.37368
 Alpha virt. eigenvalues --    1.38256   1.38528   1.39173   1.39448   1.39856
 Alpha virt. eigenvalues --    1.40053   1.40935   1.41265   1.42099   1.42245
 Alpha virt. eigenvalues --    1.43253   1.43513   1.43782   1.44634   1.44778
 Alpha virt. eigenvalues --    1.45470   1.45729   1.46622   1.46780   1.48154
 Alpha virt. eigenvalues --    1.48230   1.49075   1.49976   1.50142   1.50351
 Alpha virt. eigenvalues --    1.50796   1.51400   1.51434   1.51625   1.52046
 Alpha virt. eigenvalues --    1.52708   1.52794   1.54195   1.54354   1.55089
 Alpha virt. eigenvalues --    1.55146   1.55664   1.55877   1.56819   1.57528
 Alpha virt. eigenvalues --    1.57833   1.58173   1.58540   1.58999   1.59172
 Alpha virt. eigenvalues --    1.59319   1.59744   1.60376   1.60539   1.61369
 Alpha virt. eigenvalues --    1.61719   1.62444   1.63302   1.63617   1.64058
 Alpha virt. eigenvalues --    1.64097   1.64974   1.65232   1.65764   1.65944
 Alpha virt. eigenvalues --    1.66251   1.66388   1.66806   1.67054   1.67156
 Alpha virt. eigenvalues --    1.67363   1.67649   1.68459   1.68604   1.69120
 Alpha virt. eigenvalues --    1.69654   1.69987   1.70603   1.70776   1.71263
 Alpha virt. eigenvalues --    1.71963   1.72700   1.73007   1.73346   1.73892
 Alpha virt. eigenvalues --    1.74218   1.75058   1.75282   1.76245   1.76807
 Alpha virt. eigenvalues --    1.77333   1.77644   1.77730   1.78086   1.78167
 Alpha virt. eigenvalues --    1.78672   1.78951   1.79365   1.79853   1.80448
 Alpha virt. eigenvalues --    1.80911   1.81077   1.81212   1.81628   1.81699
 Alpha virt. eigenvalues --    1.82739   1.82950   1.83035   1.83239   1.83414
 Alpha virt. eigenvalues --    1.83761   1.84138   1.84269   1.84729   1.85125
 Alpha virt. eigenvalues --    1.85699   1.86040   1.86269   1.86473   1.86731
 Alpha virt. eigenvalues --    1.87048   1.87311   1.87440   1.87619   1.87789
 Alpha virt. eigenvalues --    1.88537   1.88612   1.89106   1.89431   1.89516
 Alpha virt. eigenvalues --    1.89678   1.89854   1.90113   1.90183   1.90275
 Alpha virt. eigenvalues --    1.90520   1.90700   1.90931   1.91446   1.91632
 Alpha virt. eigenvalues --    1.91785   1.91926   1.92156   1.92649   1.92957
 Alpha virt. eigenvalues --    1.93084   1.93510   1.93851   1.93897   1.94219
 Alpha virt. eigenvalues --    1.94627   1.94982   1.95084   1.95511   1.95871
 Alpha virt. eigenvalues --    1.96005   1.96358   1.96396   1.96760   1.96981
 Alpha virt. eigenvalues --    1.97130   1.97509   1.97767   1.98307   1.98835
 Alpha virt. eigenvalues --    1.98969   1.99099   1.99236   1.99907   2.00203
 Alpha virt. eigenvalues --    2.00374   2.00497   2.00726   2.01394   2.01837
 Alpha virt. eigenvalues --    2.02365   2.02566   2.03045   2.03093   2.03333
 Alpha virt. eigenvalues --    2.03375   2.03898   2.03974   2.04399   2.04853
 Alpha virt. eigenvalues --    2.04981   2.05230   2.05555   2.05871   2.06317
 Alpha virt. eigenvalues --    2.06396   2.06698   2.06862   2.07278   2.07583
 Alpha virt. eigenvalues --    2.07936   2.08143   2.08415   2.08813   2.09168
 Alpha virt. eigenvalues --    2.09353   2.09690   2.09741   2.09900   2.10307
 Alpha virt. eigenvalues --    2.10513   2.10966   2.11229   2.11520   2.11635
 Alpha virt. eigenvalues --    2.11989   2.12092   2.12580   2.13014   2.13210
 Alpha virt. eigenvalues --    2.13591   2.14050   2.14276   2.15633   2.15661
 Alpha virt. eigenvalues --    2.15758   2.16089   2.16216   2.16452   2.16732
 Alpha virt. eigenvalues --    2.16941   2.17703   2.17914   2.18122   2.18466
 Alpha virt. eigenvalues --    2.18732   2.19232   2.19446   2.19721   2.20202
 Alpha virt. eigenvalues --    2.20912   2.21336   2.21619   2.21850   2.22230
 Alpha virt. eigenvalues --    2.22471   2.22806   2.23464   2.23766   2.23939
 Alpha virt. eigenvalues --    2.24257   2.24957   2.24977   2.25316   2.25436
 Alpha virt. eigenvalues --    2.25462   2.25986   2.26361   2.26588   2.26690
 Alpha virt. eigenvalues --    2.27212   2.27684   2.27784   2.27912   2.28559
 Alpha virt. eigenvalues --    2.28606   2.28839   2.29585   2.30027   2.30373
 Alpha virt. eigenvalues --    2.30620   2.31007   2.31070   2.31352   2.31805
 Alpha virt. eigenvalues --    2.32017   2.32494   2.32646   2.33207   2.33615
 Alpha virt. eigenvalues --    2.34240   2.34340   2.34868   2.35547   2.35941
 Alpha virt. eigenvalues --    2.36147   2.36515   2.36624   2.37065   2.37296
 Alpha virt. eigenvalues --    2.37629   2.38072   2.38144   2.38361   2.38695
 Alpha virt. eigenvalues --    2.38800   2.39051   2.39838   2.40121   2.40366
 Alpha virt. eigenvalues --    2.40566   2.40647   2.40740   2.41070   2.41088
 Alpha virt. eigenvalues --    2.41283   2.41549   2.41941   2.42347   2.42959
 Alpha virt. eigenvalues --    2.42989   2.43339   2.43823   2.43859   2.44132
 Alpha virt. eigenvalues --    2.44496   2.44738   2.44941   2.45236   2.45301
 Alpha virt. eigenvalues --    2.45493   2.45517   2.46072   2.46194   2.46723
 Alpha virt. eigenvalues --    2.46877   2.47116   2.47214   2.47517   2.47656
 Alpha virt. eigenvalues --    2.48045   2.48163   2.48325   2.49148   2.49299
 Alpha virt. eigenvalues --    2.50120   2.50237   2.50407   2.51043   2.52096
 Alpha virt. eigenvalues --    2.52224   2.52567   2.52907   2.53103   2.54077
 Alpha virt. eigenvalues --    2.54121   2.54311   2.55211   2.55423   2.55648
 Alpha virt. eigenvalues --    2.56399   2.57067   2.57175   2.57938   2.58118
 Alpha virt. eigenvalues --    2.58380   2.58726   2.59270   2.59844   2.60064
 Alpha virt. eigenvalues --    2.60224   2.61264   2.61593   2.61889   2.62003
 Alpha virt. eigenvalues --    2.62181   2.62243   2.62458   2.62917   2.63584
 Alpha virt. eigenvalues --    2.64072   2.64277   2.64558   2.64754   2.65391
 Alpha virt. eigenvalues --    2.65793   2.66048   2.66110   2.66544   2.66912
 Alpha virt. eigenvalues --    2.67263   2.67498   2.68160   2.68281   2.68872
 Alpha virt. eigenvalues --    2.69570   2.69619   2.69863   2.69942   2.70752
 Alpha virt. eigenvalues --    2.71242   2.71330   2.71862   2.72210   2.72433
 Alpha virt. eigenvalues --    2.72544   2.72885   2.73372   2.73963   2.74165
 Alpha virt. eigenvalues --    2.74386   2.75010   2.75252   2.75626   2.75805
 Alpha virt. eigenvalues --    2.76219   2.76626   2.77043   2.77183   2.77382
 Alpha virt. eigenvalues --    2.77775   2.78146   2.78361   2.78774   2.79037
 Alpha virt. eigenvalues --    2.79085   2.79620   2.80044   2.80107   2.80315
 Alpha virt. eigenvalues --    2.80505   2.80735   2.80779   2.82005   2.82064
 Alpha virt. eigenvalues --    2.82669   2.82772   2.83195   2.83316   2.83501
 Alpha virt. eigenvalues --    2.83898   2.84667   2.84733   2.85216   2.85395
 Alpha virt. eigenvalues --    2.85646   2.86269   2.86644   2.86846   2.87181
 Alpha virt. eigenvalues --    2.87512   2.87890   2.88812   2.88880   2.89126
 Alpha virt. eigenvalues --    2.89560   2.89970   2.90054   2.90541   2.90865
 Alpha virt. eigenvalues --    2.91571   2.91903   2.92453   2.92631   2.93067
 Alpha virt. eigenvalues --    2.93650   2.93869   2.94326   2.94491   2.95185
 Alpha virt. eigenvalues --    2.95287   2.95949   2.96154   2.96975   2.97338
 Alpha virt. eigenvalues --    2.97449   2.97630   2.98169   2.98806   2.98964
 Alpha virt. eigenvalues --    2.98984   2.99898   3.00342   3.00639   3.00872
 Alpha virt. eigenvalues --    3.01359   3.01980   3.02455   3.02531   3.02850
 Alpha virt. eigenvalues --    3.03013   3.03634   3.04350   3.04802   3.05527
 Alpha virt. eigenvalues --    3.06060   3.06080   3.06921   3.07066   3.07250
 Alpha virt. eigenvalues --    3.07873   3.08811   3.09238   3.09799   3.09992
 Alpha virt. eigenvalues --    3.10559   3.11035   3.11862   3.12666   3.12740
 Alpha virt. eigenvalues --    3.13232   3.13487   3.14153   3.14731   3.14998
 Alpha virt. eigenvalues --    3.15941   3.16557   3.17038   3.17944   3.18246
 Alpha virt. eigenvalues --    3.19324   3.19873   3.20439   3.20807   3.20930
 Alpha virt. eigenvalues --    3.23006   3.23060   3.24524   3.24527   3.25427
 Alpha virt. eigenvalues --    3.25939   3.26769   3.27008   3.28099   3.29534
 Alpha virt. eigenvalues --    3.31671   3.33463   3.35933   3.36555   3.37463
 Alpha virt. eigenvalues --    3.38742   3.38828   3.39311   3.39547   3.40358
 Alpha virt. eigenvalues --    3.40366   3.40477   3.40646   3.41299   3.41943
 Alpha virt. eigenvalues --    3.42221   3.42596   3.42919   3.43756   3.44334
 Alpha virt. eigenvalues --    3.45534   3.46454   3.47016   3.47279   3.48110
 Alpha virt. eigenvalues --    3.48239   3.48594   3.48705   3.48949   3.49574
 Alpha virt. eigenvalues --    3.51010   3.52358   3.52922   3.53340   3.53842
 Alpha virt. eigenvalues --    3.54436   3.55573   3.55637   3.55723   3.55977
 Alpha virt. eigenvalues --    3.59339   3.59589   3.59649   3.60769   3.60897
 Alpha virt. eigenvalues --    3.61850   3.62640   3.64273   3.64418   3.64524
 Alpha virt. eigenvalues --    3.65560   3.66821   3.68214   3.68561   3.69341
 Alpha virt. eigenvalues --    3.72771   3.74111   3.76313   3.77809   3.78115
 Alpha virt. eigenvalues --    3.80703   3.82449   3.84306   3.98399   4.07337
 Alpha virt. eigenvalues --    4.10856   4.14944   4.20363   4.21048   4.21701
 Alpha virt. eigenvalues --    4.23305   4.24735   4.24782   4.25942   4.27514
 Alpha virt. eigenvalues --    4.29537   4.30229   4.30601   4.31267   4.32583
 Alpha virt. eigenvalues --    4.34068   4.35273   4.37324   4.38136   4.38741
 Alpha virt. eigenvalues --    4.38971   4.39821   4.41331   4.43813   4.44688
 Alpha virt. eigenvalues --    4.45124   4.45739   4.49021   4.49399   4.50072
 Alpha virt. eigenvalues --    4.50855   4.52653   4.53523   4.54111   4.56442
 Alpha virt. eigenvalues --    4.57782   4.58107   4.59107   4.60027   4.60827
 Alpha virt. eigenvalues --    4.62256   4.62585   4.62697   4.64963   4.67686
 Alpha virt. eigenvalues --    4.68367   4.69327   4.69888   4.70429   4.73587
 Alpha virt. eigenvalues --    4.74352   4.75285   4.77162   4.78643   4.80842
 Alpha virt. eigenvalues --    4.85752   4.86414   4.88185   4.88616   4.90843
 Alpha virt. eigenvalues --    4.92539   4.97288   5.07033
          Condensed to atoms (all electrons):
 Mulliken charges:
               1
     1  Mg   0.815880
     2  C    0.021312
     3  C   -0.207001
     4  C   -0.155204
     5  C   -0.153618
     6  N   -0.640558
     7  C    0.324558
     8  C   -0.222869
     9  C   -0.119381
    10  C    0.317202
    11  C   -0.295638
    12  C   -0.165730
    13  C   -0.257654
    14  C    0.600962
    15  O   -0.470425
    16  O   -0.518542
    17  N   -0.696652
    18  C    0.324872
    19  C    0.041232
    20  C    0.071028
    21  C    0.267365
    22  C   -0.422981
    23  C   -0.082667
    24  C   -0.265416
    25  N   -0.684990
    26  C    0.279984
    27  C    0.003161
    28  C    0.009007
    29  C    0.267279
    30  C   -0.382841
    31  C   -0.264958
    32  C   -0.287293
    33  N   -0.693952
    34  C    0.272184
    35  C    0.035717
    36  C    0.026929
    37  C    0.296632
    38  C   -0.386078
    39  C    0.385393
    40  O   -0.454610
    41  C   -0.325970
    42  C    0.622817
    43  O   -0.472486
    44  O   -0.463484
    45  C   -0.090517
    46  C    0.046138
    47  C   -0.141813
    48  C    0.132291
    49  C   -0.358600
    50  C   -0.214538
    51  C   -0.208107
    52  C   -0.164767
    53  C   -0.078215
    54  C   -0.305859
    55  C   -0.164738
    56  C   -0.193114
    57  C   -0.183927
    58  C   -0.036281
    59  C   -0.333344
    60  C   -0.159631
    61  C   -0.159930
    62  C   -0.166289
    63  C   -0.075315
    64  C   -0.305642
    65  C   -0.296942
    66  H    0.075569
    67  H    0.102623
    68  H    0.098894
    69  H    0.112178
    70  H    0.102869
    71  H    0.118606
    72  H    0.112902
    73  H    0.139241
    74  H    0.126436
    75  H    0.127435
    76  H    0.145799
    77  H    0.148940
    78  H    0.111720
    79  H    0.113750
    80  H    0.125676
    81  H    0.079133
    82  H    0.104600
    83  H    0.097293
    84  H    0.122996
    85  H    0.112161
    86  H    0.137784
    87  H    0.102537
    88  H    0.111112
    89  H    0.070499
    90  H    0.132796
    91  H    0.119438
    92  H    0.091406
    93  H    0.149273
    94  H    0.140209
    95  H    0.166048
    96  H    0.133470
    97  H    0.125317
    98  H    0.139676
    99  H    0.119457
   100  H    0.108007
   101  H    0.087415
   102  H    0.124732
   103  H    0.093383
   104  H    0.084134
   105  H    0.094811
   106  H    0.106832
   107  H    0.108922
   108  H    0.095179
   109  H    0.098175
   110  H    0.102868
   111  H    0.072484
   112  H    0.104684
   113  H    0.091446
   114  H    0.091330
   115  H    0.087059
   116  H    0.093648
   117  H    0.100858
   118  H    0.093164
   119  H    0.087210
   120  H    0.061447
   121  H    0.082300
   122  H    0.099054
   123  H    0.110730
   124  H    0.095828
   125  H    0.088833
   126  H    0.101185
   127  H    0.099711
   128  H    0.042075
   129  H    0.074837
   130  H    0.090490
   131  H    0.061927
   132  H    0.101963
   133  H    0.077663
   134  H    0.118091
   135  H    0.098343
   136  H    0.111717
   137  H    0.106248
 Sum of Mulliken charges =  -0.00000
 Mulliken charges with hydrogens summed into heavy atoms:
               1
     1  Mg   0.815880
     2  C    0.021312
     3  C   -0.131432
     4  C   -0.052581
     5  C   -0.054724
     6  N   -0.640558
     7  C    0.324558
     8  C   -0.110691
     9  C   -0.016513
    10  C    0.317202
    11  C    0.075111
    12  C    0.088141
    13  C    0.037085
    14  C    0.600962
    15  O   -0.470425
    16  O   -0.518542
    17  N   -0.696652
    18  C    0.324872
    19  C    0.041232
    20  C    0.071028
    21  C    0.267365
    22  C   -0.071836
    23  C   -0.003534
    24  C   -0.063523
    25  N   -0.684990
    26  C    0.279984
    27  C    0.003161
    28  C    0.009007
    29  C    0.267279
    30  C   -0.009899
    31  C   -0.051309
    32  C    0.035440
    33  N   -0.693952
    34  C    0.272184
    35  C    0.035717
    36  C    0.026929
    37  C    0.296632
    38  C   -0.005190
    39  C    0.385393
    40  O   -0.454610
    41  C   -0.159921
    42  C    0.622817
    43  O   -0.472486
    44  O   -0.463484
    45  C    0.307946
    46  C    0.273602
    47  C   -0.054398
    48  C    0.132291
    49  C   -0.056351
    50  C   -0.012895
    51  C   -0.004006
    52  C    0.036276
    53  C   -0.005732
    54  C   -0.018399
    55  C    0.015969
    56  C    0.000908
    57  C   -0.035270
    58  C    0.046019
    59  C   -0.027731
    60  C    0.030388
    61  C   -0.018145
    62  C   -0.000961
    63  C   -0.013388
    64  C   -0.007925
    65  C    0.019365
 Electronic spatial extent (au):  <R**2>=         179919.4531
 Charge=             -0.0000 electrons
 Dipole moment (field-independent basis, Debye):
    X=             -0.1591    Y=              2.8819    Z=              1.1659  Tot=              3.1129
 Quadrupole moment (field-independent basis, Debye-Ang):
   XX=           -335.3555   YY=           -397.2640   ZZ=           -395.5749
   XY=            -16.2725   XZ=             15.2091   YZ=             -2.3007
 Traceless Quadrupole moment (field-independent basis, Debye-Ang):
   XX=             40.7093   YY=            -21.1992   ZZ=            -19.5101
   XY=            -16.2725   XZ=             15.2091   YZ=             -2.3007
 Octapole moment (field-independent basis, Debye-Ang**2):
  XXX=          -1011.7295  YYY=             -1.5145  ZZZ=             16.7273  XYY=             14.3871
  XXY=              3.5740  XXZ=           -125.4787  XZZ=             11.1242  YZZ=            -32.1230
  YYZ=             80.2333  XYZ=            -40.0909
 Hexadecapole moment (field-independent basis, Debye-Ang**3):
 XXXX=        -218998.3867 YYYY=         -18320.3556 ZZZZ=          -4320.2057 XXXY=          -1722.3438
 XXXZ=           2446.2575 YYYX=           -230.6932 YYYZ=            -99.5779 ZZZX=             99.9786
 ZZZY=           -194.2799 XXYY=         -40366.9748 XXZZ=         -38774.8813 YYZZ=          -3506.2801
 XXYZ=            114.1228 YYXZ=           -268.3169 ZZXY=             19.8225
 N-N= 8.736381290122D+03 E-N=-2.429614584527D+04  KE= 2.906083546483D+03
 1\1\GINC-RYZEN-SSD3\SP\RCAM-B3LYP TD-FC\6-31G(d,p)\C55H72Mg1N4O5\PADAW
 AN\27-Jun-2019\0\\# td=(NStates=1) CAM-B3LYP/6-31G(d,p)\\TD\\0,1\Mg,0,
 -7.1091314861,0.6780265508,0.0465623436\C,0,-4.8319178098,-1.942285406
 9,0.4557521079\C,0,-4.8386537943,2.8164900963,1.1817145364\C,0,-9.4163
 763731,3.1733328288,-0.4423070904\C,0,-9.528753189,-1.8084863596,-0.74
 93413632\N,0,-5.0646898936,0.4222320413,0.6932597443\C,0,-4.2657462807
 ,-0.701249947,0.7347915024\C,0,-2.9322022256,-0.3044198677,1.278288183
 \C,0,-3.0419176302,1.1275954278,1.7384145722\C,0,-4.3541224071,1.57126
 78756,1.1486218921\C,0,-3.0060856907,1.1895112392,3.2436157705\C,0,-1.
 864479909,-0.5520104624,0.1234463029\C,0,-0.4529527179,-0.4131556628,0
 .5583299623\C,0,0.4607772149,-0.6535788708,-0.5380791884\O,0,0.2147227
 124,-1.0016855762,-1.6774240741\O,0,1.82719453,-0.5299203884,-0.194776
 2665\N,0,-7.1400044483,2.664262016,0.3144401395\C,0,-6.0460338824,3.40
 9021878,0.7699305267\C,0,-6.4477620293,4.8316174511,0.8248431715\C,0,-
 7.7967723842,4.9630469362,0.2786162529\C,0,-8.1190161732,3.5902682221,
 -0.0972871824\C,0,-5.5132892856,5.8640888748,1.0568204425\C,0,-8.62980
 07777,6.0412751612,0.2994769331\C,0,-8.53278717,7.1884049591,0.9812443
 742\N,0,-9.1389561682,0.6369565568,-0.4297270064\C,0,-9.8443706968,1.8
 295629094,-0.6669330174\C,0,-11.2338024768,1.4785861977,-1.1528070002\
 C,0,-11.2756099649,0.0439597601,-1.2747161856\C,0,-9.9047761583,-0.477
 6797423,-0.8275577719\C,0,-12.2556543891,2.4555361246,-1.5138981646\C,
 0,-12.3659111374,-0.8443618463,-1.7713979483\C,0,-12.3537828667,-1.003
 3427455,-3.3783329519\N,0,-7.2237818465,-1.3253521488,-0.248719549\C,0
 ,-8.215011741,-2.1870738795,-0.5225472099\C,0,-7.7446606117,-3.5826965
 372,-0.5537726546\C,0,-6.3895728414,-3.4333376708,-0.1682085528\C,0,-6
 .1651491113,-2.1810863899,-0.0684340392\C,0,-8.5355610235,-4.817004542
 9,-0.5675752359\C,0,-5.3143259029,-4.3282667102,0.2176746401\O,0,-5.14
 05828962,-5.5216166451,0.2813451652\C,0,-4.1705506345,-3.3170674965,0.
 5259124565\C,0,-3.4959202229,-3.6245976811,1.9119015631\O,0,-3.7647080
 714,-3.0371604522,2.9483975209\O,0,-2.6814793416,-4.7223969621,1.77494
 60755\C,0,-2.1775283407,-5.3142456537,3.0280677423\C,0,2.7484173534,-0
 .7501528099,-1.2866298634\C,0,4.1375758466,-0.6816063369,-0.693879537\
 C,0,5.0994134257,0.2557118366,-0.9697767504\C,0,5.0430827313,1.1343760
 869,-2.1720313684\C,0,6.3303273655,0.2118630365,-0.1895954447\C,0,7.65
 73932772,-0.3982901759,-0.9376407146\C,0,8.9588277554,-0.1965147819,-0
 .1439062034\C,0,10.2707476993,-0.6284599177,-0.9233833088\C,0,10.18172
 48727,-2.0748484209,-1.4851919842\C,0,11.4249553724,-0.282302011,-0.10
 02191533\C,0,12.7499999077,-0.647168768,-0.7243724601\C,0,14.006720140
 4,-0.209652168,0.2024173092\C,0,15.444400565,-0.2709108202,-0.47329556
 94\C,0,15.7524069096,-1.6895065845,-0.932742892\C,0,16.3529594018,0.41
 60959696,0.4007245797\C,0,17.7970742968,0.4942308215,-0.1302188365\C,0
 ,18.6836887384,1.3517233893,0.8044608791\C,0,20.191557825,1.5412944629
 ,0.2977145347\C,0,20.2841197658,2.2582641236,-1.0334543381\C,0,21.1223
 831691,2.2146644027,1.3637017336\H,0,-4.1553770222,3.5611516366,1.6064
 452314\H,0,-10.3364940421,3.7832891639,-0.59518491\H,0,-10.4374870381,
 -2.3448238232,-1.0748641386\H,0,-2.6600724641,-0.9215704709,2.22781347
 25\H,0,-2.3731709223,1.70787437,1.155776228\H,0,-2.0753419917,0.967087
 1616,3.5696606796\H,0,-3.4076658266,2.1283668942,3.4979619616\H,0,-3.5
 505785006,0.2958442684,3.4133737502\H,0,-2.0021727022,-1.558505811,-0.
 0530392131\H,0,-2.0756492374,0.0636636168,-0.6885588955\H,0,-0.1007935
 968,0.467201334,0.8713575349\H,0,-0.2420820102,-1.1161361288,1.3461385
 691\H,0,-5.9454433197,6.9257412182,0.6510108103\H,0,-5.5155085403,6.27
 46708302,2.1387201691\H,0,-4.4368976458,5.6918403504,0.7714603216\H,0,
 -9.7759496475,5.8734334914,-0.0829285211\H,0,-9.5332845444,7.775648303
 7,1.2472743492\H,0,-7.6986893347,7.1550719067,1.6805564411\H,0,-12.046
 008706,2.9521255386,-2.6206150662\H,0,-13.2410137706,1.9617700682,-1.5
 691881103\H,0,-12.4648282139,2.9147801327,-0.592020446\H,0,-12.4411888
 973,-1.7800274478,-1.1119961545\H,0,-13.2857972986,-0.4734840852,-1.41
 13266602\H,0,-13.0898553381,-1.9839830845,-3.6355034348\H,0,-12.763799
 9442,-0.290533591,-3.9037338691\H,0,-11.2734936287,-1.2118060477,-3.60
 56491849\H,0,-9.1282424272,-4.7784585888,-1.6512283869\H,0,-7.89168853
 37,-5.7623562398,-0.5848480978\H,0,-9.4468045654,-4.8569607174,0.06440
 46179\H,0,-3.4279034862,-3.4111043611,-0.2802432958\H,0,-1.7187200385,
 -4.5099074304,3.6718200973\H,0,-3.147824391,-5.5717787955,3.6416470036
 \H,0,-1.6118893004,-6.2576150347,2.8242263755\H,0,2.5757668808,-1.8073
 325692,-1.56275024\H,0,2.7066881464,-0.0273584562,-2.1820313553\H,0,4.
 328123718,-1.2269449097,0.2238255986\H,0,4.1375727208,1.3280415146,-2.
 6778761573\H,0,5.4142068324,2.2211123701,-1.8744039086\H,0,5.793876695
 3,1.0122723347,-3.215430274\H,0,6.4315852214,1.1890029003,0.290981741\
 H,0,6.2960237218,-0.3704750849,0.5494046572\H,0,7.5252599107,-1.359345
 1697,-1.2189132149\H,0,7.6705794938,0.0334365518,-1.9317560992\H,0,9.1
 919412457,0.8757554605,0.0857362058\H,0,8.9186903577,-0.8127767839,0.6
 455524189\H,0,10.3052780792,-0.1471221745,-1.9626011496\H,0,9.18605359
 09,-2.1840563821,-2.0234382686\H,0,11.1579583515,-2.4873255165,-2.0631
 50559\H,0,10.2555984458,-2.5919411361,-0.4998294226\H,0,11.630730754,0
 .8087931095,0.0893104185\H,0,11.3346165151,-0.6368796493,0.8484254641\
 H,0,12.9304063595,-1.6225904202,-0.968094477\H,0,12.714455198,-0.17819
 71287,-1.6680601673\H,0,13.7716886056,0.8244049965,0.4587732203\H,0,13
 .864489202,-0.8478443891,1.2503215487\H,0,15.3683901275,0.4177912641,-
 1.3879631543\H,0,15.9528927322,-2.3922495171,-0.1154529992\H,0,15.1007
 63127,-2.1556879444,-1.6525226674\H,0,16.6951591453,-1.9276282877,-1.4
 577272422\H,0,16.0096161623,1.4917570094,0.3932158659\H,0,16.328317278
 9,0.1692677517,1.349977759\H,0,18.1291238511,-0.5463411815,-0.23268660
 91\H,0,17.7880658711,1.1767049894,-1.283981974\H,0,18.2997507677,2.450
 4392016,0.9299610014\H,0,18.8610732676,0.861180299,1.7619161919\H,0,20
 .5491298257,0.4088770359,0.2799150555\H,0,20.0512892355,3.3537389358,-
 1.0115447479\H,0,21.4004242945,2.3434509979,-1.3983812014\H,0,19.76893
 07975,1.700141825,-1.7578027493\H,0,21.0591818934,1.7896170708,2.29649
 92671\H,0,21.9666583721,2.1566068904,0.7800129676\H,0,20.7060503349,3.
 0867087542,1.5837188124\\Version=ES64L-G16RevA.03\State=1-A\HF=-2932.6
 181509\RMSD=9.303e-09\PG=C01 [X(C55H72Mg1N4O5)]\\@


 IT IS BY EATING THE LIGHT OF A STAR THAT WE EXIST, 
 IN THE FINAL ANALYSIS, 
 JUST AS IT IS BY PERCEIVING THE LIGHT OF STARS
 THAT WE DEFINE THE WORLD AROUND US.

                                    -- GILBERT GROSVENOR
 Job cpu time:       1 days  0 hours  0 minutes 29.5 seconds.
 Elapsed time:       0 days  6 hours  0 minutes 48.8 seconds.
 File lengths (MBytes):  RWF=   6809 Int=      0 D2E=      0 Chk=    181 Scr=      1
 Normal termination of Gaussian 16 at Thu Jun 27 13:54:28 2019.
