 Entering Gaussian System, Link 0=g16
 Input=Geometria-456-.com
 Output=Geometria-456-.log
 Initial command:
 /usr/local/g09/l1.exe "/home/padawan/israel-mol/chlorophyll-a/spectra/emi/Gau-28886.inp" -scrdir="/home/padawan/israel-mol/chlorophyll-a/spectra/emi/"
 Entering Link 1 = /usr/local/g09/l1.exe PID=     28888.
  
 Copyright (c) 1988,1990,1992,1993,1995,1998,2003,2009,2013,
            Gaussian, Inc.  All Rights Reserved.
  
 This is part of the Gaussian(R) 09 program.  It is based on
 the Gaussian(R) 03 system (copyright 2003, Gaussian, Inc.),
 the Gaussian(R) 98 system (copyright 1998, Gaussian, Inc.),
 the Gaussian(R) 94 system (copyright 1995, Gaussian, Inc.),
 the Gaussian 92(TM) system (copyright 1992, Gaussian, Inc.),
 the Gaussian 90(TM) system (copyright 1990, Gaussian, Inc.),
 the Gaussian 88(TM) system (copyright 1988, Gaussian, Inc.),
 the Gaussian 86(TM) system (copyright 1986, Carnegie Mellon
 University), and the Gaussian 82(TM) system (copyright 1983,
 Carnegie Mellon University). Gaussian is a federally registered
 trademark of Gaussian, Inc.
  
 This software contains proprietary and confidential information,
 including trade secrets, belonging to Gaussian, Inc.
  
 This software is provided under written license and may be
 used, copied, transmitted, or stored only in accord with that
 written license.
  
 The following legend is applicable only to US Government
 contracts under FAR:
  
                    RESTRICTED RIGHTS LEGEND
  
 Use, reproduction and disclosure by the US Government is
 subject to restrictions as set forth in subparagraphs (a)
 and (c) of the Commercial Computer Software - Restricted
 Rights clause in FAR 52.227-19.
  
 Gaussian, Inc.
 340 Quinnipiac St., Bldg. 40, Wallingford CT 06492
  
  
 ---------------------------------------------------------------
 Warning -- This program may not be used in any manner that
 competes with the business of Gaussian, Inc. or will provide
 assistance to any competitor of Gaussian, Inc.  The licensee
 of this program is prohibited from giving any competitor of
 Gaussian, Inc. access to this program.  By using this program,
 the user acknowledges that Gaussian, Inc. is engaged in the
 business of creating and licensing software in the field of
 computational chemistry and represents and warrants to the
 licensee that it is not a competitor of Gaussian, Inc. and that
 it will not use this program in any manner prohibited above.
 ---------------------------------------------------------------
  

 Cite this work as:
 Gaussian 09, Revision D.01,
 M. J. Frisch, G. W. Trucks, H. B. Schlegel, G. E. Scuseria, 
 M. A. Robb, J. R. Cheeseman, G. Scalmani, V. Barone, B. Mennucci, 
 G. A. Petersson, H. Nakatsuji, M. Caricato, X. Li, H. P. Hratchian, 
 A. F. Izmaylov, J. Bloino, G. Zheng, J. L. Sonnenberg, M. Hada, 
 M. Ehara, K. Toyota, R. Fukuda, J. Hasegawa, M. Ishida, T. Nakajima, 
 Y. Honda, O. Kitao, H. Nakai, T. Vreven, J. A. Montgomery, Jr., 
 J. E. Peralta, F. Ogliaro, M. Bearpark, J. J. Heyd, E. Brothers, 
 K. N. Kudin, V. N. Staroverov, T. Keith, R. Kobayashi, J. Normand, 
 K. Raghavachari, A. Rendell, J. C. Burant, S. S. Iyengar, J. Tomasi, 
 M. Cossi, N. Rega, J. M. Millam, M. Klene, J. E. Knox, J. B. Cross, 
 V. Bakken, C. Adamo, J. Jaramillo, R. Gomperts, R. E. Stratmann, 
 O. Yazyev, A. J. Austin, R. Cammi, C. Pomelli, J. W. Ochterski, 
 R. L. Martin, K. Morokuma, V. G. Zakrzewski, G. A. Voth, 
 P. Salvador, J. J. Dannenberg, S. Dapprich, A. D. Daniels, 
 O. Farkas, J. B. Foresman, J. V. Ortiz, J. Cioslowski, 
 and D. J. Fox, Gaussian, Inc., Wallingford CT, 2013.
 
 ******************************************
 Gaussian 09:  ES64L-G09RevD.01 24-Apr-2013
                 6-Jul-2019 
 ******************************************
 %nproc=4
 Will use up to    4 processors via shared memory.
 %Mem=2GB
 -------------------------------------
 # td=(NStates=1) CAM-B3LYP/6-31G(d,p)
 -------------------------------------
 1/38=1/1;
 2/12=2,17=6,18=5,40=1/2;
 3/5=1,6=6,7=101,11=9,16=1,25=1,30=1,74=-40/1,2,8,3;
 4//1;
 5/5=2,38=5/2;
 8/6=1,10=2,108=1/1;
 9/41=1,42=1,70=2/14;
 6/7=2,8=2,9=2,10=2/1;
 99/5=1,9=1/99;
 --
 TD
 --
 Symbolic Z-matrix:
 Charge =  0 Multiplicity = 1
 12                   -7.19233   0.58437   0.08556 
 6                    -4.83614  -1.88966   0.45427 
 6                    -4.73735   2.9172    1.07405 
 6                    -9.44777   3.0941   -0.34145 
 6                    -9.57858  -1.70837  -0.77823 
 7                    -5.11143   0.54475   0.78313 
 6                    -4.37591  -0.7244    0.8599 
 6                    -2.88546  -0.42093   1.17345 
 6                    -3.00956   1.09041   1.66185 
 6                    -4.39588   1.55182   1.16679 
 6                    -2.77771   1.33346   3.18649 
 6                    -1.80816  -0.5689    0.13149 
 6                    -0.36494  -0.39485   0.60263 
 6                     0.46011  -0.83927  -0.6038 
 8                     0.12152  -1.16688  -1.70469 
 8                     1.75555  -0.50823  -0.35265 
 7                    -7.04925   2.63617   0.49383 
 6                    -5.99545   3.3703    0.80006 
 6                    -6.43034   4.84195   0.69983 
 6                    -7.67995   4.82863   0.27645 
 6                    -8.13034   3.43981   0.14524 
 6                    -5.49667   6.00587   0.99083 
 6                    -8.64595   6.09198   0.05857 
 6                    -8.6811    7.17182   0.78097 
 7                    -9.06314   0.6703   -0.39484 
 6                    -9.83884   1.83759  -0.54677 
 6                    -11.12686   1.47858  -1.02181 
 6                    -11.18829   0.08659  -1.22861 
 6                    -9.9449   -0.35326  -0.77657 
 6                    -12.24154   2.40805  -1.32752 
 6                    -12.32779  -0.83575  -1.68119 
 6                    -12.19679  -1.18294  -3.16867 
 7                    -7.29101  -1.37245  -0.1853 
 6                    -8.25011  -2.24847  -0.50453 
 6                    -7.81782  -3.57189  -0.47667 
 6                    -6.5063   -3.50173  -0.02592 
 6                    -6.21054  -2.14357   0.0872 
 6                    -8.60525  -4.80138  -0.82145 
 6                    -5.31988  -4.33469   0.25489 
 8                    -5.12199  -5.51981   0.10968 
 6                    -4.11858  -3.28334   0.4484 
 6                    -3.49561  -3.71536   1.85987 
 8                    -3.77161  -3.1181    2.91875 
 8                    -2.69727  -4.70195   1.67465 
 6                    -2.01627  -5.23812   2.89634 
 6                     2.7709   -0.69855  -1.38424 
 6                     4.0911   -0.46697  -0.69684 
 6                     5.09521   0.3846   -1.04137 
 6                     5.1192    1.17194  -2.37494 
 6                     6.36753   0.41694  -0.25847 
 6                     7.59243  -0.16472  -1.00301 
 6                     8.90833  -0.12114  -0.14026 
 6                     10.25891  -0.66766  -0.86542 
 6                     10.1563  -2.1678   -1.18733 
 6                     11.30857  -0.30613   0.04746 
 6                     12.81876  -0.51442  -0.73676 
 6                     13.92986  -0.21416   0.20792 
 6                     15.29644  -0.22339  -0.46508 
 6                     15.65416  -1.73916  -0.99155 
 6                     16.40051   0.28606   0.43948 
 6                     17.81233   0.39255  -0.17449 
 6                     18.75173   1.20533   0.77508 
 6                     20.21968   1.45024   0.28456 
 6                     20.25566   2.36793  -0.95285 
 6                     20.91394   2.13081   1.48557 
 1                    -4.0425    3.73895   1.25226 
 1                    -10.07234   3.87814  -0.48022 
 1                    -10.2581  -2.5451   -1.20824 
 1                    -2.56003  -1.02664   2.06764 
 1                    -2.21392   1.59721   1.08972 
 1                    -1.78886   1.11439   3.47757 
 1                    -3.0576    2.37624   3.39458 
 1                    -3.67529   0.68249   3.49125 
 1                    -1.93049  -1.64923  -0.4686 
 1                    -2.09545   0.11038  -0.58551 
 1                    -0.16117   0.57168   1.15121 
 1                    -0.30538  -1.05486   1.54598 
 1                    -5.59447   6.85516   0.38515 
 1                    -5.36721   6.1209    2.23913 
 1                    -4.58163   5.63835   0.69413 
 1                    -9.19111   6.00506  -0.90581 
 1                    -9.2753    8.00696   0.38546 
 1                    -7.93756   7.20746   1.65124 
 1                    -12.11381   2.88776  -2.26281 
 1                    -13.33084   2.22377  -1.4649 
 1                    -12.41968   3.28255  -0.68673 
 1                    -12.36764  -1.76269  -1.19084 
 1                    -13.26742  -0.11901  -1.51366 
 1                    -13.10537  -1.89523  -3.48207 
 1                    -12.44455  -0.25368  -3.84495 
 1                    -11.35669  -1.84016  -3.46077 
 1                    -9.16684  -4.7414   -1.84345 
 1                    -7.7857   -5.71419  -0.8978 
 1                    -9.3872   -5.18165  -0.05239 
 1                    -3.36783  -3.56511  -0.26041 
 1                    -1.44072  -4.27872   3.36001 
 1                    -2.64248  -5.45184   3.72637 
 1                    -1.3143   -6.04122   2.62038 
 1                     2.66623  -1.7774   -1.7632 
 1                     2.6137   -0.06589  -2.32384 
 1                     4.3383   -1.14667   0.15776 
 1                     4.28091   1.14473  -3.16535 
 1                     5.21073   2.37305  -1.96357 
 1                     5.97713   0.81453  -2.99882 
 1                     6.51009   1.47372  -0.27848 
 1                     6.4945   -0.04505   0.65182 
 1                     7.36664  -1.22681  -1.34302 
 1                     7.842     0.44788  -1.89914 
 1                     9.31258   0.89131  -0.03807 
 1                     8.84232  -0.79105   0.69715 
 1                     10.57292  -0.2781   -1.97392 
 1                     9.28889  -2.49429  -1.78035 
 1                     11.10229  -2.39592  -1.81383 
 1                     10.27963  -2.81377  -0.18286 
 1                     11.25666   0.75333   0.24066 
 1                     11.58012  -0.94243   0.95734 
 1                     12.75822  -1.60139  -1.10405 
 1                     12.866    0.2327   -1.63615 
 1                     13.60537   0.77323   0.51582 
 1                     13.995   -0.75161   1.08777 
 1                     15.36593   0.37531  -1.40921 
 1                     15.97266  -2.36138  -0.08614 
 1                     14.82232  -2.1934   -1.56054 
 1                     16.23673  -1.61303  -1.76832 
 1                     16.12519   1.36656   0.53685 
 1                     16.48161  -0.12989   1.54101 
 1                     18.33423  -0.60027  -0.23544 
 1                     17.57164   1.14118  -0.91165 
 1                     18.40086   2.23352   0.96277 
 1                     18.81017   0.58498   1.79942 
 1                     20.8874   0.51945  -0.03579 
 1                     20.00971   3.49223  -0.80651 
 1                     21.2725   2.41131  -1.35498 
 1                     19.43742   2.09399  -1.5855 
 1                     20.8378   1.40578   2.50861 
 1                     22.03459   2.43483   1.40854 
 1                     20.65391   3.11325   1.70748 
 
 Stoichiometry    C55H72MgN4O5
 Framework group  C1[X(C55H72MgN4O5)]
 Deg. of freedom   405
 Full point group                 C1      NOp   1
 Largest Abelian subgroup         C1      NOp   1
 Largest concise Abelian subgroup C1      NOp   1
                         Standard orientation:                         
 ---------------------------------------------------------------------
 Center     Atomic      Atomic             Coordinates (Angstroms)
 Number     Number       Type             X           Y           Z
 ---------------------------------------------------------------------
      1         12           0       -7.194865    0.577655    0.085826
      2          6           0       -4.836058   -1.891100    0.472703
      3          6           0       -4.741705    2.920554    1.054833
      4          6           0       -9.452985    3.081763   -0.359667
      5          6           0       -9.579276   -1.724103   -0.758826
      6          7           0       -5.113591    0.545540    0.782653
      7          6           0       -4.376777   -0.722255    0.868983
      8          6           0       -2.886473   -0.414879    1.179404
      9          6           0       -3.011830    1.100114    1.656033
     10          6           0       -4.398838    1.556273    1.158076
     11          6           0       -2.779472    1.355299    3.178614
     12          6           0       -1.809545   -0.569936    0.138097
     13          6           0       -0.366266   -0.390793    0.607152
     14          6           0        0.458632   -0.843816   -0.596176
     15          8           0        0.119833   -1.180361   -1.694303
     16          8           0        1.753868   -0.509552   -0.348272
     17          7           0       -7.053603    2.632726    0.477971
     18          6           0       -6.000380    3.370261    0.777934
     19          6           0       -6.436770    4.840655    0.666414
     20          6           0       -7.686574    4.822804    0.243767
     21          6           0       -8.135656    3.432559    0.123645
     22          6           0       -5.504102    6.007735    0.947844
     23          6           0       -8.653926    6.083460    0.016503
     24          6           0       -8.689786    7.168884    0.730457
     25          7           0       -9.065993    0.657993   -0.394302
     26          6           0       -9.842918    1.823302   -0.554966
     27          6           0      -11.130818    1.459317   -1.026547
     28          6           0      -11.190977    0.065701   -1.222424
     29          6           0       -9.946932   -0.369382   -0.767578
     30          6           0      -12.246563    2.385279   -1.338957
     31          6           0      -12.329785   -0.861273   -1.667210
     32          6           0      -12.199171   -1.219954   -3.151998
     33          7           0       -7.291749   -1.381313   -0.169677
     34          6           0       -8.250138   -2.260746   -0.481563
     35          6           0       -7.816534   -3.583478   -0.443581
     36          6           0       -6.504870   -3.508518    0.005956
     37          6           0       -6.210392   -2.149223    0.108312
     38          6           0       -8.602921   -4.816406   -0.778341
     39          6           0       -5.317485   -4.338085    0.292683
     40          8           0       -5.118503   -5.524109    0.156645
     41          6           0       -4.117125   -3.284082    0.477377
     42          6           0       -3.493044   -3.704434    1.891863
     43          8           0       -3.769113   -3.099185    2.946186
     44          8           0       -2.693824   -4.691666    1.713966
     45          6           0       -2.011700   -5.217592    2.939481
     46          6           0        2.768903   -0.706936   -1.378844
     47          6           0        4.089212   -0.468700   -0.693932
     48          6           0        5.092315    0.381145   -1.045613
     49          6           0        5.114875    1.158052   -2.385307
     50          6           0        6.364984    0.420853   -0.263620
     51          6           0        7.590088   -0.165409   -1.004193
     52          6           0        8.906372   -0.113794   -0.142462
     53          6           0       10.257129   -0.664648   -0.864000
     54          6           0       10.155845   -2.167353   -1.174124
     55          6           0       11.306886   -0.294962    0.045497
     56          6           0       12.816889   -0.507887   -0.737820
     57          6           0       13.928161   -0.199166    0.203933
     58          6           0       15.294413   -0.212311   -0.469656
     59          6           0       15.653370   -1.731805   -0.984430
     60          6           0       16.398431    0.305279    0.430348
     61          6           0       17.809837    0.408348   -0.185139
     62          6           0       18.748900    1.229447    0.757582
     63          6           0       20.216373    1.471951    0.264438
     64          6           0       20.250840    2.379972   -0.980127
     65          6           0       20.910551    2.162573    1.459746
     66          1           0       -4.047570    3.744353    1.226264
     67          1           0      -10.078393    3.864075   -0.504259
     68          1           0      -10.258183   -2.564843   -1.181937
     69          1           0       -2.560014   -1.013259    2.078141
     70          1           0       -2.216970    1.603207    1.079566
     71          1           0       -1.790265    1.139489    3.470908
     72          1           0       -3.060286    2.399406    3.378685
     73          1           0       -3.676260    0.705859    3.488902
     74          1           0       -1.931095   -1.655047   -0.453464
     75          1           0       -2.097851    0.103435   -0.584045
     76          1           0       -0.163176    0.580202    1.148048
     77          1           0       -0.305589   -1.043344    1.555598
     78          1           0       -5.603036    6.852168    0.335591
     79          1           0       -5.374151    6.132642    2.195138
     80          1           0       -4.588850    5.638797    0.653571
     81          1           0       -9.199471    5.988463   -0.946901
     82          1           0       -9.284999    8.000320    0.328718
     83          1           0       -7.945857    7.212051    1.600051
     84          1           0      -12.119756    2.857784   -2.278032
     85          1           0      -13.335748    2.198857   -1.474349
     86          1           0      -12.425252    3.264583   -0.704936
     87          1           0      -12.368486   -1.784383   -1.169613
     88          1           0      -13.270037   -0.144165   -1.504821
     89          1           0      -13.107201   -1.935567   -3.459364
     90          1           0      -12.448177   -0.296253   -3.835396
     91          1           0      -11.358571   -1.878611   -3.439371
     92          1           0       -9.165068   -4.764972   -1.800497
     93          1           0       -7.782509   -5.728979   -0.847958
     94          1           0       -9.384120   -5.191418   -0.005940
     95          1           0       -3.366447   -3.570645   -0.229588
     96          1           0       -1.436869   -4.254037    3.395344
     97          1           0       -2.637295   -5.425428    3.771458
     98          1           0       -1.309072   -6.022141    2.669451
     99          1           0        2.665107   -1.788820   -1.749306
    100          1           0        2.610619   -0.081801   -2.323280
    101          1           0        4.337503   -1.141446    0.165832
    102          1           0        4.276222    1.123843   -3.175067
    103          1           0        5.205419    2.362428   -1.983388
    104          1           0        5.972846    0.796619   -3.006797
    105          1           0        6.506495    1.477581   -0.291956
    106          1           0        6.492857   -0.033886    0.650198
    107          1           0        7.365185   -1.230351   -1.335774
    108          1           0        7.838616    0.440404   -1.905215
    109          1           0        9.309675    0.899815   -0.048393
    110          1           0        8.841431   -0.777207    0.700186
    111          1           0       10.570221   -0.283451   -1.975672
    112          1           0        9.288468   -2.499321   -1.764144
    113          1           0       11.101753   -2.399435   -1.799285
    114          1           0       10.280301   -2.805334   -0.164691
    115          1           0       11.254026    0.765927    0.230433
    116          1           0       11.579505   -0.923857    0.960190
    117          1           0       12.757243   -1.597757   -1.096564
    118          1           0       12.862957    0.232223   -1.643040
    119          1           0       13.602848    0.790285    0.504266
    120          1           0       13.994260   -0.729658    1.087924
    121          1           0       15.362855    0.379050   -1.418463
    122          1           0       15.972933   -2.346608   -0.074342
    123          1           0       14.821698   -2.191296   -1.549442
    124          1           0       16.235441   -1.611176   -1.762451
    125          1           0       16.122088    1.386238    0.519406
    126          1           0       16.480478   -0.101971    1.535055
    127          1           0       18.332693   -0.584403   -0.238577
    128          1           0       17.568057    1.150955   -0.928011
    129          1           0       18.397114    2.258728    0.937407
    130          1           0       18.808454    0.617188    1.786714
    131          1           0       20.884856    0.539343   -0.048956
    132          1           0       20.003852    3.505148   -0.842468
    133          1           0       21.267444    2.421207   -1.383089
    134          1           0       19.432561    2.100297   -1.610208
    135          1           0       20.835623    1.445493    2.488457
    136          1           0       22.030856    2.467090    1.379776
    137          1           0       20.649655    3.146468    1.674094
 ---------------------------------------------------------------------
 Rotational constants (GHZ):      0.0642581      0.0061147      0.0057532
 Standard basis: 6-31G(d,p) (6D, 7F)
 There are  1339 symmetry adapted cartesian basis functions of A   symmetry.
 There are  1339 symmetry adapted basis functions of A   symmetry.
  1339 basis functions,  2348 primitive gaussians,  1339 cartesian basis functions
   241 alpha electrons      241 beta electrons
       nuclear repulsion energy      8735.8674476316 Hartrees.
 NAtoms=  137 NActive=  137 NUniq=  137 SFac= 1.00D+00 NAtFMM=   60 NAOKFM=T Big=T
 Integral buffers will be    131072 words long.
 Raffenetti 1 integral format.
 Two-electron integral symmetry is turned on.
 One-electron integrals computed using PRISM.
 NBasis=  1339 RedAO= T EigKep=  2.98D-04  NBF=  1339
 NBsUse=  1339 1.00D-06 EigRej= -1.00D+00 NBFU=  1339
 ExpMin= 4.21D-02 ExpMax= 1.17D+04 ExpMxC= 1.76D+03 IAcc=2 IRadAn=         4 AccDes= 0.00D+00
 Harris functional with IExCor=20419 and IRadAn=       4 diagonalized for initial guess.
 HarFok:  IExCor=20419 AccDes= 0.00D+00 IRadAn=         4 IDoV= 1 UseB2=F ITyADJ=14
 ICtDFT=  3500011 ScaDFX=  1.000000  1.000000  1.000000  1.000000
 FoFCou: FMM=F IPFlag=           0 FMFlag=      100000 FMFlg1=        2001
         NFxFlg=           0 DoJE=T BraDBF=F KetDBF=T FulRan=T
         wScrn=  0.000000 ICntrl=     500 IOpCl=  0 I1Cent=   200000004 NGrid=           0
         NMat0=    1 NMatS0=      1 NMatT0=    0 NMatD0=    1 NMtDS0=    0 NMtDT0=    0
 Petite list used in FoFCou.
 Requested convergence on RMS density matrix=1.00D-08 within 128 cycles.
 Requested convergence on MAX density matrix=1.00D-06.
 Requested convergence on             energy=1.00D-06.
 No special actions if energy rises.
 SCF Done:  E(RCAM-B3LYP) =  -2932.70061291     A.U. after   17 cycles
            NFock= 17  Conv=0.72D-08     -V/T= 2.0097
 DoSCS=F DFT=T ScalE2(SS,OS)=  1.000000  1.000000
 ExpMin= 4.21D-02 ExpMax= 1.17D+04 ExpMxC= 1.76D+03 IAcc=3 IRadAn=         5 AccDes= 0.00D+00
 HarFok:  IExCor=  205 AccDes= 0.00D+00 IRadAn=         5 IDoV=-2 UseB2=F ITyADJ=14
 ICtDFT= 12500011 ScaDFX=  1.000000  1.000000  1.000000  1.000000
 Range of M.O.s used for correlation:    70  1339
 NBasis=  1339 NAE=   241 NBE=   241 NFC=    69 NFV=     0
 NROrb=   1270 NOA=   172 NOB=   172 NVA=  1098 NVB=  1098
 Would need an additional       2415464100000 words for in-memory AO integral storage.
 Orbital symmetries:
       Occupied  (A) (A) (A) (A) (A) (A) (A) (A) (A) (A) (A) (A)
                 (A) (A) (A) (A) (A) (A) (A) (A) (A) (A) (A) (A)
                 (A) (A) (A) (A) (A) (A) (A) (A) (A) (A) (A) (A)
                 (A) (A) (A) (A) (A) (A) (A) (A) (A) (A) (A) (A)
                 (A) (A) (A) (A) (A) (A) (A) (A) (A) (A) (A) (A)
                 (A) (A) (A) (A) (A) (A) (A) (A) (A) (A) (A) (A)
                 (A) (A) (A) (A) (A) (A) (A) (A) (A) (A) (A) (A)
                 (A) (A) (A) (A) (A) (A) (A) (A) (A) (A) (A) (A)
                 (A) (A) (A) (A) (A) (A) (A) (A) (A) (A) (A) (A)
                 (A) (A) (A) (A) (A) (A) (A) (A) (A) (A) (A) (A)
                 (A) (A) (A) (A) (A) (A) (A) (A) (A) (A) (A) (A)
                 (A) (A) (A) (A) (A) (A) (A) (A) (A) (A) (A) (A)
                 (A) (A) (A) (A) (A) (A) (A) (A) (A) (A) (A) (A)
                 (A) (A) (A) (A) (A) (A) (A) (A) (A) (A) (A) (A)
                 (A) (A) (A) (A) (A) (A) (A) (A) (A) (A) (A) (A)
                 (A) (A) (A) (A) (A) (A) (A) (A) (A) (A) (A) (A)
                 (A) (A) (A) (A) (A) (A) (A) (A) (A) (A) (A) (A)
                 (A) (A) (A) (A) (A) (A) (A) (A) (A) (A) (A) (A)
                 (A) (A) (A) (A) (A) (A) (A) (A) (A) (A) (A) (A)
                 (A) (A) (A) (A) (A) (A) (A) (A) (A) (A) (A) (A)
                 (A)
       Virtual   (A) (A) (A) (A) (A) (A) (A) (A) (A) (A) (A) (A)
                 (A) (A) (A) (A) (A) (A) (A) (A) (A) (A) (A) (A)
                 (A) (A) (A) (A) (A) (A) (A) (A) (A) (A) (A) (A)
                 (A) (A) (A) (A) (A) (A) (A) (A) (A) (A) (A) (A)
                 (A) (A) (A) (A) (A) (A) (A) (A) (A) (A) (A) (A)
                 (A) (A) (A) (A) (A) (A) (A) (A) (A) (A) (A) (A)
                 (A) (A) (A) (A) (A) (A) (A) (A) (A) (A) (A) (A)
                 (A) (A) (A) (A) (A) (A) (A) (A) (A) (A) (A) (A)
                 (A) (A) (A) (A) (A) (A) (A) (A) (A) (A) (A) (A)
                 (A) (A) (A) (A) (A) (A) (A) (A) (A) (A) (A) (A)
                 (A) (A) (A) (A) (A) (A) (A) (A) (A) (A) (A) (A)
                 (A) (A) (A) (A) (A) (A) (A) (A) (A) (A) (A) (A)
                 (A) (A) (A) (A) (A) (A) (A) (A) (A) (A) (A) (A)
                 (A) (A) (A) (A) (A) (A) (A) (A) (A) (A) (A) (A)
                 (A) (A) (A) (A) (A) (A) (A) (A) (A) (A) (A) (A)
                 (A) (A) (A) (A) (A) (A) (A) (A) (A) (A) (A) (A)
                 (A) (A) (A) (A) (A) (A) (A) (A) (A) (A) (A) (A)
                 (A) (A) (A) (A) (A) (A) (A) (A) (A) (A) (A) (A)
                 (A) (A) (A) (A) (A) (A) (A) (A) (A) (A) (A) (A)
                 (A) (A) (A) (A) (A) (A) (A) (A) (A) (A) (A) (A)
                 (A) (A) (A) (A) (A) (A) (A) (A) (A) (A) (A) (A)
                 (A) (A) (A) (A) (A) (A) (A) (A) (A) (A) (A) (A)
                 (A) (A) (A) (A) (A) (A) (A) (A) (A) (A) (A) (A)
                 (A) (A) (A) (A) (A) (A) (A) (A) (A) (A) (A) (A)
                 (A) (A) (A) (A) (A) (A) (A) (A) (A) (A) (A) (A)
                 (A) (A) (A) (A) (A) (A) (A) (A) (A) (A) (A) (A)
                 (A) (A) (A) (A) (A) (A) (A) (A) (A) (A) (A) (A)
                 (A) (A) (A) (A) (A) (A) (A) (A) (A) (A) (A) (A)
                 (A) (A) (A) (A) (A) (A) (A) (A) (A) (A) (A) (A)
                 (A) (A) (A) (A) (A) (A) (A) (A) (A) (A) (A) (A)
                 (A) (A) (A) (A) (A) (A) (A) (A) (A) (A) (A) (A)
                 (A) (A) (A) (A) (A) (A) (A) (A) (A) (A) (A) (A)
                 (A) (A) (A) (A) (A) (A) (A) (A) (A) (A) (A) (A)
                 (A) (A) (A) (A) (A) (A) (A) (A) (A) (A) (A) (A)
                 (A) (A) (A) (A) (A) (A) (A) (A) (A) (A) (A) (A)
                 (A) (A) (A) (A) (A) (A) (A) (A) (A) (A) (A) (A)
                 (A) (A) (A) (A) (A) (A) (A) (A) (A) (A) (A) (A)
                 (A) (A) (A) (A) (A) (A) (A) (A) (A) (A) (A) (A)
                 (A) (A) (A) (A) (A) (A) (A) (A) (A) (A) (A) (A)
                 (A) (A) (A) (A) (A) (A) (A) (A) (A) (A) (A) (A)
                 (A) (A) (A) (A) (A) (A) (A) (A) (A) (A) (A) (A)
                 (A) (A) (A) (A) (A) (A) (A) (A) (A) (A) (A) (A)
                 (A) (A) (A) (A) (A) (A) (A) (A) (A) (A) (A) (A)
                 (A) (A) (A) (A) (A) (A) (A) (A) (A) (A) (A) (A)
                 (A) (A) (A) (A) (A) (A) (A) (A) (A) (A) (A) (A)
                 (A) (A) (A) (A) (A) (A) (A) (A) (A) (A) (A) (A)
                 (A) (A) (A) (A) (A) (A) (A) (A) (A) (A) (A) (A)
                 (A) (A) (A) (A) (A) (A) (A) (A) (A) (A) (A) (A)
                 (A) (A) (A) (A) (A) (A) (A) (A) (A) (A) (A) (A)
                 (A) (A) (A) (A) (A) (A) (A) (A) (A) (A) (A) (A)
                 (A) (A) (A) (A) (A) (A) (A) (A) (A) (A) (A) (A)
                 (A) (A) (A) (A) (A) (A) (A) (A) (A) (A) (A) (A)
                 (A) (A) (A) (A) (A) (A) (A) (A) (A) (A) (A) (A)
                 (A) (A) (A) (A) (A) (A) (A) (A) (A) (A) (A) (A)
                 (A) (A) (A) (A) (A) (A) (A) (A) (A) (A) (A) (A)
                 (A) (A) (A) (A) (A) (A) (A) (A) (A) (A) (A) (A)
                 (A) (A) (A) (A) (A) (A) (A) (A) (A) (A) (A) (A)
                 (A) (A) (A) (A) (A) (A) (A) (A) (A) (A) (A) (A)
                 (A) (A) (A) (A) (A) (A) (A) (A) (A) (A) (A) (A)
                 (A) (A) (A) (A) (A) (A) (A) (A) (A) (A) (A) (A)
                 (A) (A) (A) (A) (A) (A) (A) (A) (A) (A) (A) (A)
                 (A) (A) (A) (A) (A) (A) (A) (A) (A) (A) (A) (A)
                 (A) (A) (A) (A) (A) (A) (A) (A) (A) (A) (A) (A)
                 (A) (A) (A) (A) (A) (A) (A) (A) (A) (A) (A) (A)
                 (A) (A) (A) (A) (A) (A) (A) (A) (A) (A) (A) (A)
                 (A) (A) (A) (A) (A) (A) (A) (A) (A) (A) (A) (A)
                 (A) (A) (A) (A) (A) (A) (A) (A) (A) (A) (A) (A)
                 (A) (A) (A) (A) (A) (A) (A) (A) (A) (A) (A) (A)
                 (A) (A) (A) (A) (A) (A) (A) (A) (A) (A) (A) (A)
                 (A) (A) (A) (A) (A) (A) (A) (A) (A) (A) (A) (A)
                 (A) (A) (A) (A) (A) (A) (A) (A) (A) (A) (A) (A)
                 (A) (A) (A) (A) (A) (A) (A) (A) (A) (A) (A) (A)
                 (A) (A) (A) (A) (A) (A) (A) (A) (A) (A) (A) (A)
                 (A) (A) (A) (A) (A) (A) (A) (A) (A) (A) (A) (A)
                 (A) (A) (A) (A) (A) (A) (A) (A) (A) (A) (A) (A)
                 (A) (A) (A) (A) (A) (A) (A) (A) (A) (A) (A) (A)
                 (A) (A) (A) (A) (A) (A) (A) (A) (A) (A) (A) (A)
                 (A) (A) (A) (A) (A) (A) (A) (A) (A) (A) (A) (A)
                 (A) (A) (A) (A) (A) (A) (A) (A) (A) (A) (A) (A)
                 (A) (A) (A) (A) (A) (A) (A) (A) (A) (A) (A) (A)
                 (A) (A) (A) (A) (A) (A) (A) (A) (A) (A) (A) (A)
                 (A) (A) (A) (A) (A) (A) (A) (A) (A) (A) (A) (A)
                 (A) (A) (A) (A) (A) (A) (A) (A) (A) (A) (A) (A)
                 (A) (A) (A) (A) (A) (A) (A) (A) (A) (A) (A) (A)
                 (A) (A) (A) (A) (A) (A) (A) (A) (A) (A) (A) (A)
                 (A) (A) (A) (A) (A) (A) (A) (A) (A) (A) (A) (A)
                 (A) (A) (A) (A) (A) (A) (A) (A) (A) (A) (A) (A)
                 (A) (A) (A) (A) (A) (A) (A) (A) (A) (A) (A) (A)
                 (A) (A) (A) (A) (A) (A) (A) (A) (A) (A) (A) (A)
                 (A) (A) (A) (A) (A) (A) (A) (A) (A) (A) (A) (A)
                 (A) (A) (A) (A) (A) (A) (A) (A) (A) (A) (A) (A)
                 (A) (A) (A) (A) (A) (A)
     8 initial guesses have been made.
 Convergence on wavefunction:    0.001000000000000
 Iteration     1 Dimension     8 NMult     0 NNew      8
 CISAX will form     8 AO SS matrices at one time.
 Iteration     2 Dimension    12 NMult     8 NNew      4
 Iteration     3 Dimension    16 NMult    12 NNew      4
 Iteration     4 Dimension    20 NMult    16 NNew      4
 Iteration     5 Dimension    24 NMult    20 NNew      4
 Iteration     6 Dimension    28 NMult    24 NNew      4
 ***********************************************************************
 Excited states from <AA,BB:AA,BB> singles matrix:
 ***********************************************************************
 
 Ground to excited state transition densities written to RWF  633
 Ground to excited state transition electric dipole moments (Au):
       state          X           Y           Z        Dip. S.      Osc.
         1         0.3066      2.3426      0.2948      5.6685      0.2921
 Ground to excited state transition velocity dipole moments (Au):
       state          X           Y           Z        Dip. S.      Osc.
         1        -0.0218     -0.1749     -0.0231      0.0316      0.2724
 Ground to excited state transition magnetic dipole moments (Au):
       state          X           Y           Z
         1        -0.6061     -0.5191      4.4100
 Ground to excited state transition velocity quadrupole moments (Au):
       state          XX          YY          ZZ          XY          XZ          YZ
         1         0.5586     -0.1406     -0.0342      2.2653      0.2809     -0.1310
 <0|del|b> * <b|rxdel|0> + <0|del|b> * <b|delr+rdel|0>
 Rotatory Strengths (R) in cgs (10**-40 erg-esu-cm/Gauss)
       state          XX          YY          ZZ    R(velocity)    E-M Angle
         1       -65.6841   -153.2696    237.8600      6.3021       89.85
 1/2[<0|r|b>*<b|rxdel|0> + (<0|rxdel|b>*<b|r|0>)*]
 Rotatory Strengths (R) in cgs (10**-40 erg-esu-cm/Gauss)
       state          XX          YY          ZZ     R(length)
         1       131.3966    859.9440   -919.3973     23.9811
  1/2[<0|del|b>*<b|r|0> + (<0|r|b>*<b|del|0>)*] (Au)
       state          X           Y           Z        Dip. S.   Osc.(frdel)
         1        -0.0067     -0.4096     -0.0068      0.4231      0.2821

 Excitation energies and oscillator strengths:
 
 Excited State   1:      Singlet-A      2.1036 eV  589.40 nm  f=0.2921  <S**2>=0.000
     240 -> 243        0.20133
     241 -> 242        0.67310
 This state for optimization and/or second-order correction.
 Total Energy, E(TD-HF/TD-KS) =  -2932.62330845    
 Copying the excited state density for this state as the 1-particle RhoCI density.
 SavETr:  write IOETrn=   770 NScale= 10 NData=  16 NLR=1 NState=    1 LETran=      28.

 **********************************************************************

            Population analysis using the SCF density.

 **********************************************************************

 Orbital symmetries:
       Occupied  (A) (A) (A) (A) (A) (A) (A) (A) (A) (A) (A) (A)
                 (A) (A) (A) (A) (A) (A) (A) (A) (A) (A) (A) (A)
                 (A) (A) (A) (A) (A) (A) (A) (A) (A) (A) (A) (A)
                 (A) (A) (A) (A) (A) (A) (A) (A) (A) (A) (A) (A)
                 (A) (A) (A) (A) (A) (A) (A) (A) (A) (A) (A) (A)
                 (A) (A) (A) (A) (A) (A) (A) (A) (A) (A) (A) (A)
                 (A) (A) (A) (A) (A) (A) (A) (A) (A) (A) (A) (A)
                 (A) (A) (A) (A) (A) (A) (A) (A) (A) (A) (A) (A)
                 (A) (A) (A) (A) (A) (A) (A) (A) (A) (A) (A) (A)
                 (A) (A) (A) (A) (A) (A) (A) (A) (A) (A) (A) (A)
                 (A) (A) (A) (A) (A) (A) (A) (A) (A) (A) (A) (A)
                 (A) (A) (A) (A) (A) (A) (A) (A) (A) (A) (A) (A)
                 (A) (A) (A) (A) (A) (A) (A) (A) (A) (A) (A) (A)
                 (A) (A) (A) (A) (A) (A) (A) (A) (A) (A) (A) (A)
                 (A) (A) (A) (A) (A) (A) (A) (A) (A) (A) (A) (A)
                 (A) (A) (A) (A) (A) (A) (A) (A) (A) (A) (A) (A)
                 (A) (A) (A) (A) (A) (A) (A) (A) (A) (A) (A) (A)
                 (A) (A) (A) (A) (A) (A) (A) (A) (A) (A) (A) (A)
                 (A) (A) (A) (A) (A) (A) (A) (A) (A) (A) (A) (A)
                 (A) (A) (A) (A) (A) (A) (A) (A) (A) (A) (A) (A)
                 (A)
       Virtual   (A) (A) (A) (A) (A) (A) (A) (A) (A) (A) (A) (A)
                 (A) (A) (A) (A) (A) (A) (A) (A) (A) (A) (A) (A)
                 (A) (A) (A) (A) (A) (A) (A) (A) (A) (A) (A) (A)
                 (A) (A) (A) (A) (A) (A) (A) (A) (A) (A) (A) (A)
                 (A) (A) (A) (A) (A) (A) (A) (A) (A) (A) (A) (A)
                 (A) (A) (A) (A) (A) (A) (A) (A) (A) (A) (A) (A)
                 (A) (A) (A) (A) (A) (A) (A) (A) (A) (A) (A) (A)
                 (A) (A) (A) (A) (A) (A) (A) (A) (A) (A) (A) (A)
                 (A) (A) (A) (A) (A) (A) (A) (A) (A) (A) (A) (A)
                 (A) (A) (A) (A) (A) (A) (A) (A) (A) (A) (A) (A)
                 (A) (A) (A) (A) (A) (A) (A) (A) (A) (A) (A) (A)
                 (A) (A) (A) (A) (A) (A) (A) (A) (A) (A) (A) (A)
                 (A) (A) (A) (A) (A) (A) (A) (A) (A) (A) (A) (A)
                 (A) (A) (A) (A) (A) (A) (A) (A) (A) (A) (A) (A)
                 (A) (A) (A) (A) (A) (A) (A) (A) (A) (A) (A) (A)
                 (A) (A) (A) (A) (A) (A) (A) (A) (A) (A) (A) (A)
                 (A) (A) (A) (A) (A) (A) (A) (A) (A) (A) (A) (A)
                 (A) (A) (A) (A) (A) (A) (A) (A) (A) (A) (A) (A)
                 (A) (A) (A) (A) (A) (A) (A) (A) (A) (A) (A) (A)
                 (A) (A) (A) (A) (A) (A) (A) (A) (A) (A) (A) (A)
                 (A) (A) (A) (A) (A) (A) (A) (A) (A) (A) (A) (A)
                 (A) (A) (A) (A) (A) (A) (A) (A) (A) (A) (A) (A)
                 (A) (A) (A) (A) (A) (A) (A) (A) (A) (A) (A) (A)
                 (A) (A) (A) (A) (A) (A) (A) (A) (A) (A) (A) (A)
                 (A) (A) (A) (A) (A) (A) (A) (A) (A) (A) (A) (A)
                 (A) (A) (A) (A) (A) (A) (A) (A) (A) (A) (A) (A)
                 (A) (A) (A) (A) (A) (A) (A) (A) (A) (A) (A) (A)
                 (A) (A) (A) (A) (A) (A) (A) (A) (A) (A) (A) (A)
                 (A) (A) (A) (A) (A) (A) (A) (A) (A) (A) (A) (A)
                 (A) (A) (A) (A) (A) (A) (A) (A) (A) (A) (A) (A)
                 (A) (A) (A) (A) (A) (A) (A) (A) (A) (A) (A) (A)
                 (A) (A) (A) (A) (A) (A) (A) (A) (A) (A) (A) (A)
                 (A) (A) (A) (A) (A) (A) (A) (A) (A) (A) (A) (A)
                 (A) (A) (A) (A) (A) (A) (A) (A) (A) (A) (A) (A)
                 (A) (A) (A) (A) (A) (A) (A) (A) (A) (A) (A) (A)
                 (A) (A) (A) (A) (A) (A) (A) (A) (A) (A) (A) (A)
                 (A) (A) (A) (A) (A) (A) (A) (A) (A) (A) (A) (A)
                 (A) (A) (A) (A) (A) (A) (A) (A) (A) (A) (A) (A)
                 (A) (A) (A) (A) (A) (A) (A) (A) (A) (A) (A) (A)
                 (A) (A) (A) (A) (A) (A) (A) (A) (A) (A) (A) (A)
                 (A) (A) (A) (A) (A) (A) (A) (A) (A) (A) (A) (A)
                 (A) (A) (A) (A) (A) (A) (A) (A) (A) (A) (A) (A)
                 (A) (A) (A) (A) (A) (A) (A) (A) (A) (A) (A) (A)
                 (A) (A) (A) (A) (A) (A) (A) (A) (A) (A) (A) (A)
                 (A) (A) (A) (A) (A) (A) (A) (A) (A) (A) (A) (A)
                 (A) (A) (A) (A) (A) (A) (A) (A) (A) (A) (A) (A)
                 (A) (A) (A) (A) (A) (A) (A) (A) (A) (A) (A) (A)
                 (A) (A) (A) (A) (A) (A) (A) (A) (A) (A) (A) (A)
                 (A) (A) (A) (A) (A) (A) (A) (A) (A) (A) (A) (A)
                 (A) (A) (A) (A) (A) (A) (A) (A) (A) (A) (A) (A)
                 (A) (A) (A) (A) (A) (A) (A) (A) (A) (A) (A) (A)
                 (A) (A) (A) (A) (A) (A) (A) (A) (A) (A) (A) (A)
                 (A) (A) (A) (A) (A) (A) (A) (A) (A) (A) (A) (A)
                 (A) (A) (A) (A) (A) (A) (A) (A) (A) (A) (A) (A)
                 (A) (A) (A) (A) (A) (A) (A) (A) (A) (A) (A) (A)
                 (A) (A) (A) (A) (A) (A) (A) (A) (A) (A) (A) (A)
                 (A) (A) (A) (A) (A) (A) (A) (A) (A) (A) (A) (A)
                 (A) (A) (A) (A) (A) (A) (A) (A) (A) (A) (A) (A)
                 (A) (A) (A) (A) (A) (A) (A) (A) (A) (A) (A) (A)
                 (A) (A) (A) (A) (A) (A) (A) (A) (A) (A) (A) (A)
                 (A) (A) (A) (A) (A) (A) (A) (A) (A) (A) (A) (A)
                 (A) (A) (A) (A) (A) (A) (A) (A) (A) (A) (A) (A)
                 (A) (A) (A) (A) (A) (A) (A) (A) (A) (A) (A) (A)
                 (A) (A) (A) (A) (A) (A) (A) (A) (A) (A) (A) (A)
                 (A) (A) (A) (A) (A) (A) (A) (A) (A) (A) (A) (A)
                 (A) (A) (A) (A) (A) (A) (A) (A) (A) (A) (A) (A)
                 (A) (A) (A) (A) (A) (A) (A) (A) (A) (A) (A) (A)
                 (A) (A) (A) (A) (A) (A) (A) (A) (A) (A) (A) (A)
                 (A) (A) (A) (A) (A) (A) (A) (A) (A) (A) (A) (A)
                 (A) (A) (A) (A) (A) (A) (A) (A) (A) (A) (A) (A)
                 (A) (A) (A) (A) (A) (A) (A) (A) (A) (A) (A) (A)
                 (A) (A) (A) (A) (A) (A) (A) (A) (A) (A) (A) (A)
                 (A) (A) (A) (A) (A) (A) (A) (A) (A) (A) (A) (A)
                 (A) (A) (A) (A) (A) (A) (A) (A) (A) (A) (A) (A)
                 (A) (A) (A) (A) (A) (A) (A) (A) (A) (A) (A) (A)
                 (A) (A) (A) (A) (A) (A) (A) (A) (A) (A) (A) (A)
                 (A) (A) (A) (A) (A) (A) (A) (A) (A) (A) (A) (A)
                 (A) (A) (A) (A) (A) (A) (A) (A) (A) (A) (A) (A)
                 (A) (A) (A) (A) (A) (A) (A) (A) (A) (A) (A) (A)
                 (A) (A) (A) (A) (A) (A) (A) (A) (A) (A) (A) (A)
                 (A) (A) (A) (A) (A) (A) (A) (A) (A) (A) (A) (A)
                 (A) (A) (A) (A) (A) (A) (A) (A) (A) (A) (A) (A)
                 (A) (A) (A) (A) (A) (A) (A) (A) (A) (A) (A) (A)
                 (A) (A) (A) (A) (A) (A) (A) (A) (A) (A) (A) (A)
                 (A) (A) (A) (A) (A) (A) (A) (A) (A) (A) (A) (A)
                 (A) (A) (A) (A) (A) (A) (A) (A) (A) (A) (A) (A)
                 (A) (A) (A) (A) (A) (A) (A) (A) (A) (A) (A) (A)
                 (A) (A) (A) (A) (A) (A) (A) (A) (A) (A) (A) (A)
                 (A) (A) (A) (A) (A) (A) (A) (A) (A) (A) (A) (A)
                 (A) (A) (A) (A) (A) (A) (A) (A) (A) (A) (A) (A)
                 (A) (A) (A) (A) (A) (A) (A) (A) (A) (A) (A) (A)
                 (A) (A) (A) (A) (A) (A)
 The electronic state is 1-A.
 Alpha  occ. eigenvalues --  -46.83410 -19.28078 -19.25083 -19.21394 -19.19941
 Alpha  occ. eigenvalues --  -19.19642 -14.41851 -14.39269 -14.38673 -14.38629
 Alpha  occ. eigenvalues --  -10.39501 -10.39039 -10.34590 -10.33325 -10.32550
 Alpha  occ. eigenvalues --  -10.31364 -10.30573 -10.30124 -10.29678 -10.28902
 Alpha  occ. eigenvalues --  -10.28756 -10.28741 -10.28439 -10.28223 -10.28147
 Alpha  occ. eigenvalues --  -10.28047 -10.27792 -10.27728 -10.27486 -10.27473
 Alpha  occ. eigenvalues --  -10.27418 -10.27355 -10.27226 -10.27054 -10.27010
 Alpha  occ. eigenvalues --  -10.27003 -10.26965 -10.26941 -10.26865 -10.26694
 Alpha  occ. eigenvalues --  -10.26486 -10.26399 -10.26398 -10.26397 -10.26347
 Alpha  occ. eigenvalues --  -10.26312 -10.26258 -10.26245 -10.26159 -10.26039
 Alpha  occ. eigenvalues --  -10.26035 -10.25902 -10.25875 -10.25686 -10.25652
 Alpha  occ. eigenvalues --  -10.25641 -10.25595 -10.25510 -10.25482 -10.25371
 Alpha  occ. eigenvalues --  -10.25176 -10.24777 -10.23975 -10.23937 -10.23800
 Alpha  occ. eigenvalues --   -3.12647  -1.87334  -1.86942  -1.86793  -1.19304
 Alpha  occ. eigenvalues --   -1.17785  -1.10751  -1.09070  -1.07243  -1.04632
 Alpha  occ. eigenvalues --   -1.04065  -1.02718  -1.01699  -0.91574  -0.91104
 Alpha  occ. eigenvalues --   -0.90346  -0.89723  -0.89288  -0.89020  -0.88523
 Alpha  occ. eigenvalues --   -0.87813  -0.87614  -0.87058  -0.85993  -0.85479
 Alpha  occ. eigenvalues --   -0.84404  -0.84116  -0.83463  -0.83150  -0.82947
 Alpha  occ. eigenvalues --   -0.81594  -0.81034  -0.80261  -0.79205  -0.78089
 Alpha  occ. eigenvalues --   -0.77625  -0.77205  -0.76024  -0.75672  -0.75379
 Alpha  occ. eigenvalues --   -0.75257  -0.74476  -0.74297  -0.72864  -0.71929
 Alpha  occ. eigenvalues --   -0.71016  -0.69635  -0.68905  -0.68616  -0.67540
 Alpha  occ. eigenvalues --   -0.66372  -0.65636  -0.64576  -0.64507  -0.64161
 Alpha  occ. eigenvalues --   -0.63977  -0.62858  -0.62492  -0.62306  -0.61721
 Alpha  occ. eigenvalues --   -0.61001  -0.60958  -0.60089  -0.59261  -0.58965
 Alpha  occ. eigenvalues --   -0.58517  -0.57831  -0.57334  -0.56746  -0.56199
 Alpha  occ. eigenvalues --   -0.56039  -0.55837  -0.55444  -0.55218  -0.54907
 Alpha  occ. eigenvalues --   -0.54636  -0.54262  -0.53950  -0.53423  -0.53086
 Alpha  occ. eigenvalues --   -0.52868  -0.52447  -0.52227  -0.52007  -0.51613
 Alpha  occ. eigenvalues --   -0.51163  -0.50918  -0.50359  -0.50276  -0.50218
 Alpha  occ. eigenvalues --   -0.49779  -0.49704  -0.49568  -0.49180  -0.49131
 Alpha  occ. eigenvalues --   -0.48924  -0.48532  -0.48450  -0.48332  -0.48258
 Alpha  occ. eigenvalues --   -0.48091  -0.47859  -0.47704  -0.47515  -0.47325
 Alpha  occ. eigenvalues --   -0.46717  -0.46382  -0.46139  -0.45962  -0.45847
 Alpha  occ. eigenvalues --   -0.45465  -0.45376  -0.45215  -0.45164  -0.44999
 Alpha  occ. eigenvalues --   -0.44661  -0.44517  -0.44155  -0.43998  -0.43729
 Alpha  occ. eigenvalues --   -0.43509  -0.43324  -0.43126  -0.42833  -0.42612
 Alpha  occ. eigenvalues --   -0.42490  -0.42464  -0.42189  -0.42166  -0.41845
 Alpha  occ. eigenvalues --   -0.41574  -0.41353  -0.41271  -0.41191  -0.40860
 Alpha  occ. eigenvalues --   -0.40798  -0.40648  -0.40544  -0.40268  -0.39892
 Alpha  occ. eigenvalues --   -0.39818  -0.39594  -0.39231  -0.39177  -0.38795
 Alpha  occ. eigenvalues --   -0.38478  -0.38418  -0.38160  -0.37986  -0.37771
 Alpha  occ. eigenvalues --   -0.37462  -0.37251  -0.37091  -0.36995  -0.36400
 Alpha  occ. eigenvalues --   -0.36310  -0.35801  -0.35741  -0.35599  -0.35418
 Alpha  occ. eigenvalues --   -0.35267  -0.35101  -0.34314  -0.34185  -0.33055
 Alpha  occ. eigenvalues --   -0.32529  -0.32020  -0.31645  -0.31376  -0.29596
 Alpha  occ. eigenvalues --   -0.29242  -0.29156  -0.28802  -0.27779  -0.23780
 Alpha  occ. eigenvalues --   -0.20914
 Alpha virt. eigenvalues --   -0.06181  -0.01898   0.02100   0.05076   0.05504
 Alpha virt. eigenvalues --    0.06048   0.06181   0.06881   0.07683   0.07892
 Alpha virt. eigenvalues --    0.08768   0.10621   0.11416   0.11735   0.11746
 Alpha virt. eigenvalues --    0.11947   0.12195   0.12588   0.12893   0.12977
 Alpha virt. eigenvalues --    0.13364   0.13625   0.13679   0.14288   0.14466
 Alpha virt. eigenvalues --    0.14612   0.14923   0.15124   0.15376   0.15438
 Alpha virt. eigenvalues --    0.15562   0.15925   0.16059   0.16274   0.16353
 Alpha virt. eigenvalues --    0.16489   0.16757   0.17236   0.17285   0.17607
 Alpha virt. eigenvalues --    0.17727   0.17905   0.18078   0.18153   0.18253
 Alpha virt. eigenvalues --    0.18441   0.18468   0.18668   0.18779   0.18834
 Alpha virt. eigenvalues --    0.19114   0.19506   0.19549   0.19611   0.19781
 Alpha virt. eigenvalues --    0.19865   0.19948   0.20117   0.20247   0.20341
 Alpha virt. eigenvalues --    0.20771   0.20897   0.21141   0.21264   0.21412
 Alpha virt. eigenvalues --    0.21481   0.21791   0.21988   0.22118   0.22161
 Alpha virt. eigenvalues --    0.22220   0.22325   0.22438   0.22824   0.22900
 Alpha virt. eigenvalues --    0.23138   0.23208   0.23614   0.23742   0.23783
 Alpha virt. eigenvalues --    0.23986   0.24272   0.24419   0.24612   0.25072
 Alpha virt. eigenvalues --    0.25203   0.25437   0.25637   0.25666   0.25764
 Alpha virt. eigenvalues --    0.25965   0.26318   0.26549   0.26770   0.27307
 Alpha virt. eigenvalues --    0.27670   0.27790   0.28192   0.28305   0.28442
 Alpha virt. eigenvalues --    0.28504   0.28716   0.28803   0.28979   0.29163
 Alpha virt. eigenvalues --    0.29328   0.29542   0.30004   0.30091   0.30240
 Alpha virt. eigenvalues --    0.30641   0.30862   0.30966   0.31223   0.31385
 Alpha virt. eigenvalues --    0.31599   0.32053   0.32283   0.32520   0.32781
 Alpha virt. eigenvalues --    0.33205   0.33594   0.33894   0.33917   0.34344
 Alpha virt. eigenvalues --    0.34416   0.35164   0.35250   0.36040   0.36344
 Alpha virt. eigenvalues --    0.36951   0.37147   0.37651   0.37880   0.38510
 Alpha virt. eigenvalues --    0.39222   0.39485   0.39632   0.39861   0.40901
 Alpha virt. eigenvalues --    0.41000   0.41629   0.42048   0.42692   0.42913
 Alpha virt. eigenvalues --    0.43379   0.43920   0.44518   0.45044   0.45669
 Alpha virt. eigenvalues --    0.46544   0.47721   0.48166   0.48818   0.49536
 Alpha virt. eigenvalues --    0.50251   0.50992   0.51382   0.51944   0.52748
 Alpha virt. eigenvalues --    0.53258   0.53539   0.53934   0.54731   0.54940
 Alpha virt. eigenvalues --    0.55049   0.55184   0.55754   0.55816   0.55975
 Alpha virt. eigenvalues --    0.56055   0.56379   0.56642   0.56707   0.56953
 Alpha virt. eigenvalues --    0.57311   0.57444   0.57893   0.58159   0.58317
 Alpha virt. eigenvalues --    0.58513   0.58785   0.58918   0.58978   0.59074
 Alpha virt. eigenvalues --    0.59263   0.59542   0.59756   0.59846   0.60244
 Alpha virt. eigenvalues --    0.60330   0.60542   0.60573   0.60713   0.61229
 Alpha virt. eigenvalues --    0.61489   0.61840   0.61955   0.62442   0.62700
 Alpha virt. eigenvalues --    0.62887   0.63249   0.63301   0.63572   0.63729
 Alpha virt. eigenvalues --    0.64036   0.64683   0.64911   0.65139   0.65591
 Alpha virt. eigenvalues --    0.65799   0.65955   0.66316   0.66537   0.66781
 Alpha virt. eigenvalues --    0.67169   0.67538   0.67625   0.67906   0.67915
 Alpha virt. eigenvalues --    0.68261   0.68338   0.68610   0.69092   0.69294
 Alpha virt. eigenvalues --    0.69402   0.69689   0.69973   0.70366   0.70602
 Alpha virt. eigenvalues --    0.70942   0.71338   0.71614   0.71751   0.72020
 Alpha virt. eigenvalues --    0.72043   0.72138   0.72579   0.73050   0.73180
 Alpha virt. eigenvalues --    0.73419   0.73680   0.73809   0.73916   0.74500
 Alpha virt. eigenvalues --    0.74826   0.75022   0.75071   0.75340   0.75556
 Alpha virt. eigenvalues --    0.75826   0.76050   0.76135   0.76566   0.76762
 Alpha virt. eigenvalues --    0.77155   0.77704   0.77933   0.78060   0.78224
 Alpha virt. eigenvalues --    0.78370   0.78894   0.78991   0.79460   0.79763
 Alpha virt. eigenvalues --    0.80167   0.80274   0.80513   0.80592   0.80641
 Alpha virt. eigenvalues --    0.81093   0.81286   0.81406   0.81905   0.82086
 Alpha virt. eigenvalues --    0.82312   0.82993   0.83051   0.83189   0.83346
 Alpha virt. eigenvalues --    0.83505   0.83774   0.83800   0.83980   0.84279
 Alpha virt. eigenvalues --    0.84551   0.84650   0.84943   0.85058   0.85635
 Alpha virt. eigenvalues --    0.85979   0.86177   0.86185   0.86410   0.86668
 Alpha virt. eigenvalues --    0.86771   0.86992   0.87179   0.87420   0.87498
 Alpha virt. eigenvalues --    0.87712   0.87814   0.88129   0.88230   0.88328
 Alpha virt. eigenvalues --    0.88532   0.88656   0.88890   0.89053   0.89129
 Alpha virt. eigenvalues --    0.89516   0.89855   0.89932   0.90081   0.90388
 Alpha virt. eigenvalues --    0.90429   0.90616   0.90714   0.91157   0.91252
 Alpha virt. eigenvalues --    0.91436   0.91563   0.91889   0.92152   0.92257
 Alpha virt. eigenvalues --    0.92366   0.92536   0.92719   0.92911   0.93218
 Alpha virt. eigenvalues --    0.93684   0.94128   0.94186   0.94295   0.94527
 Alpha virt. eigenvalues --    0.94760   0.94926   0.95377   0.95576   0.95603
 Alpha virt. eigenvalues --    0.95755   0.95832   0.96042   0.96448   0.96565
 Alpha virt. eigenvalues --    0.96648   0.97041   0.97174   0.97322   0.97400
 Alpha virt. eigenvalues --    0.97529   0.97846   0.97945   0.98033   0.98471
 Alpha virt. eigenvalues --    0.98633   0.98869   0.99022   0.99181   0.99414
 Alpha virt. eigenvalues --    0.99585   0.99898   1.00114   1.00270   1.00332
 Alpha virt. eigenvalues --    1.00692   1.00889   1.00992   1.01263   1.01455
 Alpha virt. eigenvalues --    1.01851   1.02303   1.02722   1.02900   1.03078
 Alpha virt. eigenvalues --    1.03412   1.03507   1.03718   1.04122   1.04395
 Alpha virt. eigenvalues --    1.04710   1.04834   1.05253   1.05396   1.05851
 Alpha virt. eigenvalues --    1.06179   1.06343   1.06532   1.07123   1.07293
 Alpha virt. eigenvalues --    1.07448   1.07966   1.08140   1.08514   1.08608
 Alpha virt. eigenvalues --    1.09740   1.10055   1.10349   1.10429   1.10819
 Alpha virt. eigenvalues --    1.11388   1.11922   1.12115   1.12384   1.13242
 Alpha virt. eigenvalues --    1.13529   1.13650   1.14605   1.15153   1.16025
 Alpha virt. eigenvalues --    1.16232   1.16790   1.16913   1.17277   1.17694
 Alpha virt. eigenvalues --    1.18198   1.19160   1.19678   1.20027   1.20733
 Alpha virt. eigenvalues --    1.21151   1.21808   1.22586   1.22604   1.23020
 Alpha virt. eigenvalues --    1.23978   1.24140   1.24758   1.25176   1.25726
 Alpha virt. eigenvalues --    1.25755   1.26791   1.26945   1.27209   1.27727
 Alpha virt. eigenvalues --    1.28717   1.29738   1.30363   1.30799   1.31267
 Alpha virt. eigenvalues --    1.31445   1.32026   1.32759   1.33440   1.33964
 Alpha virt. eigenvalues --    1.34253   1.35447   1.35791   1.35963   1.36495
 Alpha virt. eigenvalues --    1.36920   1.37407   1.37883   1.38418   1.38666
 Alpha virt. eigenvalues --    1.39077   1.39399   1.39974   1.40335   1.40564
 Alpha virt. eigenvalues --    1.40699   1.41230   1.41514   1.41611   1.42061
 Alpha virt. eigenvalues --    1.42289   1.43302   1.44032   1.44181   1.44525
 Alpha virt. eigenvalues --    1.44785   1.45182   1.45901   1.45980   1.46868
 Alpha virt. eigenvalues --    1.47562   1.47856   1.47933   1.49050   1.49349
 Alpha virt. eigenvalues --    1.49669   1.50731   1.51469   1.52250   1.52487
 Alpha virt. eigenvalues --    1.52525   1.52839   1.53368   1.54024   1.54344
 Alpha virt. eigenvalues --    1.55119   1.55393   1.55577   1.56072   1.56488
 Alpha virt. eigenvalues --    1.57076   1.57362   1.57461   1.58359   1.58948
 Alpha virt. eigenvalues --    1.59279   1.59608   1.59989   1.60429   1.60619
 Alpha virt. eigenvalues --    1.60834   1.61082   1.61746   1.62382   1.62835
 Alpha virt. eigenvalues --    1.63673   1.63933   1.64215   1.64896   1.64981
 Alpha virt. eigenvalues --    1.65207   1.65475   1.66152   1.66597   1.67222
 Alpha virt. eigenvalues --    1.67603   1.67926   1.68125   1.69247   1.69605
 Alpha virt. eigenvalues --    1.69771   1.70148   1.70261   1.70581   1.71202
 Alpha virt. eigenvalues --    1.71418   1.72410   1.72915   1.73092   1.73562
 Alpha virt. eigenvalues --    1.74108   1.74219   1.74882   1.75063   1.75233
 Alpha virt. eigenvalues --    1.76204   1.76289   1.76463   1.76616   1.76857
 Alpha virt. eigenvalues --    1.77399   1.77855   1.78519   1.78661   1.79392
 Alpha virt. eigenvalues --    1.79469   1.79611   1.80614   1.80848   1.81196
 Alpha virt. eigenvalues --    1.81797   1.82142   1.82632   1.82998   1.83712
 Alpha virt. eigenvalues --    1.84109   1.84236   1.84463   1.84712   1.85112
 Alpha virt. eigenvalues --    1.85775   1.86094   1.86366   1.86645   1.86958
 Alpha virt. eigenvalues --    1.87199   1.87314   1.87695   1.87777   1.87924
 Alpha virt. eigenvalues --    1.88226   1.88552   1.89080   1.89194   1.89334
 Alpha virt. eigenvalues --    1.89829   1.90163   1.90330   1.90920   1.90972
 Alpha virt. eigenvalues --    1.91252   1.91352   1.91695   1.91877   1.92410
 Alpha virt. eigenvalues --    1.92445   1.92537   1.92749   1.92964   1.93000
 Alpha virt. eigenvalues --    1.93132   1.93152   1.93734   1.94035   1.94344
 Alpha virt. eigenvalues --    1.94463   1.94771   1.95263   1.95737   1.95885
 Alpha virt. eigenvalues --    1.96150   1.96375   1.96600   1.96810   1.97080
 Alpha virt. eigenvalues --    1.97122   1.97595   1.97652   1.97786   1.97999
 Alpha virt. eigenvalues --    1.98082   1.98398   1.98886   1.99033   1.99471
 Alpha virt. eigenvalues --    1.99740   2.00156   2.00398   2.00560   2.00606
 Alpha virt. eigenvalues --    2.00778   2.01346   2.01705   2.01905   2.02268
 Alpha virt. eigenvalues --    2.02662   2.02715   2.02881   2.03397   2.04103
 Alpha virt. eigenvalues --    2.04178   2.04716   2.05041   2.05198   2.05554
 Alpha virt. eigenvalues --    2.05780   2.05942   2.06157   2.07019   2.07233
 Alpha virt. eigenvalues --    2.07362   2.07613   2.07734   2.07913   2.08222
 Alpha virt. eigenvalues --    2.08686   2.09512   2.09655   2.09919   2.10253
 Alpha virt. eigenvalues --    2.10487   2.10849   2.11171   2.11406   2.11658
 Alpha virt. eigenvalues --    2.11742   2.12071   2.12109   2.12425   2.12824
 Alpha virt. eigenvalues --    2.13035   2.13134   2.13369   2.13593   2.14318
 Alpha virt. eigenvalues --    2.14615   2.15016   2.15504   2.15760   2.16072
 Alpha virt. eigenvalues --    2.16215   2.16275   2.16741   2.17028   2.17348
 Alpha virt. eigenvalues --    2.17575   2.17642   2.17843   2.18004   2.18355
 Alpha virt. eigenvalues --    2.18825   2.18868   2.19055   2.19844   2.20040
 Alpha virt. eigenvalues --    2.20235   2.20410   2.20610   2.21573   2.22048
 Alpha virt. eigenvalues --    2.22748   2.22936   2.23556   2.23851   2.24324
 Alpha virt. eigenvalues --    2.24347   2.24891   2.25339   2.25843   2.26520
 Alpha virt. eigenvalues --    2.27201   2.27388   2.27473   2.27902   2.27989
 Alpha virt. eigenvalues --    2.28294   2.28512   2.29246   2.29265   2.29667
 Alpha virt. eigenvalues --    2.30203   2.30279   2.30622   2.31514   2.31741
 Alpha virt. eigenvalues --    2.31963   2.32412   2.32725   2.33104   2.33436
 Alpha virt. eigenvalues --    2.33771   2.33900   2.34330   2.34533   2.34778
 Alpha virt. eigenvalues --    2.35366   2.35743   2.36029   2.36464   2.36840
 Alpha virt. eigenvalues --    2.36988   2.37035   2.37180   2.37260   2.37377
 Alpha virt. eigenvalues --    2.37985   2.38321   2.39065   2.39444   2.39674
 Alpha virt. eigenvalues --    2.40016   2.40070   2.40385   2.40764   2.40900
 Alpha virt. eigenvalues --    2.41153   2.41509   2.41742   2.41889   2.42151
 Alpha virt. eigenvalues --    2.42240   2.42581   2.42871   2.43003   2.43014
 Alpha virt. eigenvalues --    2.43410   2.44173   2.44286   2.45511   2.45566
 Alpha virt. eigenvalues --    2.45862   2.45897   2.46563   2.46816   2.46877
 Alpha virt. eigenvalues --    2.47663   2.47888   2.47901   2.48149   2.48304
 Alpha virt. eigenvalues --    2.48390   2.48515   2.48912   2.49398   2.50161
 Alpha virt. eigenvalues --    2.50585   2.50630   2.50708   2.50877   2.51455
 Alpha virt. eigenvalues --    2.51668   2.52125   2.52598   2.52673   2.53246
 Alpha virt. eigenvalues --    2.53429   2.53509   2.53954   2.54493   2.54820
 Alpha virt. eigenvalues --    2.55120   2.55455   2.56243   2.56525   2.57290
 Alpha virt. eigenvalues --    2.57761   2.58295   2.58587   2.58757   2.59262
 Alpha virt. eigenvalues --    2.59754   2.60152   2.60513   2.60907   2.61197
 Alpha virt. eigenvalues --    2.61553   2.62264   2.63087   2.63383   2.63487
 Alpha virt. eigenvalues --    2.63627   2.64082   2.64190   2.64456   2.64574
 Alpha virt. eigenvalues --    2.65077   2.65275   2.65393   2.65736   2.65931
 Alpha virt. eigenvalues --    2.66329   2.66826   2.67439   2.67987   2.68474
 Alpha virt. eigenvalues --    2.68790   2.68907   2.69074   2.69591   2.69821
 Alpha virt. eigenvalues --    2.69891   2.70160   2.70372   2.70976   2.71452
 Alpha virt. eigenvalues --    2.71714   2.71883   2.72077   2.72240   2.72408
 Alpha virt. eigenvalues --    2.72997   2.73116   2.73532   2.73815   2.74058
 Alpha virt. eigenvalues --    2.74786   2.75089   2.75199   2.75552   2.75615
 Alpha virt. eigenvalues --    2.76132   2.76186   2.76402   2.76917   2.77153
 Alpha virt. eigenvalues --    2.77340   2.77515   2.77755   2.77939   2.78330
 Alpha virt. eigenvalues --    2.78617   2.78840   2.79104   2.79413   2.79760
 Alpha virt. eigenvalues --    2.79896   2.80299   2.80921   2.81279   2.81584
 Alpha virt. eigenvalues --    2.81728   2.81938   2.82292   2.82367   2.82731
 Alpha virt. eigenvalues --    2.83073   2.83224   2.83914   2.83974   2.84800
 Alpha virt. eigenvalues --    2.85302   2.85536   2.85825   2.85901   2.86089
 Alpha virt. eigenvalues --    2.86852   2.87534   2.87758   2.88388   2.88800
 Alpha virt. eigenvalues --    2.88897   2.88960   2.89763   2.90473   2.90506
 Alpha virt. eigenvalues --    2.90624   2.90994   2.91185   2.91721   2.92345
 Alpha virt. eigenvalues --    2.92831   2.92921   2.93020   2.93467   2.93603
 Alpha virt. eigenvalues --    2.94395   2.94864   2.95013   2.95365   2.95668
 Alpha virt. eigenvalues --    2.95915   2.96390   2.97095   2.97236   2.97363
 Alpha virt. eigenvalues --    2.98495   2.98860   2.99491   2.99748   3.00349
 Alpha virt. eigenvalues --    3.00765   3.01474   3.01647   3.01942   3.02005
 Alpha virt. eigenvalues --    3.02921   3.03193   3.03504   3.04001   3.04331
 Alpha virt. eigenvalues --    3.04771   3.05469   3.06055   3.06108   3.06678
 Alpha virt. eigenvalues --    3.07120   3.07795   3.08031   3.08869   3.09248
 Alpha virt. eigenvalues --    3.09896   3.10518   3.11664   3.11668   3.12229
 Alpha virt. eigenvalues --    3.14942   3.15192   3.16161   3.16408   3.18264
 Alpha virt. eigenvalues --    3.18694   3.18915   3.19801   3.20827   3.22965
 Alpha virt. eigenvalues --    3.23453   3.23462   3.25122   3.25541   3.26334
 Alpha virt. eigenvalues --    3.27295   3.27971   3.28244   3.28476   3.28907
 Alpha virt. eigenvalues --    3.29147   3.30120   3.30500   3.31026   3.31768
 Alpha virt. eigenvalues --    3.32052   3.32675   3.33099   3.33473   3.33862
 Alpha virt. eigenvalues --    3.34867   3.37403   3.37599   3.39742   3.39814
 Alpha virt. eigenvalues --    3.41264   3.41331   3.42008   3.42179   3.42395
 Alpha virt. eigenvalues --    3.42644   3.43328   3.43940   3.44076   3.44403
 Alpha virt. eigenvalues --    3.45763   3.47223   3.47587   3.47745   3.48107
 Alpha virt. eigenvalues --    3.48936   3.49419   3.49954   3.51011   3.51108
 Alpha virt. eigenvalues --    3.51295   3.51775   3.51898   3.52902   3.53258
 Alpha virt. eigenvalues --    3.53507   3.53660   3.53765   3.54632   3.56157
 Alpha virt. eigenvalues --    3.56345   3.57136   3.58285   3.58604   3.59246
 Alpha virt. eigenvalues --    3.59650   3.61555   3.62304   3.62674   3.64278
 Alpha virt. eigenvalues --    3.64958   3.65891   3.67526   3.67934   3.70127
 Alpha virt. eigenvalues --    3.70419   3.70625   3.80686   3.81155   4.08432
 Alpha virt. eigenvalues --    4.10958   4.16337   4.19504   4.22217   4.23235
 Alpha virt. eigenvalues --    4.24389   4.24714   4.25055   4.27057   4.28639
 Alpha virt. eigenvalues --    4.29508   4.30025   4.31424   4.32618   4.32812
 Alpha virt. eigenvalues --    4.35482   4.36119   4.37822   4.39786   4.39951
 Alpha virt. eigenvalues --    4.41782   4.42940   4.43746   4.44770   4.46426
 Alpha virt. eigenvalues --    4.46931   4.47379   4.49486   4.50382   4.51030
 Alpha virt. eigenvalues --    4.51138   4.53263   4.54123   4.55090   4.55391
 Alpha virt. eigenvalues --    4.56553   4.57996   4.58318   4.60827   4.61741
 Alpha virt. eigenvalues --    4.62695   4.62966   4.63179   4.63533   4.67503
 Alpha virt. eigenvalues --    4.68283   4.68862   4.70707   4.72024   4.73099
 Alpha virt. eigenvalues --    4.74337   4.76711   4.77730   4.79980   4.80530
 Alpha virt. eigenvalues --    4.83130   4.85150   4.86153   4.88401   4.89276
 Alpha virt. eigenvalues --    4.89997   4.94067   4.97674
          Condensed to atoms (all electrons):
 Mulliken charges:
               1
     1  Mg   0.831128
     2  C    0.092251
     3  C   -0.210352
     4  C   -0.175024
     5  C   -0.183876
     6  N   -0.613691
     7  C    0.247819
     8  C   -0.152305
     9  C   -0.186692
    10  C    0.374278
    11  C   -0.295376
    12  C   -0.161515
    13  C   -0.279411
    14  C    0.625809
    15  O   -0.450168
    16  O   -0.487522
    17  N   -0.717774
    18  C    0.352395
    19  C   -0.014203
    20  C   -0.015098
    21  C    0.296404
    22  C   -0.359757
    23  C   -0.060024
    24  C   -0.238891
    25  N   -0.750194
    26  C    0.376882
    27  C   -0.005605
    28  C    0.073953
    29  C    0.292281
    30  C   -0.421568
    31  C   -0.221282
    32  C   -0.304997
    33  N   -0.725433
    34  C    0.254428
    35  C    0.040429
    36  C   -0.002644
    37  C    0.273220
    38  C   -0.387960
    39  C    0.363862
    40  O   -0.453921
    41  C   -0.308919
    42  C    0.606092
    43  O   -0.508733
    44  O   -0.410246
    45  C   -0.100200
    46  C    0.016386
    47  C   -0.129956
    48  C    0.107846
    49  C   -0.350661
    50  C   -0.196086
    51  C   -0.195144
    52  C   -0.176031
    53  C   -0.064411
    54  C   -0.300240
    55  C   -0.176411
    56  C   -0.204227
    57  C   -0.147996
    58  C   -0.069873
    59  C   -0.317151
    60  C   -0.176996
    61  C   -0.173631
    62  C   -0.167599
    63  C   -0.048125
    64  C   -0.315166
    65  C   -0.292900
    66  H    0.082586
    67  H    0.081769
    68  H    0.091628
    69  H    0.111140
    70  H    0.093181
    71  H    0.115078
    72  H    0.109453
    73  H    0.124449
    74  H    0.101165
    75  H    0.122164
    76  H    0.144274
    77  H    0.127973
    78  H    0.134001
    79  H    0.100188
    80  H    0.126006
    81  H    0.096629
    82  H    0.108745
    83  H    0.110412
    84  H    0.128287
    85  H    0.117068
    86  H    0.114793
    87  H    0.122705
    88  H    0.099938
    89  H    0.078714
    90  H    0.104673
    91  H    0.121260
    92  H    0.105197
    93  H    0.125959
    94  H    0.117979
    95  H    0.161515
    96  H    0.114689
    97  H    0.161818
    98  H    0.142213
    99  H    0.117167
   100  H    0.113967
   101  H    0.085173
   102  H    0.115024
   103  H    0.083469
   104  H    0.129282
   105  H    0.102574
   106  H    0.110815
   107  H    0.090910
   108  H    0.093379
   109  H    0.098230
   110  H    0.102808
   111  H    0.069495
   112  H    0.107602
   113  H    0.091194
   114  H    0.075141
   115  H    0.098091
   116  H    0.097542
   117  H    0.092936
   118  H    0.078338
   119  H    0.089945
   120  H    0.097982
   121  H    0.074750
   122  H    0.097250
   123  H    0.090889
   124  H    0.115992
   125  H    0.083602
   126  H    0.070531
   127  H    0.107530
   128  H    0.102554
   129  H    0.093837
   130  H    0.068779
   131  H    0.078647
   132  H    0.080721
   133  H    0.109909
   134  H    0.108777
   135  H    0.068235
   136  H    0.075641
   137  H    0.114162
 Sum of Mulliken charges =   0.00000
 Mulliken charges with hydrogens summed into heavy atoms:
               1
     1  Mg   0.831128
     2  C    0.092251
     3  C   -0.127766
     4  C   -0.093255
     5  C   -0.092248
     6  N   -0.613691
     7  C    0.247819
     8  C   -0.041166
     9  C   -0.093511
    10  C    0.374278
    11  C    0.053604
    12  C    0.061814
    13  C   -0.007164
    14  C    0.625809
    15  O   -0.450168
    16  O   -0.487522
    17  N   -0.717774
    18  C    0.352395
    19  C   -0.014203
    20  C   -0.015098
    21  C    0.296404
    22  C    0.000439
    23  C    0.036605
    24  C   -0.019735
    25  N   -0.750194
    26  C    0.376882
    27  C   -0.005605
    28  C    0.073953
    29  C    0.292281
    30  C   -0.061419
    31  C    0.001361
    32  C   -0.000350
    33  N   -0.725433
    34  C    0.254428
    35  C    0.040429
    36  C   -0.002644
    37  C    0.273220
    38  C   -0.038824
    39  C    0.363862
    40  O   -0.453921
    41  C   -0.147404
    42  C    0.606092
    43  O   -0.508733
    44  O   -0.410246
    45  C    0.318519
    46  C    0.247520
    47  C   -0.044783
    48  C    0.107846
    49  C   -0.022885
    50  C    0.017304
    51  C   -0.010855
    52  C    0.025006
    53  C    0.005084
    54  C   -0.026302
    55  C    0.019222
    56  C   -0.032953
    57  C    0.039931
    58  C    0.004878
    59  C   -0.013021
    60  C   -0.022863
    61  C    0.036453
    62  C   -0.004983
    63  C    0.030521
    64  C   -0.015759
    65  C   -0.034863
 Electronic spatial extent (au):  <R**2>=         179197.1633
 Charge=              0.0000 electrons
 Dipole moment (field-independent basis, Debye):
    X=              2.9964    Y=              5.0054    Z=             -0.4796  Tot=              5.8535
 Quadrupole moment (field-independent basis, Debye-Ang):
   XX=           -357.1873   YY=           -385.7349   ZZ=           -396.6365
   XY=            -24.7576   XZ=             12.8282   YZ=             -9.3346
 Traceless Quadrupole moment (field-independent basis, Debye-Ang):
   XX=             22.6656   YY=             -5.8820   ZZ=            -16.7836
   XY=            -24.7576   XZ=             12.8282   YZ=             -9.3346
 Octapole moment (field-independent basis, Debye-Ang**2):
  XXX=           -667.1648  YYY=            132.7344  ZZZ=              5.4741  XYY=            -52.9981
  XXY=            263.9371  XXZ=           -343.5776  XZZ=              0.3216  YZZ=            -38.8431
  YYZ=             51.4493  XYZ=            -21.8057
 Hexadecapole moment (field-independent basis, Debye-Ang**3):
 XXXX=        -223207.5189 YYYY=         -17405.7199 ZZZZ=          -4209.7936 XXXY=            743.9511
 XXXZ=            776.1011 YYYX=          -1188.3524 YYYZ=           -452.7418 ZZZX=            -97.8448
 ZZZY=           -166.4742 XXYY=         -39654.2363 XXZZ=         -39237.6386 YYZZ=          -3454.6514
 XXYZ=           -596.3324 YYXZ=            170.9502 ZZXY=            -29.5270
 N-N= 8.735867447632D+03 E-N=-2.429460642249D+04  KE= 2.904385861142D+03
 1\1\GINC-PEDRO-RYZENSSD\SP\RCAM-B3LYP TD-FC\6-31G(d,p)\C55H72Mg1N4O5\P
 ADAWAN\06-Jul-2019\0\\# td=(NStates=1) CAM-B3LYP/6-31G(d,p)\\TD\\0,1\M
 g,0,-7.192329806,0.5843671848,0.085556243\C,0,-4.8361382318,-1.8896601
 444,0.4542719599\C,0,-4.7373536643,2.9172001673,1.0740537703\C,0,-9.44
 77695125,3.094104906,-0.3414470044\C,0,-9.5785781715,-1.7083663476,-0.
 7782342525\N,0,-5.1114345681,0.5447542935,0.7831287312\C,0,-4.37590729
 68,-0.7244022622,0.8599040136\C,0,-2.8854575512,-0.4209315189,1.173447
 699\C,0,-3.0095643948,1.0904117095,1.6618469154\C,0,-4.3958765826,1.55
 18159304,1.1667937093\C,0,-2.7777128534,1.3334556337,3.1864900579\C,0,
 -1.8081642774,-0.5689021516,0.131487107\C,0,-0.364943917,-0.3948538326
 ,0.6026343927\C,0,0.4601071479,-0.8392674396,-0.6037957601\O,0,0.12152
 33924,-1.1668820958,-1.7046868004\O,0,1.7555473652,-0.5082282192,-0.35
 26520541\N,0,-7.0492453724,2.6361692067,0.4938280783\C,0,-5.9954488239
 ,3.3702980056,0.80006354\C,0,-6.4303402871,4.8419484842,0.6998306703\C
 ,0,-7.6799507021,4.8286334948,0.2764460359\C,0,-8.1303373053,3.4398131
 766,0.14523707\C,0,-5.4966676235,6.0058730532,0.9908338439\C,0,-8.6459
 523928,6.0919802317,0.0585728427\C,0,-8.6811020015,7.1718233009,0.7809
 743472\N,0,-9.0631385865,0.6702998911,-0.3948435181\C,0,-9.8388401437,
 1.8375937125,-0.5467710012\C,0,-11.1268617828,1.4785761967,-1.02181390
 09\C,0,-11.188291233,0.0865940235,-1.2286115752\C,0,-9.9449001707,-0.3
 532573,-0.7765726734\C,0,-12.241542978,2.4080513761,-1.3275195268\C,0,
 -12.327787325,-0.8357509852,-1.6811889274\C,0,-12.1967871671,-1.182940
 7053,-3.1686719858\N,0,-7.2910085692,-1.3724468583,-0.1853032073\C,0,-
 8.2501052503,-2.2484700191,-0.5045254077\C,0,-7.8178179274,-3.57188545
 6,-0.4766749448\C,0,-6.5063045146,-3.5017345105,-0.0259243243\C,0,-6.2
 105436508,-2.1435726386,0.0872015244\C,0,-8.6052479922,-4.8013829807,-
 0.8214506235\C,0,-5.3198764579,-4.3346873522,0.2548883614\O,0,-5.12199
 1037,-5.519806464,0.1096779985\C,0,-4.1185754369,-3.2833441242,0.44840
 47058\C,0,-3.4956101919,-3.715356757,1.8598663595\O,0,-3.7716087615,-3
 .1180985461,2.9187545566\O,0,-2.6972709208,-4.7019549179,1.6746460455\
 C,0,-2.0162722151,-5.2381180409,2.89634457\C,0,2.7708996017,-0.6985476
 494,-1.3842396244\C,0,4.0911011991,-0.4669748738,-0.696839833\C,0,5.09
 52130057,0.3846047259,-1.0413739101\C,0,5.119200343,1.1719398433,-2.37
 49416595\C,0,6.3675310859,0.4169435446,-0.2584723324\C,0,7.5924267806,
 -0.1647168186,-1.0030072512\C,0,8.9083327059,-0.1211372441,-0.14025583
 84\C,0,10.2589065152,-0.6676638381,-0.8654175123\C,0,10.1563023304,-2.
 1677977159,-1.1873321982\C,0,11.3085737343,-0.3061343942,0.0474556142\
 C,0,12.8187567834,-0.5144154926,-0.7367636993\C,0,13.9298624546,-0.214
 1626191,0.2079178593\C,0,15.2964357685,-0.2233860677,-0.4650847483\C,0
 ,15.6541570846,-1.73916155,-0.9915487726\C,0,16.4005141573,0.286062966
 3,0.439478455\C,0,17.812325822,0.3925506535,-0.1744932639\C,0,18.75172
 55421,1.2053287499,0.7750779408\C,0,20.2196806373,1.450235357,0.284563
 2195\C,0,20.2556569195,2.3679250897,-0.9528462773\C,0,20.913942325,2.1
 308060169,1.4855739208\H,0,-4.0424957341,3.7389494163,1.2522598129\H,0
 ,-10.0723376265,3.8781386489,-0.4802234138\H,0,-10.2580990993,-2.54510
 38512,-1.2082374759\H,0,-2.5600324601,-1.026640978,2.0676374549\H,0,-2
 .2139249977,1.5972133039,1.0897196224\H,0,-1.7888633438,1.1143918921,3
 .4775714706\H,0,-3.0576008201,2.3762416817,3.3945816236\H,0,-3.6752909
 718,0.6824929333,3.491251538\H,0,-1.9304855335,-1.6492348839,-0.468600
 7693\H,0,-2.0954512176,0.1103782882,-0.5855085905\H,0,-0.1611696344,0.
 5716817821,1.1512055197\H,0,-0.3053783398,-1.0548600012,1.5459785531\H
 ,0,-5.5944682222,6.8551641605,0.3851542246\H,0,-5.3672137108,6.1208954
 526,2.2391302101\H,0,-4.5816321192,5.6383450009,0.6941325889\H,0,-9.19
 11111636,6.0050566538,-0.9058108093\H,0,-9.2752987458,8.006961435,0.38
 54581676\H,0,-7.9375632221,7.2074571452,1.6512435099\H,0,-12.113805485
 6,2.8877591019,-2.2628092856\H,0,-13.3308427535,2.2237662678,-1.464897
 6813\H,0,-12.4196836995,3.2825469094,-0.686729917\H,0,-12.3676415426,-
 1.7626857137,-1.1908440393\H,0,-13.2674154604,-0.1190086377,-1.5136568
 932\H,0,-13.1053668893,-1.8952342096,-3.4820680913\H,0,-12.444548019,-
 0.2536799056,-3.8449479905\H,0,-11.3566919485,-1.840158883,-3.46077469
 75\H,0,-9.1668362866,-4.7414048834,-1.8434476089\H,0,-7.7856979346,-5.
 7141914233,-0.8977993929\H,0,-9.3871986048,-5.1816531866,-0.0523870613
 \H,0,-3.3678274786,-3.5651097617,-0.2604113126\H,0,-1.4407222387,-4.27
 87243121,3.3600089162\H,0,-2.642483857,-5.4518368013,3.7263654754\H,0,
 -1.3142995415,-6.0412233955,2.6203759905\H,0,2.6662259267,-1.777399575
 9,-1.763200285\H,0,2.6136988475,-0.0658923096,-2.3238355358\H,0,4.3383
 047361,-1.1466668819,0.1577589919\H,0,4.2809070542,1.1447331837,-3.165
 3549052\H,0,5.2107264843,2.3730475637,-1.9635728255\H,0,5.9771250201,0
 .8145325608,-2.9988186129\H,0,6.5100930722,1.4737213721,-0.2784752047\
 H,0,6.4945035698,-0.0450525427,0.6518248992\H,0,7.3666440491,-1.226811
 9164,-1.3430156252\H,0,7.8419966356,0.4478779959,-1.8991428379\H,0,9.3
 125833099,0.8913070157,-0.0380661744\H,0,8.842322721,-0.7910546117,0.6
 971475785\H,0,10.5729248439,-0.2780952718,-1.9739222817\H,0,9.28889387
 49,-2.4942874052,-1.7803539602\H,0,11.102292785,-2.3959163755,-1.81382
 56265\H,0,10.2796308491,-2.8137733193,-0.1828577255\H,0,11.2566633472,
 0.753327563,0.2406555531\H,0,11.5801210655,-0.9424302043,0.9573363552\
 H,0,12.7582191408,-1.6013883,-1.1040480724\H,0,12.8660003525,0.2327039
 614,-1.636146976\H,0,13.6053719739,0.773229879,0.5158189249\H,0,13.995
 0022533,-0.7516147662,1.087765293\H,0,15.3659298815,0.3753070157,-1.40
 92052785\H,0,15.9726647094,-2.3613764297,-0.0861400679\H,0,14.82231528
 22,-2.1934017158,-1.5605434694\H,0,16.2367333027,-1.6130268276,-1.7683
 183013\H,0,16.1251877195,1.3665644901,0.5368502293\H,0,16.4816126085,-
 0.1298921643,1.5410068619\H,0,18.3342343621,-0.6002665741,-0.235436884
 1\H,0,17.5716442289,1.141181437,-0.9116547413\H,0,18.4008608787,2.2335
 175095,0.9627742827\H,0,18.8101681771,0.5849826793,1.7994199423\H,0,20
 .8874036531,0.519448093,-0.0357865147\H,0,20.0097050771,3.4922327852,-
 0.8065142448\H,0,21.2725015023,2.4113077836,-1.354976861\H,0,19.437417
 6462,2.0939912099,-1.5854955186\H,0,20.8377997552,1.405778687,2.508610
 4782\H,0,22.0345851648,2.4348347132,1.4085358199\H,0,20.6539051204,3.1
 132514084,1.7074811886\\Version=ES64L-G09RevD.01\State=1-A\HF=-2932.70
 06129\RMSD=7.234e-09\PG=C01 [X(C55H72Mg1N4O5)]\\@


 WHEN IT COMES TO CASH FLOW, IT SEEMS LIKE THE TIDE IS ALWAYS GOING OUT.
 Job cpu time:       0 days  6 hours 35 minutes  9.5 seconds.
 File lengths (MBytes):  RWF=   2106 Int=      0 D2E=      0 Chk=    163 Scr=      1
 Normal termination of Gaussian 09 at Sat Jul  6 19:32:16 2019.
