 Entering Gaussian System, Link 0=g16
 Input=Geometria-123-.com
 Output=Geometria-123-.log
 Initial command:
 /usr/local/g16/l1.exe "/home/padawan/israel-mol/chlorophyll-a/spectra/emi/Gau-29404.inp" -scrdir="/home/padawan/israel-mol/chlorophyll-a/spectra/emi/"
 Entering Link 1 = /usr/local/g16/l1.exe PID=     29406.
  
 Copyright (c) 1988,1990,1992,1993,1995,1998,2003,2009,2016,
            Gaussian, Inc.  All Rights Reserved.
  
 This is part of the Gaussian(R) 16 program.  It is based on
 the Gaussian(R) 09 system (copyright 2009, Gaussian, Inc.),
 the Gaussian(R) 03 system (copyright 2003, Gaussian, Inc.),
 the Gaussian(R) 98 system (copyright 1998, Gaussian, Inc.),
 the Gaussian(R) 94 system (copyright 1995, Gaussian, Inc.),
 the Gaussian 92(TM) system (copyright 1992, Gaussian, Inc.),
 the Gaussian 90(TM) system (copyright 1990, Gaussian, Inc.),
 the Gaussian 88(TM) system (copyright 1988, Gaussian, Inc.),
 the Gaussian 86(TM) system (copyright 1986, Carnegie Mellon
 University), and the Gaussian 82(TM) system (copyright 1983,
 Carnegie Mellon University). Gaussian is a federally registered
 trademark of Gaussian, Inc.
  
 This software contains proprietary and confidential information,
 including trade secrets, belonging to Gaussian, Inc.
  
 This software is provided under written license and may be
 used, copied, transmitted, or stored only in accord with that
 written license.
  
 The following legend is applicable only to US Government
 contracts under FAR:
  
                    RESTRICTED RIGHTS LEGEND
  
 Use, reproduction and disclosure by the US Government is
 subject to restrictions as set forth in subparagraphs (a)
 and (c) of the Commercial Computer Software - Restricted
 Rights clause in FAR 52.227-19.
  
 Gaussian, Inc.
 340 Quinnipiac St., Bldg. 40, Wallingford CT 06492
  
  
 ---------------------------------------------------------------
 Warning -- This program may not be used in any manner that
 competes with the business of Gaussian, Inc. or will provide
 assistance to any competitor of Gaussian, Inc.  The licensee
 of this program is prohibited from giving any competitor of
 Gaussian, Inc. access to this program.  By using this program,
 the user acknowledges that Gaussian, Inc. is engaged in the
 business of creating and licensing software in the field of
 computational chemistry and represents and warrants to the
 licensee that it is not a competitor of Gaussian, Inc. and that
 it will not use this program in any manner prohibited above.
 ---------------------------------------------------------------
  

 Cite this work as:
 Gaussian 16, Revision A.03,
 M. J. Frisch, G. W. Trucks, H. B. Schlegel, G. E. Scuseria, 
 M. A. Robb, J. R. Cheeseman, G. Scalmani, V. Barone, 
 G. A. Petersson, H. Nakatsuji, X. Li, M. Caricato, A. V. Marenich, 
 J. Bloino, B. G. Janesko, R. Gomperts, B. Mennucci, H. P. Hratchian, 
 J. V. Ortiz, A. F. Izmaylov, J. L. Sonnenberg, D. Williams-Young, 
 F. Ding, F. Lipparini, F. Egidi, J. Goings, B. Peng, A. Petrone, 
 T. Henderson, D. Ranasinghe, V. G. Zakrzewski, J. Gao, N. Rega, 
 G. Zheng, W. Liang, M. Hada, M. Ehara, K. Toyota, R. Fukuda, 
 J. Hasegawa, M. Ishida, T. Nakajima, Y. Honda, O. Kitao, H. Nakai, 
 T. Vreven, K. Throssell, J. A. Montgomery, Jr., J. E. Peralta, 
 F. Ogliaro, M. J. Bearpark, J. J. Heyd, E. N. Brothers, K. N. Kudin, 
 V. N. Staroverov, T. A. Keith, R. Kobayashi, J. Normand, 
 K. Raghavachari, A. P. Rendell, J. C. Burant, S. S. Iyengar, 
 J. Tomasi, M. Cossi, J. M. Millam, M. Klene, C. Adamo, R. Cammi, 
 J. W. Ochterski, R. L. Martin, K. Morokuma, O. Farkas, 
 J. B. Foresman, and D. J. Fox, Gaussian, Inc., Wallingford CT, 2016.
 
 ******************************************
 Gaussian 16:  ES64L-G16RevA.03 25-Dec-2016
                27-Jun-2019 
 ******************************************
 %nproc=4
 Will use up to    4 processors via shared memory.
 %Mem=2GB
 -------------------------------------
 # td=(NStates=1) CAM-B3LYP/6-31G(d,p)
 -------------------------------------
 1/38=1,172=1/1;
 2/12=2,17=6,18=5,40=1/2;
 3/5=1,6=6,7=101,11=9,25=1,30=1,74=-40/1,2,3,8;
 4//1;
 5/5=2,38=5/2;
 8/6=1,10=2,108=1/1;
 9/41=1,42=1,70=2/14;
 6/7=2,8=2,9=2,10=2/1;
 99/5=1,9=1/99;
 --
 TD
 --
 Symbolic Z-matrix:
 Charge =  0 Multiplicity = 1
 12                   -7.27427   0.52247   0.09656 
 6                    -4.92504  -1.94293   0.55347 
 6                    -4.88296   2.87692   1.1632 
 6                    -9.39681   3.02769  -0.36011 
 6                    -9.57132  -1.82916  -0.835 
 7                    -5.21196   0.50972   0.75384 
 6                    -4.39099  -0.69499   0.7429 
 6                    -2.90972  -0.3481    1.17796 
 6                    -2.98345   1.17629   1.47356 
 6                    -4.47238   1.56665   1.03416 
 6                    -2.83037   1.35839   3.04872 
 6                    -1.91723  -0.58623  -0.04016 
 6                    -0.52097  -0.45684   0.52654 
 6                     0.52531  -0.63265  -0.57214 
 8                     0.2127   -0.94099  -1.69052 
 8                     1.84616  -0.45909  -0.22471 
 7                    -7.12404   2.64277   0.24827 
 6                    -6.08354   3.36479   0.73212 
 6                    -6.51646   4.71117   0.7942 
 6                    -7.73831   4.80215   0.36213 
 6                    -8.13848   3.41069   0.07275 
 6                    -5.59101   5.84628   1.25522 
 6                    -8.64453   5.98533   0.17813 
 6                    -8.6043    7.06493   0.98496 
 7                    -9.06511   0.60241  -0.58061 
 6                    -9.79975   1.70643  -0.74218 
 6                    -11.11591   1.44554  -1.12725 
 6                    -11.20712   0.06619  -1.27395 
 6                    -9.95398  -0.44891  -0.87635 
 6                    -12.20663   2.56785  -1.52303 
 6                    -12.26008  -0.70359  -1.81066 
 6                    -12.18279  -1.03809  -3.28779 
 7                    -7.29263  -1.49417  -0.06843 
 6                    -8.36483  -2.34797  -0.34209 
 6                    -7.89754  -3.6713   -0.41658 
 6                    -6.56389  -3.58716  -0.01646 
 6                    -6.22148  -2.20584   0.10191 
 6                    -8.79678  -4.86615  -0.64 
 6                    -5.38646  -4.33744   0.2514 
 8                    -5.16137  -5.58698   0.09483 
 6                    -4.18101  -3.26802   0.46778 
 6                    -3.57039  -3.60031   1.8796 
 8                    -3.82423  -3.05976   2.9593 
 8                    -2.67538  -4.5925    1.77641 
 6                    -2.29514  -5.11925   3.00789 
 6                     2.86319  -0.72872  -1.3039 
 6                     4.19775  -0.38526  -0.57601 
 6                     5.15171   0.48159  -0.98844 
 6                     5.20887   1.37416  -2.16654 
 6                     6.42288   0.38385  -0.13804 
 6                     7.68623  -0.20313  -0.85514 
 6                     9.01914  -0.22897  -0.07366 
 6                     10.23035  -0.56436  -0.84542 
 6                     10.05754  -2.04375  -1.33712 
 6                     11.45523  -0.38833   0.04384 
 6                     12.8244  -0.56413  -0.6154 
 6                     13.95262   0.12195   0.2327 
 6                     15.42756  -0.14057  -0.40976 
 6                     15.66661  -1.72687  -0.70902 
 6                     16.43388   0.43607   0.37803 
 6                     17.88818   0.51916  -0.2274 
 6                     18.87485   1.28096   0.72247 
 6                     20.26437   1.34041   0.13887 
 6                     20.41908   2.27473  -1.12 
 6                     21.36548   1.75682   1.19329 
 1                    -4.11537   3.68518   1.44831 
 1                    -10.11233   3.82401  -0.36758 
 1                    -10.26056  -2.49456  -1.08861 
 1                    -2.65511  -0.95862   2.08119 
 1                    -2.28527   1.79862   0.87528 
 1                    -1.83594   0.72284   3.51554 
 1                    -2.65235   2.38511   3.4772 
 1                    -3.69823   0.95492   3.71877 
 1                    -2.2742   -1.54391  -0.59748 
 1                    -2.20118  -0.01385  -0.92276 
 1                    -0.31012   0.5796    0.95067 
 1                    -0.45386  -1.22718   1.27296 
 1                    -5.87849   6.78041   0.97584 
 1                    -5.79085   5.87901   2.2591 
 1                    -4.7522    5.48978   0.89491 
 1                    -9.12573   5.97778  -0.67882 
 1                    -9.30184   7.85625   0.77792 
 1                    -7.98365   7.16495   1.90238 
 1                    -11.9362   3.1089   -2.39393 
 1                    -13.14049   2.21372  -1.73475 
 1                    -12.43411   3.18576  -0.53065 
 1                    -12.30927  -1.53155  -1.13001 
 1                    -13.3327  -0.38552  -1.82714 
 1                    -13.15712  -1.55699  -3.55364 
 1                    -12.22474  -0.17661  -3.80277 
 1                    -11.24271  -1.54893  -3.40337 
 1                    -9.28038  -4.77467  -1.60181 
 1                    -8.1702   -5.82461  -0.83384 
 1                    -9.48288  -5.0268    0.08113 
 1                    -3.39376  -3.49292  -0.31357 
 1                    -2.17046  -4.38492   3.7188 
 1                    -3.03556  -5.67588   3.50503 
 1                    -1.44298  -5.94932   2.73423 
 1                     2.86405  -1.77866  -1.54961 
 1                     2.41737  -0.13153  -2.16664 
 1                     4.21851  -1.0718    0.32434 
 1                     4.38025   1.3677   -2.9414 
 1                     5.6082    2.20501  -2.00089 
 1                     6.0104    0.99556  -2.90166 
 1                     6.70608   1.30805   0.34731 
 1                     6.37835  -0.02643   0.71226 
 1                     7.43575  -1.24095  -1.35118 
 1                     7.85059   0.51163  -1.90072 
 1                     9.03993   0.74841   0.45147 
 1                     8.90336  -1.06546   0.7271 
 1                     10.37081   0.0451   -1.74113 
 1                     9.25379  -2.01958  -1.96687 
 1                     11.0946  -2.10876  -1.87242 
 1                     9.83821  -2.97038  -0.66017 
 1                     11.34853   0.63211   0.35153 
 1                     11.37946  -0.91354   1.09065 
 1                     12.88924  -1.76557  -0.55618 
 1                     12.97342  -0.22891  -1.64272 
 1                     13.85465   1.20333   0.43647 
 1                     13.80393  -0.33075   1.28658 
 1                     15.38376   0.41428  -1.41109 
 1                     15.52339  -2.36735   0.21847 
 1                     14.93851  -1.99677  -1.56538 
 1                     16.76008  -1.80044  -1.22247 
 1                     16.09667   1.37153   0.84216 
 1                     16.44814  -0.17377   1.14133 
 1                     18.2893  -0.45439  -0.55947 
 1                     17.73756   0.93524  -1.37241 
 1                     18.61981   2.26984   0.90189 
 1                     18.97955   0.52506   1.59154 
 1                     20.68586   0.38212  -0.2122 
 1                     19.90736   3.26078  -1.04051 
 1                     21.55102   2.58032  -1.26824 
 1                     20.04137   1.68931  -1.96309 
 1                     21.42277   0.99738   1.94372 
 1                     22.30088   1.64668   0.64947 
 1                     21.11824   2.62643   1.41658 
 
 Stoichiometry    C55H72MgN4O5
 Framework group  C1[X(C55H72MgN4O5)]
 Deg. of freedom   405
 Full point group                 C1      NOp   1
 Largest Abelian subgroup         C1      NOp   1
 Largest concise Abelian subgroup C1      NOp   1
                         Standard orientation:                         
 ---------------------------------------------------------------------
 Center     Atomic      Atomic             Coordinates (Angstroms)
 Number     Number       Type             X           Y           Z
 ---------------------------------------------------------------------
      1         12           0       -7.274025    0.526008    0.089472
      2          6           0       -4.925729   -1.940376    0.545864
      3          6           0       -4.883119    2.878825    1.160606
      4          6           0       -9.395628    3.032162   -0.366436
      5          6           0       -9.570786   -1.824153   -0.846491
      6          7           0       -5.212291    0.512126    0.748512
      7          6           0       -4.391570   -0.692753    0.737042
      8          6           0       -2.910601   -0.346643    1.173732
      9          6           0       -2.984253    1.177462    1.470842
     10          6           0       -4.472721    1.568600    1.030565
     11          6           0       -2.832487    1.357900    3.046318
     12          6           0       -1.917109   -0.583734   -0.043777
     13          6           0       -0.521314   -0.455232    0.524256
     14          6           0        0.525877   -0.630135   -0.573703
     15          8           0        0.214162   -0.937254   -1.692662
     16          8           0        1.846458   -0.457230   -0.224953
     17          7           0       -7.123466    2.646116    0.243506
     18          6           0       -6.083220    3.367405    0.728990
     19          6           0       -6.515899    4.713813    0.792091
     20          6           0       -7.737354    4.805513    0.359067
     21          6           0       -8.137581    3.414440    0.067902
     22          6           0       -5.590596    5.848245    1.255080
     23          6           0       -8.643162    5.989081    0.175509
     24          6           0       -8.603393    7.067841    0.983487
     25          7           0       -9.064264    0.607043   -0.589157
     26          6           0       -9.798520    1.711388   -0.750218
     27          6           0      -11.114409    1.451188   -1.136695
     28          6           0      -11.205798    0.072009   -1.284889
     29          6           0       -9.953111   -0.443776   -0.886748
     30          6           0      -12.204541    2.574140   -1.532250
     31          6           0      -12.258461   -0.696985   -1.823306
     32          6           0      -12.179967   -1.029975   -3.300715
     33          7           0       -7.292685   -1.490457   -0.077615
     34          6           0       -8.364834   -2.343739   -0.353077
     35          6           0       -7.897769   -3.667089   -0.428531
     36          6           0       -6.564450   -3.583663   -0.027180
     37          6           0       -6.221844   -2.202538    0.092917
     38          6           0       -8.797079   -4.861514   -0.653962
     39          6           0       -5.387419   -4.334473    0.240920
     40          8           0       -5.162469   -5.583906    0.083253
     41          6           0       -4.181920   -3.265547    0.459441
     42          6           0       -3.572585   -3.599421    1.871444
     43          8           0       -3.827243   -3.059938    2.951483
     44          8           0       -2.677705   -4.591710    1.767999
     45          6           0       -2.298643   -5.119806    2.999261
     46          6           0        2.864360   -0.725967   -1.303547
     47          6           0        4.198371   -0.383548   -0.574150
     48          6           0        5.152873    0.483518   -0.984864
     49          6           0        5.211244    1.377287   -2.161994
     50          6           0        6.423286    0.384617   -0.133472
     51          6           0        7.687124   -0.201902   -0.850092
     52          6           0        9.019363   -0.228839   -0.067488
     53          6           0       10.231163   -0.563704   -0.838547
     54          6           0       10.058452   -2.042539   -1.331924
     55          6           0       11.455310   -0.388860    0.051940
     56          6           0       12.825008   -0.564279   -0.606299
     57          6           0       13.952655    0.120679    0.243483
     58          6           0       15.428084   -0.141501   -0.397977
     59          6           0       15.667044   -1.727546   -0.698670
     60          6           0       16.433850    0.434100    0.391276
     61          6           0       17.888695    0.517500   -0.212816
     62          6           0       18.874708    1.278095    0.738690
     63          6           0       20.264740    1.337850    0.156345
     64          6           0       20.420747    2.273426   -1.101428
     65          6           0       21.365035    1.752923    1.212148
     66          1           0       -4.115603    3.686629    1.447208
     67          1           0      -10.110964    3.828652   -0.373703
     68          1           0      -10.259955   -2.489140   -1.101377
     69          1           0       -2.656905   -0.958151    2.076550
     70          1           0       -2.285422    1.800258    0.873806
     71          1           0       -1.838598    0.721654    3.513337
     72          1           0       -2.654613    2.384142    3.476015
     73          1           0       -3.701017    0.953931    3.715212
     74          1           0       -2.273813   -1.540760   -0.602396
     75          1           0       -2.200180   -0.010381   -0.926032
     76          1           0       -0.310607    0.580726    0.949636
     77          1           0       -0.455019   -1.226354    1.269942
     78          1           0       -5.877631    6.782725    0.976420
     79          1           0       -5.791293    5.879987    2.258822
     80          1           0       -4.751557    5.491935    0.895127
     81          1           0       -9.123628    5.982525   -0.681866
     82          1           0       -9.300578    7.859522    0.776656
     83          1           0       -7.983505    7.166778    1.901538
     84          1           0      -11.933241    3.116033   -2.402361
     85          1           0      -13.138300    2.220432   -1.745145
     86          1           0      -12.432736    3.191075   -0.539434
     87          1           0      -12.308414   -1.525641   -1.143550
     88          1           0      -13.330998   -0.378660   -1.840378
     89          1           0      -13.154188   -1.548391   -3.567931
     90          1           0      -12.221285   -0.167961   -3.814841
     91          1           0      -11.239904   -1.540906   -3.416008
     92          1           0       -9.279831   -4.768934   -1.616094
     93          1           0       -8.170542   -5.819915   -0.848252
     94          1           0       -9.483836   -5.022756    0.066409
     95          1           0       -3.394045   -3.489814   -0.321456
     96          1           0       -2.174410   -4.386247    3.711045
     97          1           0       -3.039616   -5.676790    3.495196
     98          1           0       -1.446432   -5.949789    2.725480
     99          1           0        2.865199   -1.775652   -1.550337
    100          1           0        2.419415   -0.127787   -2.166052
    101          1           0        4.218206   -1.071025    0.325502
    102          1           0        4.383288    1.371804   -2.937575
    103          1           0        5.610610    2.207878   -1.995138
    104          1           0        6.013323    0.999270   -2.896812
    105          1           0        6.706276    1.308257    0.353073
    106          1           0        6.377939   -0.026532    0.716366
    107          1           0        7.436849   -1.239157   -1.347413
    108          1           0        7.852543    0.513906   -1.894792
    109          1           0        9.039907    0.747995    0.458671
    110          1           0        8.902705   -1.066133    0.732308
    111          1           0       10.372529    0.046650   -1.733509
    112          1           0        9.255248   -2.017547   -1.962346
    113          1           0       11.095958   -2.107227   -1.866402
    114          1           0        9.838330   -2.969823   -0.656119
    115          1           0       11.348573    0.631283    0.360593
    116          1           0       11.378526   -0.915129    1.098146
    117          1           0       12.889539   -1.765798   -0.548265
    118          1           0       12.974990   -0.228033   -1.633139
    119          1           0       13.854738    1.201871    0.448285
    120          1           0       13.802956   -0.333080    1.296761
    121          1           0       15.385271    0.414390   -1.398767
    122          1           0       15.522886   -2.368949    0.228035
    123          1           0       14.939621   -1.996404   -1.555938
    124          1           0       16.760937   -1.800822   -1.211257
    125          1           0       16.096453    1.369161    0.856079
    126          1           0       16.447321   -0.176525    1.153952
    127          1           0       18.289884   -0.455800   -0.545546
    128          1           0       17.739150    0.934792   -1.357528
    129          1           0       18.619735    2.266850    0.918907
    130          1           0       18.978491    0.521276    1.607066
    131          1           0       20.686331    0.379830   -0.195354
    132          1           0       19.909177    3.259510   -1.021355
    133          1           0       21.552878    2.578929   -1.248372
    134          1           0       20.043630    1.688965   -1.945447
    135          1           0       21.421513    0.992696    1.961842
    136          1           0       22.300883    1.643136    0.669016
    137          1           0       21.117797    2.622361    1.436120
 ---------------------------------------------------------------------
 Rotational constants (GHZ):           0.0653765           0.0060469           0.0057018
 Standard basis: 6-31G(d,p) (6D, 7F)
 There are  1339 symmetry adapted cartesian basis functions of A   symmetry.
 There are  1339 symmetry adapted basis functions of A   symmetry.
  1339 basis functions,  2348 primitive gaussians,  1339 cartesian basis functions
   241 alpha electrons      241 beta electrons
       nuclear repulsion energy      8750.6262475259 Hartrees.
 NAtoms=  137 NActive=  137 NUniq=  137 SFac= 1.00D+00 NAtFMM=   60 NAOKFM=T Big=T
 Integral buffers will be    131072 words long.
 Raffenetti 1 integral format.
 Two-electron integral symmetry is turned on.
 One-electron integrals computed using PRISM.
