 Entering Gaussian System, Link 0=g16
 Input=Geometria-72-.com
 Output=Geometria-72-.log
 Initial command:
 /usr/local/g16/l1.exe "/home/padawan/israel-mol/chlorophyll-a/spectra/emi/Gau-18169.inp" -scrdir="/home/padawan/israel-mol/chlorophyll-a/spectra/emi/"
 Entering Link 1 = /usr/local/g16/l1.exe PID=     18171.
  
 Copyright (c) 1988,1990,1992,1993,1995,1998,2003,2009,2016,
            Gaussian, Inc.  All Rights Reserved.
  
 This is part of the Gaussian(R) 16 program.  It is based on
 the Gaussian(R) 09 system (copyright 2009, Gaussian, Inc.),
 the Gaussian(R) 03 system (copyright 2003, Gaussian, Inc.),
 the Gaussian(R) 98 system (copyright 1998, Gaussian, Inc.),
 the Gaussian(R) 94 system (copyright 1995, Gaussian, Inc.),
 the Gaussian 92(TM) system (copyright 1992, Gaussian, Inc.),
 the Gaussian 90(TM) system (copyright 1990, Gaussian, Inc.),
 the Gaussian 88(TM) system (copyright 1988, Gaussian, Inc.),
 the Gaussian 86(TM) system (copyright 1986, Carnegie Mellon
 University), and the Gaussian 82(TM) system (copyright 1983,
 Carnegie Mellon University). Gaussian is a federally registered
 trademark of Gaussian, Inc.
  
 This software contains proprietary and confidential information,
 including trade secrets, belonging to Gaussian, Inc.
  
 This software is provided under written license and may be
 used, copied, transmitted, or stored only in accord with that
 written license.
  
 The following legend is applicable only to US Government
 contracts under FAR:
  
                    RESTRICTED RIGHTS LEGEND
  
 Use, reproduction and disclosure by the US Government is
 subject to restrictions as set forth in subparagraphs (a)
 and (c) of the Commercial Computer Software - Restricted
 Rights clause in FAR 52.227-19.
  
 Gaussian, Inc.
 340 Quinnipiac St., Bldg. 40, Wallingford CT 06492
  
  
 ---------------------------------------------------------------
 Warning -- This program may not be used in any manner that
 competes with the business of Gaussian, Inc. or will provide
 assistance to any competitor of Gaussian, Inc.  The licensee
 of this program is prohibited from giving any competitor of
 Gaussian, Inc. access to this program.  By using this program,
 the user acknowledges that Gaussian, Inc. is engaged in the
 business of creating and licensing software in the field of
 computational chemistry and represents and warrants to the
 licensee that it is not a competitor of Gaussian, Inc. and that
 it will not use this program in any manner prohibited above.
 ---------------------------------------------------------------
  

 Cite this work as:
 Gaussian 16, Revision A.03,
 M. J. Frisch, G. W. Trucks, H. B. Schlegel, G. E. Scuseria, 
 M. A. Robb, J. R. Cheeseman, G. Scalmani, V. Barone, 
 G. A. Petersson, H. Nakatsuji, X. Li, M. Caricato, A. V. Marenich, 
 J. Bloino, B. G. Janesko, R. Gomperts, B. Mennucci, H. P. Hratchian, 
 J. V. Ortiz, A. F. Izmaylov, J. L. Sonnenberg, D. Williams-Young, 
 F. Ding, F. Lipparini, F. Egidi, J. Goings, B. Peng, A. Petrone, 
 T. Henderson, D. Ranasinghe, V. G. Zakrzewski, J. Gao, N. Rega, 
 G. Zheng, W. Liang, M. Hada, M. Ehara, K. Toyota, R. Fukuda, 
 J. Hasegawa, M. Ishida, T. Nakajima, Y. Honda, O. Kitao, H. Nakai, 
 T. Vreven, K. Throssell, J. A. Montgomery, Jr., J. E. Peralta, 
 F. Ogliaro, M. J. Bearpark, J. J. Heyd, E. N. Brothers, K. N. Kudin, 
 V. N. Staroverov, T. A. Keith, R. Kobayashi, J. Normand, 
 K. Raghavachari, A. P. Rendell, J. C. Burant, S. S. Iyengar, 
 J. Tomasi, M. Cossi, J. M. Millam, M. Klene, C. Adamo, R. Cammi, 
 J. W. Ochterski, R. L. Martin, K. Morokuma, O. Farkas, 
 J. B. Foresman, and D. J. Fox, Gaussian, Inc., Wallingford CT, 2016.
 
 ******************************************
 Gaussian 16:  ES64L-G16RevA.03 25-Dec-2016
                 5-Sep-2019 
 ******************************************
 %nproc=4
 Will use up to    4 processors via shared memory.
 %Mem=3GB
 ----------------------------------------------------------------------
 # td=(NStates=1) iop(3/107=0140000000,3/108=0140000000) CAM-B3LYP/6-31
 G(d,p)
 ----------------------------------------------------------------------
 1/38=1,172=1/1;
 2/12=2,17=6,18=5,40=1/2;
 3/5=1,6=6,7=101,11=9,25=1,30=1,74=-40,107=140000000,108=140000000/1,2,3,8;
 4//1;
 5/5=2,38=5/2;
 8/6=1,10=2,108=1/1;
 9/41=1,42=1,70=2/14;
 6/7=2,8=2,9=2,10=2/1;
 99/5=1,9=1/99;
 --
 TD
 --
 Symbolic Z-matrix:
 Charge =  0 Multiplicity = 1
 12                   -7.08913   0.62405   0.14771 
 6                    -4.85782  -2.0196    0.54623 
 6                    -4.73374   2.86369   1.10252 
 6                    -9.38331   3.06308  -0.32879 
 6                    -9.56608  -1.7481   -0.93809 
 7                    -5.18801   0.38773   0.7712 
 6                    -4.38087  -0.74431   0.82209 
 6                    -2.96765  -0.43585   1.2633 
 6                    -3.04295   1.00251   1.74442 
 6                    -4.36852   1.45589   1.20853 
 6                    -2.96449   1.16048   3.27381 
 6                    -1.88894  -0.63037   0.11579 
 6                    -0.44252  -0.47458   0.6602 
 6                     0.52717  -0.66803  -0.51323 
 8                     0.13078  -1.07202  -1.57481 
 8                     1.81121  -0.40833  -0.20037 
 7                    -7.06423   2.66      0.29696 
 6                    -6.04665   3.43032   0.75597 
 6                    -6.49232   4.80958   0.8747 
 6                    -7.80344   4.90155   0.35699 
 6                    -8.07724   3.54935   0.08824 
 6                    -5.4844    5.85886   1.1155 
 6                    -8.59379   6.18988   0.21187 
 6                    -8.29401   7.41001   0.77256 
 7                    -9.15718   0.61163  -0.42748 
 6                    -9.87076   1.7977   -0.7145 
 6                    -11.24709   1.49345  -1.08073 
 6                    -11.18775   0.16914  -1.32757 
 6                    -9.89921  -0.47864  -0.87874 
 6                    -12.29421   2.62343  -1.48525 
 6                    -12.22094  -0.75628  -1.92237 
 6                    -12.28596  -0.90542  -3.4161 
 7                    -7.25858  -1.40967  -0.14745 
 6                    -8.29969  -2.27176  -0.55633 
 6                    -7.78309  -3.65981  -0.56048 
 6                    -6.48959  -3.50782  -0.12709 
 6                    -6.20455  -2.21129   0.07797 
 6                    -8.58982  -4.76201  -0.89757 
 6                    -5.33574  -4.36127   0.20264 
 8                    -5.18311  -5.5845    0.1819 
 6                    -4.09233  -3.26367   0.56733 
 6                    -3.56188  -3.66094   1.86226 
 8                    -3.78189  -3.00807   2.83456 
 8                    -2.86732  -4.85025   1.82726 
 6                    -2.31895  -5.22158   3.19843 
 6                     2.83011  -0.67802  -1.2813 
 6                     4.09577  -0.54734  -0.59387 
 6                     5.15529   0.26277  -0.91392 
 6                     5.19114   1.12633  -2.22998 
 6                     6.44545   0.25404  -0.15501 
 6                     7.69919  -0.39466  -1.02588 
 6                     8.87043  -0.33403  -0.17867 
 6                     10.18274  -0.55358  -0.89095 
 6                     10.10817  -2.07766  -1.55426 
 6                     11.44791  -0.36363  -0.00751 
 6                     12.73511  -0.48875  -0.67182 
 6                     13.90306  -0.25966   0.12413 
 6                     15.39402  -0.24863  -0.4554 
 6                     15.76016  -1.70092  -0.91038 
 6                     16.45091   0.43434   0.48203 
 6                     17.71726   0.65005  -0.28254 
 6                     18.81196   1.34584   0.70409 
 6                     20.27812   1.44402   0.21767 
 6                     20.44181   2.24062  -1.04652 
 6                     21.1115   2.20614   1.34798 
 1                    -3.92018   3.42802   1.43606 
 1                    -10.34653   3.86339  -0.47721 
 1                    -10.27334  -2.46244  -1.15266 
 1                    -2.53499  -0.92978   2.0731 
 1                    -2.28975   1.67695   1.31918 
 1                    -1.93424   0.95906   3.75575 
 1                    -3.17224   2.08055   3.4215 
 1                    -3.44398   0.52368   3.80822 
 1                    -1.85405  -1.54994  -0.44012 
 1                    -2.0949    0.21421  -0.55067 
 1                    -0.30403   0.6172    1.05714 
 1                    -0.25679  -1.15415   1.36257 
 1                    -5.53609   6.69078   0.29128 
 1                    -5.75795   6.44391   1.9937 
 1                    -4.36181   5.61284   1.17238 
 1                    -9.4704    6.142    -0.48401 
 1                    -8.98975   8.08134   0.52976 
 1                    -7.6787    7.3852    1.78848 
 1                    -11.90679   3.402    -2.23296 
 1                    -13.27726   2.14219  -1.81682 
 1                    -12.41758   3.05066  -0.58829 
 1                    -12.35534  -1.73425  -1.52686 
 1                    -13.29519  -0.39923  -1.49929 
 1                    -13.00587  -1.71556  -3.61075 
 1                    -12.45604   0.06178  -3.97676 
 1                    -11.44528  -1.32103  -3.58882 
 1                    -8.83355  -4.88519  -2.01726 
 1                    -8.23323  -5.81939  -0.63523 
 1                    -9.81551  -4.85698  -0.60501 
 1                    -3.27689  -3.18678  -0.10045 
 1                    -1.94927  -4.41231   3.90123 
 1                    -3.16753  -5.69113   3.59578 
 1                    -1.55331  -6.03607   2.90888 
 1                     2.53937  -1.78907  -1.68414 
 1                     2.59306  -0.01077  -2.07912 
 1                     4.18067  -1.04674   0.53143 
 1                     4.11626   1.08126  -2.63165 
 1                     5.37048   2.24919  -2.03025 
 1                     5.60904   0.58684  -2.97809 
 1                     6.48708   1.23953   0.16673 
 1                     6.3378   -0.20226   0.69168 
 1                     7.12527  -1.51886  -1.30384 
 1                     7.72015   0.20995  -1.93182 
 1                     8.83742   0.6943    0.43337 
 1                     8.76267  -1.19589   0.60397 
 1                     10.32671   0.18177  -1.70109 
 1                     9.30415  -1.94942  -2.46148 
 1                     11.19303  -2.2963   -2.01007 
 1                     9.96436  -2.75662  -0.74949 
 1                     11.13566   0.52131   0.44268 
 1                     11.31552  -1.28139   0.94945 
 1                     12.90215  -1.52581  -1.012 
 1                     12.62261   0.16349  -1.57611 
 1                     13.69693   0.72984   0.575 
 1                     13.98162  -0.8728    1.09907 
 1                     15.28402   0.39448  -1.4054 
 1                     15.85911  -2.60753  -0.12109 
 1                     14.88693  -1.98976  -1.41253 
 1                     16.76299  -1.57544  -1.5431 
 1                     15.95187   1.44904   0.63642 
 1                     16.66771  -0.22679   1.28307 
 1                     18.32841  -0.34749  -0.66617 
 1                     17.71969   1.3497   -1.08652 
 1                     18.53115   2.39732   0.63694 
 1                     18.83159   0.81128   1.52122 
 1                     20.68413   0.47103   0.12751 
 1                     20.0824   3.22545  -0.83094 
 1                     21.53445   2.37908  -1.42099 
 1                     19.82504   1.6244   -1.76476 
 1                     21.20786   1.55174   2.23553 
 1                     22.27436   2.55874   1.03116 
 1                     20.59589   3.21386   1.65877 
 
 Stoichiometry    C55H72MgN4O5
 Framework group  C1[X(C55H72MgN4O5)]
 Deg. of freedom   405
 Full point group                 C1      NOp   1
 Largest Abelian subgroup         C1      NOp   1
 Largest concise Abelian subgroup C1      NOp   1
                         Standard orientation:                         
 ---------------------------------------------------------------------
 Center     Atomic      Atomic             Coordinates (Angstroms)
 Number     Number       Type             X           Y           Z
 ---------------------------------------------------------------------
      1         12           0       -7.088508    0.622880    0.144376
      2          6           0       -4.856539   -2.018586    0.553538
      3          6           0       -4.733991    2.866824    1.091196
      4          6           0       -9.383262    3.059415   -0.341997
      5          6           0       -9.564510   -1.754111   -0.932959
      6          7           0       -5.187466    0.389495    0.769232
      7          6           0       -4.380018   -0.742110    0.824640
      8          6           0       -2.966998   -0.431567    1.265015
      9          6           0       -3.042823    1.008600    1.740616
     10          6           0       -4.368391    1.459549    1.202668
     11          6           0       -2.964788    1.172435    3.269412
     12          6           0       -1.887952   -0.630156    0.118513
     13          6           0       -0.441706   -0.471873    0.662681
     14          6           0        0.528332   -0.669529   -0.509765
     15          8           0        0.132317   -1.077683   -1.569894
     16          8           0        1.812216   -0.408263   -0.197580
     17          7           0       -7.064229    2.659391    0.285851
     18          6           0       -6.046983    3.431749    0.742164
     19          6           0       -6.493077    4.811326    0.855509
     20          6           0       -7.804088    4.900944    0.337137
     21          6           0       -8.077436    3.547648    0.073483
     22          6           0       -5.485514    5.861806    1.092550
     23          6           0       -8.594776    6.188480    0.186902
     24          6           0       -8.295482    7.410830    0.742999
     25          7           0       -9.156415    0.607665   -0.431268
     26          6           0       -9.870264    1.792429   -0.722997
     27          6           0      -11.246411    1.486382   -1.088397
     28          6           0      -11.186630    0.161161   -1.330160
     29          6           0       -9.898014   -0.484531   -0.878541
     30          6           0      -12.293757    2.614505   -1.497482
     31          6           0      -12.219406   -0.766828   -1.921671
     32          6           0      -12.284022   -0.921692   -3.414837
     33          7           0       -7.257298   -1.411998   -0.143051
     34          6           0       -8.298066   -2.275943   -0.548889
     35          6           0       -7.781063   -3.663851   -0.547608
     36          6           0       -6.487709   -3.509842   -0.114494
     37          6           0       -6.203099   -2.212451    0.085684
     38          6           0       -8.587395   -4.767569   -0.880688
     39          6           0       -5.333698   -4.361690    0.218776
     40          8           0       -5.180712   -5.584941    0.202756
     41          6           0       -4.090697   -3.262351    0.579573
     42          6           0       -3.560447   -3.654518    1.876148
     43          8           0       -3.780883   -2.997995    2.845887
     44          8           0       -2.865539   -4.843752    1.845862
     45          6           0       -2.317398   -5.209677    3.218570
     46          6           0        2.831458   -0.681783   -1.277229
     47          6           0        4.096913   -0.548117   -0.589994
     48          6           0        5.156280    0.261071   -0.912881
     49          6           0        5.192207    1.119605   -2.232215
     50          6           0        6.446256    0.255606   -0.153620
     51          6           0        7.700396   -0.396050   -1.021706
     52          6           0        8.871414   -0.331844   -0.174448
     53          6           0       10.183960   -0.553738   -0.885565
     54          6           0       10.109991   -2.080361   -1.543062
     55          6           0       11.448855   -0.360054   -0.002542
     56          6           0       12.736255   -0.487339   -0.666060
     57          6           0       13.903945   -0.254876    0.129297
     58          6           0       15.395037   -0.245634   -0.449907
     59          6           0       15.761712   -1.699541   -0.899247
     60          6           0       16.451508    0.441221    0.485169
     61          6           0       17.717981    0.654371   -0.279918
     62          6           0       18.812242    1.354245    0.704322
     63          6           0       20.278492    1.450988    0.217884
     64          6           0       20.442260    2.242797   -1.049299
     65          6           0       21.111371    2.217660    1.345477
     66          1           0       -3.920677    3.432659    1.422775
     67          1           0      -10.346677    3.858869   -0.493716
     68          1           0      -10.271512   -2.469474   -1.144974
     69          1           0       -2.534392   -0.922276    2.076804
     70          1           0       -2.289717    1.681628    1.312981
     71          1           0       -1.934593    0.973150    3.752363
     72          1           0       -3.172840    2.093001    3.413532
     73          1           0       -3.444221    0.537542    3.806134
     74          1           0       -1.852658   -1.551830   -0.433868
     75          1           0       -2.093982    0.211810   -0.551216
     76          1           0       -0.303622    0.621458    1.055481
     77          1           0       -0.255957   -1.148696    1.367688
     78          1           0       -5.537238    6.690557    0.265142
     79          1           0       -5.759444    6.450130    1.968441
     80          1           0       -4.362868    5.616328    1.150640
     81          1           0       -9.471199    6.137688   -0.509005
     82          1           0       -8.991355    8.081025    0.497467
     83          1           0       -7.680412    7.390074    1.759153
     84          1           0      -11.906378    3.390326   -2.248068
     85          1           0      -13.276583    2.131725   -1.827450
     86          1           0      -12.417472    3.045129   -0.602192
     87          1           0      -12.353625   -1.743321   -1.522455
     88          1           0      -13.293868   -0.408474   -1.500215
     89          1           0      -13.003647   -1.732771   -3.606566
     90          1           0      -12.454237    0.043308   -3.979224
     91          1           0      -11.443179   -1.337719   -3.585757
     92          1           0       -8.830811   -4.895089   -1.999953
     93          1           0       -8.230562   -5.823832   -0.614223
     94          1           0       -9.813124   -4.861775   -0.588066
     95          1           0       -3.275106   -3.187769   -0.088290
     96          1           0       -1.948120   -4.397627    3.918368
     97          1           0       -3.165943   -5.677950    3.617507
     98          1           0       -1.551448   -6.025054    2.932328
     99          1           0        2.541138   -1.794447   -1.675890
    100          1           0        2.594409   -0.017662   -2.077648
    101          1           0        4.181678   -1.043193    0.537233
    102          1           0        4.117432    1.072694   -2.633979
    103          1           0        5.371177    2.243266   -2.036736
    104          1           0        5.610443    0.577380   -2.978163
    105          1           0        6.487520    1.242337    0.164355
    106          1           0        6.338530   -0.197481    0.694773
    107          1           0        7.126870   -1.521474   -1.295500
    108          1           0        7.721408    0.205098   -1.929945
    109          1           0        8.837954    0.698801    0.433650
    110          1           0        8.763704   -1.190741    0.611453
    111          1           0       10.327912    0.178554   -1.698464
    112          1           0        9.306152   -1.955828   -2.450964
    113          1           0       11.195019   -2.300437   -1.997763
    114          1           0        9.966172   -2.756287   -0.735739
    115          1           0       11.136236    0.526509    0.444188
    116          1           0       11.316493   -1.274188    0.957885
    117          1           0       12.903673   -1.525644   -1.002233
    118          1           0       12.623787    0.161409   -1.572861
    119          1           0       13.697420    0.736280    0.576336
    120          1           0       13.982436   -0.864266    1.106595
    121          1           0       15.285089    0.393817   -1.402384
    122          1           0       15.860726   -2.603101   -0.106471
    123          1           0       14.888687   -1.990553   -1.400502
    124          1           0       16.764664   -1.576191   -1.532194
    125          1           0       15.952136    1.456363    0.635556
    126          1           0       16.668300   -0.216780    1.288776
    127          1           0       18.329511   -0.344451   -0.659576
    128          1           0       17.720408    1.350950   -1.086564
    129          1           0       18.531147    2.405378    0.633079
    130          1           0       18.831822    0.822810    1.523485
    131          1           0       20.684801    0.477772    0.131541
    132          1           0       20.082513    3.228342   -0.837567
    133          1           0       21.534952    2.380137   -1.424029
    134          1           0       19.825847    1.623661   -1.765335
    135          1           0       21.207710    1.566682    2.235543
    136          1           0       22.274207    2.569375    1.027597
    137          1           0       20.595400    3.226407    1.652293
 ---------------------------------------------------------------------
 Rotational constants (GHZ):           0.0630230           0.0060800           0.0057237
 Standard basis: 6-31G(d,p) (6D, 7F)
 There are  1339 symmetry adapted cartesian basis functions of A   symmetry.
 There are  1339 symmetry adapted basis functions of A   symmetry.
  1339 basis functions,  2348 primitive gaussians,  1339 cartesian basis functions
   241 alpha electrons      241 beta electrons
       nuclear repulsion energy      8724.6274995451 Hartrees.
 NAtoms=  137 NActive=  137 NUniq=  137 SFac= 1.00D+00 NAtFMM=   60 NAOKFM=T Big=T
 Integral buffers will be    131072 words long.
 Raffenetti 1 integral format.
 Two-electron integral symmetry is turned on.
 One-electron integrals computed using PRISM.
 NBasis=  1339 RedAO= T EigKep=  2.72D-04  NBF=  1339
 NBsUse=  1339 1.00D-06 EigRej= -1.00D+00 NBFU=  1339
 ExpMin= 4.21D-02 ExpMax= 1.17D+04 ExpMxC= 1.76D+03 IAcc=3 IRadAn=         5 AccDes= 0.00D+00
 Harris functional with IExCor=20419 and IRadAn=       5 diagonalized for initial guess.
 HarFok:  IExCor=20419 AccDes= 0.00D+00 IRadAn=         5 IDoV= 1 UseB2=F ITyADJ=14
 ICtDFT=  3500011 ScaDFX=  1.000000  1.000000  1.000000  1.000000
 FoFCou: FMM=F IPFlag=           0 FMFlag=      100000 FMFlg1=        2001
         NFxFlg=           0 DoJE=T BraDBF=F KetDBF=T FulRan=T
         wScrn=  0.000000 ICntrl=       500 IOpCl=  0 I1Cent=   200000004 NGrid=           0
         NMat0=    1 NMatS0=      1 NMatT0=    0 NMatD0=    1 NMtDS0=    0 NMtDT0=    0
 Petite list used in FoFCou.
 Requested convergence on RMS density matrix=1.00D-08 within 128 cycles.
 Requested convergence on MAX density matrix=1.00D-06.
 Requested convergence on             energy=1.00D-06.
 No special actions if energy rises.
 SCF Done:  E(RCAM-B3LYP) =  -2933.42884438     A.U. after   16 cycles
            NFock= 16  Conv=0.66D-08     -V/T= 2.0092
 DoSCS=F DFT=T ScalE2(SS,OS)=  1.000000  1.000000
 ExpMin= 4.21D-02 ExpMax= 1.17D+04 ExpMxC= 1.76D+03 IAcc=3 IRadAn=         5 AccDes= 0.00D+00
 HarFok:  IExCor=  205 AccDes= 0.00D+00 IRadAn=         5 IDoV=-2 UseB2=F ITyADJ=14
 ICtDFT= 12500011 ScaDFX=  1.000000  1.000000  1.000000  1.000000
 GSVD:  LWork=       -5313 too small for GESVD, short by       24840 words or       24840 for optimal perf.
 Range of M.O.s used for correlation:    70  1339
 NBasis=  1339 NAE=   241 NBE=   241 NFC=    69 NFV=     0
 NROrb=   1270 NOA=   172 NOB=   172 NVA=  1098 NVB=  1098
 Orbital symmetries:
       Occupied  (A) (A) (A) (A) (A) (A) (A) (A) (A) (A) (A) (A)
                 (A) (A) (A) (A) (A) (A) (A) (A) (A) (A) (A) (A)
                 (A) (A) (A) (A) (A) (A) (A) (A) (A) (A) (A) (A)
                 (A) (A) (A) (A) (A) (A) (A) (A) (A) (A) (A) (A)
                 (A) (A) (A) (A) (A) (A) (A) (A) (A) (A) (A) (A)
                 (A) (A) (A) (A) (A) (A) (A) (A) (A) (A) (A) (A)
                 (A) (A) (A) (A) (A) (A) (A) (A) (A) (A) (A) (A)
                 (A) (A) (A) (A) (A) (A) (A) (A) (A) (A) (A) (A)
                 (A) (A) (A) (A) (A) (A) (A) (A) (A) (A) (A) (A)
                 (A) (A) (A) (A) (A) (A) (A) (A) (A) (A) (A) (A)
                 (A) (A) (A) (A) (A) (A) (A) (A) (A) (A) (A) (A)
                 (A) (A) (A) (A) (A) (A) (A) (A) (A) (A) (A) (A)
                 (A) (A) (A) (A) (A) (A) (A) (A) (A) (A) (A) (A)
                 (A) (A) (A) (A) (A) (A) (A) (A) (A) (A) (A) (A)
                 (A) (A) (A) (A) (A) (A) (A) (A) (A) (A) (A) (A)
                 (A) (A) (A) (A) (A) (A) (A) (A) (A) (A) (A) (A)
                 (A) (A) (A) (A) (A) (A) (A) (A) (A) (A) (A) (A)
                 (A) (A) (A) (A) (A) (A) (A) (A) (A) (A) (A) (A)
                 (A) (A) (A) (A) (A) (A) (A) (A) (A) (A) (A) (A)
                 (A) (A) (A) (A) (A) (A) (A) (A) (A) (A) (A) (A)
                 (A)
       Virtual   (A) (A) (A) (A) (A) (A) (A) (A) (A) (A) (A) (A)
                 (A) (A) (A) (A) (A) (A) (A) (A) (A) (A) (A) (A)
                 (A) (A) (A) (A) (A) (A) (A) (A) (A) (A) (A) (A)
                 (A) (A) (A) (A) (A) (A) (A) (A) (A) (A) (A) (A)
                 (A) (A) (A) (A) (A) (A) (A) (A) (A) (A) (A) (A)
                 (A) (A) (A) (A) (A) (A) (A) (A) (A) (A) (A) (A)
                 (A) (A) (A) (A) (A) (A) (A) (A) (A) (A) (A) (A)
                 (A) (A) (A) (A) (A) (A) (A) (A) (A) (A) (A) (A)
                 (A) (A) (A) (A) (A) (A) (A) (A) (A) (A) (A) (A)
                 (A) (A) (A) (A) (A) (A) (A) (A) (A) (A) (A) (A)
                 (A) (A) (A) (A) (A) (A) (A) (A) (A) (A) (A) (A)
                 (A) (A) (A) (A) (A) (A) (A) (A) (A) (A) (A) (A)
                 (A) (A) (A) (A) (A) (A) (A) (A) (A) (A) (A) (A)
                 (A) (A) (A) (A) (A) (A) (A) (A) (A) (A) (A) (A)
                 (A) (A) (A) (A) (A) (A) (A) (A) (A) (A) (A) (A)
                 (A) (A) (A) (A) (A) (A) (A) (A) (A) (A) (A) (A)
                 (A) (A) (A) (A) (A) (A) (A) (A) (A) (A) (A) (A)
                 (A) (A) (A) (A) (A) (A) (A) (A) (A) (A) (A) (A)
                 (A) (A) (A) (A) (A) (A) (A) (A) (A) (A) (A) (A)
                 (A) (A) (A) (A) (A) (A) (A) (A) (A) (A) (A) (A)
                 (A) (A) (A) (A) (A) (A) (A) (A) (A) (A) (A) (A)
                 (A) (A) (A) (A) (A) (A) (A) (A) (A) (A) (A) (A)
                 (A) (A) (A) (A) (A) (A) (A) (A) (A) (A) (A) (A)
                 (A) (A) (A) (A) (A) (A) (A) (A) (A) (A) (A) (A)
                 (A) (A) (A) (A) (A) (A) (A) (A) (A) (A) (A) (A)
                 (A) (A) (A) (A) (A) (A) (A) (A) (A) (A) (A) (A)
                 (A) (A) (A) (A) (A) (A) (A) (A) (A) (A) (A) (A)
                 (A) (A) (A) (A) (A) (A) (A) (A) (A) (A) (A) (A)
                 (A) (A) (A) (A) (A) (A) (A) (A) (A) (A) (A) (A)
                 (A) (A) (A) (A) (A) (A) (A) (A) (A) (A) (A) (A)
                 (A) (A) (A) (A) (A) (A) (A) (A) (A) (A) (A) (A)
                 (A) (A) (A) (A) (A) (A) (A) (A) (A) (A) (A) (A)
                 (A) (A) (A) (A) (A) (A) (A) (A) (A) (A) (A) (A)
                 (A) (A) (A) (A) (A) (A) (A) (A) (A) (A) (A) (A)
                 (A) (A) (A) (A) (A) (A) (A) (A) (A) (A) (A) (A)
                 (A) (A) (A) (A) (A) (A) (A) (A) (A) (A) (A) (A)
                 (A) (A) (A) (A) (A) (A) (A) (A) (A) (A) (A) (A)
                 (A) (A) (A) (A) (A) (A) (A) (A) (A) (A) (A) (A)
                 (A) (A) (A) (A) (A) (A) (A) (A) (A) (A) (A) (A)
                 (A) (A) (A) (A) (A) (A) (A) (A) (A) (A) (A) (A)
                 (A) (A) (A) (A) (A) (A) (A) (A) (A) (A) (A) (A)
                 (A) (A) (A) (A) (A) (A) (A) (A) (A) (A) (A) (A)
                 (A) (A) (A) (A) (A) (A) (A) (A) (A) (A) (A) (A)
                 (A) (A) (A) (A) (A) (A) (A) (A) (A) (A) (A) (A)
                 (A) (A) (A) (A) (A) (A) (A) (A) (A) (A) (A) (A)
                 (A) (A) (A) (A) (A) (A) (A) (A) (A) (A) (A) (A)
                 (A) (A) (A) (A) (A) (A) (A) (A) (A) (A) (A) (A)
                 (A) (A) (A) (A) (A) (A) (A) (A) (A) (A) (A) (A)
                 (A) (A) (A) (A) (A) (A) (A) (A) (A) (A) (A) (A)
                 (A) (A) (A) (A) (A) (A) (A) (A) (A) (A) (A) (A)
                 (A) (A) (A) (A) (A) (A) (A) (A) (A) (A) (A) (A)
                 (A) (A) (A) (A) (A) (A) (A) (A) (A) (A) (A) (A)
                 (A) (A) (A) (A) (A) (A) (A) (A) (A) (A) (A) (A)
                 (A) (A) (A) (A) (A) (A) (A) (A) (A) (A) (A) (A)
                 (A) (A) (A) (A) (A) (A) (A) (A) (A) (A) (A) (A)
                 (A) (A) (A) (A) (A) (A) (A) (A) (A) (A) (A) (A)
                 (A) (A) (A) (A) (A) (A) (A) (A) (A) (A) (A) (A)
                 (A) (A) (A) (A) (A) (A) (A) (A) (A) (A) (A) (A)
                 (A) (A) (A) (A) (A) (A) (A) (A) (A) (A) (A) (A)
                 (A) (A) (A) (A) (A) (A) (A) (A) (A) (A) (A) (A)
                 (A) (A) (A) (A) (A) (A) (A) (A) (A) (A) (A) (A)
                 (A) (A) (A) (A) (A) (A) (A) (A) (A) (A) (A) (A)
                 (A) (A) (A) (A) (A) (A) (A) (A) (A) (A) (A) (A)
                 (A) (A) (A) (A) (A) (A) (A) (A) (A) (A) (A) (A)
                 (A) (A) (A) (A) (A) (A) (A) (A) (A) (A) (A) (A)
                 (A) (A) (A) (A) (A) (A) (A) (A) (A) (A) (A) (A)
                 (A) (A) (A) (A) (A) (A) (A) (A) (A) (A) (A) (A)
                 (A) (A) (A) (A) (A) (A) (A) (A) (A) (A) (A) (A)
                 (A) (A) (A) (A) (A) (A) (A) (A) (A) (A) (A) (A)
                 (A) (A) (A) (A) (A) (A) (A) (A) (A) (A) (A) (A)
                 (A) (A) (A) (A) (A) (A) (A) (A) (A) (A) (A) (A)
                 (A) (A) (A) (A) (A) (A) (A) (A) (A) (A) (A) (A)
                 (A) (A) (A) (A) (A) (A) (A) (A) (A) (A) (A) (A)
                 (A) (A) (A) (A) (A) (A) (A) (A) (A) (A) (A) (A)
                 (A) (A) (A) (A) (A) (A) (A) (A) (A) (A) (A) (A)
                 (A) (A) (A) (A) (A) (A) (A) (A) (A) (A) (A) (A)
                 (A) (A) (A) (A) (A) (A) (A) (A) (A) (A) (A) (A)
                 (A) (A) (A) (A) (A) (A) (A) (A) (A) (A) (A) (A)
                 (A) (A) (A) (A) (A) (A) (A) (A) (A) (A) (A) (A)
                 (A) (A) (A) (A) (A) (A) (A) (A) (A) (A) (A) (A)
                 (A) (A) (A) (A) (A) (A) (A) (A) (A) (A) (A) (A)
                 (A) (A) (A) (A) (A) (A) (A) (A) (A) (A) (A) (A)
                 (A) (A) (A) (A) (A) (A) (A) (A) (A) (A) (A) (A)
                 (A) (A) (A) (A) (A) (A) (A) (A) (A) (A) (A) (A)
                 (A) (A) (A) (A) (A) (A) (A) (A) (A) (A) (A) (A)
                 (A) (A) (A) (A) (A) (A) (A) (A) (A) (A) (A) (A)
                 (A) (A) (A) (A) (A) (A) (A) (A) (A) (A) (A) (A)
                 (A) (A) (A) (A) (A) (A) (A) (A) (A) (A) (A) (A)
                 (A) (A) (A) (A) (A) (A) (A) (A) (A) (A) (A) (A)
                 (A) (A) (A) (A) (A) (A) (A) (A) (A) (A) (A) (A)
                 (A) (A) (A) (A) (A) (A) (A) (A) (A) (A) (A) (A)
                 (A) (A) (A) (A) (A) (A)
     4 initial guesses have been made.
 Convergence on wavefunction:    0.001000000000000
 Iteration     1 Dimension     4 NMult     0 NNew      4
 CISAX will form     4 AO SS matrices at one time.
 New state      1 was old state      2
 Iteration     2 Dimension     6 NMult     4 NNew      2
 Iteration     3 Dimension     8 NMult     6 NNew      2
 Iteration     4 Dimension    10 NMult     8 NNew      2
 Iteration     5 Dimension    12 NMult    10 NNew      2
