 Entering Gaussian System, Link 0=g16
 Input=Geometria-15-.com
 Output=Geometria-15-.log
 Initial command:
 /usr/local/g16/l1.exe "/home/padawan/israel-mol/chlorophyll-a/spectra/emi/Gau-86474.inp" -scrdir="/home/padawan/israel-mol/chlorophyll-a/spectra/emi/"
 Entering Link 1 = /usr/local/g16/l1.exe PID=     86476.
  
 Copyright (c) 1988,1990,1992,1993,1995,1998,2003,2009,2016,
            Gaussian, Inc.  All Rights Reserved.
  
 This is part of the Gaussian(R) 16 program.  It is based on
 the Gaussian(R) 09 system (copyright 2009, Gaussian, Inc.),
 the Gaussian(R) 03 system (copyright 2003, Gaussian, Inc.),
 the Gaussian(R) 98 system (copyright 1998, Gaussian, Inc.),
 the Gaussian(R) 94 system (copyright 1995, Gaussian, Inc.),
 the Gaussian 92(TM) system (copyright 1992, Gaussian, Inc.),
 the Gaussian 90(TM) system (copyright 1990, Gaussian, Inc.),
 the Gaussian 88(TM) system (copyright 1988, Gaussian, Inc.),
 the Gaussian 86(TM) system (copyright 1986, Carnegie Mellon
 University), and the Gaussian 82(TM) system (copyright 1983,
 Carnegie Mellon University). Gaussian is a federally registered
 trademark of Gaussian, Inc.
  
 This software contains proprietary and confidential information,
 including trade secrets, belonging to Gaussian, Inc.
  
 This software is provided under written license and may be
 used, copied, transmitted, or stored only in accord with that
 written license.
  
 The following legend is applicable only to US Government
 contracts under FAR:
  
                    RESTRICTED RIGHTS LEGEND
  
 Use, reproduction and disclosure by the US Government is
 subject to restrictions as set forth in subparagraphs (a)
 and (c) of the Commercial Computer Software - Restricted
 Rights clause in FAR 52.227-19.
  
 Gaussian, Inc.
 340 Quinnipiac St., Bldg. 40, Wallingford CT 06492
  
  
 ---------------------------------------------------------------
 Warning -- This program may not be used in any manner that
 competes with the business of Gaussian, Inc. or will provide
 assistance to any competitor of Gaussian, Inc.  The licensee
 of this program is prohibited from giving any competitor of
 Gaussian, Inc. access to this program.  By using this program,
 the user acknowledges that Gaussian, Inc. is engaged in the
 business of creating and licensing software in the field of
 computational chemistry and represents and warrants to the
 licensee that it is not a competitor of Gaussian, Inc. and that
 it will not use this program in any manner prohibited above.
 ---------------------------------------------------------------
  

 Cite this work as:
 Gaussian 16, Revision A.03,
 M. J. Frisch, G. W. Trucks, H. B. Schlegel, G. E. Scuseria, 
 M. A. Robb, J. R. Cheeseman, G. Scalmani, V. Barone, 
 G. A. Petersson, H. Nakatsuji, X. Li, M. Caricato, A. V. Marenich, 
 J. Bloino, B. G. Janesko, R. Gomperts, B. Mennucci, H. P. Hratchian, 
 J. V. Ortiz, A. F. Izmaylov, J. L. Sonnenberg, D. Williams-Young, 
 F. Ding, F. Lipparini, F. Egidi, J. Goings, B. Peng, A. Petrone, 
 T. Henderson, D. Ranasinghe, V. G. Zakrzewski, J. Gao, N. Rega, 
 G. Zheng, W. Liang, M. Hada, M. Ehara, K. Toyota, R. Fukuda, 
 J. Hasegawa, M. Ishida, T. Nakajima, Y. Honda, O. Kitao, H. Nakai, 
 T. Vreven, K. Throssell, J. A. Montgomery, Jr., J. E. Peralta, 
 F. Ogliaro, M. J. Bearpark, J. J. Heyd, E. N. Brothers, K. N. Kudin, 
 V. N. Staroverov, T. A. Keith, R. Kobayashi, J. Normand, 
 K. Raghavachari, A. P. Rendell, J. C. Burant, S. S. Iyengar, 
 J. Tomasi, M. Cossi, J. M. Millam, M. Klene, C. Adamo, R. Cammi, 
 J. W. Ochterski, R. L. Martin, K. Morokuma, O. Farkas, 
 J. B. Foresman, and D. J. Fox, Gaussian, Inc., Wallingford CT, 2016.
 
 ******************************************
 Gaussian 16:  ES64L-G16RevA.03 25-Dec-2016
                 3-Sep-2019 
 ******************************************
 %nproc=4
 Will use up to    4 processors via shared memory.
 %Mem=3GB
 ----------------------------------------------------------------------
 # td=(NStates=1) iop(3/107=0140000000,3/108=0140000000) CAM-B3LYP/6-31
 G(d,p)
 ----------------------------------------------------------------------
 1/38=1,172=1/1;
 2/12=2,17=6,18=5,40=1/2;
 3/5=1,6=6,7=101,11=9,25=1,30=1,74=-40,107=140000000,108=140000000/1,2,3,8;
 4//1;
 5/5=2,38=5/2;
 8/6=1,10=2,108=1/1;
 9/41=1,42=1,70=2/14;
 6/7=2,8=2,9=2,10=2/1;
 99/5=1,9=1/99;
 --
 TD
 --
 Symbolic Z-matrix:
 Charge =  0 Multiplicity = 1
 12                   -7.07053   0.72309  -0.06686 
 6                    -4.90766  -1.96758   0.44583 
 6                    -4.77246   2.81797   1.14982 
 6                    -9.40644   3.1639   -0.42555 
 6                    -9.49458  -1.64089  -1.02763 
 7                    -5.14724   0.50846   0.69027 
 6                    -4.41113  -0.67136   0.79212 
 6                    -2.97639  -0.40561   1.23394 
 6                    -3.03203   0.99906   1.70833 
 6                    -4.32201   1.44099   1.16586 
 6                    -2.9785    1.08363   3.26385 
 6                    -1.97908  -0.6167    0.13866 
 6                    -0.57923  -0.42429   0.51261 
 6                     0.48335  -0.77261  -0.57434 
 8                     0.25583  -1.22895  -1.64995 
 8                     1.77179  -0.52718  -0.18293 
 7                    -7.14837   2.5986    0.26431 
 6                    -6.06892   3.28409   0.82259 
 6                    -6.31122   4.74144   0.84044 
 6                    -7.68539   4.83659   0.4877 
 6                    -8.14875   3.49334   0.02014 
 6                    -5.36315   5.8694    1.19683 
 6                    -8.53056   5.98038   0.18887 
 6                    -8.35243   7.15828   0.73063 
 7                    -9.08291   0.68991  -0.5749 
 6                    -9.82132   1.86133  -0.77736 
 6                    -11.12035   1.50807  -1.11636 
 6                    -11.16647   0.13777  -1.32436 
 6                    -9.85506  -0.3019   -0.97152 
 6                    -12.24397   2.44396  -1.27667 
 6                    -12.47393  -0.6127   -1.73546 
 6                    -12.34572  -1.16926  -3.1806 
 7                    -7.22068  -1.34813  -0.23529 
 6                    -8.24189  -2.191    -0.73739 
 6                    -7.88371  -3.59251  -0.60501 
 6                    -6.59042  -3.53797  -0.09898 
 6                    -6.22438  -2.21293  -0.0287 
 6                    -8.73121  -4.82104  -0.74324 
 6                    -5.3648   -4.35955   0.20798 
 8                    -5.20795  -5.63337   0.29695 
 6                    -4.24887  -3.32428   0.56877 
 6                    -3.54771  -3.58409   1.8608 
 8                    -3.72468  -3.00806   2.93687 
 8                    -2.76666  -4.70961   1.75145 
 6                    -2.21422  -5.3287    2.93714 
 6                     2.88639  -0.72181  -1.14951 
 6                     4.21469  -0.50386  -0.44762 
 6                     5.10701   0.36984  -0.77911 
 6                     5.08645   1.22657  -2.03319 
 6                     6.50005   0.38293   0.00502 
 6                     7.54697  -0.24007  -0.88501 
 6                     8.9079   -0.10296  -0.13936 
 6                     10.17267  -0.57657  -0.89126 
 6                     10.10744  -2.0264   -1.27602 
 6                     11.41165  -0.2584   -0.05739 
 6                     12.82924  -0.54834  -0.67255 
 6                     13.95853   0.02664   0.10632 
 6                     15.34618  -0.15768  -0.4973 
 6                     15.74966  -1.58966  -0.97317 
 6                     16.45452   0.40938   0.32877 
 6                     17.84995   0.50174  -0.29463 
 6                     18.7623   1.31989   0.74355 
 6                     20.18353   1.37927   0.18852 
 6                     20.33583   2.12619  -1.10367 
 6                     21.18373   1.98768   1.23181 
 1                    -3.99933   3.64195   1.60859 
 1                    -10.03892   3.89297  -0.71608 
 1                    -10.0728  -2.40878  -1.31554 
 1                    -2.74181  -0.90946   2.05704 
 1                    -2.31055   1.64609   1.4625 
 1                    -1.96868   0.66748   3.62435 
 1                    -3.39994   2.06178   3.70572 
 1                    -3.6669    0.38621   3.86606 
 1                    -2.25953  -1.44178  -0.26825 
 1                    -2.37372   0.18149  -0.59943 
 1                    -0.3647    0.52973   0.8409 
 1                    -0.34515  -1.11373   1.28921 
 1                    -5.88937   6.74326   0.72898 
 1                    -5.39031   6.14917   2.3175 
 1                    -4.29114   5.47281   0.68726 
 1                    -9.50281   5.69164  -0.38567 
 1                    -9.15846   7.91849   0.57515 
 1                    -7.53221   7.41015   1.36772 
 1                    -12.08261   3.20821  -2.03 
 1                    -13.16383   1.92161  -1.69183 
 1                    -12.63802   3.17283  -0.18841 
 1                    -12.58357  -1.56863  -1.10404 
 1                    -13.36854   0.06189  -1.58521 
 1                    -13.21883  -1.6241   -3.28643 
 1                    -11.8571  -0.42626  -3.7745 
 1                    -11.61594  -2.09223  -3.13381 
 1                    -9.26588  -4.9183   -1.60717 
 1                    -8.02123  -5.82684  -0.69648 
 1                    -9.30012  -4.85842   0.04183 
 1                    -3.51418  -3.24448  -0.27872 
 1                    -1.89181  -4.25496   3.46447 
 1                    -2.90775  -5.83165   3.50945 
 1                    -1.32293  -6.01031   2.56489 
 1                     2.77701  -1.72537  -1.4888 
 1                     2.61335   0.24319  -1.86062 
 1                     4.38674  -0.9822    0.41044 
 1                     4.06072   1.17315  -2.41113 
 1                     5.54791   2.09206  -2.04097 
 1                     5.62537   0.87105  -2.75452 
 1                     6.57135   1.5578   -0.0631 
 1                     6.37198   0.10945   1.07225 
 1                     7.19915  -1.29924  -1.06239 
 1                     7.56391   0.39961  -1.67361 
 1                     9.21403   0.82186   0.18167 
 1                     8.985    -0.75232   0.87884 
 1                     10.21787  -0.17248  -1.92589 
 1                     9.1156   -2.31137  -1.72538 
 1                     10.91353  -2.50122  -2.02335 
 1                     10.03001  -2.72833  -0.34228 
 1                     11.2017   0.68766   0.40999 
 1                     11.4225  -0.88284   0.84473 
 1                     12.7176  -1.64736  -0.86992 
 1                     12.91316  -0.06448  -1.65732 
 1                     13.79694   1.0088    0.43524 
 1                     13.94903  -0.46258   1.26338 
 1                     15.52252   0.53573  -1.24515 
 1                     15.74043  -2.34366  -0.14741 
 1                     14.86055  -1.96544  -1.61383 
 1                     16.70639  -1.68238  -1.61464 
 1                     16.08292   1.28904   0.74931 
 1                     16.62918  -0.16555   1.11356 
 1                     18.33178  -0.53426  -0.24016 
 1                     17.93521   0.81121  -1.35479 
 1                     18.30742   2.33266   0.90171 
 1                     18.70931   0.82283   1.68944 
 1                     20.63191   0.25552   0.02733 
 1                     20.17714   3.21544  -0.88849 
 1                     21.39888   2.09719  -1.44274 
 1                     19.73668   1.89742  -1.91736 
 1                     21.03567   1.35435   2.25365 
 1                     22.22312   2.02414   1.03914 
 1                     21.0251   3.14134   1.36462 
 
 Stoichiometry    C55H72MgN4O5
 Framework group  C1[X(C55H72MgN4O5)]
 Deg. of freedom   405
 Full point group                 C1      NOp   1
 Largest Abelian subgroup         C1      NOp   1
 Largest concise Abelian subgroup C1      NOp   1
                         Standard orientation:                         
 ---------------------------------------------------------------------
 Center     Atomic      Atomic             Coordinates (Angstroms)
 Number     Number       Type             X           Y           Z
 ---------------------------------------------------------------------
      1         12           0       -7.069964    0.726938   -0.073240
      2          6           0       -4.908326   -1.962699    0.449992
      3          6           0       -4.771261    2.825409    1.136024
      4          6           0       -9.404772    3.167367   -0.441564
      5          6           0       -9.494808   -1.639614   -1.025614
      6          7           0       -5.146917    0.514343    0.685078
      7          6           0       -4.411325   -0.665390    0.791509
      8          6           0       -2.976563   -0.398585    1.232621
      9          6           0       -3.031701    1.007878    1.701718
     10          6           0       -4.321392    1.448309    1.157334
     11          6           0       -2.978456    1.098271    3.256925
     12          6           0       -1.979121   -0.614205    0.138342
     13          6           0       -0.579266   -0.420976    0.511858
     14          6           0        0.483390   -0.773831   -0.573562
     15          8           0        0.255891   -1.234105   -1.647502
     16          8           0        1.771850   -0.527472   -0.182822
     17          7           0       -7.147084    2.603714    0.250865
     18          6           0       -6.067453    3.290842    0.806786
     19          6           0       -6.309143    4.748349    0.819117
     20          6           0       -7.683209    4.842745    0.465746
     21          6           0       -8.147040    3.497943    0.003136
     22          6           0       -5.360673    5.877238    1.171457
     23          6           0       -8.527838    5.985761    0.162444
     24          6           0       -8.349322    7.165620    0.699810
     25          7           0       -9.082251    0.692689   -0.581564
     26          6           0       -9.820131    1.863654   -0.788569
     27          6           0      -11.119237    1.509669   -1.126499
     28          6           0      -11.165891    0.138618   -1.329365
     29          6           0       -9.854744   -0.300276   -0.974607
     30          6           0      -12.242431    2.445421   -1.290552
     31          6           0      -12.473589   -0.612841   -1.737909
     32          6           0      -12.345317   -1.174879   -3.180918
     33          7           0       -7.220944   -1.344837   -0.233915
     34          6           0       -8.242411   -2.189157   -0.733052
     35          6           0       -7.884848   -3.590312   -0.595341
     36          6           0       -6.591634   -3.534411   -0.089258
     37          6           0       -6.225050   -2.209272   -0.023881
     38          6           0       -8.732832   -4.818995   -0.729124
     39          6           0       -5.366426   -4.355349    0.221032
     40          8           0       -5.210129   -5.628892    0.314818
     41          6           0       -4.250131   -3.319200    0.578156
     42          6           0       -3.549340   -3.574445    1.871302
     43          8           0       -3.726281   -2.994305    2.945160
     44          8           0       -2.768744   -4.700699    1.766341
     45          6           0       -2.216802   -5.315561    2.954457
     46          6           0        2.886572   -0.726196   -1.148433
     47          6           0        4.214819   -0.506164   -0.447096
     48          6           0        5.107567    0.365910   -0.781688
     49          6           0        5.087626    1.217928   -2.038978
     50          6           0        6.500455    0.381356    0.002671
     51          6           0        7.547292   -0.245424   -0.884799
     52          6           0        8.908132   -0.106084   -0.139394
     53          6           0       10.172858   -0.583043   -0.889258
     54          6           0       10.107097   -2.034282   -1.268583
     55          6           0       11.411797   -0.262264   -0.056337
     56          6           0       12.829393   -0.555112   -0.670117
     57          6           0       13.958765    0.022318    0.106819
     58          6           0       15.346462   -0.164852   -0.495815
     59          6           0       15.749437   -1.598771   -0.966225
     60          6           0       16.454876    0.404844    0.328337
     61          6           0       17.850470    0.494283   -0.295116
     62          6           0       18.762949    1.315940    0.740162
     63          6           0       20.184320    1.372636    0.185199
     64          6           0       20.337189    2.114636   -1.109747
     65          6           0       21.184568    1.984544    1.226401
     66          1           0       -3.997874    3.650779    1.591855
     67          1           0      -10.036885    3.895603   -0.734960
     68          1           0      -10.073299   -2.408338   -1.310755
     69          1           0       -2.742358   -0.899440    2.057658
     70          1           0       -2.309908    1.653675    1.453608
     71          1           0       -1.968880    0.683049    3.619191
     72          1           0       -3.399567    2.078244    3.695029
     73          1           0       -3.667266    0.403409    3.861607
     74          1           0       -2.259834   -1.440697   -0.265525
     75          1           0       -2.373277    0.181366   -0.602815
     76          1           0       -0.364399    0.534178    0.836599
     77          1           0       -0.345631   -1.107599    1.291087
     78          1           0       -5.886436    6.749560    0.700224
     79          1           0       -5.387943    6.161228    2.291067
     80          1           0       -4.288733    5.478292    0.663598
     81          1           0       -9.500091    5.695277   -0.411204
     82          1           0       -9.155003    7.925575    0.541312
     83          1           0       -7.529122    7.419530    1.336114
     84          1           0      -12.080601    3.206768   -2.046716
     85          1           0      -13.162435    1.921902   -1.703941
     86          1           0      -12.636403    3.178544   -0.205119
     87          1           0      -12.583757   -1.566347   -1.102926
     88          1           0      -13.367943    0.062684   -1.590377
     89          1           0      -13.218597   -1.629746   -3.285217
     90          1           0      -11.856265   -0.434325   -3.777504
     91          1           0      -11.615934   -2.097976   -3.130517
     92          1           0       -9.267374   -4.919276   -1.592790
     93          1           0       -8.023285   -5.824911   -0.678445
     94          1           0       -9.301924   -4.853193    0.055965
     95          1           0       -3.515237   -3.242893   -0.269469
     96          1           0       -1.894049   -4.239982    3.477813
     97          1           0       -2.910655   -5.816071    3.528513
     98          1           0       -1.325726   -5.998942    2.584950
     99          1           0        2.776829   -1.730977   -1.483975
    100          1           0        2.614073    0.236243   -1.863217
    101          1           0        4.386493   -0.981350    0.412790
    102          1           0        4.061949    1.163522   -2.416927
    103          1           0        5.549450    2.083188   -2.049919
    104          1           0        5.626541    0.859473   -2.758862
    105          1           0        6.572261    1.555929   -0.069844
    106          1           0        6.372054    0.111945    1.070898
    107          1           0        7.199068   -1.305104   -1.058272
    108          1           0        7.564662    0.391284   -1.675792
    109          1           0        9.214585    0.819811    0.178222
    110          1           0        8.984757   -0.751649    0.881257
    111          1           0       10.218430   -0.182863   -1.925383
    112          1           0        9.115225   -2.320520   -1.717067
    113          1           0       10.913135   -2.512247   -2.013953
    114          1           0       10.029176   -2.732663   -0.332225
    115          1           0       11.202156    0.685629    0.407446
    116          1           0       11.422207   -0.883314    0.848129
    117          1           0       12.717330   -1.654815   -0.863374
    118          1           0       12.913712   -0.074986   -1.656676
    119          1           0       13.797525    1.005774    0.432016
    120          1           0       13.948832   -0.462548    1.265708
    121          1           0       15.523246    0.525672   -1.246229
    122          1           0       15.739720   -2.349666   -0.137644
    123          1           0       14.860294   -1.976585   -1.605653
    124          1           0       16.706254   -1.694303   -1.607147
    125          1           0       16.083560    1.286234    0.745497
    126          1           0       16.629131   -0.167207    1.115318
    127          1           0       18.331851   -0.541711   -0.236666
    128          1           0       17.936072    0.799729   -1.356419
    129          1           0       18.308466    2.329493    0.894429
    130          1           0       18.709560    0.822456    1.687906
    131          1           0       20.632262    0.248100    0.028325
    132          1           0       20.178922    3.204755   -0.898698
    133          1           0       21.400302    2.083917   -1.448497
    134          1           0       19.738113    1.883062   -1.922699
    135          1           0       21.036030    1.355120    2.250584
    136          1           0       22.224009    2.019847    1.033809
    137          1           0       21.026395    3.138761    1.354851
 ---------------------------------------------------------------------
 Rotational constants (GHZ):           0.0650270           0.0060875           0.0057344
 Standard basis: 6-31G(d,p) (6D, 7F)
 There are  1339 symmetry adapted cartesian basis functions of A   symmetry.
 There are  1339 symmetry adapted basis functions of A   symmetry.
  1339 basis functions,  2348 primitive gaussians,  1339 cartesian basis functions
   241 alpha electrons      241 beta electrons
       nuclear repulsion energy      8764.5295975084 Hartrees.
 NAtoms=  137 NActive=  137 NUniq=  137 SFac= 1.00D+00 NAtFMM=   60 NAOKFM=T Big=T
 Integral buffers will be    131072 words long.
 Raffenetti 1 integral format.
 Two-electron integral symmetry is turned on.
 One-electron integrals computed using PRISM.
 NBasis=  1339 RedAO= T EigKep=  3.37D-04  NBF=  1339
 NBsUse=  1339 1.00D-06 EigRej= -1.00D+00 NBFU=  1339
 ExpMin= 4.21D-02 ExpMax= 1.17D+04 ExpMxC= 1.76D+03 IAcc=3 IRadAn=         5 AccDes= 0.00D+00
 Harris functional with IExCor=20419 and IRadAn=       5 diagonalized for initial guess.
 HarFok:  IExCor=20419 AccDes= 0.00D+00 IRadAn=         5 IDoV= 1 UseB2=F ITyADJ=14
 ICtDFT=  3500011 ScaDFX=  1.000000  1.000000  1.000000  1.000000
 FoFCou: FMM=F IPFlag=           0 FMFlag=      100000 FMFlg1=        2001
         NFxFlg=           0 DoJE=T BraDBF=F KetDBF=T FulRan=T
         wScrn=  0.000000 ICntrl=       500 IOpCl=  0 I1Cent=   200000004 NGrid=           0
         NMat0=    1 NMatS0=      1 NMatT0=    0 NMatD0=    1 NMtDS0=    0 NMtDT0=    0
 Petite list used in FoFCou.
 Requested convergence on RMS density matrix=1.00D-08 within 128 cycles.
 Requested convergence on MAX density matrix=1.00D-06.
 Requested convergence on             energy=1.00D-06.
 No special actions if energy rises.
 SCF Done:  E(RCAM-B3LYP) =  -2933.47984544     A.U. after   16 cycles
            NFock= 16  Conv=0.73D-08     -V/T= 2.0087
 DoSCS=F DFT=T ScalE2(SS,OS)=  1.000000  1.000000
 ExpMin= 4.21D-02 ExpMax= 1.17D+04 ExpMxC= 1.76D+03 IAcc=3 IRadAn=         5 AccDes= 0.00D+00
 HarFok:  IExCor=  205 AccDes= 0.00D+00 IRadAn=         5 IDoV=-2 UseB2=F ITyADJ=14
 ICtDFT= 12500011 ScaDFX=  1.000000  1.000000  1.000000  1.000000
 GSVD:  LWork=       -5313 too small for GESVD, short by       24840 words or       24840 for optimal perf.
 Range of M.O.s used for correlation:    70  1339
 NBasis=  1339 NAE=   241 NBE=   241 NFC=    69 NFV=     0
 NROrb=   1270 NOA=   172 NOB=   172 NVA=  1098 NVB=  1098
 Orbital symmetries:
       Occupied  (A) (A) (A) (A) (A) (A) (A) (A) (A) (A) (A) (A)
                 (A) (A) (A) (A) (A) (A) (A) (A) (A) (A) (A) (A)
                 (A) (A) (A) (A) (A) (A) (A) (A) (A) (A) (A) (A)
                 (A) (A) (A) (A) (A) (A) (A) (A) (A) (A) (A) (A)
                 (A) (A) (A) (A) (A) (A) (A) (A) (A) (A) (A) (A)
                 (A) (A) (A) (A) (A) (A) (A) (A) (A) (A) (A) (A)
                 (A) (A) (A) (A) (A) (A) (A) (A) (A) (A) (A) (A)
                 (A) (A) (A) (A) (A) (A) (A) (A) (A) (A) (A) (A)
                 (A) (A) (A) (A) (A) (A) (A) (A) (A) (A) (A) (A)
                 (A) (A) (A) (A) (A) (A) (A) (A) (A) (A) (A) (A)
                 (A) (A) (A) (A) (A) (A) (A) (A) (A) (A) (A) (A)
                 (A) (A) (A) (A) (A) (A) (A) (A) (A) (A) (A) (A)
                 (A) (A) (A) (A) (A) (A) (A) (A) (A) (A) (A) (A)
                 (A) (A) (A) (A) (A) (A) (A) (A) (A) (A) (A) (A)
                 (A) (A) (A) (A) (A) (A) (A) (A) (A) (A) (A) (A)
                 (A) (A) (A) (A) (A) (A) (A) (A) (A) (A) (A) (A)
                 (A) (A) (A) (A) (A) (A) (A) (A) (A) (A) (A) (A)
                 (A) (A) (A) (A) (A) (A) (A) (A) (A) (A) (A) (A)
                 (A) (A) (A) (A) (A) (A) (A) (A) (A) (A) (A) (A)
                 (A) (A) (A) (A) (A) (A) (A) (A) (A) (A) (A) (A)
                 (A)
       Virtual   (A) (A) (A) (A) (A) (A) (A) (A) (A) (A) (A) (A)
                 (A) (A) (A) (A) (A) (A) (A) (A) (A) (A) (A) (A)
                 (A) (A) (A) (A) (A) (A) (A) (A) (A) (A) (A) (A)
                 (A) (A) (A) (A) (A) (A) (A) (A) (A) (A) (A) (A)
                 (A) (A) (A) (A) (A) (A) (A) (A) (A) (A) (A) (A)
                 (A) (A) (A) (A) (A) (A) (A) (A) (A) (A) (A) (A)
                 (A) (A) (A) (A) (A) (A) (A) (A) (A) (A) (A) (A)
                 (A) (A) (A) (A) (A) (A) (A) (A) (A) (A) (A) (A)
                 (A) (A) (A) (A) (A) (A) (A) (A) (A) (A) (A) (A)
                 (A) (A) (A) (A) (A) (A) (A) (A) (A) (A) (A) (A)
                 (A) (A) (A) (A) (A) (A) (A) (A) (A) (A) (A) (A)
                 (A) (A) (A) (A) (A) (A) (A) (A) (A) (A) (A) (A)
                 (A) (A) (A) (A) (A) (A) (A) (A) (A) (A) (A) (A)
                 (A) (A) (A) (A) (A) (A) (A) (A) (A) (A) (A) (A)
                 (A) (A) (A) (A) (A) (A) (A) (A) (A) (A) (A) (A)
                 (A) (A) (A) (A) (A) (A) (A) (A) (A) (A) (A) (A)
                 (A) (A) (A) (A) (A) (A) (A) (A) (A) (A) (A) (A)
                 (A) (A) (A) (A) (A) (A) (A) (A) (A) (A) (A) (A)
                 (A) (A) (A) (A) (A) (A) (A) (A) (A) (A) (A) (A)
                 (A) (A) (A) (A) (A) (A) (A) (A) (A) (A) (A) (A)
                 (A) (A) (A) (A) (A) (A) (A) (A) (A) (A) (A) (A)
                 (A) (A) (A) (A) (A) (A) (A) (A) (A) (A) (A) (A)
                 (A) (A) (A) (A) (A) (A) (A) (A) (A) (A) (A) (A)
                 (A) (A) (A) (A) (A) (A) (A) (A) (A) (A) (A) (A)
                 (A) (A) (A) (A) (A) (A) (A) (A) (A) (A) (A) (A)
                 (A) (A) (A) (A) (A) (A) (A) (A) (A) (A) (A) (A)
                 (A) (A) (A) (A) (A) (A) (A) (A) (A) (A) (A) (A)
                 (A) (A) (A) (A) (A) (A) (A) (A) (A) (A) (A) (A)
                 (A) (A) (A) (A) (A) (A) (A) (A) (A) (A) (A) (A)
                 (A) (A) (A) (A) (A) (A) (A) (A) (A) (A) (A) (A)
                 (A) (A) (A) (A) (A) (A) (A) (A) (A) (A) (A) (A)
                 (A) (A) (A) (A) (A) (A) (A) (A) (A) (A) (A) (A)
                 (A) (A) (A) (A) (A) (A) (A) (A) (A) (A) (A) (A)
                 (A) (A) (A) (A) (A) (A) (A) (A) (A) (A) (A) (A)
                 (A) (A) (A) (A) (A) (A) (A) (A) (A) (A) (A) (A)
                 (A) (A) (A) (A) (A) (A) (A) (A) (A) (A) (A) (A)
                 (A) (A) (A) (A) (A) (A) (A) (A) (A) (A) (A) (A)
                 (A) (A) (A) (A) (A) (A) (A) (A) (A) (A) (A) (A)
                 (A) (A) (A) (A) (A) (A) (A) (A) (A) (A) (A) (A)
                 (A) (A) (A) (A) (A) (A) (A) (A) (A) (A) (A) (A)
                 (A) (A) (A) (A) (A) (A) (A) (A) (A) (A) (A) (A)
                 (A) (A) (A) (A) (A) (A) (A) (A) (A) (A) (A) (A)
                 (A) (A) (A) (A) (A) (A) (A) (A) (A) (A) (A) (A)
                 (A) (A) (A) (A) (A) (A) (A) (A) (A) (A) (A) (A)
                 (A) (A) (A) (A) (A) (A) (A) (A) (A) (A) (A) (A)
                 (A) (A) (A) (A) (A) (A) (A) (A) (A) (A) (A) (A)
                 (A) (A) (A) (A) (A) (A) (A) (A) (A) (A) (A) (A)
                 (A) (A) (A) (A) (A) (A) (A) (A) (A) (A) (A) (A)
                 (A) (A) (A) (A) (A) (A) (A) (A) (A) (A) (A) (A)
                 (A) (A) (A) (A) (A) (A) (A) (A) (A) (A) (A) (A)
                 (A) (A) (A) (A) (A) (A) (A) (A) (A) (A) (A) (A)
                 (A) (A) (A) (A) (A) (A) (A) (A) (A) (A) (A) (A)
                 (A) (A) (A) (A) (A) (A) (A) (A) (A) (A) (A) (A)
                 (A) (A) (A) (A) (A) (A) (A) (A) (A) (A) (A) (A)
                 (A) (A) (A) (A) (A) (A) (A) (A) (A) (A) (A) (A)
                 (A) (A) (A) (A) (A) (A) (A) (A) (A) (A) (A) (A)
                 (A) (A) (A) (A) (A) (A) (A) (A) (A) (A) (A) (A)
                 (A) (A) (A) (A) (A) (A) (A) (A) (A) (A) (A) (A)
                 (A) (A) (A) (A) (A) (A) (A) (A) (A) (A) (A) (A)
                 (A) (A) (A) (A) (A) (A) (A) (A) (A) (A) (A) (A)
                 (A) (A) (A) (A) (A) (A) (A) (A) (A) (A) (A) (A)
                 (A) (A) (A) (A) (A) (A) (A) (A) (A) (A) (A) (A)
                 (A) (A) (A) (A) (A) (A) (A) (A) (A) (A) (A) (A)
                 (A) (A) (A) (A) (A) (A) (A) (A) (A) (A) (A) (A)
                 (A) (A) (A) (A) (A) (A) (A) (A) (A) (A) (A) (A)
                 (A) (A) (A) (A) (A) (A) (A) (A) (A) (A) (A) (A)
                 (A) (A) (A) (A) (A) (A) (A) (A) (A) (A) (A) (A)
                 (A) (A) (A) (A) (A) (A) (A) (A) (A) (A) (A) (A)
                 (A) (A) (A) (A) (A) (A) (A) (A) (A) (A) (A) (A)
                 (A) (A) (A) (A) (A) (A) (A) (A) (A) (A) (A) (A)
                 (A) (A) (A) (A) (A) (A) (A) (A) (A) (A) (A) (A)
                 (A) (A) (A) (A) (A) (A) (A) (A) (A) (A) (A) (A)
                 (A) (A) (A) (A) (A) (A) (A) (A) (A) (A) (A) (A)
                 (A) (A) (A) (A) (A) (A) (A) (A) (A) (A) (A) (A)
                 (A) (A) (A) (A) (A) (A) (A) (A) (A) (A) (A) (A)
                 (A) (A) (A) (A) (A) (A) (A) (A) (A) (A) (A) (A)
                 (A) (A) (A) (A) (A) (A) (A) (A) (A) (A) (A) (A)
                 (A) (A) (A) (A) (A) (A) (A) (A) (A) (A) (A) (A)
                 (A) (A) (A) (A) (A) (A) (A) (A) (A) (A) (A) (A)
                 (A) (A) (A) (A) (A) (A) (A) (A) (A) (A) (A) (A)
                 (A) (A) (A) (A) (A) (A) (A) (A) (A) (A) (A) (A)
                 (A) (A) (A) (A) (A) (A) (A) (A) (A) (A) (A) (A)
                 (A) (A) (A) (A) (A) (A) (A) (A) (A) (A) (A) (A)
                 (A) (A) (A) (A) (A) (A) (A) (A) (A) (A) (A) (A)
                 (A) (A) (A) (A) (A) (A) (A) (A) (A) (A) (A) (A)
                 (A) (A) (A) (A) (A) (A) (A) (A) (A) (A) (A) (A)
                 (A) (A) (A) (A) (A) (A) (A) (A) (A) (A) (A) (A)
                 (A) (A) (A) (A) (A) (A) (A) (A) (A) (A) (A) (A)
                 (A) (A) (A) (A) (A) (A) (A) (A) (A) (A) (A) (A)
                 (A) (A) (A) (A) (A) (A) (A) (A) (A) (A) (A) (A)
                 (A) (A) (A) (A) (A) (A) (A) (A) (A) (A) (A) (A)
                 (A) (A) (A) (A) (A) (A)
     4 initial guesses have been made.
 Convergence on wavefunction:    0.001000000000000
 Iteration     1 Dimension     4 NMult     0 NNew      4
 CISAX will form     4 AO SS matrices at one time.
 Iteration     2 Dimension     6 NMult     4 NNew      2
 Iteration     3 Dimension     8 NMult     6 NNew      2
 Iteration     4 Dimension    10 NMult     8 NNew      2
 Iteration     5 Dimension    12 NMult    10 NNew      2
 Iteration     6 Dimension    14 NMult    12 NNew      2
 Iteration     7 Dimension    16 NMult    14 NNew      2
 Iteration     8 Dimension    18 NMult    16 NNew      2
 Iteration     9 Dimension    20 NMult    18 NNew      2
 ***********************************************************************
 Excited states from <AA,BB:AA,BB> singles matrix:
 ***********************************************************************
 
 Ground to excited state transition densities written to RWF  633
 Ground to excited state transition electric dipole moments (Au):
       state          X           Y           Z        Dip. S.      Osc.
         1         0.0757      1.9329      0.2386      3.7986      0.1944
 Ground to excited state transition velocity dipole moments (Au):
       state          X           Y           Z        Dip. S.      Osc.
         1        -0.0064     -0.1429     -0.0192      0.0208      0.1810
 Ground to excited state transition magnetic dipole moments (Au):
       state          X           Y           Z
         1        -0.5449     -0.4364      3.4396
 Ground to excited state transition velocity quadrupole moments (Au):
       state          XX          YY          ZZ          XY          XZ          YZ
         1         0.1528     -0.1331     -0.0546      1.7662      0.1959     -0.1349
 <0|del|b> * <b|rxdel|0> + <0|del|b> * <b|delr+rdel|0>
 Rotatory Strengths (R) in cgs (10**-40 erg-esu-cm/Gauss)
       state          XX          YY          ZZ    R(velocity)    E-M Angle
         1       -44.6627   -127.9728    170.5347     -0.7003       90.03
 1/2[<0|r|b>*<b|rxdel|0> + (<0|rxdel|b>*<b|r|0>)*]
 Rotatory Strengths (R) in cgs (10**-40 erg-esu-cm/Gauss)
       state          XX          YY          ZZ     R(length)
         1        29.1756    596.5131   -580.2637     15.1416
  1/2[<0|del|b>*<b|r|0> + (<0|r|b>*<b|del|0>)*] (Au)
       state          X           Y           Z        Dip. S.   Osc.(frdel)
         1        -0.0005     -0.2763     -0.0046      0.2813      0.1876

 Excitation energies and oscillator strengths:
 
 Excited State   1:      Singlet-A      2.0889 eV  593.54 nm  f=0.1944  <S**2>=0.000
     240 -> 243        0.26317
     241 -> 242        0.64977
 This state for optimization and/or second-order correction.
 Total Energy, E(TD-HF/TD-DFT) =  -2933.40308014    
 Copying the excited state density for this state as the 1-particle RhoCI density.
 SavETr:  write IOETrn=   770 NScale= 10 NData=  16 NLR=1 NState=    1 LETran=      28.
 Hyperfine terms turned off by default for NAtoms > 100.

 **********************************************************************

            Population analysis using the SCF density.

 **********************************************************************

 Orbital symmetries:
       Occupied  (A) (A) (A) (A) (A) (A) (A) (A) (A) (A) (A) (A)
                 (A) (A) (A) (A) (A) (A) (A) (A) (A) (A) (A) (A)
                 (A) (A) (A) (A) (A) (A) (A) (A) (A) (A) (A) (A)
                 (A) (A) (A) (A) (A) (A) (A) (A) (A) (A) (A) (A)
                 (A) (A) (A) (A) (A) (A) (A) (A) (A) (A) (A) (A)
                 (A) (A) (A) (A) (A) (A) (A) (A) (A) (A) (A) (A)
                 (A) (A) (A) (A) (A) (A) (A) (A) (A) (A) (A) (A)
                 (A) (A) (A) (A) (A) (A) (A) (A) (A) (A) (A) (A)
                 (A) (A) (A) (A) (A) (A) (A) (A) (A) (A) (A) (A)
                 (A) (A) (A) (A) (A) (A) (A) (A) (A) (A) (A) (A)
                 (A) (A) (A) (A) (A) (A) (A) (A) (A) (A) (A) (A)
                 (A) (A) (A) (A) (A) (A) (A) (A) (A) (A) (A) (A)
                 (A) (A) (A) (A) (A) (A) (A) (A) (A) (A) (A) (A)
                 (A) (A) (A) (A) (A) (A) (A) (A) (A) (A) (A) (A)
                 (A) (A) (A) (A) (A) (A) (A) (A) (A) (A) (A) (A)
                 (A) (A) (A) (A) (A) (A) (A) (A) (A) (A) (A) (A)
                 (A) (A) (A) (A) (A) (A) (A) (A) (A) (A) (A) (A)
                 (A) (A) (A) (A) (A) (A) (A) (A) (A) (A) (A) (A)
                 (A) (A) (A) (A) (A) (A) (A) (A) (A) (A) (A) (A)
                 (A) (A) (A) (A) (A) (A) (A) (A) (A) (A) (A) (A)
                 (A)
       Virtual   (A) (A) (A) (A) (A) (A) (A) (A) (A) (A) (A) (A)
                 (A) (A) (A) (A) (A) (A) (A) (A) (A) (A) (A) (A)
                 (A) (A) (A) (A) (A) (A) (A) (A) (A) (A) (A) (A)
                 (A) (A) (A) (A) (A) (A) (A) (A) (A) (A) (A) (A)
                 (A) (A) (A) (A) (A) (A) (A) (A) (A) (A) (A) (A)
                 (A) (A) (A) (A) (A) (A) (A) (A) (A) (A) (A) (A)
                 (A) (A) (A) (A) (A) (A) (A) (A) (A) (A) (A) (A)
                 (A) (A) (A) (A) (A) (A) (A) (A) (A) (A) (A) (A)
                 (A) (A) (A) (A) (A) (A) (A) (A) (A) (A) (A) (A)
                 (A) (A) (A) (A) (A) (A) (A) (A) (A) (A) (A) (A)
                 (A) (A) (A) (A) (A) (A) (A) (A) (A) (A) (A) (A)
                 (A) (A) (A) (A) (A) (A) (A) (A) (A) (A) (A) (A)
                 (A) (A) (A) (A) (A) (A) (A) (A) (A) (A) (A) (A)
                 (A) (A) (A) (A) (A) (A) (A) (A) (A) (A) (A) (A)
                 (A) (A) (A) (A) (A) (A) (A) (A) (A) (A) (A) (A)
                 (A) (A) (A) (A) (A) (A) (A) (A) (A) (A) (A) (A)
                 (A) (A) (A) (A) (A) (A) (A) (A) (A) (A) (A) (A)
                 (A) (A) (A) (A) (A) (A) (A) (A) (A) (A) (A) (A)
                 (A) (A) (A) (A) (A) (A) (A) (A) (A) (A) (A) (A)
                 (A) (A) (A) (A) (A) (A) (A) (A) (A) (A) (A) (A)
                 (A) (A) (A) (A) (A) (A) (A) (A) (A) (A) (A) (A)
                 (A) (A) (A) (A) (A) (A) (A) (A) (A) (A) (A) (A)
                 (A) (A) (A) (A) (A) (A) (A) (A) (A) (A) (A) (A)
                 (A) (A) (A) (A) (A) (A) (A) (A) (A) (A) (A) (A)
                 (A) (A) (A) (A) (A) (A) (A) (A) (A) (A) (A) (A)
                 (A) (A) (A) (A) (A) (A) (A) (A) (A) (A) (A) (A)
                 (A) (A) (A) (A) (A) (A) (A) (A) (A) (A) (A) (A)
                 (A) (A) (A) (A) (A) (A) (A) (A) (A) (A) (A) (A)
                 (A) (A) (A) (A) (A) (A) (A) (A) (A) (A) (A) (A)
                 (A) (A) (A) (A) (A) (A) (A) (A) (A) (A) (A) (A)
                 (A) (A) (A) (A) (A) (A) (A) (A) (A) (A) (A) (A)
                 (A) (A) (A) (A) (A) (A) (A) (A) (A) (A) (A) (A)
                 (A) (A) (A) (A) (A) (A) (A) (A) (A) (A) (A) (A)
                 (A) (A) (A) (A) (A) (A) (A) (A) (A) (A) (A) (A)
                 (A) (A) (A) (A) (A) (A) (A) (A) (A) (A) (A) (A)
                 (A) (A) (A) (A) (A) (A) (A) (A) (A) (A) (A) (A)
                 (A) (A) (A) (A) (A) (A) (A) (A) (A) (A) (A) (A)
                 (A) (A) (A) (A) (A) (A) (A) (A) (A) (A) (A) (A)
                 (A) (A) (A) (A) (A) (A) (A) (A) (A) (A) (A) (A)
                 (A) (A) (A) (A) (A) (A) (A) (A) (A) (A) (A) (A)
                 (A) (A) (A) (A) (A) (A) (A) (A) (A) (A) (A) (A)
                 (A) (A) (A) (A) (A) (A) (A) (A) (A) (A) (A) (A)
                 (A) (A) (A) (A) (A) (A) (A) (A) (A) (A) (A) (A)
                 (A) (A) (A) (A) (A) (A) (A) (A) (A) (A) (A) (A)
                 (A) (A) (A) (A) (A) (A) (A) (A) (A) (A) (A) (A)
                 (A) (A) (A) (A) (A) (A) (A) (A) (A) (A) (A) (A)
                 (A) (A) (A) (A) (A) (A) (A) (A) (A) (A) (A) (A)
                 (A) (A) (A) (A) (A) (A) (A) (A) (A) (A) (A) (A)
                 (A) (A) (A) (A) (A) (A) (A) (A) (A) (A) (A) (A)
                 (A) (A) (A) (A) (A) (A) (A) (A) (A) (A) (A) (A)
                 (A) (A) (A) (A) (A) (A) (A) (A) (A) (A) (A) (A)
                 (A) (A) (A) (A) (A) (A) (A) (A) (A) (A) (A) (A)
                 (A) (A) (A) (A) (A) (A) (A) (A) (A) (A) (A) (A)
                 (A) (A) (A) (A) (A) (A) (A) (A) (A) (A) (A) (A)
                 (A) (A) (A) (A) (A) (A) (A) (A) (A) (A) (A) (A)
                 (A) (A) (A) (A) (A) (A) (A) (A) (A) (A) (A) (A)
                 (A) (A) (A) (A) (A) (A) (A) (A) (A) (A) (A) (A)
                 (A) (A) (A) (A) (A) (A) (A) (A) (A) (A) (A) (A)
                 (A) (A) (A) (A) (A) (A) (A) (A) (A) (A) (A) (A)
                 (A) (A) (A) (A) (A) (A) (A) (A) (A) (A) (A) (A)
                 (A) (A) (A) (A) (A) (A) (A) (A) (A) (A) (A) (A)
                 (A) (A) (A) (A) (A) (A) (A) (A) (A) (A) (A) (A)
                 (A) (A) (A) (A) (A) (A) (A) (A) (A) (A) (A) (A)
                 (A) (A) (A) (A) (A) (A) (A) (A) (A) (A) (A) (A)
                 (A) (A) (A) (A) (A) (A) (A) (A) (A) (A) (A) (A)
                 (A) (A) (A) (A) (A) (A) (A) (A) (A) (A) (A) (A)
                 (A) (A) (A) (A) (A) (A) (A) (A) (A) (A) (A) (A)
                 (A) (A) (A) (A) (A) (A) (A) (A) (A) (A) (A) (A)
                 (A) (A) (A) (A) (A) (A) (A) (A) (A) (A) (A) (A)
                 (A) (A) (A) (A) (A) (A) (A) (A) (A) (A) (A) (A)
                 (A) (A) (A) (A) (A) (A) (A) (A) (A) (A) (A) (A)
                 (A) (A) (A) (A) (A) (A) (A) (A) (A) (A) (A) (A)
                 (A) (A) (A) (A) (A) (A) (A) (A) (A) (A) (A) (A)
                 (A) (A) (A) (A) (A) (A) (A) (A) (A) (A) (A) (A)
                 (A) (A) (A) (A) (A) (A) (A) (A) (A) (A) (A) (A)
                 (A) (A) (A) (A) (A) (A) (A) (A) (A) (A) (A) (A)
                 (A) (A) (A) (A) (A) (A) (A) (A) (A) (A) (A) (A)
                 (A) (A) (A) (A) (A) (A) (A) (A) (A) (A) (A) (A)
                 (A) (A) (A) (A) (A) (A) (A) (A) (A) (A) (A) (A)
                 (A) (A) (A) (A) (A) (A) (A) (A) (A) (A) (A) (A)
                 (A) (A) (A) (A) (A) (A) (A) (A) (A) (A) (A) (A)
                 (A) (A) (A) (A) (A) (A) (A) (A) (A) (A) (A) (A)
                 (A) (A) (A) (A) (A) (A) (A) (A) (A) (A) (A) (A)
                 (A) (A) (A) (A) (A) (A) (A) (A) (A) (A) (A) (A)
                 (A) (A) (A) (A) (A) (A) (A) (A) (A) (A) (A) (A)
                 (A) (A) (A) (A) (A) (A) (A) (A) (A) (A) (A) (A)
                 (A) (A) (A) (A) (A) (A) (A) (A) (A) (A) (A) (A)
                 (A) (A) (A) (A) (A) (A) (A) (A) (A) (A) (A) (A)
                 (A) (A) (A) (A) (A) (A) (A) (A) (A) (A) (A) (A)
                 (A) (A) (A) (A) (A) (A) (A) (A) (A) (A) (A) (A)
                 (A) (A) (A) (A) (A) (A) (A) (A) (A) (A) (A) (A)
                 (A) (A) (A) (A) (A) (A)
 The electronic state is 1-A.
 Alpha  occ. eigenvalues --  -46.79113 -19.21147 -19.20251 -19.17066 -19.16179
 Alpha  occ. eigenvalues --  -19.16049 -14.38387 -14.35256 -14.34773 -14.34219
 Alpha  occ. eigenvalues --  -10.35032 -10.34033 -10.31501 -10.28647 -10.27910
 Alpha  occ. eigenvalues --  -10.26838 -10.26642 -10.26222 -10.24959 -10.24898
 Alpha  occ. eigenvalues --  -10.24595 -10.24347 -10.23980 -10.23697 -10.23645
 Alpha  occ. eigenvalues --  -10.23513 -10.23367 -10.23306 -10.23176 -10.23105
 Alpha  occ. eigenvalues --  -10.23065 -10.22946 -10.22890 -10.22866 -10.22845
 Alpha  occ. eigenvalues --  -10.22810 -10.22791 -10.22739 -10.22255 -10.22110
 Alpha  occ. eigenvalues --  -10.21820 -10.21820 -10.21816 -10.21613 -10.21517
 Alpha  occ. eigenvalues --  -10.21473 -10.21449 -10.21365 -10.21317 -10.21302
 Alpha  occ. eigenvalues --  -10.21298 -10.21293 -10.21235 -10.21144 -10.21077
 Alpha  occ. eigenvalues --  -10.21009 -10.20944 -10.20629 -10.20488 -10.20434
 Alpha  occ. eigenvalues --  -10.20390 -10.20178 -10.19675 -10.19453 -10.18055
 Alpha  occ. eigenvalues --   -3.07981  -1.82893  -1.82453  -1.82414  -1.11828
 Alpha  occ. eigenvalues --   -1.11537  -1.03374  -1.03318  -1.02192  -1.00432
 Alpha  occ. eigenvalues --   -0.98972  -0.98189  -0.97233  -0.87867  -0.87338
 Alpha  occ. eigenvalues --   -0.86817  -0.85878  -0.84763  -0.84085  -0.83879
 Alpha  occ. eigenvalues --   -0.83134  -0.83056  -0.82676  -0.82410  -0.81594
 Alpha  occ. eigenvalues --   -0.80789  -0.79375  -0.78976  -0.78618  -0.77899
 Alpha  occ. eigenvalues --   -0.77205  -0.76584  -0.75573  -0.75196  -0.74471
 Alpha  occ. eigenvalues --   -0.73077  -0.72251  -0.71833  -0.71287  -0.70664
 Alpha  occ. eigenvalues --   -0.70399  -0.70299  -0.69886  -0.69316  -0.68162
 Alpha  occ. eigenvalues --   -0.67913  -0.66899  -0.65159  -0.64605  -0.63924
 Alpha  occ. eigenvalues --   -0.62992  -0.62416  -0.61864  -0.60985  -0.60599
 Alpha  occ. eigenvalues --   -0.60117  -0.59486  -0.58614  -0.58221  -0.57658
 Alpha  occ. eigenvalues --   -0.57631  -0.57230  -0.56867  -0.55934  -0.55395
 Alpha  occ. eigenvalues --   -0.54594  -0.54369  -0.53625  -0.53431  -0.53351
 Alpha  occ. eigenvalues --   -0.52746  -0.52442  -0.51915  -0.51190  -0.50693
 Alpha  occ. eigenvalues --   -0.50576  -0.50364  -0.50024  -0.49591  -0.49281
 Alpha  occ. eigenvalues --   -0.48890  -0.48582  -0.48406  -0.48180  -0.48123
 Alpha  occ. eigenvalues --   -0.47983  -0.47915  -0.47558  -0.47243  -0.47111
 Alpha  occ. eigenvalues --   -0.46742  -0.46635  -0.46432  -0.46047  -0.45912
 Alpha  occ. eigenvalues --   -0.45709  -0.45343  -0.45225  -0.45126  -0.44832
 Alpha  occ. eigenvalues --   -0.44572  -0.44490  -0.44231  -0.44060  -0.43929
 Alpha  occ. eigenvalues --   -0.43837  -0.43607  -0.43248  -0.43201  -0.43069
 Alpha  occ. eigenvalues --   -0.43002  -0.42722  -0.42338  -0.41970  -0.41642
 Alpha  occ. eigenvalues --   -0.41223  -0.41139  -0.40760  -0.40655  -0.40297
 Alpha  occ. eigenvalues --   -0.40095  -0.39998  -0.39884  -0.39829  -0.39659
 Alpha  occ. eigenvalues --   -0.39448  -0.39281  -0.38985  -0.38887  -0.38724
 Alpha  occ. eigenvalues --   -0.38537  -0.38460  -0.38326  -0.38183  -0.37815
 Alpha  occ. eigenvalues --   -0.37680  -0.37623  -0.37240  -0.37208  -0.36944
 Alpha  occ. eigenvalues --   -0.36521  -0.36456  -0.36318  -0.35891  -0.35883
 Alpha  occ. eigenvalues --   -0.35776  -0.35564  -0.35346  -0.35293  -0.35211
 Alpha  occ. eigenvalues --   -0.34944  -0.34516  -0.34126  -0.34013  -0.33742
 Alpha  occ. eigenvalues --   -0.33501  -0.33242  -0.33151  -0.32922  -0.32330
 Alpha  occ. eigenvalues --   -0.32064  -0.31845  -0.31595  -0.30893  -0.30751
 Alpha  occ. eigenvalues --   -0.30508  -0.29869  -0.29742  -0.28298  -0.28136
 Alpha  occ. eigenvalues --   -0.26950  -0.26823  -0.25331  -0.24782  -0.21439
 Alpha  occ. eigenvalues --   -0.20110
 Alpha virt. eigenvalues --   -0.06799  -0.04151  -0.00824   0.01945   0.03118
 Alpha virt. eigenvalues --    0.04007   0.05060   0.05203   0.05286   0.05781
 Alpha virt. eigenvalues --    0.06835   0.08797   0.09146   0.09528   0.09644
 Alpha virt. eigenvalues --    0.09888   0.10528   0.10711   0.10799   0.11048
 Alpha virt. eigenvalues --    0.11315   0.11533   0.11696   0.11828   0.12454
 Alpha virt. eigenvalues --    0.12491   0.12577   0.13086   0.13302   0.13350
 Alpha virt. eigenvalues --    0.13548   0.13618   0.13939   0.14127   0.14321
 Alpha virt. eigenvalues --    0.14684   0.14832   0.14872   0.15210   0.15282
 Alpha virt. eigenvalues --    0.16044   0.16096   0.16158   0.16388   0.16496
 Alpha virt. eigenvalues --    0.16813   0.16889   0.17047   0.17191   0.17298
 Alpha virt. eigenvalues --    0.17410   0.17794   0.17919   0.18013   0.18116
 Alpha virt. eigenvalues --    0.18282   0.18427   0.18617   0.18694   0.18797
 Alpha virt. eigenvalues --    0.18883   0.19153   0.19191   0.19378   0.19591
 Alpha virt. eigenvalues --    0.19602   0.20090   0.20336   0.20393   0.20471
 Alpha virt. eigenvalues --    0.20638   0.20680   0.20827   0.21066   0.21257
 Alpha virt. eigenvalues --    0.21660   0.21714   0.21936   0.22152   0.22209
 Alpha virt. eigenvalues --    0.22376   0.22580   0.22977   0.23166   0.23533
 Alpha virt. eigenvalues --    0.23631   0.23910   0.23980   0.24004   0.24321
 Alpha virt. eigenvalues --    0.24489   0.24719   0.24917   0.25224   0.25273
 Alpha virt. eigenvalues --    0.25448   0.25561   0.25836   0.25890   0.26376
 Alpha virt. eigenvalues --    0.26664   0.26778   0.26862   0.27019   0.27153
 Alpha virt. eigenvalues --    0.27391   0.27624   0.27990   0.28226   0.28485
 Alpha virt. eigenvalues --    0.28696   0.28749   0.28811   0.29720   0.29910
 Alpha virt. eigenvalues --    0.30034   0.30084   0.30299   0.30516   0.31049
 Alpha virt. eigenvalues --    0.31103   0.31313   0.31416   0.31850   0.31994
 Alpha virt. eigenvalues --    0.32691   0.32908   0.33296   0.33304   0.33825
 Alpha virt. eigenvalues --    0.34562   0.34707   0.35039   0.35605   0.35874
 Alpha virt. eigenvalues --    0.36281   0.36660   0.37205   0.37633   0.38528
 Alpha virt. eigenvalues --    0.38710   0.38847   0.39552   0.39886   0.40114
 Alpha virt. eigenvalues --    0.41009   0.41222   0.41825   0.42105   0.42695
 Alpha virt. eigenvalues --    0.42981   0.43803   0.44882   0.45574   0.46844
 Alpha virt. eigenvalues --    0.47791   0.48015   0.49019   0.49161   0.49636
 Alpha virt. eigenvalues --    0.50593   0.50636   0.50739   0.51351   0.51716
 Alpha virt. eigenvalues --    0.51886   0.52033   0.52178   0.52383   0.52693
 Alpha virt. eigenvalues --    0.52932   0.53372   0.53441   0.53758   0.54094
 Alpha virt. eigenvalues --    0.54119   0.54450   0.54696   0.54789   0.55250
 Alpha virt. eigenvalues --    0.55265   0.55505   0.55810   0.56007   0.56285
 Alpha virt. eigenvalues --    0.56318   0.56591   0.56849   0.57100   0.57192
 Alpha virt. eigenvalues --    0.57415   0.57650   0.58218   0.58398   0.58578
 Alpha virt. eigenvalues --    0.58768   0.59001   0.59213   0.59516   0.59876
 Alpha virt. eigenvalues --    0.60232   0.60394   0.60711   0.60927   0.60983
 Alpha virt. eigenvalues --    0.61245   0.61485   0.61846   0.61933   0.62315
 Alpha virt. eigenvalues --    0.62535   0.62810   0.63032   0.63330   0.63581
 Alpha virt. eigenvalues --    0.63906   0.64153   0.64325   0.64473   0.65066
 Alpha virt. eigenvalues --    0.65144   0.65384   0.65416   0.65588   0.65869
 Alpha virt. eigenvalues --    0.66321   0.66500   0.66920   0.67056   0.67262
 Alpha virt. eigenvalues --    0.67726   0.68048   0.68151   0.68327   0.68722
 Alpha virt. eigenvalues --    0.69044   0.69158   0.69551   0.69847   0.70073
 Alpha virt. eigenvalues --    0.70431   0.70449   0.70636   0.70997   0.71477
 Alpha virt. eigenvalues --    0.71676   0.71838   0.72041   0.72317   0.72431
 Alpha virt. eigenvalues --    0.72616   0.72858   0.73015   0.73270   0.73656
 Alpha virt. eigenvalues --    0.74060   0.74237   0.74352   0.74971   0.75078
 Alpha virt. eigenvalues --    0.75165   0.75279   0.75591   0.75707   0.76111
 Alpha virt. eigenvalues --    0.76405   0.77070   0.77224   0.77506   0.77890
 Alpha virt. eigenvalues --    0.78122   0.78253   0.78530   0.78839   0.79074
 Alpha virt. eigenvalues --    0.79422   0.79468   0.79999   0.80134   0.80227
 Alpha virt. eigenvalues --    0.80290   0.80658   0.80895   0.81022   0.81251
 Alpha virt. eigenvalues --    0.81350   0.81628   0.81704   0.81850   0.82037
 Alpha virt. eigenvalues --    0.82151   0.82574   0.82819   0.83108   0.83433
 Alpha virt. eigenvalues --    0.83799   0.83851   0.84071   0.84466   0.84589
 Alpha virt. eigenvalues --    0.84670   0.84837   0.84996   0.85235   0.85506
 Alpha virt. eigenvalues --    0.85929   0.85985   0.86199   0.86680   0.86972
 Alpha virt. eigenvalues --    0.87191   0.87428   0.87579   0.87616   0.88020
 Alpha virt. eigenvalues --    0.88053   0.88154   0.88322   0.88532   0.88672
 Alpha virt. eigenvalues --    0.88888   0.88941   0.89223   0.89575   0.89718
 Alpha virt. eigenvalues --    0.89881   0.90127   0.90588   0.90750   0.90911
 Alpha virt. eigenvalues --    0.91088   0.91258   0.91504   0.91662   0.92228
 Alpha virt. eigenvalues --    0.92315   0.92368   0.92804   0.93226   0.93435
 Alpha virt. eigenvalues --    0.93522   0.93679   0.93998   0.94170   0.94363
 Alpha virt. eigenvalues --    0.94381   0.94554   0.94831   0.95172   0.95387
 Alpha virt. eigenvalues --    0.95428   0.95592   0.95607   0.95891   0.95955
 Alpha virt. eigenvalues --    0.96210   0.96450   0.96866   0.96926   0.97046
 Alpha virt. eigenvalues --    0.97272   0.97618   0.97756   0.97893   0.98201
 Alpha virt. eigenvalues --    0.98330   0.98626   0.98969   0.99163   0.99221
 Alpha virt. eigenvalues --    0.99287   0.99450   0.99813   1.00156   1.00371
 Alpha virt. eigenvalues --    1.00656   1.00837   1.01092   1.01344   1.01654
 Alpha virt. eigenvalues --    1.01751   1.01942   1.02432   1.02708   1.03094
 Alpha virt. eigenvalues --    1.03204   1.03518   1.03809   1.04094   1.04625
 Alpha virt. eigenvalues --    1.04835   1.05017   1.05767   1.06505   1.06626
 Alpha virt. eigenvalues --    1.06691   1.07060   1.07399   1.07653   1.07982
 Alpha virt. eigenvalues --    1.08396   1.09117   1.09271   1.09492   1.10218
 Alpha virt. eigenvalues --    1.10564   1.10940   1.11680   1.11934   1.12076
 Alpha virt. eigenvalues --    1.12758   1.13431   1.13978   1.14510   1.14787
 Alpha virt. eigenvalues --    1.15441   1.15675   1.15867   1.16196   1.17148
 Alpha virt. eigenvalues --    1.17748   1.18222   1.18857   1.19144   1.19477
 Alpha virt. eigenvalues --    1.20005   1.20324   1.20851   1.21216   1.21550
 Alpha virt. eigenvalues --    1.22064   1.22521   1.22736   1.23583   1.24463
 Alpha virt. eigenvalues --    1.24616   1.25026   1.25879   1.26183   1.26498
 Alpha virt. eigenvalues --    1.27903   1.28517   1.28680   1.30025   1.30231
 Alpha virt. eigenvalues --    1.30752   1.31003   1.31708   1.32139   1.32731
 Alpha virt. eigenvalues --    1.33291   1.33399   1.33984   1.34387   1.34728
 Alpha virt. eigenvalues --    1.35153   1.35595   1.36523   1.36877   1.37031
 Alpha virt. eigenvalues --    1.37432   1.37735   1.37884   1.38224   1.38696
 Alpha virt. eigenvalues --    1.39455   1.40383   1.40924   1.41353   1.41765
 Alpha virt. eigenvalues --    1.42061   1.42454   1.42489   1.42821   1.43442
 Alpha virt. eigenvalues --    1.43824   1.43868   1.44591   1.45110   1.45286
 Alpha virt. eigenvalues --    1.46007   1.46870   1.48332   1.48673   1.48872
 Alpha virt. eigenvalues --    1.49801   1.50339   1.51149   1.51420   1.51785
 Alpha virt. eigenvalues --    1.52187   1.52654   1.52838   1.53111   1.53353
 Alpha virt. eigenvalues --    1.53396   1.53644   1.54181   1.55783   1.55936
 Alpha virt. eigenvalues --    1.56298   1.56968   1.57574   1.57617   1.58003
 Alpha virt. eigenvalues --    1.58514   1.58702   1.59317   1.59673   1.60034
 Alpha virt. eigenvalues --    1.60170   1.60279   1.60663   1.60853   1.61362
 Alpha virt. eigenvalues --    1.61571   1.62352   1.62762   1.63279   1.63432
 Alpha virt. eigenvalues --    1.63774   1.64185   1.64425   1.64792   1.65038
 Alpha virt. eigenvalues --    1.65866   1.65903   1.66248   1.67199   1.67867
 Alpha virt. eigenvalues --    1.68081   1.68284   1.69219   1.69296   1.69724
 Alpha virt. eigenvalues --    1.70230   1.70438   1.71283   1.71578   1.72559
 Alpha virt. eigenvalues --    1.73126   1.73323   1.73432   1.74100   1.74257
 Alpha virt. eigenvalues --    1.74618   1.74885   1.75626   1.75996   1.76501
 Alpha virt. eigenvalues --    1.76854   1.77678   1.78115   1.78274   1.78799
 Alpha virt. eigenvalues --    1.79583   1.80126   1.80324   1.80612   1.81004
 Alpha virt. eigenvalues --    1.81102   1.81680   1.81846   1.82277   1.82847
 Alpha virt. eigenvalues --    1.82949   1.83173   1.83398   1.83713   1.83856
 Alpha virt. eigenvalues --    1.84047   1.84296   1.84620   1.84932   1.85250
 Alpha virt. eigenvalues --    1.85337   1.85792   1.85823   1.86171   1.86342
 Alpha virt. eigenvalues --    1.86583   1.86730   1.86949   1.87218   1.87244
 Alpha virt. eigenvalues --    1.87488   1.87631   1.88083   1.88257   1.88322
 Alpha virt. eigenvalues --    1.88596   1.88906   1.88926   1.89213   1.89272
 Alpha virt. eigenvalues --    1.90351   1.90597   1.90703   1.91085   1.91245
 Alpha virt. eigenvalues --    1.91596   1.91626   1.91808   1.91938   1.92141
 Alpha virt. eigenvalues --    1.92347   1.92515   1.92714   1.92895   1.92994
 Alpha virt. eigenvalues --    1.93436   1.93502   1.93745   1.93941   1.94096
 Alpha virt. eigenvalues --    1.94370   1.95207   1.95394   1.95939   1.96032
 Alpha virt. eigenvalues --    1.96357   1.96548   1.96780   1.96986   1.97522
 Alpha virt. eigenvalues --    1.97726   1.98122   1.98265   1.98315   1.98736
 Alpha virt. eigenvalues --    1.98969   1.99653   1.99710   2.00121   2.00169
 Alpha virt. eigenvalues --    2.00635   2.01548   2.01815   2.01974   2.02513
 Alpha virt. eigenvalues --    2.02950   2.03417   2.03697   2.03902   2.04138
 Alpha virt. eigenvalues --    2.04805   2.05102   2.05379   2.05554   2.05728
 Alpha virt. eigenvalues --    2.05987   2.06436   2.07036   2.07291   2.07556
 Alpha virt. eigenvalues --    2.07880   2.08176   2.08253   2.08583   2.08653
 Alpha virt. eigenvalues --    2.08703   2.09065   2.09104   2.09479   2.09783
 Alpha virt. eigenvalues --    2.10087   2.10193   2.10599   2.10875   2.11220
 Alpha virt. eigenvalues --    2.11725   2.12180   2.12579   2.12987   2.13023
 Alpha virt. eigenvalues --    2.13264   2.13518   2.13710   2.13953   2.14206
 Alpha virt. eigenvalues --    2.14898   2.14957   2.15373   2.15680   2.16166
 Alpha virt. eigenvalues --    2.16454   2.16477   2.16735   2.16873   2.17400
 Alpha virt. eigenvalues --    2.17632   2.17928   2.18382   2.18621   2.19446
 Alpha virt. eigenvalues --    2.19547   2.19818   2.20274   2.20609   2.20847
 Alpha virt. eigenvalues --    2.21196   2.21392   2.21588   2.22102   2.22274
 Alpha virt. eigenvalues --    2.22511   2.22568   2.23068   2.23774   2.24386
 Alpha virt. eigenvalues --    2.25134   2.25496   2.25900   2.26361   2.26773
 Alpha virt. eigenvalues --    2.26799   2.26921   2.27110   2.27269   2.27585
 Alpha virt. eigenvalues --    2.27824   2.27997   2.28495   2.29024   2.29561
 Alpha virt. eigenvalues --    2.29757   2.29890   2.30027   2.30317   2.30525
 Alpha virt. eigenvalues --    2.31073   2.31302   2.31589   2.31981   2.32153
 Alpha virt. eigenvalues --    2.32477   2.32782   2.33293   2.33665   2.34292
 Alpha virt. eigenvalues --    2.34362   2.34746   2.35224   2.35309   2.35594
 Alpha virt. eigenvalues --    2.35833   2.36060   2.36890   2.37020   2.37294
 Alpha virt. eigenvalues --    2.37606   2.37843   2.38107   2.38568   2.39122
 Alpha virt. eigenvalues --    2.39133   2.39344   2.39562   2.39687   2.39993
 Alpha virt. eigenvalues --    2.40311   2.40593   2.40866   2.41365   2.41525
 Alpha virt. eigenvalues --    2.42006   2.42145   2.42414   2.42697   2.43158
 Alpha virt. eigenvalues --    2.43337   2.43525   2.44194   2.44660   2.44844
 Alpha virt. eigenvalues --    2.44976   2.45394   2.45630   2.46259   2.46670
 Alpha virt. eigenvalues --    2.46967   2.47252   2.47443   2.48179   2.48569
 Alpha virt. eigenvalues --    2.48831   2.49030   2.49514   2.49834   2.50675
 Alpha virt. eigenvalues --    2.50756   2.51127   2.51374   2.51526   2.51714
 Alpha virt. eigenvalues --    2.52069   2.52201   2.52720   2.52946   2.53779
 Alpha virt. eigenvalues --    2.54073   2.54498   2.55305   2.55491   2.56026
 Alpha virt. eigenvalues --    2.56557   2.56721   2.57979   2.58279   2.58775
 Alpha virt. eigenvalues --    2.58823   2.59105   2.59218   2.59891   2.60202
 Alpha virt. eigenvalues --    2.60494   2.60972   2.61219   2.61713   2.61767
 Alpha virt. eigenvalues --    2.62321   2.62590   2.63233   2.63596   2.63957
 Alpha virt. eigenvalues --    2.64107   2.64306   2.65031   2.65185   2.65309
 Alpha virt. eigenvalues --    2.65604   2.65932   2.66386   2.66778   2.67078
 Alpha virt. eigenvalues --    2.67689   2.67828   2.68058   2.68367   2.68602
 Alpha virt. eigenvalues --    2.68777   2.69305   2.69366   2.69938   2.70660
 Alpha virt. eigenvalues --    2.70780   2.71060   2.71492   2.71601   2.71851
 Alpha virt. eigenvalues --    2.71953   2.72734   2.73363   2.73478   2.73807
 Alpha virt. eigenvalues --    2.74265   2.74660   2.74678   2.75013   2.75195
 Alpha virt. eigenvalues --    2.75871   2.75987   2.76710   2.76842   2.77101
 Alpha virt. eigenvalues --    2.77472   2.77660   2.77789   2.78175   2.78629
 Alpha virt. eigenvalues --    2.78709   2.79233   2.79489   2.79977   2.80241
 Alpha virt. eigenvalues --    2.80353   2.80499   2.81099   2.81323   2.81629
 Alpha virt. eigenvalues --    2.81674   2.82428   2.82488   2.82752   2.83321
 Alpha virt. eigenvalues --    2.83406   2.83869   2.84276   2.84312   2.84879
 Alpha virt. eigenvalues --    2.85379   2.85706   2.86232   2.86721   2.86972
 Alpha virt. eigenvalues --    2.87457   2.87553   2.88072   2.88430   2.89111
 Alpha virt. eigenvalues --    2.89814   2.90069   2.90332   2.90836   2.90928
 Alpha virt. eigenvalues --    2.91432   2.91758   2.92096   2.92309   2.92383
 Alpha virt. eigenvalues --    2.92678   2.93104   2.93757   2.94115   2.94285
 Alpha virt. eigenvalues --    2.94407   2.94727   2.95289   2.95555   2.95950
 Alpha virt. eigenvalues --    2.96188   2.96366   2.96813   2.97405   2.97532
 Alpha virt. eigenvalues --    2.97728   2.98083   2.98643   2.99768   2.99898
 Alpha virt. eigenvalues --    3.00885   3.01613   3.01735   3.02000   3.02869
 Alpha virt. eigenvalues --    3.03821   3.04884   3.05457   3.05625   3.05972
 Alpha virt. eigenvalues --    3.06218   3.07028   3.07225   3.07723   3.09694
 Alpha virt. eigenvalues --    3.09897   3.10516   3.10919   3.11174   3.11474
 Alpha virt. eigenvalues --    3.12283   3.12933   3.13693   3.14396   3.15648
 Alpha virt. eigenvalues --    3.16371   3.16663   3.17540   3.17890   3.18238
 Alpha virt. eigenvalues --    3.19746   3.21022   3.21152   3.21400   3.22375
 Alpha virt. eigenvalues --    3.22597   3.22761   3.23766   3.24162   3.24954
 Alpha virt. eigenvalues --    3.25052   3.25719   3.25951   3.27344   3.27534
 Alpha virt. eigenvalues --    3.29176   3.30812   3.31177   3.31842   3.32447
 Alpha virt. eigenvalues --    3.32596   3.33760   3.34719   3.35676   3.37777
 Alpha virt. eigenvalues --    3.37893   3.38041   3.38916   3.39324   3.40861
 Alpha virt. eigenvalues --    3.41414   3.43298   3.43762   3.43818   3.44427
 Alpha virt. eigenvalues --    3.44454   3.44970   3.45093   3.45633   3.46100
 Alpha virt. eigenvalues --    3.46136   3.47065   3.47593   3.48329   3.48529
 Alpha virt. eigenvalues --    3.49587   3.49610   3.51158   3.51788   3.53930
 Alpha virt. eigenvalues --    3.54097   3.56100   3.57872   3.58232   3.59328
 Alpha virt. eigenvalues --    3.59680   3.59891   3.63462   3.63562   3.64085
 Alpha virt. eigenvalues --    3.64390   3.66470   3.67171   3.68147   3.69933
 Alpha virt. eigenvalues --    3.74194   3.75785   3.75799   3.76777   3.77438
 Alpha virt. eigenvalues --    3.79274   3.79381   3.80232   3.89582   3.98992
 Alpha virt. eigenvalues --    4.03448   4.08986   4.15877   4.18397   4.19074
 Alpha virt. eigenvalues --    4.19562   4.20168   4.21332   4.21963   4.23361
 Alpha virt. eigenvalues --    4.24698   4.25435   4.26945   4.28181   4.28822
 Alpha virt. eigenvalues --    4.31105   4.32469   4.33131   4.35176   4.36124
 Alpha virt. eigenvalues --    4.38550   4.39759   4.40081   4.41237   4.41591
 Alpha virt. eigenvalues --    4.42521   4.43789   4.44600   4.45529   4.46964
 Alpha virt. eigenvalues --    4.47050   4.48303   4.50187   4.50501   4.51455
 Alpha virt. eigenvalues --    4.52761   4.52888   4.53157   4.53276   4.55056
 Alpha virt. eigenvalues --    4.56994   4.57515   4.58702   4.59001   4.63416
 Alpha virt. eigenvalues --    4.65270   4.66549   4.66789   4.67620   4.67907
 Alpha virt. eigenvalues --    4.69670   4.70105   4.72393   4.75404   4.76991
 Alpha virt. eigenvalues --    4.81989   4.82903   4.83759   4.84198   4.85534
 Alpha virt. eigenvalues --    4.85902   4.91721   4.96077
          Condensed to atoms (all electrons):
 Mulliken charges:
               1
     1  Mg   0.828891
     2  C    0.030099
     3  C   -0.241839
     4  C   -0.132844
     5  C   -0.139845
     6  N   -0.623476
     7  C    0.276277
     8  C   -0.149307
     9  C   -0.119936
    10  C    0.365619
    11  C   -0.336783
    12  C   -0.119898
    13  C   -0.258448
    14  C    0.576573
    15  O   -0.452300
    16  O   -0.507707
    17  N   -0.753621
    18  C    0.335339
    19  C    0.026535
    20  C   -0.007015
    21  C    0.307858
    22  C   -0.363146
    23  C   -0.051805
    24  C   -0.255720
    25  N   -0.686327
    26  C    0.266789
    27  C    0.046667
    28  C    0.036429
    29  C    0.321101
    30  C   -0.372003
    31  C   -0.248150
    32  C   -0.295158
    33  N   -0.683965
    34  C    0.229370
    35  C   -0.004737
    36  C    0.040089
    37  C    0.295669
    38  C   -0.376197
    39  C    0.368617
    40  O   -0.490474
    41  C   -0.303856
    42  C    0.620770
    43  O   -0.478395
    44  O   -0.453241
    45  C   -0.074457
    46  C    0.021172
    47  C   -0.098581
    48  C    0.092207
    49  C   -0.359088
    50  C   -0.238108
    51  C   -0.144484
    52  C   -0.171056
    53  C   -0.049812
    54  C   -0.308431
    55  C   -0.190181
    56  C   -0.173529
    57  C   -0.161881
    58  C   -0.046182
    59  C   -0.321682
    60  C   -0.164069
    61  C   -0.203772
    62  C   -0.160144
    63  C   -0.037706
    64  C   -0.304373
    65  C   -0.304145
    66  H    0.073300
    67  H    0.072407
    68  H    0.062145
    69  H    0.121150
    70  H    0.109533
    71  H    0.107117
    72  H    0.108132
    73  H    0.125695
    74  H    0.106622
    75  H    0.090562
    76  H    0.136899
    77  H    0.140701
    78  H    0.122004
    79  H    0.126898
    80  H    0.105742
    81  H    0.086175
    82  H    0.096390
    83  H    0.100614
    84  H    0.123994
    85  H    0.100663
    86  H    0.060550
    87  H    0.097914
    88  H    0.103866
    89  H    0.118707
    90  H    0.124596
    91  H    0.084938
    92  H    0.127183
    93  H    0.125141
    94  H    0.151234
    95  H    0.175293
    96  H    0.108085
    97  H    0.149499
    98  H    0.120989
    99  H    0.138402
   100  H    0.109614
   101  H    0.082067
   102  H    0.099739
   103  H    0.114636
   104  H    0.137413
   105  H    0.080349
   106  H    0.103119
   107  H    0.110457
   108  H    0.110027
   109  H    0.104516
   110  H    0.067985
   111  H    0.081689
   112  H    0.092338
   113  H    0.088146
   114  H    0.077044
   115  H    0.079443
   116  H    0.092413
   117  H    0.107013
   118  H    0.090964
   119  H    0.106766
   120  H    0.038822
   121  H    0.094188
   122  H    0.101853
   123  H    0.086146
   124  H    0.102194
   125  H    0.080501
   126  H    0.096941
   127  H    0.090895
   128  H    0.090142
   129  H    0.088032
   130  H    0.099164
   131  H    0.060500
   132  H    0.091867
   133  H    0.097489
   134  H    0.108190
   135  H    0.075066
   136  H    0.110176
   137  H    0.080756
 Sum of Mulliken charges =  -0.00000
 Mulliken charges with hydrogens summed into heavy atoms:
               1
     1  Mg   0.828891
     2  C    0.030099
     3  C   -0.168538
     4  C   -0.060438
     5  C   -0.077700
     6  N   -0.623476
     7  C    0.276277
     8  C   -0.028157
     9  C   -0.010403
    10  C    0.365619
    11  C    0.004161
    12  C    0.077285
    13  C    0.019152
    14  C    0.576573
    15  O   -0.452300
    16  O   -0.507707
    17  N   -0.753621
    18  C    0.335339
    19  C    0.026535
    20  C   -0.007015
    21  C    0.307858
    22  C   -0.008502
    23  C    0.034369
    24  C   -0.058716
    25  N   -0.686327
    26  C    0.266789
    27  C    0.046667
    28  C    0.036429
    29  C    0.321101
    30  C   -0.086797
    31  C   -0.046370
    32  C    0.033083
    33  N   -0.683965
    34  C    0.229370
    35  C   -0.004737
    36  C    0.040089
    37  C    0.295669
    38  C    0.027361
    39  C    0.368617
    40  O   -0.490474
    41  C   -0.128562
    42  C    0.620770
    43  O   -0.478395
    44  O   -0.453241
    45  C    0.304117
    46  C    0.269188
    47  C   -0.016515
    48  C    0.092207
    49  C   -0.007299
    50  C   -0.054639
    51  C    0.076000
    52  C    0.001445
    53  C    0.031878
    54  C   -0.050903
    55  C   -0.018324
    56  C    0.024448
    57  C   -0.016293
    58  C    0.048006
    59  C   -0.031489
    60  C    0.013372
    61  C   -0.022735
    62  C    0.027053
    63  C    0.022794
    64  C   -0.006826
    65  C   -0.038146
 Electronic spatial extent (au):  <R**2>=         179748.8042
 Charge=              0.0000 electrons
 Dipole moment (field-independent basis, Debye):
    X=              2.2156    Y=              4.4966    Z=             -0.2890  Tot=              5.0211
 Quadrupole moment (field-independent basis, Debye-Ang):
   XX=           -357.9103   YY=           -395.4067   ZZ=           -397.2915
   XY=            -10.6556   XZ=              8.6237   YZ=             -2.1694
 Traceless Quadrupole moment (field-independent basis, Debye-Ang):
   XX=             25.6259   YY=            -11.8706   ZZ=            -13.7553
   XY=            -10.6556   XZ=              8.6237   YZ=             -2.1694
 Octapole moment (field-independent basis, Debye-Ang**2):
  XXX=           -487.0454  YYY=             95.0048  ZZZ=             15.2745  XYY=            -51.0363
  XXY=             90.9732  XXZ=           -289.2060  XZZ=              3.3606  YZZ=            -24.6188
  YYZ=             53.8387  XYZ=            -54.5843
 Hexadecapole moment (field-independent basis, Debye-Ang**3):
 XXXX=        -220746.0694 YYYY=         -17572.0120 ZZZZ=          -4183.5921 XXXY=           1647.0037
 XXXZ=            516.1170 YYYX=           -867.2465 YYYZ=           -112.7781 ZZZX=           -166.6614
 ZZZY=           -148.6141 XXYY=         -40276.0468 XXZZ=         -39139.6224 YYZZ=          -3452.4347
 XXYZ=           -189.8857 YYXZ=            -75.4954 ZZXY=             68.7868
 N-N= 8.764529597508D+03 E-N=-2.435424229873D+04  KE= 2.908105125830D+03

 Test job not archived.
 1\1\GINC-RYZEN-SSD3\SP\RCAM-B3LYP TD-FC\6-31G(d,p)\C55H72Mg1N4O5\PADAW
 AN\03-Sep-2019\0\\# td=(NStates=1) iop(3/107=0140000000,3/108=01400000
 00) CAM-B3LYP/6-31G(d,p)\\TD\\0,1\Mg,0,-7.0705317449,0.7230906926,-0.0
 66860316\C,0,-4.9076595825,-1.967583989,0.4458299854\C,0,-4.7724632769
 ,2.817970515,1.1498150867\C,0,-9.4064374082,3.1639039434,-0.4255450298
 \C,0,-9.4945755556,-1.6408858543,-1.0276295679\N,0,-5.1472417554,0.508
 4569363,0.6902668507\C,0,-4.4111333606,-0.671358279,0.7921171064\C,0,-
 2.97639386,-0.4056089589,1.233939063\C,0,-3.0320264295,0.9990586075,1.
 708327112\C,0,-4.3220124359,1.44098875,1.16586098\C,0,-2.9785040312,1.
 0836311824,3.2638516998\C,0,-1.9790836381,-0.616697659,0.1386576761\C,
 0,-0.5792336326,-0.4242856766,0.5126146438\C,0,0.4833502582,-0.7726138
 833,-0.5743372238\O,0,0.2558257994,-1.2289466724,-1.6499523883\O,0,1.7
 71785777,-0.5271826567,-0.182933681\N,0,-7.1483724806,2.5986030702,0.2
 643073548\C,0,-6.0689170355,3.2840921766,0.8225881349\C,0,-6.31121603,
 4.7414410077,0.8404423029\C,0,-7.6853933246,4.8365854637,0.4877048969\
 C,0,-8.1487544029,3.4933362724,0.0201400126\C,0,-5.3631483487,5.869396
 4133,1.1968298382\C,0,-8.5305630643,5.9803783074,0.1888694994\C,0,-8.3
 524336534,7.1582849782,0.730627122\N,0,-9.0829073318,0.689905985,-0.57
 49040643\C,0,-9.8213196183,1.8613294572,-0.7773605496\C,0,-11.12034598
 73,1.5080702515,-1.1163564953\C,0,-11.1664661338,0.1377713229,-1.32436
 24645\C,0,-9.8550631099,-0.3019003834,-0.9715193532\C,0,-12.2439653342
 ,2.4439596374,-1.2766671194\C,0,-12.473931186,-0.6126973935,-1.7354628
 769\C,0,-12.3457164805,-1.169257118,-3.1805987111\N,0,-7.2206750299,-1
 .3481296487,-0.2352862037\C,0,-8.2418885152,-2.1909976453,-0.737385318
 4\C,0,-7.8837104108,-3.5925098024,-0.6050108009\C,0,-6.5904168322,-3.5
 379667788,-0.0989819799\C,0,-6.2243761693,-2.2129292487,-0.0287010347\
 C,0,-8.73120546,-4.8210382022,-0.7432377069\C,0,-5.3648019431,-4.35954
 95184,0.2079757717\O,0,-5.2079517875,-5.633370194,0.2969456432\C,0,-4.
 2488693895,-3.3242798754,0.5687651981\C,0,-3.5477089477,-3.5840863513,
 1.8608020487\O,0,-3.7246752509,-3.0080581637,2.9368670449\O,0,-2.76666
 2019,-4.7096095795,1.7514541829\C,0,-2.214220379,-5.3286980757,2.93714
 11145\C,0,2.8863949599,-0.7218104699,-1.149508468\C,0,4.2146923544,-0.
 5038556535,-0.4476173245\C,0,5.1070061919,0.3698435124,-0.7791107881\C
 ,0,5.0864523708,1.2265703323,-2.0331874537\C,0,6.5000462833,0.38292890
 89,0.0050199776\C,0,7.5469661492,-0.2400725553,-0.8850088296\C,0,8.907
 8985015,-0.1029621123,-0.1393600384\C,0,10.1726727279,-0.5765693201,-0
 .8912648465\C,0,10.107444021,-2.02640052,-1.2760245685\C,0,11.41164582
 84,-0.2584007312,-0.0573937019\C,0,12.8292406596,-0.548344868,-0.67255
 47606\C,0,13.9585271245,0.0266369494,0.1063170433\C,0,15.3461806091,-0
 .1576848521,-0.497295382\C,0,15.7496612371,-1.589657354,-0.9731691432\
 C,0,16.4545224449,0.409377455,0.3287676115\C,0,17.849952583,0.50174390
 4,-0.2946259896\C,0,18.7622966483,1.3198900675,0.7435476115\C,0,20.183
 5311575,1.3792673592,0.1885155576\C,0,20.3358264284,2.1261899241,-1.10
 36650624\C,0,21.1837334403,1.9876804679,1.2318071207\H,0,-3.9993302965
 ,3.6419474461,1.6085869545\H,0,-10.0389160149,3.8929715717,-0.71607613
 38\H,0,-10.0728017043,-2.4087764127,-1.3155393733\H,0,-2.7418114683,-0
 .9094611488,2.0570421949\H,0,-2.3105545218,1.6460866698,1.462499899\H,
 0,-1.9686799544,0.667475854,3.6243527727\H,0,-3.3999371028,2.061775400
 3,3.7057185941\H,0,-3.6668994904,0.3862137757,3.866058291\H,0,-2.25953
 10721,-1.4417848493,-0.2682548326\H,0,-2.3737237414,0.1814857684,-0.59
 94266773\H,0,-0.3647018989,0.5297325606,0.8408979528\H,0,-0.3451529356
 ,-1.1137321398,1.2892123795\H,0,-5.889373115,6.7432618382,0.7289827296
 \H,0,-5.3903105024,6.1491677982,2.3175037629\H,0,-4.291143959,5.472811
 5492,0.6872594585\H,0,-9.5028105409,5.6916425463,-0.3856699197\H,0,-9.
 1584649102,7.9184915702,0.5751472904\H,0,-7.5322111532,7.4101478512,1.
 3677157319\H,0,-12.0826087339,3.2082099681,-2.0299988314\H,0,-13.16383
 36811,1.9216109035,-1.6918349117\H,0,-12.6380248352,3.1728346176,-0.18
 84092804\H,0,-12.5835703219,-1.5686277856,-1.1040439053\H,0,-13.368539
 153,0.0618934788,-1.5852142758\H,0,-13.2188270819,-1.6240960717,-3.286
 4296011\H,0,-11.8570961153,-0.4262610974,-3.774496428\H,0,-11.61593643
 3,-2.0922302502,-3.1338116594\H,0,-9.2658812067,-4.9182983306,-1.60716
 67797\H,0,-8.0212265079,-5.8268386372,-0.6964796031\H,0,-9.3001241914,
 -4.8584242908,0.0418319145\H,0,-3.5141789364,-3.2444810537,-0.27871560
 97\H,0,-1.8918125689,-4.2549577092,3.4644681644\H,0,-2.907747212,-5.83
 16526902,3.5094519829\H,0,-1.3229328138,-6.010311816,2.5648898501\H,0,
 2.7770057554,-1.7253691597,-1.4888003287\H,0,2.6133477761,0.243192404,
 -1.8606171192\H,0,4.3867391606,-0.9821966335,0.4104424444\H,0,4.060721
 3836,1.173152858,-2.4111315989\H,0,5.5479117234,2.0920596299,-2.040971
 5356\H,0,5.6253721057,0.8710482957,-2.7545217091\H,0,6.5713453184,1.55
 77957602,-0.0630966958\H,0,6.3719750696,0.1094536087,1.0722534208\H,0,
 7.199152038,-1.2992405971,-1.0623909963\H,0,7.5639089494,0.3996090639,
 -1.6736081837\H,0,9.214027447,0.8218616837,0.1816705952\H,0,8.98500162
 1,-0.7523235851,0.8788440078\H,0,10.2178664184,-0.1724811003,-1.925887
 7468\H,0,9.1156011692,-2.3113694204,-1.72538092\H,0,10.9135304936,-2.5
 012235217,-2.0233476929\H,0,10.0300051976,-2.7283269474,-0.3422816219\
 H,0,11.2017018118,0.6876551989,0.4099887697\H,0,11.4224998455,-0.88283
 95816,0.8447307932\H,0,12.7175997125,-1.6473621555,-0.8699192634\H,0,1
 2.9131571456,-0.0644815122,-1.6573200657\H,0,13.7969411144,1.008796242
 9,0.4352383525\H,0,13.9490332139,-0.4625826372,1.2633787119\H,0,15.522
 5226537,0.5357269697,-1.2451457834\H,0,15.7404278396,-2.3436637076,-0.
 1474128768\H,0,14.8605476992,-1.9654410641,-1.6138327568\H,0,16.706388
 9185,-1.6823791349,-1.6146379771\H,0,16.0829215657,1.2890372374,0.7493
 108474\H,0,16.6291769955,-0.1655528401,1.1135598507\H,0,18.3317799157,
 -0.53425994,-0.240164212\H,0,17.9352108307,0.8112100151,-1.3547912227\
 H,0,18.3074197989,2.3326645345,0.901712118\H,0,18.7093068932,0.8228271
 222,1.6894421897\H,0,20.6319130236,0.2555165493,0.0273286251\H,0,20.17
 7144533,3.2154423207,-0.8884910338\H,0,21.3988836892,2.0971908612,-1.4
 427422554\H,0,19.7366820658,1.8974200322,-1.9173601204\H,0,21.03566742
 02,1.354351076,2.2536490337\H,0,22.2231202048,2.024142885,1.0391405677
 \H,0,21.0251025888,3.1413402512,1.3646235991\\Version=ES64L-G16RevA.03
 \State=1-A\HF=-2933.4798454\RMSD=7.297e-09\PG=C01 [X(C55H72Mg1N4O5)]\\
 @


 THE CHYMISTS ARE A STRANGE CLASS OF MORTALS IMPELLED
 BY AN ALMOST INSANE IMPULSE TO SEEK THEIR PLEASURE
 AMONG SMOKE AND VAPOR, SOOT AND FLAME, POISONS AND
 POVERTY; YET AMONG ALL THESE EVILS I SEEM TO LIVE
 SO SWEETLY, THAT I MAY DIE IF I WOULD CHANGE PLACES
 WITH THE PERSIAN KING.
   --  JOHANN JOACHIM BECHER, 1635-1682
 ACTA LABORATORII CHYMICA MONACENSIS, 1669
 Job cpu time:       0 days 19 hours 45 minutes 28.0 seconds.
 Elapsed time:       0 days  5 hours 10 minutes 43.4 seconds.
 File lengths (MBytes):  RWF=   6809 Int=      0 D2E=      0 Chk=    181 Scr=      1
 Normal termination of Gaussian 16 at Tue Sep  3 19:45:46 2019.
