 Entering Gaussian System, Link 0=g16
 Input=Geometria-328-.com
 Output=Geometria-328-.log
 Initial command:
 /usr/local/g09/l1.exe "/home/padawan/israel-mol/chlorophyll-a/spectra/emi/Gau-15083.inp" -scrdir="/home/padawan/israel-mol/chlorophyll-a/spectra/emi/"
 Entering Link 1 = /usr/local/g09/l1.exe PID=     15085.
  
 Copyright (c) 1988,1990,1992,1993,1995,1998,2003,2009,2013,
            Gaussian, Inc.  All Rights Reserved.
  
 This is part of the Gaussian(R) 09 program.  It is based on
 the Gaussian(R) 03 system (copyright 2003, Gaussian, Inc.),
 the Gaussian(R) 98 system (copyright 1998, Gaussian, Inc.),
 the Gaussian(R) 94 system (copyright 1995, Gaussian, Inc.),
 the Gaussian 92(TM) system (copyright 1992, Gaussian, Inc.),
 the Gaussian 90(TM) system (copyright 1990, Gaussian, Inc.),
 the Gaussian 88(TM) system (copyright 1988, Gaussian, Inc.),
 the Gaussian 86(TM) system (copyright 1986, Carnegie Mellon
 University), and the Gaussian 82(TM) system (copyright 1983,
 Carnegie Mellon University). Gaussian is a federally registered
 trademark of Gaussian, Inc.
  
 This software contains proprietary and confidential information,
 including trade secrets, belonging to Gaussian, Inc.
  
 This software is provided under written license and may be
 used, copied, transmitted, or stored only in accord with that
 written license.
  
 The following legend is applicable only to US Government
 contracts under FAR:
  
                    RESTRICTED RIGHTS LEGEND
  
 Use, reproduction and disclosure by the US Government is
 subject to restrictions as set forth in subparagraphs (a)
 and (c) of the Commercial Computer Software - Restricted
 Rights clause in FAR 52.227-19.
  
 Gaussian, Inc.
 340 Quinnipiac St., Bldg. 40, Wallingford CT 06492
  
  
 ---------------------------------------------------------------
 Warning -- This program may not be used in any manner that
 competes with the business of Gaussian, Inc. or will provide
 assistance to any competitor of Gaussian, Inc.  The licensee
 of this program is prohibited from giving any competitor of
 Gaussian, Inc. access to this program.  By using this program,
 the user acknowledges that Gaussian, Inc. is engaged in the
 business of creating and licensing software in the field of
 computational chemistry and represents and warrants to the
 licensee that it is not a competitor of Gaussian, Inc. and that
 it will not use this program in any manner prohibited above.
 ---------------------------------------------------------------
  

 Cite this work as:
 Gaussian 09, Revision D.01,
 M. J. Frisch, G. W. Trucks, H. B. Schlegel, G. E. Scuseria, 
 M. A. Robb, J. R. Cheeseman, G. Scalmani, V. Barone, B. Mennucci, 
 G. A. Petersson, H. Nakatsuji, M. Caricato, X. Li, H. P. Hratchian, 
 A. F. Izmaylov, J. Bloino, G. Zheng, J. L. Sonnenberg, M. Hada, 
 M. Ehara, K. Toyota, R. Fukuda, J. Hasegawa, M. Ishida, T. Nakajima, 
 Y. Honda, O. Kitao, H. Nakai, T. Vreven, J. A. Montgomery, Jr., 
 J. E. Peralta, F. Ogliaro, M. Bearpark, J. J. Heyd, E. Brothers, 
 K. N. Kudin, V. N. Staroverov, T. Keith, R. Kobayashi, J. Normand, 
 K. Raghavachari, A. Rendell, J. C. Burant, S. S. Iyengar, J. Tomasi, 
 M. Cossi, N. Rega, J. M. Millam, M. Klene, J. E. Knox, J. B. Cross, 
 V. Bakken, C. Adamo, J. Jaramillo, R. Gomperts, R. E. Stratmann, 
 O. Yazyev, A. J. Austin, R. Cammi, C. Pomelli, J. W. Ochterski, 
 R. L. Martin, K. Morokuma, V. G. Zakrzewski, G. A. Voth, 
 P. Salvador, J. J. Dannenberg, S. Dapprich, A. D. Daniels, 
 O. Farkas, J. B. Foresman, J. V. Ortiz, J. Cioslowski, 
 and D. J. Fox, Gaussian, Inc., Wallingford CT, 2013.
 
 ******************************************
 Gaussian 09:  ES64L-G09RevD.01 24-Apr-2013
                 5-Jul-2019 
 ******************************************
 %nproc=4
 Will use up to    4 processors via shared memory.
 %Mem=2GB
 -------------------------------------
 # td=(NStates=1) CAM-B3LYP/6-31G(d,p)
 -------------------------------------
 1/38=1/1;
 2/12=2,17=6,18=5,40=1/2;
 3/5=1,6=6,7=101,11=9,16=1,25=1,30=1,74=-40/1,2,8,3;
 4//1;
 5/5=2,38=5/2;
 8/6=1,10=2,108=1/1;
 9/41=1,42=1,70=2/14;
 6/7=2,8=2,9=2,10=2/1;
 99/5=1,9=1/99;
 --
 TD
 --
 Symbolic Z-matrix:
 Charge =  0 Multiplicity = 1
 12                   -7.11556   0.5889    0.05914 
 6                    -4.83789  -1.90007   0.43709 
 6                    -4.86378   2.85334   1.1475 
 6                    -9.4939    3.02193  -0.19369 
 6                    -9.47687  -1.7857   -0.94142 
 7                    -5.08519   0.45786   0.6337 
 6                    -4.34411  -0.65921   0.83281 
 6                    -2.9178   -0.29226   1.12711 
 6                    -3.01639   1.15593   1.62899 
 6                    -4.45153   1.51051   1.0135 
 6                    -2.91809   1.27566   3.11249 
 6                    -1.9677   -0.56767   0.06017 
 6                    -0.47251  -0.34638   0.42902 
 6                     0.47347  -0.64532  -0.62172 
 8                     0.22652  -1.15055  -1.76176 
 8                     1.76281  -0.28824  -0.22762 
 7                    -7.18241   2.57475   0.40315 
 6                    -6.12673   3.39448   0.77961 
 6                    -6.54933   4.7895    0.74679 
 6                    -7.86535   4.85847   0.44372 
 6                    -8.17322   3.44669   0.12292 
 6                    -5.57285   5.91731   1.25011 
 6                    -8.61227   5.99432   0.235 
 6                    -8.44409   7.22145   0.78063 
 7                    -9.13159   0.60233  -0.59999 
 6                    -9.93053   1.73433  -0.63755 
 6                    -11.29063   1.36452  -0.99839 
 6                    -11.18759   0.0207   -1.26347 
 6                    -9.96105  -0.42584  -0.89719 
 6                    -12.36157   2.33017  -1.26094 
 6                    -12.37015  -0.84687  -1.84455 
 6                    -12.38336  -1.04638  -3.32196 
 7                    -7.13848  -1.37955  -0.28541 
 6                    -8.23808  -2.26256  -0.64107 
 6                    -7.68982  -3.55609  -0.49777 
 6                    -6.48806  -3.5723   -0.06469 
 6                    -6.14794  -2.157    -0.0067 
 6                    -8.49996  -4.83289  -0.78587 
 6                    -5.25494  -4.40037   0.22238 
 8                    -5.13607  -5.55148   0.27691 
 6                    -4.11484  -3.28259   0.5194 
 6                    -3.48979  -3.57192   1.90696 
 8                    -3.67918  -3.01922   2.88412 
 8                    -2.6939   -4.6296    1.77208 
 6                    -2.20337  -5.09475   3.05546 
 6                     2.83053  -0.44111  -1.31566 
 6                     4.13166  -0.30728  -0.65277 
 6                     5.10257   0.4305   -0.91382 
 6                     5.12451   1.40373  -2.0629 
 6                     6.3466    0.44339  -0.23099 
 6                     7.67702  -0.23135  -0.91934 
 6                     8.91576  -0.41044  -0.05915 
 6                     10.18236  -0.75539  -0.72243 
 6                     10.26589  -2.24318  -1.11538 
 6                     11.44692  -0.24315   0.08025 
 6                     12.81385  -0.69395  -0.61547 
 6                     13.97054  -0.10816   0.32113 
 6                     15.3553  -0.35902  -0.38286 
 6                     15.76364  -1.79355  -0.73099 
 6                     16.38938   0.44713   0.40117 
 6                     17.80881   0.4926   -0.35528 
 6                     18.85314   1.12622   0.64099 
 6                     20.24513   1.41855   0.09828 
 6                     20.29784   2.22704  -1.23598 
 6                     21.12958   2.00647   1.19819 
 1                    -4.24797   3.44106   1.38219 
 1                    -10.03735   3.73053  -0.24017 
 1                    -10.16399  -2.3739   -1.24391 
 1                    -2.38267  -0.79525   2.08197 
 1                    -2.34483   1.6235    1.1203 
 1                    -1.78935   1.17334   3.60442 
 1                    -3.23796   2.34769   3.45154 
 1                    -3.694     0.44707   3.69535 
 1                    -1.97418  -1.72407  -0.27002 
 1                    -2.25144   0.04951  -0.80311 
 1                    -0.26513   0.72731   0.5696 
 1                    -0.18497  -0.96744   1.38877 
 1                    -5.73059   6.72204   0.39266 
 1                    -5.78266   6.31756   2.23072 
 1                    -4.42233   5.62505   1.05053 
 1                    -9.21057   5.73648  -0.56352 
 1                    -9.23722   7.89697   0.76818 
 1                    -7.53539   7.35812   1.37269 
 1                    -12.04571   3.18616  -1.91182 
 1                    -13.22773   1.8127   -1.87088 
 1                    -12.94289   2.89524  -0.33738 
 1                    -12.35035  -1.82664  -1.15337 
 1                    -13.26061  -0.33181  -1.31927 
 1                    -13.18536  -1.64426  -3.64792 
 1                    -12.55195  -0.11351  -3.96253 
 1                    -11.51746  -1.3893   -3.61258 
 1                    -9.02639  -4.72395  -1.7797 
 1                    -7.82473  -5.818    -0.93704 
 1                    -9.45394  -4.95027  -0.04882 
 1                    -3.36332  -3.58846  -0.1611 
 1                    -1.39874  -4.17377   3.15681 
 1                    -2.90981  -5.31744   3.70876 
 1                    -1.78245  -6.12027   2.81202 
 1                     2.61476  -1.38592  -1.76928 
 1                     2.68016   0.49077  -1.98966 
 1                     4.19124  -0.93027   0.33935 
 1                     4.09606   1.64889  -2.54473 
 1                     5.48909   2.33449  -1.69758 
 1                     5.83817   1.14973  -3.06764 
 1                     6.59462   1.4105    0.32043 
 1                     6.27805  -0.24305   0.56704 
 1                     7.46427  -1.08448  -1.68303 
 1                     7.98068   0.40249  -1.74014 
 1                     8.89899   0.5409    0.5551 
 1                     8.55773  -1.03587   0.81601 
 1                     10.08088  -0.06369  -1.70955 
 1                     9.50232  -2.54715  -1.88166 
 1                     11.07268  -2.43217  -1.82709 
 1                     10.18219  -2.94495  -0.2456 
 1                     11.40002   0.89438   0.19031 
 1                     11.31905  -0.73524   1.18568 
 1                     12.97717  -1.80188  -0.82757 
 1                     12.9332  -0.19314  -1.49979 
 1                     13.80721   1.00914   0.56116 
 1                     13.83621  -0.49897   1.39339 
 1                     15.36558   0.26126  -1.38481 
 1                     15.89285  -2.25852   0.30281 
 1                     15.09113  -2.33955  -1.2563 
 1                     16.67112  -1.76504  -1.38485 
 1                     16.07054   1.42765   0.85933 
 1                     16.55621  -0.22486   1.30356 
 1                     18.17769  -0.47809  -0.58015 
 1                     17.70374   0.89715  -1.20023 
 1                     18.39561   2.1147    0.92819 
 1                     18.97254   0.60854   1.64658 
 1                     20.52675   0.35625  -0.07383 
 1                     19.895    3.25505  -0.78724 
 1                     21.49388   2.50961  -1.46696 
 1                     19.85671   1.98508  -2.3196 
 1                     20.9754   1.39753   2.27063 
 1                     22.18597   2.0504    0.94323 
 1                     20.70147   3.05431   1.486 
 
 Stoichiometry    C55H72MgN4O5
 Framework group  C1[X(C55H72MgN4O5)]
 Deg. of freedom   405
 Full point group                 C1      NOp   1
 Largest Abelian subgroup         C1      NOp   1
 Largest concise Abelian subgroup C1      NOp   1
                         Standard orientation:                         
 ---------------------------------------------------------------------
 Center     Atomic      Atomic             Coordinates (Angstroms)
 Number     Number       Type             X           Y           Z
 ---------------------------------------------------------------------
      1         12           0       -7.116983    0.575097    0.053052
      2          6           0       -4.834393   -1.906110    0.451796
      3          6           0       -4.869602    2.853061    1.122135
      4          6           0       -9.500125    3.001224   -0.220107
      5          6           0       -9.473662   -1.812494   -0.927305
      6          7           0       -5.086328    0.452898    0.628554
      7          6           0       -4.343041   -0.660985    0.837014
      8          6           0       -2.917438   -0.288765    1.128114
      9          6           0       -3.018847    1.163402    1.617782
     10          6           0       -4.454722    1.509962    0.999422
     11          6           0       -2.920705    1.295822    3.100213
     12          6           0       -1.966854   -0.571287    0.063462
     13          6           0       -0.472087   -0.343951    0.430327
     14          6           0        0.474427   -0.649869   -0.617918
     15          8           0        0.228417   -1.165174   -1.753648
     16          8           0        1.763082   -0.286942   -0.226932
     17          7           0       -7.187721    2.563645    0.380319
     18          6           0       -6.133641    3.388592    0.749788
     19          6           0       -6.558989    4.782454    0.705239
     20          6           0       -7.875155    4.846270    0.401698
     21          6           0       -8.180264    3.431242    0.092828
     22          6           0       -5.584698    5.916385    1.198975
     23          6           0       -8.624321    5.978853    0.183466
     24          6           0       -8.458528    7.210863    0.718730
     25          7           0       -9.133064    0.579010   -0.606034
     26          6           0       -9.934237    1.709079   -0.653071
     27          6           0      -11.293625    1.333566   -1.010688
     28          6           0      -11.187956   -0.012241   -1.264438
     29          6           0       -9.960520   -0.453266   -0.894504
     30          6           0      -12.366485    2.294859   -1.281291
     31          6           0      -12.368837   -0.887002   -1.838105
     32          6           0      -12.381727   -1.098973   -3.313783
     33          7           0       -7.136047   -1.396222   -0.274907
     34          6           0       -8.233925   -2.284364   -0.623033
     35          6           0       -7.683103   -3.575562   -0.468877
     36          6           0       -6.481298   -3.585754   -0.035761
     37          6           0       -6.143957   -2.169352    0.010280
     38          6           0       -8.490745   -4.856328   -0.746152
     39          6           0       -5.246532   -4.408950    0.258183
     40          8           0       -5.125395   -5.559319    0.322411
     41          6           0       -4.108614   -3.286465    0.545702
     42          6           0       -3.482926   -3.562861    1.935606
     43          8           0       -3.673352   -3.002318    2.908088
     44          8           0       -2.684963   -4.620067    1.809581
     45          6           0       -2.193450   -5.073427    3.096804
     46          6           0        2.831040   -0.446878   -1.313724
     47          6           0        4.131939   -0.304903   -0.652068
     48          6           0        5.101389    0.432559   -0.919399
     49          6           0        5.121348    1.396118   -2.076638
     50          6           0        6.345423    0.453648   -0.236787
     51          6           0        7.677129   -0.224247   -0.919520
     52          6           0        8.916273   -0.393637   -0.057937
     53          6           0       10.183510   -0.741676   -0.718382
     54          6           0       10.269953   -2.232549   -1.098781
     55          6           0       11.447100   -0.220198    0.079868
     56          6           0       12.814877   -0.674158   -0.612126
     57          6           0       13.970461   -0.078220    0.319426
     58          6           0       15.355680   -0.332273   -0.382519
     59          6           0       15.766822   -1.768876   -0.718585
     60          6           0       16.388214    0.482486    0.394620
     61          6           0       17.807504    0.524377   -0.362291
     62          6           0       18.850637    1.168423    0.628538
     63          6           0       20.242028    1.458911    0.083287
     64          6           0       20.293072    2.256232   -1.257750
     65          6           0       21.125378    2.057819    1.178133
     66          1           0       -4.254938    3.443945    1.351824
     67          1           0      -10.044971    3.708342   -0.272515
     68          1           0      -10.159640   -2.404566   -1.224781
     69          1           0       -2.381271   -0.782637    2.087136
     70          1           0       -2.348239    1.627989    1.105123
     71          1           0       -1.791746    1.199870    3.592910
     72          1           0       -3.242669    2.370038    3.430236
     73          1           0       -3.694957    0.470646    3.690087
     74          1           0       -1.971074   -1.730438   -0.256974
     75          1           0       -2.251851    0.038042   -0.804967
     76          1           0       -0.266810    0.731288    0.561842
     77          1           0       -0.183265   -0.956338    1.395261
     78          1           0       -5.744074    6.713547    0.334792
     79          1           0       -5.795243    6.324460    2.176192
     80          1           0       -4.433616    5.624719    1.001782
     81          1           0       -9.222159    5.713116   -0.612809
     82          1           0       -9.252994    7.884694    0.700636
     83          1           0       -7.550072    7.354309    1.309545
     84          1           0      -12.052339    3.145950   -1.939383
     85          1           0      -13.231654    1.770556   -1.886784
     86          1           0      -12.948858    2.866539   -0.362486
     87          1           0      -12.347069   -1.860873   -1.138701
     88          1           0      -13.260284   -0.369286   -1.317123
     89          1           0      -13.182575   -1.701158   -3.634645
     90          1           0      -12.552191   -0.171866   -3.962180
     91          1           0      -11.515171   -1.442631   -3.601566
     92          1           0       -9.017446   -4.756809   -1.740832
     93          1           0       -7.813589   -5.841352   -0.889071
     94          1           0       -9.444450   -4.969376   -0.008072
     95          1           0       -3.356531   -3.596575   -0.132253
     96          1           0       -1.390627   -4.150043    3.190333
     97          1           0       -2.899415   -5.291994    3.752010
     98          1           0       -1.770520   -6.100128    2.861978
     99          1           0        2.617112   -1.395897   -1.759350
    100          1           0        2.678799    0.478998   -1.995540
    101          1           0        4.192803   -0.919390    0.345254
    102          1           0        4.092390    1.635186   -2.560447
    103          1           0        5.484118    2.330640   -1.719195
    104          1           0        5.835454    1.135061   -3.079248
    105          1           0        6.591570    1.425855    0.306452
    106          1           0        6.278270   -0.226176    0.566999
    107          1           0        7.466027   -1.084193   -1.675981
    108          1           0        7.979501    0.403258   -1.745651
    109          1           0        8.897661    0.562807    0.548278
    110          1           0        8.559523   -1.012378    0.822483
    111          1           0       10.080612   -0.058519   -1.711280
    112          1           0        9.506934   -2.544474   -1.862428
    113          1           0       11.077072   -2.425945   -1.808931
    114          1           0       10.187679   -2.927131   -0.223122
    115          1           0       11.397966    0.918124    0.180345
    116          1           0       11.320266   -0.703209    1.189414
    117          1           0       12.980371   -1.783506   -0.814894
    118          1           0       12.933194   -0.180577   -1.500644
    119          1           0       13.804950    1.040745    0.550049
    120          1           0       13.836958   -0.460243    1.394946
    121          1           0       15.364683    0.279557   -1.389666
    122          1           0       15.897001   -2.224864    0.319088
    123          1           0       15.095364   -2.320605   -1.239229
    124          1           0       16.674208   -1.744095   -1.372723
    125          1           0       16.067468    1.466204    0.844523
    126          1           0       16.556412   -0.181548    1.302627
    127          1           0       18.178286   -0.447450   -0.579001
    128          1           0       17.701594    0.921583   -1.210614
    129          1           0       18.391182    2.158380    0.907428
    130          1           0       18.971119    0.659464    1.638446
    131          1           0       20.525724    0.395755   -0.079892
    132          1           0       19.888235    3.287190   -0.817657
    133          1           0       21.488544    2.539197   -1.491180
    134          1           0       19.852360    2.004282   -2.339257
    135          1           0       20.972454    1.457628    2.255678
    136          1           0       22.181662    2.101671    0.922742
    137          1           0       20.695217    3.107194    1.457139
 ---------------------------------------------------------------------
 Rotational constants (GHZ):      0.0651414      0.0060765      0.0057257
 Standard basis: 6-31G(d,p) (6D, 7F)
 There are  1339 symmetry adapted cartesian basis functions of A   symmetry.
 There are  1339 symmetry adapted basis functions of A   symmetry.
  1339 basis functions,  2348 primitive gaussians,  1339 cartesian basis functions
   241 alpha electrons      241 beta electrons
       nuclear repulsion energy      8750.8926323045 Hartrees.
 NAtoms=  137 NActive=  137 NUniq=  137 SFac= 1.00D+00 NAtFMM=   60 NAOKFM=T Big=T
 Integral buffers will be    131072 words long.
 Raffenetti 1 integral format.
 Two-electron integral symmetry is turned on.
 One-electron integrals computed using PRISM.
 NBasis=  1339 RedAO= T EigKep=  2.54D-04  NBF=  1339
 NBsUse=  1339 1.00D-06 EigRej= -1.00D+00 NBFU=  1339
 ExpMin= 4.21D-02 ExpMax= 1.17D+04 ExpMxC= 1.76D+03 IAcc=2 IRadAn=         4 AccDes= 0.00D+00
 Harris functional with IExCor=20419 and IRadAn=       4 diagonalized for initial guess.
 HarFok:  IExCor=20419 AccDes= 0.00D+00 IRadAn=         4 IDoV= 1 UseB2=F ITyADJ=14
 ICtDFT=  3500011 ScaDFX=  1.000000  1.000000  1.000000  1.000000
 FoFCou: FMM=F IPFlag=           0 FMFlag=      100000 FMFlg1=        2001
         NFxFlg=           0 DoJE=T BraDBF=F KetDBF=T FulRan=T
         wScrn=  0.000000 ICntrl=     500 IOpCl=  0 I1Cent=   200000004 NGrid=           0
         NMat0=    1 NMatS0=      1 NMatT0=    0 NMatD0=    1 NMtDS0=    0 NMtDT0=    0
 Petite list used in FoFCou.
 Requested convergence on RMS density matrix=1.00D-08 within 128 cycles.
 Requested convergence on MAX density matrix=1.00D-06.
 Requested convergence on             energy=1.00D-06.
 No special actions if energy rises.
 SCF Done:  E(RCAM-B3LYP) =  -2932.54394709     A.U. after   15 cycles
            NFock= 15  Conv=0.75D-08     -V/T= 2.0090
 DoSCS=F DFT=T ScalE2(SS,OS)=  1.000000  1.000000
 ExpMin= 4.21D-02 ExpMax= 1.17D+04 ExpMxC= 1.76D+03 IAcc=3 IRadAn=         5 AccDes= 0.00D+00
 HarFok:  IExCor=  205 AccDes= 0.00D+00 IRadAn=         5 IDoV=-2 UseB2=F ITyADJ=14
 ICtDFT= 12500011 ScaDFX=  1.000000  1.000000  1.000000  1.000000
 Range of M.O.s used for correlation:    70  1339
 NBasis=  1339 NAE=   241 NBE=   241 NFC=    69 NFV=     0
 NROrb=   1270 NOA=   172 NOB=   172 NVA=  1098 NVB=  1098
 Would need an additional       2415464100000 words for in-memory AO integral storage.
 Orbital symmetries:
       Occupied  (A) (A) (A) (A) (A) (A) (A) (A) (A) (A) (A) (A)
                 (A) (A) (A) (A) (A) (A) (A) (A) (A) (A) (A) (A)
                 (A) (A) (A) (A) (A) (A) (A) (A) (A) (A) (A) (A)
                 (A) (A) (A) (A) (A) (A) (A) (A) (A) (A) (A) (A)
                 (A) (A) (A) (A) (A) (A) (A) (A) (A) (A) (A) (A)
                 (A) (A) (A) (A) (A) (A) (A) (A) (A) (A) (A) (A)
                 (A) (A) (A) (A) (A) (A) (A) (A) (A) (A) (A) (A)
                 (A) (A) (A) (A) (A) (A) (A) (A) (A) (A) (A) (A)
                 (A) (A) (A) (A) (A) (A) (A) (A) (A) (A) (A) (A)
                 (A) (A) (A) (A) (A) (A) (A) (A) (A) (A) (A) (A)
                 (A) (A) (A) (A) (A) (A) (A) (A) (A) (A) (A) (A)
                 (A) (A) (A) (A) (A) (A) (A) (A) (A) (A) (A) (A)
                 (A) (A) (A) (A) (A) (A) (A) (A) (A) (A) (A) (A)
                 (A) (A) (A) (A) (A) (A) (A) (A) (A) (A) (A) (A)
                 (A) (A) (A) (A) (A) (A) (A) (A) (A) (A) (A) (A)
                 (A) (A) (A) (A) (A) (A) (A) (A) (A) (A) (A) (A)
                 (A) (A) (A) (A) (A) (A) (A) (A) (A) (A) (A) (A)
                 (A) (A) (A) (A) (A) (A) (A) (A) (A) (A) (A) (A)
                 (A) (A) (A) (A) (A) (A) (A) (A) (A) (A) (A) (A)
                 (A) (A) (A) (A) (A) (A) (A) (A) (A) (A) (A) (A)
                 (A)
       Virtual   (A) (A) (A) (A) (A) (A) (A) (A) (A) (A) (A) (A)
                 (A) (A) (A) (A) (A) (A) (A) (A) (A) (A) (A) (A)
                 (A) (A) (A) (A) (A) (A) (A) (A) (A) (A) (A) (A)
                 (A) (A) (A) (A) (A) (A) (A) (A) (A) (A) (A) (A)
                 (A) (A) (A) (A) (A) (A) (A) (A) (A) (A) (A) (A)
                 (A) (A) (A) (A) (A) (A) (A) (A) (A) (A) (A) (A)
                 (A) (A) (A) (A) (A) (A) (A) (A) (A) (A) (A) (A)
                 (A) (A) (A) (A) (A) (A) (A) (A) (A) (A) (A) (A)
                 (A) (A) (A) (A) (A) (A) (A) (A) (A) (A) (A) (A)
                 (A) (A) (A) (A) (A) (A) (A) (A) (A) (A) (A) (A)
                 (A) (A) (A) (A) (A) (A) (A) (A) (A) (A) (A) (A)
                 (A) (A) (A) (A) (A) (A) (A) (A) (A) (A) (A) (A)
                 (A) (A) (A) (A) (A) (A) (A) (A) (A) (A) (A) (A)
                 (A) (A) (A) (A) (A) (A) (A) (A) (A) (A) (A) (A)
                 (A) (A) (A) (A) (A) (A) (A) (A) (A) (A) (A) (A)
                 (A) (A) (A) (A) (A) (A) (A) (A) (A) (A) (A) (A)
                 (A) (A) (A) (A) (A) (A) (A) (A) (A) (A) (A) (A)
                 (A) (A) (A) (A) (A) (A) (A) (A) (A) (A) (A) (A)
                 (A) (A) (A) (A) (A) (A) (A) (A) (A) (A) (A) (A)
                 (A) (A) (A) (A) (A) (A) (A) (A) (A) (A) (A) (A)
                 (A) (A) (A) (A) (A) (A) (A) (A) (A) (A) (A) (A)
                 (A) (A) (A) (A) (A) (A) (A) (A) (A) (A) (A) (A)
                 (A) (A) (A) (A) (A) (A) (A) (A) (A) (A) (A) (A)
                 (A) (A) (A) (A) (A) (A) (A) (A) (A) (A) (A) (A)
                 (A) (A) (A) (A) (A) (A) (A) (A) (A) (A) (A) (A)
                 (A) (A) (A) (A) (A) (A) (A) (A) (A) (A) (A) (A)
                 (A) (A) (A) (A) (A) (A) (A) (A) (A) (A) (A) (A)
                 (A) (A) (A) (A) (A) (A) (A) (A) (A) (A) (A) (A)
                 (A) (A) (A) (A) (A) (A) (A) (A) (A) (A) (A) (A)
                 (A) (A) (A) (A) (A) (A) (A) (A) (A) (A) (A) (A)
                 (A) (A) (A) (A) (A) (A) (A) (A) (A) (A) (A) (A)
                 (A) (A) (A) (A) (A) (A) (A) (A) (A) (A) (A) (A)
                 (A) (A) (A) (A) (A) (A) (A) (A) (A) (A) (A) (A)
                 (A) (A) (A) (A) (A) (A) (A) (A) (A) (A) (A) (A)
                 (A) (A) (A) (A) (A) (A) (A) (A) (A) (A) (A) (A)
                 (A) (A) (A) (A) (A) (A) (A) (A) (A) (A) (A) (A)
                 (A) (A) (A) (A) (A) (A) (A) (A) (A) (A) (A) (A)
                 (A) (A) (A) (A) (A) (A) (A) (A) (A) (A) (A) (A)
                 (A) (A) (A) (A) (A) (A) (A) (A) (A) (A) (A) (A)
                 (A) (A) (A) (A) (A) (A) (A) (A) (A) (A) (A) (A)
                 (A) (A) (A) (A) (A) (A) (A) (A) (A) (A) (A) (A)
                 (A) (A) (A) (A) (A) (A) (A) (A) (A) (A) (A) (A)
                 (A) (A) (A) (A) (A) (A) (A) (A) (A) (A) (A) (A)
                 (A) (A) (A) (A) (A) (A) (A) (A) (A) (A) (A) (A)
                 (A) (A) (A) (A) (A) (A) (A) (A) (A) (A) (A) (A)
                 (A) (A) (A) (A) (A) (A) (A) (A) (A) (A) (A) (A)
                 (A) (A) (A) (A) (A) (A) (A) (A) (A) (A) (A) (A)
                 (A) (A) (A) (A) (A) (A) (A) (A) (A) (A) (A) (A)
                 (A) (A) (A) (A) (A) (A) (A) (A) (A) (A) (A) (A)
                 (A) (A) (A) (A) (A) (A) (A) (A) (A) (A) (A) (A)
                 (A) (A) (A) (A) (A) (A) (A) (A) (A) (A) (A) (A)
                 (A) (A) (A) (A) (A) (A) (A) (A) (A) (A) (A) (A)
                 (A) (A) (A) (A) (A) (A) (A) (A) (A) (A) (A) (A)
                 (A) (A) (A) (A) (A) (A) (A) (A) (A) (A) (A) (A)
                 (A) (A) (A) (A) (A) (A) (A) (A) (A) (A) (A) (A)
                 (A) (A) (A) (A) (A) (A) (A) (A) (A) (A) (A) (A)
                 (A) (A) (A) (A) (A) (A) (A) (A) (A) (A) (A) (A)
                 (A) (A) (A) (A) (A) (A) (A) (A) (A) (A) (A) (A)
                 (A) (A) (A) (A) (A) (A) (A) (A) (A) (A) (A) (A)
                 (A) (A) (A) (A) (A) (A) (A) (A) (A) (A) (A) (A)
                 (A) (A) (A) (A) (A) (A) (A) (A) (A) (A) (A) (A)
                 (A) (A) (A) (A) (A) (A) (A) (A) (A) (A) (A) (A)
                 (A) (A) (A) (A) (A) (A) (A) (A) (A) (A) (A) (A)
                 (A) (A) (A) (A) (A) (A) (A) (A) (A) (A) (A) (A)
                 (A) (A) (A) (A) (A) (A) (A) (A) (A) (A) (A) (A)
                 (A) (A) (A) (A) (A) (A) (A) (A) (A) (A) (A) (A)
                 (A) (A) (A) (A) (A) (A) (A) (A) (A) (A) (A) (A)
                 (A) (A) (A) (A) (A) (A) (A) (A) (A) (A) (A) (A)
                 (A) (A) (A) (A) (A) (A) (A) (A) (A) (A) (A) (A)
                 (A) (A) (A) (A) (A) (A) (A) (A) (A) (A) (A) (A)
                 (A) (A) (A) (A) (A) (A) (A) (A) (A) (A) (A) (A)
                 (A) (A) (A) (A) (A) (A) (A) (A) (A) (A) (A) (A)
                 (A) (A) (A) (A) (A) (A) (A) (A) (A) (A) (A) (A)
                 (A) (A) (A) (A) (A) (A) (A) (A) (A) (A) (A) (A)
                 (A) (A) (A) (A) (A) (A) (A) (A) (A) (A) (A) (A)
                 (A) (A) (A) (A) (A) (A) (A) (A) (A) (A) (A) (A)
                 (A) (A) (A) (A) (A) (A) (A) (A) (A) (A) (A) (A)
                 (A) (A) (A) (A) (A) (A) (A) (A) (A) (A) (A) (A)
                 (A) (A) (A) (A) (A) (A) (A) (A) (A) (A) (A) (A)
                 (A) (A) (A) (A) (A) (A) (A) (A) (A) (A) (A) (A)
                 (A) (A) (A) (A) (A) (A) (A) (A) (A) (A) (A) (A)
                 (A) (A) (A) (A) (A) (A) (A) (A) (A) (A) (A) (A)
                 (A) (A) (A) (A) (A) (A) (A) (A) (A) (A) (A) (A)
                 (A) (A) (A) (A) (A) (A) (A) (A) (A) (A) (A) (A)
                 (A) (A) (A) (A) (A) (A) (A) (A) (A) (A) (A) (A)
                 (A) (A) (A) (A) (A) (A) (A) (A) (A) (A) (A) (A)
                 (A) (A) (A) (A) (A) (A) (A) (A) (A) (A) (A) (A)
                 (A) (A) (A) (A) (A) (A) (A) (A) (A) (A) (A) (A)
                 (A) (A) (A) (A) (A) (A) (A) (A) (A) (A) (A) (A)
                 (A) (A) (A) (A) (A) (A) (A) (A) (A) (A) (A) (A)
                 (A) (A) (A) (A) (A) (A) (A) (A) (A) (A) (A) (A)
                 (A) (A) (A) (A) (A) (A)
     8 initial guesses have been made.
 Convergence on wavefunction:    0.001000000000000
 Iteration     1 Dimension     8 NMult     0 NNew      8
 CISAX will form     8 AO SS matrices at one time.
 Iteration     2 Dimension    12 NMult     8 NNew      4
 Iteration     3 Dimension    16 NMult    12 NNew      4
