 Entering Gaussian System, Link 0=g16
 Input=Geometria-170-.com
 Output=Geometria-170-.log
 Initial command:
 /usr/local/g16/l1.exe "/home/padawan/israel-mol/chlorophyll-a/spectra/emi/Gau-9135.inp" -scrdir="/home/padawan/israel-mol/chlorophyll-a/spectra/emi/"
 Entering Link 1 = /usr/local/g16/l1.exe PID=      9137.
  
 Copyright (c) 1988,1990,1992,1993,1995,1998,2003,2009,2016,
            Gaussian, Inc.  All Rights Reserved.
  
 This is part of the Gaussian(R) 16 program.  It is based on
 the Gaussian(R) 09 system (copyright 2009, Gaussian, Inc.),
 the Gaussian(R) 03 system (copyright 2003, Gaussian, Inc.),
 the Gaussian(R) 98 system (copyright 1998, Gaussian, Inc.),
 the Gaussian(R) 94 system (copyright 1995, Gaussian, Inc.),
 the Gaussian 92(TM) system (copyright 1992, Gaussian, Inc.),
 the Gaussian 90(TM) system (copyright 1990, Gaussian, Inc.),
 the Gaussian 88(TM) system (copyright 1988, Gaussian, Inc.),
 the Gaussian 86(TM) system (copyright 1986, Carnegie Mellon
 University), and the Gaussian 82(TM) system (copyright 1983,
 Carnegie Mellon University). Gaussian is a federally registered
 trademark of Gaussian, Inc.
  
 This software contains proprietary and confidential information,
 including trade secrets, belonging to Gaussian, Inc.
  
 This software is provided under written license and may be
 used, copied, transmitted, or stored only in accord with that
 written license.
  
 The following legend is applicable only to US Government
 contracts under FAR:
  
                    RESTRICTED RIGHTS LEGEND
  
 Use, reproduction and disclosure by the US Government is
 subject to restrictions as set forth in subparagraphs (a)
 and (c) of the Commercial Computer Software - Restricted
 Rights clause in FAR 52.227-19.
  
 Gaussian, Inc.
 340 Quinnipiac St., Bldg. 40, Wallingford CT 06492
  
  
 ---------------------------------------------------------------
 Warning -- This program may not be used in any manner that
 competes with the business of Gaussian, Inc. or will provide
 assistance to any competitor of Gaussian, Inc.  The licensee
 of this program is prohibited from giving any competitor of
 Gaussian, Inc. access to this program.  By using this program,
 the user acknowledges that Gaussian, Inc. is engaged in the
 business of creating and licensing software in the field of
 computational chemistry and represents and warrants to the
 licensee that it is not a competitor of Gaussian, Inc. and that
 it will not use this program in any manner prohibited above.
 ---------------------------------------------------------------
  

 Cite this work as:
 Gaussian 16, Revision A.03,
 M. J. Frisch, G. W. Trucks, H. B. Schlegel, G. E. Scuseria, 
 M. A. Robb, J. R. Cheeseman, G. Scalmani, V. Barone, 
 G. A. Petersson, H. Nakatsuji, X. Li, M. Caricato, A. V. Marenich, 
 J. Bloino, B. G. Janesko, R. Gomperts, B. Mennucci, H. P. Hratchian, 
 J. V. Ortiz, A. F. Izmaylov, J. L. Sonnenberg, D. Williams-Young, 
 F. Ding, F. Lipparini, F. Egidi, J. Goings, B. Peng, A. Petrone, 
 T. Henderson, D. Ranasinghe, V. G. Zakrzewski, J. Gao, N. Rega, 
 G. Zheng, W. Liang, M. Hada, M. Ehara, K. Toyota, R. Fukuda, 
 J. Hasegawa, M. Ishida, T. Nakajima, Y. Honda, O. Kitao, H. Nakai, 
 T. Vreven, K. Throssell, J. A. Montgomery, Jr., J. E. Peralta, 
 F. Ogliaro, M. J. Bearpark, J. J. Heyd, E. N. Brothers, K. N. Kudin, 
 V. N. Staroverov, T. A. Keith, R. Kobayashi, J. Normand, 
 K. Raghavachari, A. P. Rendell, J. C. Burant, S. S. Iyengar, 
 J. Tomasi, M. Cossi, J. M. Millam, M. Klene, C. Adamo, R. Cammi, 
 J. W. Ochterski, R. L. Martin, K. Morokuma, O. Farkas, 
 J. B. Foresman, and D. J. Fox, Gaussian, Inc., Wallingford CT, 2016.
 
 ******************************************
 Gaussian 16:  ES64L-G16RevA.03 25-Dec-2016
                 9-Sep-2019 
 ******************************************
 %nproc=4
 Will use up to    4 processors via shared memory.
 %Mem=3GB
 ----------------------------------------------------------------------
 # td=(NStates=1) iop(3/107=0140000000,3/108=0140000000) CAM-B3LYP/6-31
 G(d,p)
 ----------------------------------------------------------------------
 1/38=1,172=1/1;
 2/12=2,17=6,18=5,40=1/2;
 3/5=1,6=6,7=101,11=9,25=1,30=1,74=-40,107=140000000,108=140000000/1,2,3,8;
 4//1;
 5/5=2,38=5/2;
 8/6=1,10=2,108=1/1;
 9/41=1,42=1,70=2/14;
 6/7=2,8=2,9=2,10=2/1;
 99/5=1,9=1/99;
 --
 TD
 --
 Symbolic Z-matrix:
 Charge =  0 Multiplicity = 1
 12                   -7.14238   0.65649   0.1263 
 6                    -4.84189  -1.97233   0.40587 
 6                    -4.79603   2.75408   1.08662 
 6                    -9.37144   3.1911   -0.47354 
 6                    -9.57238  -1.70766  -0.8672 
 7                    -5.11383   0.3871    0.75583 
 6                    -4.35172  -0.80426   0.83513 
 6                    -2.89276  -0.46427   1.26735 
 6                    -3.00312   0.95487   1.63765 
 6                    -4.46906   1.40311   1.15088 
 6                    -2.86023   1.18838   3.12491 
 6                    -1.94866  -0.61884  -0.00548 
 6                    -0.55422  -0.5198    0.45236 
 6                     0.60214  -0.7258   -0.55644 
 8                     0.30642  -1.22672  -1.75589 
 8                     1.78486  -0.53637  -0.14875 
 7                    -7.09318   2.61965   0.33074 
 6                    -6.011     3.36624   0.78404 
 6                    -6.39361   4.73617   0.75698 
 6                    -7.69689   4.78978   0.37916 
 6                    -8.08223   3.42523   0.0842 
 6                    -5.44004   5.86084   1.19527 
 6                    -8.39697   6.07336   0.07232 
 6                    -8.39488   7.12008   0.81619 
 7                    -9.14791   0.69744  -0.3741 
 6                    -9.85971   1.83021  -0.67345 
 6                    -11.21922   1.5599   -1.16116 
 6                    -11.29042   0.20456  -1.22173 
 6                    -9.92847  -0.34399  -0.6656 
 6                    -12.27677   2.55641  -1.46585 
 6                    -12.41542  -0.68601  -1.80398 
 6                    -12.23267  -1.21568  -3.1758 
 7                    -7.27618  -1.34742  -0.14193 
 6                    -8.31375  -2.16624  -0.50067 
 6                    -7.96455  -3.57304  -0.5375 
 6                    -6.56174  -3.51536  -0.19513 
 6                    -6.19404  -2.11677   0.01212 
 6                    -8.58052  -4.82615  -0.81337 
 6                    -5.43643  -4.32799   0.1876 
 8                    -5.2194   -5.57807   0.0587 
 6                    -4.19627  -3.28816   0.52583 
 6                    -3.66092  -3.70968   1.91553 
 8                    -3.8763   -3.07765   2.84062 
 8                    -2.71243  -4.72421   1.80623 
 6                    -2.22823  -5.21899   3.11699 
 6                     2.78993  -0.71793  -1.12913 
 6                     4.14144  -0.52889  -0.54856 
 6                     5.15926   0.33033  -0.89213 
 6                     5.09634   1.29117  -2.15171 
 6                     6.45877   0.29159  -0.21535 
 6                     7.64315  -0.0149   -1.0333 
 6                     8.90216  -0.14589  -0.0454 
 6                     10.01469  -0.49674  -0.78548 
 6                     9.94712  -1.97046  -1.27022 
 6                     11.45407  -0.24193   0.02556 
 6                     12.72023  -0.34095  -0.65958 
 6                     13.92841   0.20866   0.11337 
 6                     15.33185  -0.01794  -0.54503 
 6                     15.64    -1.62001  -0.7102 
 6                     16.46216   0.55962   0.32978 
 6                     17.88185   0.48066  -0.22061 
 6                     18.88704   1.19151   0.62985 
 6                     20.31237   1.26596   0.20591 
 6                     20.45522   2.20058  -1.0367 
 6                     21.24884   1.73486   1.27647 
 1                    -4.06493   3.45976   1.41406 
 1                    -9.86088   3.9897   -0.63653 
 1                    -10.30913  -2.22722  -1.07931 
 1                    -2.46928  -1.16368   1.9234 
 1                    -2.06918   1.45446   1.12676 
 1                    -1.92744   0.72334   3.3789 
 1                    -3.06242   2.21768   3.54612 
 1                    -3.5144    0.48177   3.64861 
 1                    -2.19279  -1.56744  -0.30869 
 1                    -2.13619  -0.0887   -1.06069 
 1                    -0.416     0.53685   0.73525 
 1                    -0.26209  -1.41675   1.2025 
 1                    -5.29308   6.78617   0.45404 
 1                    -5.71134   6.51647   2.25368 
 1                    -4.41373   5.39987   1.34849 
 1                    -9.23561   6.00189  -0.53495 
 1                    -9.01692   8.00977   0.63779 
 1                    -7.59677   7.29333   1.64224 
 1                    -12.13722   3.08326  -2.59891 
 1                    -13.26698   2.04162  -1.60972 
 1                    -12.20942   3.40353  -0.73984 
 1                    -12.42992  -1.37784  -1.09382 
 1                    -13.28107  -0.21722  -1.6223 
 1                    -13.12957  -1.70081  -3.45004 
 1                    -12.3115  -0.28491  -4.01522 
 1                    -11.2853  -1.58996  -3.49582 
 1                    -9.18151  -4.73497  -1.83929 
 1                    -8.02542  -5.61552  -0.88248 
 1                    -9.61193  -5.1442   -0.07885 
 1                    -3.28     -3.47699  -0.23227 
 1                    -1.45838  -4.64478   3.44777 
 1                    -3.1642   -5.45553   3.92815 
 1                    -1.72092  -6.22768   2.84968 
 1                     2.57361  -1.85761  -1.28787 
 1                     2.71585  -0.3529   -2.13228 
 1                     4.57967  -1.2228    0.27037 
 1                     4.08784   1.49696  -2.65577 
 1                     5.50315   2.2354   -1.79756 
 1                     5.73552   0.82179  -3.03162 
 1                     6.64092   1.40393   0.36738 
 1                     6.29669  -0.28535   0.63178 
 1                     7.58099  -1.09937  -1.40389 
 1                     7.7559    0.53124  -1.90311 
 1                     8.98785   0.70351   0.42012 
 1                     8.52312  -0.90413   0.59326 
 1                     10.04327  -0.05428  -1.74992 
 1                     9.26478  -2.19489  -1.84909 
 1                     10.8537  -2.27311  -1.81357 
 1                     9.83235  -2.59457  -0.37585 
 1                     11.32461   0.66625   0.4928 
 1                     11.50587  -0.9207    0.80263 
 1                     12.97649  -1.37412  -0.59287 
 1                     12.74308   0.04438  -1.63302 
 1                     13.84279   1.09095   0.58028 
 1                     13.97883  -0.61498   1.1191 
 1                     15.37502   0.48005  -1.65426 
 1                     15.479   -2.30116   0.13935 
 1                     14.98453  -1.98231  -1.50487 
 1                     16.63053  -1.67553  -1.11233 
 1                     16.11054   1.50558   0.68221 
 1                     16.44927  -0.14404   1.22133 
 1                     18.21338  -0.62151  -0.27397 
 1                     17.95013   0.72367  -1.33732 
 1                     18.75149   2.29375   0.85291 
 1                     18.98549   0.66025   1.62644 
 1                     20.65001   0.26777  -0.11502 
 1                     20.23466   3.09803  -0.87497 
 1                     21.4969   2.1622   -1.52814 
 1                     19.84074   1.92159  -1.84956 
 1                     21.19912   1.0895    2.22677 
 1                     22.27391   1.60524   0.81452 
 1                     21.18412   2.86649   1.69304 
 
 Stoichiometry    C55H72MgN4O5
 Framework group  C1[X(C55H72MgN4O5)]
 Deg. of freedom   405
 Full point group                 C1      NOp   1
 Largest Abelian subgroup         C1      NOp   1
 Largest concise Abelian subgroup C1      NOp   1
                         Standard orientation:                         
 ---------------------------------------------------------------------
 Center     Atomic      Atomic             Coordinates (Angstroms)
 Number     Number       Type             X           Y           Z
 ---------------------------------------------------------------------
      1         12           0       -7.144192    0.662703    0.130401
      2          6           0       -4.845364   -1.969057    0.395665
      3          6           0       -4.796277    2.753684    1.101260
      4          6           0       -9.371724    3.201876   -0.455640
      5          6           0       -9.575938   -1.694613   -0.875024
      6          7           0       -5.115690    0.388685    0.758094
      7          6           0       -4.354340   -0.803578    0.830968
      8          6           0       -2.895070   -0.466819    1.264672
      9          6           0       -3.004438    0.950434    1.642452
     10          6           0       -4.470177    1.402183    1.158346
     11          6           0       -2.861094    1.176022    3.130888
     12          6           0       -1.951333   -0.615300   -0.009146
     13          6           0       -0.556737   -0.519575    0.448917
     14          6           0        0.599288   -0.721022   -0.561184
     15          8           0        0.302999   -1.215431   -1.763199
     16          8           0        1.782209   -0.534514   -0.152750
     17          7           0       -7.093668    2.624719    0.345160
     18          6           0       -6.010914    3.368215    0.802159
     19          6           0       -6.392639    4.738517    0.782383
     20          6           0       -7.695960    4.794962    0.405118
     21          6           0       -8.082243    3.432233    0.103056
     22          6           0       -5.438239    5.860240    1.226383
     23          6           0       -8.395260    6.080591    0.105171
     24          6           0       -8.392336    7.123386    0.854534
     25          7           0       -9.149800    0.707583   -0.369368
     26          6           0       -9.860921    1.842375   -0.662605
     27          6           0      -11.220698    1.575518   -1.151452
     28          6           0      -11.292797    0.220565   -1.219137
     29          6           0       -9.931095   -0.331792   -0.666176
     30          6           0      -12.277662    2.574311   -1.450675
     31          6           0      -12.418492   -0.666200   -1.805830
     32          6           0      -12.236364   -1.188763   -3.180453
     33          7           0       -7.279354   -1.339685   -0.148334
     34          6           0       -8.317525   -2.155926   -0.511168
     35          6           0       -7.969253   -3.562743   -0.555471
     36          6           0       -6.566342   -3.507785   -0.213088
     37          6           0       -6.197688   -2.110539    0.001445
     38          6           0       -8.586098   -4.813984   -0.837803
     39          6           0       -5.441480   -4.323141    0.165137
     40          8           0       -5.225296   -5.572675    0.029617
     41          6           0       -4.200579   -3.285912    0.508574
     42          6           0       -3.665220   -3.715087    1.895925
     43          8           0       -3.880001   -3.087788    2.824371
     44          8           0       -2.717410   -4.729648    1.781097
     45          6           0       -2.233274   -5.231627    3.089137
     46          6           0        2.786961   -0.711565   -1.134274
     47          6           0        4.138711   -0.526460   -0.552996
     48          6           0        5.157028    0.333890   -0.892255
     49          6           0        5.094482    1.301381   -2.146748
     50          6           0        6.456649    0.290745   -0.215955
     51          6           0        7.640658   -0.012209   -1.035751
     52          6           0        8.899784   -0.149210   -0.048809
     53          6           0       10.011934   -0.496891   -0.790956
     54          6           0        9.943306   -1.968000   -1.283427
     55          6           0       11.451647   -0.247286    0.021127
     56          6           0       12.717603   -0.343530   -0.664792
     57          6           0       13.926302    0.201219    0.110791
     58          6           0       15.329456   -0.022824   -0.549077
     59          6           0       15.636529   -1.624203   -0.722738
     60          6           0       16.460323    0.549393    0.328524
     61          6           0       17.879843    0.472405   -0.222561
     62          6           0       18.885671    1.178112    0.631415
     63          6           0       20.310969    1.253862    0.207581
     64          6           0       20.454172    2.194913   -1.030121
     65          6           0       21.247956    1.716513    1.280405
     66          1           0       -4.064652    3.457151    1.432256
     67          1           0       -9.860670    4.001646   -0.614325
     68          1           0      -10.313061   -2.212566   -1.089705
     69          1           0       -2.471922   -1.169938    1.916943
     70          1           0       -2.070272    1.452089    1.134001
     71          1           0       -1.928550    0.709045    3.382237
     72          1           0       -3.062529    2.203223    3.557552
     73          1           0       -3.515621    0.467095    3.650997
     74          1           0       -2.196146   -1.562132   -0.317294
     75          1           0       -2.138729   -0.079498   -1.061521
     76          1           0       -0.417766    0.535481    0.737332
     77          1           0       -0.265044   -1.420655    1.194274
     78          1           0       -5.290833    6.789361    0.489995
     79          1           0       -5.708905    6.510479    2.288280
     80          1           0       -4.412199    5.397811    1.376961
     81          1           0       -9.234073    6.012868   -0.502297
     82          1           0       -9.013834    8.014406    0.680951
     83          1           0       -7.593946    7.291763    1.681327
     84          1           0      -12.138003    3.107019   -2.580976
     85          1           0      -13.268242    2.060931   -1.597048
     86          1           0      -12.209617    3.417553   -0.720241
     87          1           0      -12.433309   -1.361741   -1.099319
     88          1           0      -13.283804   -0.197809   -1.621508
     89          1           0      -13.133638   -1.671862   -3.457055
     90          1           0      -12.314763   -0.253535   -4.014952
     91          1           0      -11.289311   -1.561970   -3.502632
     92          1           0       -9.187238   -4.717019   -1.863101
     93          1           0       -8.031523   -5.603340   -0.911171
     94          1           0       -9.617562   -5.135226   -0.104750
     95          1           0       -3.284577   -3.471356   -0.250698
     96          1           0       -1.462980   -4.659666    3.422772
     97          1           0       -3.169235   -5.471819    3.899238
     98          1           0       -1.726677   -6.239233    2.816420
     99          1           0        2.569866   -1.850256   -1.298966
    100          1           0        2.712919   -0.341213   -2.135483
    101          1           0        4.576657   -1.224956    0.262179
    102          1           0        4.086016    1.510474   -2.649509
    103          1           0        5.501973    2.243477   -1.787718
    104          1           0        5.733178    0.836226   -3.029246
    105          1           0        6.639643    1.399886    0.372579
    106          1           0        6.294360   -0.290533    0.628163
    107          1           0        7.577720   -1.094675   -1.412018
    108          1           0        7.753591    0.538427   -1.902696
    109          1           0        8.986128    0.697670    0.421160
    110          1           0        8.520376   -0.910554    0.585928
    111          1           0       10.040610   -0.049381   -1.753057
    112          1           0        9.260702   -2.188931   -1.863328
    113          1           0       10.849586   -2.268374   -1.828540
    114          1           0        9.828307   -2.596730   -0.392329
    115          1           0       11.322877    0.658510    0.493156
    116          1           0       11.503159   -0.930172    0.794597
    117          1           0       12.973199   -1.377204   -0.603568
    118          1           0       12.740509    0.046903   -1.636191
    119          1           0       13.841343    1.081106    0.582358
    120          1           0       13.976380   -0.627726    1.112171
    121          1           0       15.372726    0.480967   -1.655678
    122          1           0       15.475258   -2.309707    0.123249
    123          1           0       14.980662   -1.981894   -1.519167
    124          1           0       16.626942   -1.678250   -1.125352
    125          1           0       16.109392    1.493712    0.686004
    126          1           0       16.447150   -0.158941    1.216366
    127          1           0       18.210645   -0.629686   -0.281785
    128          1           0       17.948062    0.721240   -1.337992
    129          1           0       18.750890    2.279255    0.860298
    130          1           0       18.983981    0.641557    1.625176
    131          1           0       20.647894    0.257156   -0.118657
    132          1           0       20.234232    3.091647   -0.863628
    133          1           0       21.495732    2.158440   -1.521972
    134          1           0       19.839350    1.920608   -1.844316
    135          1           0       21.198011    1.066205    2.227302
    136          1           0       22.272843    1.588663    0.817565
    137          1           0       21.184057    2.845986    1.702929
 ---------------------------------------------------------------------
 Rotational constants (GHZ):           0.0651800           0.0060747           0.0057243
 Standard basis: 6-31G(d,p) (6D, 7F)
 There are  1339 symmetry adapted cartesian basis functions of A   symmetry.
 There are  1339 symmetry adapted basis functions of A   symmetry.
  1339 basis functions,  2348 primitive gaussians,  1339 cartesian basis functions
   241 alpha electrons      241 beta electrons
       nuclear repulsion energy      8757.8992603265 Hartrees.
 NAtoms=  137 NActive=  137 NUniq=  137 SFac= 1.00D+00 NAtFMM=   60 NAOKFM=T Big=T
 Integral buffers will be    131072 words long.
 Raffenetti 1 integral format.
 Two-electron integral symmetry is turned on.
 One-electron integrals computed using PRISM.
 NBasis=  1339 RedAO= T EigKep=  3.61D-04  NBF=  1339
 NBsUse=  1339 1.00D-06 EigRej= -1.00D+00 NBFU=  1339
 ExpMin= 4.21D-02 ExpMax= 1.17D+04 ExpMxC= 1.76D+03 IAcc=3 IRadAn=         5 AccDes= 0.00D+00
 Harris functional with IExCor=20419 and IRadAn=       5 diagonalized for initial guess.
 HarFok:  IExCor=20419 AccDes= 0.00D+00 IRadAn=         5 IDoV= 1 UseB2=F ITyADJ=14
 ICtDFT=  3500011 ScaDFX=  1.000000  1.000000  1.000000  1.000000
 FoFCou: FMM=F IPFlag=           0 FMFlag=      100000 FMFlg1=        2001
         NFxFlg=           0 DoJE=T BraDBF=F KetDBF=T FulRan=T
         wScrn=  0.000000 ICntrl=       500 IOpCl=  0 I1Cent=   200000004 NGrid=           0
         NMat0=    1 NMatS0=      1 NMatT0=    0 NMatD0=    1 NMtDS0=    0 NMtDT0=    0
 Petite list used in FoFCou.
 Requested convergence on RMS density matrix=1.00D-08 within 128 cycles.
 Requested convergence on MAX density matrix=1.00D-06.
 Requested convergence on             energy=1.00D-06.
 No special actions if energy rises.
 SCF Done:  E(RCAM-B3LYP) =  -2933.38590548     A.U. after   16 cycles
            NFock= 16  Conv=0.51D-08     -V/T= 2.0085
 DoSCS=F DFT=T ScalE2(SS,OS)=  1.000000  1.000000
 ExpMin= 4.21D-02 ExpMax= 1.17D+04 ExpMxC= 1.76D+03 IAcc=3 IRadAn=         5 AccDes= 0.00D+00
 HarFok:  IExCor=  205 AccDes= 0.00D+00 IRadAn=         5 IDoV=-2 UseB2=F ITyADJ=14
 ICtDFT= 12500011 ScaDFX=  1.000000  1.000000  1.000000  1.000000
 GSVD:  LWork=       -5313 too small for GESVD, short by       24840 words or       24840 for optimal perf.
 Range of M.O.s used for correlation:    70  1339
 NBasis=  1339 NAE=   241 NBE=   241 NFC=    69 NFV=     0
 NROrb=   1270 NOA=   172 NOB=   172 NVA=  1098 NVB=  1098
 Orbital symmetries:
       Occupied  (A) (A) (A) (A) (A) (A) (A) (A) (A) (A) (A) (A)
                 (A) (A) (A) (A) (A) (A) (A) (A) (A) (A) (A) (A)
                 (A) (A) (A) (A) (A) (A) (A) (A) (A) (A) (A) (A)
                 (A) (A) (A) (A) (A) (A) (A) (A) (A) (A) (A) (A)
                 (A) (A) (A) (A) (A) (A) (A) (A) (A) (A) (A) (A)
                 (A) (A) (A) (A) (A) (A) (A) (A) (A) (A) (A) (A)
                 (A) (A) (A) (A) (A) (A) (A) (A) (A) (A) (A) (A)
                 (A) (A) (A) (A) (A) (A) (A) (A) (A) (A) (A) (A)
                 (A) (A) (A) (A) (A) (A) (A) (A) (A) (A) (A) (A)
                 (A) (A) (A) (A) (A) (A) (A) (A) (A) (A) (A) (A)
                 (A) (A) (A) (A) (A) (A) (A) (A) (A) (A) (A) (A)
                 (A) (A) (A) (A) (A) (A) (A) (A) (A) (A) (A) (A)
                 (A) (A) (A) (A) (A) (A) (A) (A) (A) (A) (A) (A)
                 (A) (A) (A) (A) (A) (A) (A) (A) (A) (A) (A) (A)
                 (A) (A) (A) (A) (A) (A) (A) (A) (A) (A) (A) (A)
                 (A) (A) (A) (A) (A) (A) (A) (A) (A) (A) (A) (A)
                 (A) (A) (A) (A) (A) (A) (A) (A) (A) (A) (A) (A)
                 (A) (A) (A) (A) (A) (A) (A) (A) (A) (A) (A) (A)
                 (A) (A) (A) (A) (A) (A) (A) (A) (A) (A) (A) (A)
                 (A) (A) (A) (A) (A) (A) (A) (A) (A) (A) (A) (A)
                 (A)
       Virtual   (A) (A) (A) (A) (A) (A) (A) (A) (A) (A) (A) (A)
                 (A) (A) (A) (A) (A) (A) (A) (A) (A) (A) (A) (A)
                 (A) (A) (A) (A) (A) (A) (A) (A) (A) (A) (A) (A)
                 (A) (A) (A) (A) (A) (A) (A) (A) (A) (A) (A) (A)
                 (A) (A) (A) (A) (A) (A) (A) (A) (A) (A) (A) (A)
                 (A) (A) (A) (A) (A) (A) (A) (A) (A) (A) (A) (A)
                 (A) (A) (A) (A) (A) (A) (A) (A) (A) (A) (A) (A)
                 (A) (A) (A) (A) (A) (A) (A) (A) (A) (A) (A) (A)
                 (A) (A) (A) (A) (A) (A) (A) (A) (A) (A) (A) (A)
                 (A) (A) (A) (A) (A) (A) (A) (A) (A) (A) (A) (A)
                 (A) (A) (A) (A) (A) (A) (A) (A) (A) (A) (A) (A)
                 (A) (A) (A) (A) (A) (A) (A) (A) (A) (A) (A) (A)
                 (A) (A) (A) (A) (A) (A) (A) (A) (A) (A) (A) (A)
                 (A) (A) (A) (A) (A) (A) (A) (A) (A) (A) (A) (A)
                 (A) (A) (A) (A) (A) (A) (A) (A) (A) (A) (A) (A)
                 (A) (A) (A) (A) (A) (A) (A) (A) (A) (A) (A) (A)
                 (A) (A) (A) (A) (A) (A) (A) (A) (A) (A) (A) (A)
                 (A) (A) (A) (A) (A) (A) (A) (A) (A) (A) (A) (A)
                 (A) (A) (A) (A) (A) (A) (A) (A) (A) (A) (A) (A)
                 (A) (A) (A) (A) (A) (A) (A) (A) (A) (A) (A) (A)
                 (A) (A) (A) (A) (A) (A) (A) (A) (A) (A) (A) (A)
                 (A) (A) (A) (A) (A) (A) (A) (A) (A) (A) (A) (A)
                 (A) (A) (A) (A) (A) (A) (A) (A) (A) (A) (A) (A)
                 (A) (A) (A) (A) (A) (A) (A) (A) (A) (A) (A) (A)
                 (A) (A) (A) (A) (A) (A) (A) (A) (A) (A) (A) (A)
                 (A) (A) (A) (A) (A) (A) (A) (A) (A) (A) (A) (A)
                 (A) (A) (A) (A) (A) (A) (A) (A) (A) (A) (A) (A)
                 (A) (A) (A) (A) (A) (A) (A) (A) (A) (A) (A) (A)
                 (A) (A) (A) (A) (A) (A) (A) (A) (A) (A) (A) (A)
                 (A) (A) (A) (A) (A) (A) (A) (A) (A) (A) (A) (A)
                 (A) (A) (A) (A) (A) (A) (A) (A) (A) (A) (A) (A)
                 (A) (A) (A) (A) (A) (A) (A) (A) (A) (A) (A) (A)
                 (A) (A) (A) (A) (A) (A) (A) (A) (A) (A) (A) (A)
                 (A) (A) (A) (A) (A) (A) (A) (A) (A) (A) (A) (A)
                 (A) (A) (A) (A) (A) (A) (A) (A) (A) (A) (A) (A)
                 (A) (A) (A) (A) (A) (A) (A) (A) (A) (A) (A) (A)
                 (A) (A) (A) (A) (A) (A) (A) (A) (A) (A) (A) (A)
                 (A) (A) (A) (A) (A) (A) (A) (A) (A) (A) (A) (A)
                 (A) (A) (A) (A) (A) (A) (A) (A) (A) (A) (A) (A)
                 (A) (A) (A) (A) (A) (A) (A) (A) (A) (A) (A) (A)
                 (A) (A) (A) (A) (A) (A) (A) (A) (A) (A) (A) (A)
                 (A) (A) (A) (A) (A) (A) (A) (A) (A) (A) (A) (A)
                 (A) (A) (A) (A) (A) (A) (A) (A) (A) (A) (A) (A)
                 (A) (A) (A) (A) (A) (A) (A) (A) (A) (A) (A) (A)
                 (A) (A) (A) (A) (A) (A) (A) (A) (A) (A) (A) (A)
                 (A) (A) (A) (A) (A) (A) (A) (A) (A) (A) (A) (A)
                 (A) (A) (A) (A) (A) (A) (A) (A) (A) (A) (A) (A)
                 (A) (A) (A) (A) (A) (A) (A) (A) (A) (A) (A) (A)
                 (A) (A) (A) (A) (A) (A) (A) (A) (A) (A) (A) (A)
                 (A) (A) (A) (A) (A) (A) (A) (A) (A) (A) (A) (A)
                 (A) (A) (A) (A) (A) (A) (A) (A) (A) (A) (A) (A)
                 (A) (A) (A) (A) (A) (A) (A) (A) (A) (A) (A) (A)
                 (A) (A) (A) (A) (A) (A) (A) (A) (A) (A) (A) (A)
                 (A) (A) (A) (A) (A) (A) (A) (A) (A) (A) (A) (A)
                 (A) (A) (A) (A) (A) (A) (A) (A) (A) (A) (A) (A)
                 (A) (A) (A) (A) (A) (A) (A) (A) (A) (A) (A) (A)
                 (A) (A) (A) (A) (A) (A) (A) (A) (A) (A) (A) (A)
                 (A) (A) (A) (A) (A) (A) (A) (A) (A) (A) (A) (A)
                 (A) (A) (A) (A) (A) (A) (A) (A) (A) (A) (A) (A)
                 (A) (A) (A) (A) (A) (A) (A) (A) (A) (A) (A) (A)
                 (A) (A) (A) (A) (A) (A) (A) (A) (A) (A) (A) (A)
                 (A) (A) (A) (A) (A) (A) (A) (A) (A) (A) (A) (A)
                 (A) (A) (A) (A) (A) (A) (A) (A) (A) (A) (A) (A)
                 (A) (A) (A) (A) (A) (A) (A) (A) (A) (A) (A) (A)
                 (A) (A) (A) (A) (A) (A) (A) (A) (A) (A) (A) (A)
                 (A) (A) (A) (A) (A) (A) (A) (A) (A) (A) (A) (A)
                 (A) (A) (A) (A) (A) (A) (A) (A) (A) (A) (A) (A)
                 (A) (A) (A) (A) (A) (A) (A) (A) (A) (A) (A) (A)
                 (A) (A) (A) (A) (A) (A) (A) (A) (A) (A) (A) (A)
                 (A) (A) (A) (A) (A) (A) (A) (A) (A) (A) (A) (A)
                 (A) (A) (A) (A) (A) (A) (A) (A) (A) (A) (A) (A)
                 (A) (A) (A) (A) (A) (A) (A) (A) (A) (A) (A) (A)
                 (A) (A) (A) (A) (A) (A) (A) (A) (A) (A) (A) (A)
                 (A) (A) (A) (A) (A) (A) (A) (A) (A) (A) (A) (A)
                 (A) (A) (A) (A) (A) (A) (A) (A) (A) (A) (A) (A)
                 (A) (A) (A) (A) (A) (A) (A) (A) (A) (A) (A) (A)
                 (A) (A) (A) (A) (A) (A) (A) (A) (A) (A) (A) (A)
                 (A) (A) (A) (A) (A) (A) (A) (A) (A) (A) (A) (A)
                 (A) (A) (A) (A) (A) (A) (A) (A) (A) (A) (A) (A)
                 (A) (A) (A) (A) (A) (A) (A) (A) (A) (A) (A) (A)
                 (A) (A) (A) (A) (A) (A) (A) (A) (A) (A) (A) (A)
                 (A) (A) (A) (A) (A) (A) (A) (A) (A) (A) (A) (A)
                 (A) (A) (A) (A) (A) (A) (A) (A) (A) (A) (A) (A)
                 (A) (A) (A) (A) (A) (A) (A) (A) (A) (A) (A) (A)
                 (A) (A) (A) (A) (A) (A) (A) (A) (A) (A) (A) (A)
                 (A) (A) (A) (A) (A) (A) (A) (A) (A) (A) (A) (A)
                 (A) (A) (A) (A) (A) (A) (A) (A) (A) (A) (A) (A)
                 (A) (A) (A) (A) (A) (A) (A) (A) (A) (A) (A) (A)
                 (A) (A) (A) (A) (A) (A) (A) (A) (A) (A) (A) (A)
                 (A) (A) (A) (A) (A) (A) (A) (A) (A) (A) (A) (A)
                 (A) (A) (A) (A) (A) (A) (A) (A) (A) (A) (A) (A)
                 (A) (A) (A) (A) (A) (A)
     4 initial guesses have been made.
 Convergence on wavefunction:    0.001000000000000
 Iteration     1 Dimension     4 NMult     0 NNew      4
 CISAX will form     4 AO SS matrices at one time.
 New state      1 was old state      2
 Iteration     2 Dimension     6 NMult     4 NNew      2
 Iteration     3 Dimension     8 NMult     6 NNew      2
 Iteration     4 Dimension    10 NMult     8 NNew      2
 Iteration     5 Dimension    12 NMult    10 NNew      2
 Iteration     6 Dimension    14 NMult    12 NNew      2
 Iteration     7 Dimension    16 NMult    14 NNew      2
 Iteration     8 Dimension    18 NMult    16 NNew      2
 ***********************************************************************
 Excited states from <AA,BB:AA,BB> singles matrix:
 ***********************************************************************
 
 Ground to excited state transition densities written to RWF  633
 Ground to excited state transition electric dipole moments (Au):
       state          X           Y           Z        Dip. S.      Osc.
         1         0.3555      2.3475      0.3783      5.7800      0.2859
 Ground to excited state transition velocity dipole moments (Au):
       state          X           Y           Z        Dip. S.      Osc.
         1        -0.0252     -0.1679     -0.0284      0.0296      0.2663
 Ground to excited state transition magnetic dipole moments (Au):
       state          X           Y           Z
         1        -0.4215     -0.5188      3.5468
 Ground to excited state transition velocity quadrupole moments (Au):
       state          XX          YY          ZZ          XY          XZ          YZ
         1         0.6510     -0.1987     -0.0374      2.1873      0.3514     -0.1477
 <0|del|b> * <b|rxdel|0> + <0|del|b> * <b|delr+rdel|0>
 Rotatory Strengths (R) in cgs (10**-40 erg-esu-cm/Gauss)
       state          XX          YY          ZZ    R(velocity)    E-M Angle
         1       -78.6215   -115.4983    166.7858     -9.1113       90.26
 1/2[<0|r|b>*<b|rxdel|0> + (<0|rxdel|b>*<b|r|0>)*]
 Rotatory Strengths (R) in cgs (10**-40 erg-esu-cm/Gauss)
       state          XX          YY          ZZ     R(length)
         1       105.9573    861.2143   -948.7195      6.1507
  1/2[<0|del|b>*<b|r|0> + (<0|r|b>*<b|del|0>)*] (Au)
       state          X           Y           Z        Dip. S.   Osc.(frdel)
         1        -0.0089     -0.3942     -0.0107      0.4139      0.2759

 Excitation energies and oscillator strengths:
 
 Excited State   1:      Singlet-A      2.0192 eV  614.03 nm  f=0.2859  <S**2>=0.000
     240 -> 243        0.20210
     241 -> 242        0.67571
 This state for optimization and/or second-order correction.
 Total Energy, E(TD-HF/TD-DFT) =  -2933.31170212    
 Copying the excited state density for this state as the 1-particle RhoCI density.
 SavETr:  write IOETrn=   770 NScale= 10 NData=  16 NLR=1 NState=    1 LETran=      28.
 Hyperfine terms turned off by default for NAtoms > 100.

 **********************************************************************

            Population analysis using the SCF density.

 **********************************************************************

 Orbital symmetries:
       Occupied  (A) (A) (A) (A) (A) (A) (A) (A) (A) (A) (A) (A)
                 (A) (A) (A) (A) (A) (A) (A) (A) (A) (A) (A) (A)
                 (A) (A) (A) (A) (A) (A) (A) (A) (A) (A) (A) (A)
                 (A) (A) (A) (A) (A) (A) (A) (A) (A) (A) (A) (A)
                 (A) (A) (A) (A) (A) (A) (A) (A) (A) (A) (A) (A)
                 (A) (A) (A) (A) (A) (A) (A) (A) (A) (A) (A) (A)
                 (A) (A) (A) (A) (A) (A) (A) (A) (A) (A) (A) (A)
                 (A) (A) (A) (A) (A) (A) (A) (A) (A) (A) (A) (A)
                 (A) (A) (A) (A) (A) (A) (A) (A) (A) (A) (A) (A)
                 (A) (A) (A) (A) (A) (A) (A) (A) (A) (A) (A) (A)
                 (A) (A) (A) (A) (A) (A) (A) (A) (A) (A) (A) (A)
                 (A) (A) (A) (A) (A) (A) (A) (A) (A) (A) (A) (A)
                 (A) (A) (A) (A) (A) (A) (A) (A) (A) (A) (A) (A)
                 (A) (A) (A) (A) (A) (A) (A) (A) (A) (A) (A) (A)
                 (A) (A) (A) (A) (A) (A) (A) (A) (A) (A) (A) (A)
                 (A) (A) (A) (A) (A) (A) (A) (A) (A) (A) (A) (A)
                 (A) (A) (A) (A) (A) (A) (A) (A) (A) (A) (A) (A)
                 (A) (A) (A) (A) (A) (A) (A) (A) (A) (A) (A) (A)
                 (A) (A) (A) (A) (A) (A) (A) (A) (A) (A) (A) (A)
                 (A) (A) (A) (A) (A) (A) (A) (A) (A) (A) (A) (A)
                 (A)
       Virtual   (A) (A) (A) (A) (A) (A) (A) (A) (A) (A) (A) (A)
                 (A) (A) (A) (A) (A) (A) (A) (A) (A) (A) (A) (A)
                 (A) (A) (A) (A) (A) (A) (A) (A) (A) (A) (A) (A)
                 (A) (A) (A) (A) (A) (A) (A) (A) (A) (A) (A) (A)
                 (A) (A) (A) (A) (A) (A) (A) (A) (A) (A) (A) (A)
                 (A) (A) (A) (A) (A) (A) (A) (A) (A) (A) (A) (A)
                 (A) (A) (A) (A) (A) (A) (A) (A) (A) (A) (A) (A)
                 (A) (A) (A) (A) (A) (A) (A) (A) (A) (A) (A) (A)
                 (A) (A) (A) (A) (A) (A) (A) (A) (A) (A) (A) (A)
                 (A) (A) (A) (A) (A) (A) (A) (A) (A) (A) (A) (A)
                 (A) (A) (A) (A) (A) (A) (A) (A) (A) (A) (A) (A)
                 (A) (A) (A) (A) (A) (A) (A) (A) (A) (A) (A) (A)
                 (A) (A) (A) (A) (A) (A) (A) (A) (A) (A) (A) (A)
                 (A) (A) (A) (A) (A) (A) (A) (A) (A) (A) (A) (A)
                 (A) (A) (A) (A) (A) (A) (A) (A) (A) (A) (A) (A)
                 (A) (A) (A) (A) (A) (A) (A) (A) (A) (A) (A) (A)
                 (A) (A) (A) (A) (A) (A) (A) (A) (A) (A) (A) (A)
                 (A) (A) (A) (A) (A) (A) (A) (A) (A) (A) (A) (A)
                 (A) (A) (A) (A) (A) (A) (A) (A) (A) (A) (A) (A)
                 (A) (A) (A) (A) (A) (A) (A) (A) (A) (A) (A) (A)
                 (A) (A) (A) (A) (A) (A) (A) (A) (A) (A) (A) (A)
                 (A) (A) (A) (A) (A) (A) (A) (A) (A) (A) (A) (A)
                 (A) (A) (A) (A) (A) (A) (A) (A) (A) (A) (A) (A)
                 (A) (A) (A) (A) (A) (A) (A) (A) (A) (A) (A) (A)
                 (A) (A) (A) (A) (A) (A) (A) (A) (A) (A) (A) (A)
                 (A) (A) (A) (A) (A) (A) (A) (A) (A) (A) (A) (A)
                 (A) (A) (A) (A) (A) (A) (A) (A) (A) (A) (A) (A)
                 (A) (A) (A) (A) (A) (A) (A) (A) (A) (A) (A) (A)
                 (A) (A) (A) (A) (A) (A) (A) (A) (A) (A) (A) (A)
                 (A) (A) (A) (A) (A) (A) (A) (A) (A) (A) (A) (A)
                 (A) (A) (A) (A) (A) (A) (A) (A) (A) (A) (A) (A)
                 (A) (A) (A) (A) (A) (A) (A) (A) (A) (A) (A) (A)
                 (A) (A) (A) (A) (A) (A) (A) (A) (A) (A) (A) (A)
                 (A) (A) (A) (A) (A) (A) (A) (A) (A) (A) (A) (A)
                 (A) (A) (A) (A) (A) (A) (A) (A) (A) (A) (A) (A)
                 (A) (A) (A) (A) (A) (A) (A) (A) (A) (A) (A) (A)
                 (A) (A) (A) (A) (A) (A) (A) (A) (A) (A) (A) (A)
                 (A) (A) (A) (A) (A) (A) (A) (A) (A) (A) (A) (A)
                 (A) (A) (A) (A) (A) (A) (A) (A) (A) (A) (A) (A)
                 (A) (A) (A) (A) (A) (A) (A) (A) (A) (A) (A) (A)
                 (A) (A) (A) (A) (A) (A) (A) (A) (A) (A) (A) (A)
                 (A) (A) (A) (A) (A) (A) (A) (A) (A) (A) (A) (A)
                 (A) (A) (A) (A) (A) (A) (A) (A) (A) (A) (A) (A)
                 (A) (A) (A) (A) (A) (A) (A) (A) (A) (A) (A) (A)
                 (A) (A) (A) (A) (A) (A) (A) (A) (A) (A) (A) (A)
                 (A) (A) (A) (A) (A) (A) (A) (A) (A) (A) (A) (A)
                 (A) (A) (A) (A) (A) (A) (A) (A) (A) (A) (A) (A)
                 (A) (A) (A) (A) (A) (A) (A) (A) (A) (A) (A) (A)
                 (A) (A) (A) (A) (A) (A) (A) (A) (A) (A) (A) (A)
                 (A) (A) (A) (A) (A) (A) (A) (A) (A) (A) (A) (A)
                 (A) (A) (A) (A) (A) (A) (A) (A) (A) (A) (A) (A)
                 (A) (A) (A) (A) (A) (A) (A) (A) (A) (A) (A) (A)
                 (A) (A) (A) (A) (A) (A) (A) (A) (A) (A) (A) (A)
                 (A) (A) (A) (A) (A) (A) (A) (A) (A) (A) (A) (A)
                 (A) (A) (A) (A) (A) (A) (A) (A) (A) (A) (A) (A)
                 (A) (A) (A) (A) (A) (A) (A) (A) (A) (A) (A) (A)
                 (A) (A) (A) (A) (A) (A) (A) (A) (A) (A) (A) (A)
                 (A) (A) (A) (A) (A) (A) (A) (A) (A) (A) (A) (A)
                 (A) (A) (A) (A) (A) (A) (A) (A) (A) (A) (A) (A)
                 (A) (A) (A) (A) (A) (A) (A) (A) (A) (A) (A) (A)
                 (A) (A) (A) (A) (A) (A) (A) (A) (A) (A) (A) (A)
                 (A) (A) (A) (A) (A) (A) (A) (A) (A) (A) (A) (A)
                 (A) (A) (A) (A) (A) (A) (A) (A) (A) (A) (A) (A)
                 (A) (A) (A) (A) (A) (A) (A) (A) (A) (A) (A) (A)
                 (A) (A) (A) (A) (A) (A) (A) (A) (A) (A) (A) (A)
                 (A) (A) (A) (A) (A) (A) (A) (A) (A) (A) (A) (A)
                 (A) (A) (A) (A) (A) (A) (A) (A) (A) (A) (A) (A)
                 (A) (A) (A) (A) (A) (A) (A) (A) (A) (A) (A) (A)
                 (A) (A) (A) (A) (A) (A) (A) (A) (A) (A) (A) (A)
                 (A) (A) (A) (A) (A) (A) (A) (A) (A) (A) (A) (A)
                 (A) (A) (A) (A) (A) (A) (A) (A) (A) (A) (A) (A)
                 (A) (A) (A) (A) (A) (A) (A) (A) (A) (A) (A) (A)
                 (A) (A) (A) (A) (A) (A) (A) (A) (A) (A) (A) (A)
                 (A) (A) (A) (A) (A) (A) (A) (A) (A) (A) (A) (A)
                 (A) (A) (A) (A) (A) (A) (A) (A) (A) (A) (A) (A)
                 (A) (A) (A) (A) (A) (A) (A) (A) (A) (A) (A) (A)
                 (A) (A) (A) (A) (A) (A) (A) (A) (A) (A) (A) (A)
                 (A) (A) (A) (A) (A) (A) (A) (A) (A) (A) (A) (A)
                 (A) (A) (A) (A) (A) (A) (A) (A) (A) (A) (A) (A)
                 (A) (A) (A) (A) (A) (A) (A) (A) (A) (A) (A) (A)
                 (A) (A) (A) (A) (A) (A) (A) (A) (A) (A) (A) (A)
                 (A) (A) (A) (A) (A) (A) (A) (A) (A) (A) (A) (A)
                 (A) (A) (A) (A) (A) (A) (A) (A) (A) (A) (A) (A)
                 (A) (A) (A) (A) (A) (A) (A) (A) (A) (A) (A) (A)
                 (A) (A) (A) (A) (A) (A) (A) (A) (A) (A) (A) (A)
                 (A) (A) (A) (A) (A) (A) (A) (A) (A) (A) (A) (A)
                 (A) (A) (A) (A) (A) (A) (A) (A) (A) (A) (A) (A)
                 (A) (A) (A) (A) (A) (A) (A) (A) (A) (A) (A) (A)
                 (A) (A) (A) (A) (A) (A) (A) (A) (A) (A) (A) (A)
                 (A) (A) (A) (A) (A) (A) (A) (A) (A) (A) (A) (A)
                 (A) (A) (A) (A) (A) (A) (A) (A) (A) (A) (A) (A)
                 (A) (A) (A) (A) (A) (A)
 The electronic state is 1-A.
 Alpha  occ. eigenvalues --  -46.80115 -19.24770 -19.21087 -19.17100 -19.14678
 Alpha  occ. eigenvalues --  -19.14509 -14.37751 -14.35793 -14.35755 -14.35012
 Alpha  occ. eigenvalues --  -10.34570 -10.33835 -10.29684 -10.28478 -10.27903
 Alpha  occ. eigenvalues --  -10.26572 -10.25832 -10.25661 -10.25518 -10.24887
 Alpha  occ. eigenvalues --  -10.24876 -10.24850 -10.24850 -10.24589 -10.24492
 Alpha  occ. eigenvalues --  -10.24160 -10.24109 -10.23769 -10.23531 -10.23487
 Alpha  occ. eigenvalues --  -10.23342 -10.23267 -10.22859 -10.22641 -10.22586
 Alpha  occ. eigenvalues --  -10.22560 -10.22525 -10.22333 -10.22269 -10.22207
 Alpha  occ. eigenvalues --  -10.22103 -10.21941 -10.21880 -10.21780 -10.21752
 Alpha  occ. eigenvalues --  -10.21699 -10.21673 -10.21662 -10.21637 -10.21507
 Alpha  occ. eigenvalues --  -10.21419 -10.21394 -10.21224 -10.20884 -10.20846
 Alpha  occ. eigenvalues --  -10.20755 -10.20714 -10.20633 -10.20421 -10.20106
 Alpha  occ. eigenvalues --  -10.19385 -10.19108 -10.19024 -10.18269 -10.18201
 Alpha  occ. eigenvalues --   -3.08834  -1.83769  -1.83304  -1.83252  -1.17057
 Alpha  occ. eigenvalues --   -1.13801  -1.05000  -1.01459  -1.00663  -0.99858
 Alpha  occ. eigenvalues --   -0.99009  -0.98302  -0.97825  -0.87608  -0.87529
 Alpha  occ. eigenvalues --   -0.86080  -0.85507  -0.85152  -0.84652  -0.84093
 Alpha  occ. eigenvalues --   -0.83662  -0.83612  -0.82740  -0.82347  -0.81944
 Alpha  occ. eigenvalues --   -0.80805  -0.79863  -0.79348  -0.79004  -0.78277
 Alpha  occ. eigenvalues --   -0.76811  -0.76371  -0.75718  -0.75395  -0.73272
 Alpha  occ. eigenvalues --   -0.72591  -0.72347  -0.71714  -0.71604  -0.71010
 Alpha  occ. eigenvalues --   -0.70855  -0.70475  -0.70186  -0.69711  -0.68339
 Alpha  occ. eigenvalues --   -0.67469  -0.66728  -0.66085  -0.64812  -0.63635
 Alpha  occ. eigenvalues --   -0.63435  -0.62494  -0.61895  -0.61432  -0.61311
 Alpha  occ. eigenvalues --   -0.60519  -0.60363  -0.60224  -0.58300  -0.57642
 Alpha  occ. eigenvalues --   -0.57300  -0.56676  -0.56309  -0.55990  -0.55560
 Alpha  occ. eigenvalues --   -0.55122  -0.54694  -0.53932  -0.53742  -0.52958
 Alpha  occ. eigenvalues --   -0.52634  -0.51898  -0.51755  -0.51440  -0.50960
 Alpha  occ. eigenvalues --   -0.50674  -0.50155  -0.50102  -0.49812  -0.49783
 Alpha  occ. eigenvalues --   -0.49304  -0.49029  -0.48788  -0.48508  -0.48405
 Alpha  occ. eigenvalues --   -0.48166  -0.47830  -0.47462  -0.47351  -0.47141
 Alpha  occ. eigenvalues --   -0.46715  -0.46544  -0.46435  -0.46151  -0.45928
 Alpha  occ. eigenvalues --   -0.45729  -0.45626  -0.45328  -0.45011  -0.44835
 Alpha  occ. eigenvalues --   -0.44645  -0.44548  -0.44383  -0.44188  -0.44004
 Alpha  occ. eigenvalues --   -0.43613  -0.43437  -0.43169  -0.43058  -0.42788
 Alpha  occ. eigenvalues --   -0.42708  -0.42260  -0.42105  -0.41947  -0.41759
 Alpha  occ. eigenvalues --   -0.41487  -0.41383  -0.41088  -0.40772  -0.40668
 Alpha  occ. eigenvalues --   -0.40528  -0.40406  -0.40362  -0.40257  -0.40002
 Alpha  occ. eigenvalues --   -0.39975  -0.39762  -0.39567  -0.39486  -0.39184
 Alpha  occ. eigenvalues --   -0.39004  -0.38575  -0.38493  -0.38262  -0.38229
 Alpha  occ. eigenvalues --   -0.37893  -0.37707  -0.37288  -0.37154  -0.36931
 Alpha  occ. eigenvalues --   -0.36811  -0.36340  -0.36310  -0.36170  -0.35998
 Alpha  occ. eigenvalues --   -0.35389  -0.35207  -0.35127  -0.34986  -0.34740
 Alpha  occ. eigenvalues --   -0.34273  -0.34225  -0.34063  -0.33522  -0.33453
 Alpha  occ. eigenvalues --   -0.33326  -0.32943  -0.32823  -0.32713  -0.32526
 Alpha  occ. eigenvalues --   -0.32424  -0.32071  -0.31334  -0.30655  -0.30565
 Alpha  occ. eigenvalues --   -0.30139  -0.29765  -0.28595  -0.28360  -0.26618
 Alpha  occ. eigenvalues --   -0.26441  -0.25986  -0.25835  -0.25255  -0.22043
 Alpha  occ. eigenvalues --   -0.19712
 Alpha virt. eigenvalues --   -0.07077  -0.03512  -0.00539   0.02489   0.02861
 Alpha virt. eigenvalues --    0.03555   0.04474   0.05068   0.05367   0.05670
 Alpha virt. eigenvalues --    0.06464   0.08393   0.08966   0.09430   0.09463
 Alpha virt. eigenvalues --    0.10024   0.10137   0.10370   0.10752   0.10918
 Alpha virt. eigenvalues --    0.11221   0.11709   0.11984   0.12363   0.12487
 Alpha virt. eigenvalues --    0.12656   0.12805   0.12891   0.13269   0.13500
 Alpha virt. eigenvalues --    0.13708   0.13799   0.14215   0.14282   0.14330
 Alpha virt. eigenvalues --    0.14689   0.14922   0.15088   0.15273   0.15351
 Alpha virt. eigenvalues --    0.15393   0.15555   0.15752   0.15928   0.16016
 Alpha virt. eigenvalues --    0.16408   0.16657   0.16731   0.16851   0.16966
 Alpha virt. eigenvalues --    0.17132   0.17165   0.17443   0.17553   0.17642
 Alpha virt. eigenvalues --    0.17816   0.18151   0.18226   0.18391   0.18522
 Alpha virt. eigenvalues --    0.18826   0.18892   0.18993   0.19459   0.19496
 Alpha virt. eigenvalues --    0.19688   0.19796   0.19908   0.20059   0.20526
 Alpha virt. eigenvalues --    0.20600   0.20783   0.20967   0.21146   0.21239
 Alpha virt. eigenvalues --    0.21508   0.21619   0.22094   0.22181   0.22305
 Alpha virt. eigenvalues --    0.22380   0.22590   0.22977   0.23196   0.23409
 Alpha virt. eigenvalues --    0.23710   0.23966   0.24031   0.24267   0.24606
 Alpha virt. eigenvalues --    0.24907   0.24956   0.24986   0.25034   0.25361
 Alpha virt. eigenvalues --    0.25565   0.26259   0.26375   0.26637   0.26889
 Alpha virt. eigenvalues --    0.27015   0.27086   0.27213   0.27592   0.27786
 Alpha virt. eigenvalues --    0.27912   0.28058   0.28413   0.28485   0.28761
 Alpha virt. eigenvalues --    0.28834   0.29234   0.29351   0.29603   0.29684
 Alpha virt. eigenvalues --    0.30035   0.30145   0.30602   0.30719   0.30985
 Alpha virt. eigenvalues --    0.31095   0.31162   0.31857   0.32195   0.32249
 Alpha virt. eigenvalues --    0.32584   0.32861   0.33668   0.33747   0.34417
 Alpha virt. eigenvalues --    0.34644   0.35004   0.35354   0.35520   0.36053
 Alpha virt. eigenvalues --    0.36135   0.36691   0.37266   0.37672   0.37849
 Alpha virt. eigenvalues --    0.38623   0.39152   0.39416   0.39630   0.39914
 Alpha virt. eigenvalues --    0.41010   0.41640   0.42328   0.42615   0.43366
 Alpha virt. eigenvalues --    0.43694   0.44633   0.44827   0.45051   0.45734
 Alpha virt. eigenvalues --    0.47317   0.47582   0.48437   0.49603   0.50015
 Alpha virt. eigenvalues --    0.50201   0.50245   0.50516   0.50947   0.51047
 Alpha virt. eigenvalues --    0.51555   0.52015   0.52353   0.52391   0.52677
 Alpha virt. eigenvalues --    0.53089   0.53196   0.53574   0.53696   0.53849
 Alpha virt. eigenvalues --    0.54101   0.54586   0.54804   0.54980   0.55135
 Alpha virt. eigenvalues --    0.55319   0.55399   0.55744   0.56042   0.56315
 Alpha virt. eigenvalues --    0.56528   0.56810   0.57268   0.57392   0.57671
 Alpha virt. eigenvalues --    0.57795   0.58081   0.58221   0.58331   0.58514
 Alpha virt. eigenvalues --    0.58862   0.59104   0.59423   0.59580   0.59881
 Alpha virt. eigenvalues --    0.60077   0.60243   0.60537   0.60645   0.61245
 Alpha virt. eigenvalues --    0.61502   0.62043   0.62079   0.62240   0.62453
 Alpha virt. eigenvalues --    0.62822   0.63004   0.63082   0.63349   0.63811
 Alpha virt. eigenvalues --    0.64033   0.64095   0.64568   0.64679   0.65205
 Alpha virt. eigenvalues --    0.65480   0.65714   0.65855   0.66231   0.66282
 Alpha virt. eigenvalues --    0.66570   0.66760   0.66858   0.66932   0.67512
 Alpha virt. eigenvalues --    0.67559   0.67712   0.68077   0.68246   0.68663
 Alpha virt. eigenvalues --    0.68917   0.69349   0.69537   0.69673   0.69839
 Alpha virt. eigenvalues --    0.70328   0.70490   0.70642   0.70826   0.71475
 Alpha virt. eigenvalues --    0.71608   0.71757   0.72002   0.72589   0.73023
 Alpha virt. eigenvalues --    0.73270   0.73416   0.73885   0.73978   0.74266
 Alpha virt. eigenvalues --    0.74371   0.74714   0.74942   0.75163   0.75768
 Alpha virt. eigenvalues --    0.75811   0.75995   0.76442   0.76541   0.76648
 Alpha virt. eigenvalues --    0.77111   0.77238   0.77335   0.77796   0.77889
 Alpha virt. eigenvalues --    0.78199   0.78299   0.78507   0.78915   0.79208
 Alpha virt. eigenvalues --    0.79415   0.79816   0.80053   0.80154   0.80183
 Alpha virt. eigenvalues --    0.80705   0.80934   0.81032   0.81209   0.81315
 Alpha virt. eigenvalues --    0.81491   0.81535   0.81882   0.82228   0.82302
 Alpha virt. eigenvalues --    0.82511   0.82616   0.82715   0.82850   0.83309
 Alpha virt. eigenvalues --    0.83654   0.83683   0.83983   0.84230   0.85006
 Alpha virt. eigenvalues --    0.85277   0.85390   0.85601   0.85658   0.85772
 Alpha virt. eigenvalues --    0.86160   0.86266   0.86391   0.86574   0.86622
 Alpha virt. eigenvalues --    0.86868   0.87290   0.87434   0.87583   0.87901
 Alpha virt. eigenvalues --    0.87977   0.88352   0.88428   0.88625   0.88817
 Alpha virt. eigenvalues --    0.89044   0.89161   0.89317   0.89615   0.89718
 Alpha virt. eigenvalues --    0.89954   0.90411   0.90464   0.90614   0.90858
 Alpha virt. eigenvalues --    0.91067   0.91264   0.91598   0.91786   0.91841
 Alpha virt. eigenvalues --    0.91915   0.92023   0.92169   0.92348   0.92529
 Alpha virt. eigenvalues --    0.92733   0.92887   0.93208   0.93648   0.93726
 Alpha virt. eigenvalues --    0.93939   0.94196   0.94259   0.94702   0.94802
 Alpha virt. eigenvalues --    0.95025   0.95205   0.95471   0.95630   0.95876
 Alpha virt. eigenvalues --    0.95924   0.95978   0.96469   0.96655   0.96797
 Alpha virt. eigenvalues --    0.96980   0.97416   0.97455   0.97753   0.97915
 Alpha virt. eigenvalues --    0.98401   0.98499   0.98809   0.98968   0.99301
 Alpha virt. eigenvalues --    0.99390   0.99919   1.00017   1.00328   1.00494
 Alpha virt. eigenvalues --    1.00774   1.00999   1.01203   1.01524   1.01825
 Alpha virt. eigenvalues --    1.02354   1.02486   1.02742   1.02823   1.03062
 Alpha virt. eigenvalues --    1.03604   1.04018   1.04122   1.04195   1.04370
 Alpha virt. eigenvalues --    1.04761   1.05321   1.05552   1.05579   1.06576
 Alpha virt. eigenvalues --    1.06731   1.07035   1.07702   1.08098   1.08111
 Alpha virt. eigenvalues --    1.09310   1.09487   1.09628   1.09946   1.10212
 Alpha virt. eigenvalues --    1.10473   1.10527   1.10909   1.11707   1.11911
 Alpha virt. eigenvalues --    1.12624   1.12852   1.13339   1.13485   1.13879
 Alpha virt. eigenvalues --    1.13974   1.14056   1.15054   1.15122   1.15777
 Alpha virt. eigenvalues --    1.16926   1.17129   1.18145   1.18773   1.19314
 Alpha virt. eigenvalues --    1.19652   1.19937   1.20890   1.21128   1.21508
 Alpha virt. eigenvalues --    1.22453   1.22689   1.23341   1.23771   1.24196
 Alpha virt. eigenvalues --    1.24426   1.24785   1.25673   1.26019   1.26669
 Alpha virt. eigenvalues --    1.26908   1.28276   1.28871   1.29238   1.29833
 Alpha virt. eigenvalues --    1.30116   1.30410   1.31015   1.31081   1.31484
 Alpha virt. eigenvalues --    1.32198   1.32385   1.33024   1.33757   1.34116
 Alpha virt. eigenvalues --    1.35211   1.35394   1.35897   1.36129   1.36293
 Alpha virt. eigenvalues --    1.37035   1.37387   1.37630   1.38294   1.38555
 Alpha virt. eigenvalues --    1.39005   1.39440   1.40244   1.40851   1.41201
 Alpha virt. eigenvalues --    1.42047   1.42672   1.43163   1.43633   1.44086
 Alpha virt. eigenvalues --    1.44273   1.44623   1.44652   1.45176   1.46082
 Alpha virt. eigenvalues --    1.46634   1.47033   1.47504   1.48276   1.49026
 Alpha virt. eigenvalues --    1.50039   1.50498   1.51068   1.51316   1.51669
 Alpha virt. eigenvalues --    1.52502   1.52929   1.53153   1.53587   1.53743
 Alpha virt. eigenvalues --    1.53760   1.54090   1.54423   1.54933   1.55085
 Alpha virt. eigenvalues --    1.55980   1.56335   1.56740   1.56886   1.57172
 Alpha virt. eigenvalues --    1.57349   1.58049   1.58407   1.58706   1.58962
 Alpha virt. eigenvalues --    1.59562   1.60070   1.60512   1.61027   1.61090
 Alpha virt. eigenvalues --    1.61875   1.62194   1.62639   1.62955   1.63140
 Alpha virt. eigenvalues --    1.63789   1.64037   1.64553   1.64713   1.65146
 Alpha virt. eigenvalues --    1.65239   1.65498   1.66099   1.66401   1.67629
 Alpha virt. eigenvalues --    1.68114   1.68309   1.68419   1.70015   1.70130
 Alpha virt. eigenvalues --    1.70342   1.70531   1.71369   1.71889   1.72470
 Alpha virt. eigenvalues --    1.72675   1.73112   1.74735   1.74889   1.74901
 Alpha virt. eigenvalues --    1.75195   1.75590   1.75870   1.76311   1.76719
 Alpha virt. eigenvalues --    1.76986   1.77183   1.77334   1.77636   1.77861
 Alpha virt. eigenvalues --    1.78582   1.78686   1.78807   1.79629   1.79771
 Alpha virt. eigenvalues --    1.80616   1.80793   1.81046   1.81325   1.81458
 Alpha virt. eigenvalues --    1.81693   1.81990   1.82218   1.82587   1.82841
 Alpha virt. eigenvalues --    1.83039   1.84033   1.84368   1.84455   1.84713
 Alpha virt. eigenvalues --    1.84961   1.85445   1.85530   1.85654   1.85968
 Alpha virt. eigenvalues --    1.86092   1.86388   1.86681   1.87108   1.87474
 Alpha virt. eigenvalues --    1.87702   1.88054   1.88158   1.88855   1.89019
 Alpha virt. eigenvalues --    1.89156   1.89350   1.89734   1.89873   1.90489
 Alpha virt. eigenvalues --    1.90503   1.90646   1.91028   1.91163   1.91392
 Alpha virt. eigenvalues --    1.91616   1.92021   1.92122   1.92297   1.92578
 Alpha virt. eigenvalues --    1.92793   1.92952   1.93459   1.93584   1.93820
 Alpha virt. eigenvalues --    1.94342   1.94458   1.94688   1.95204   1.95311
 Alpha virt. eigenvalues --    1.95598   1.95758   1.95876   1.96241   1.96292
 Alpha virt. eigenvalues --    1.96734   1.96848   1.97155   1.97254   1.97905
 Alpha virt. eigenvalues --    1.98138   1.98245   1.98541   1.99003   1.99278
 Alpha virt. eigenvalues --    1.99795   2.00226   2.00645   2.00865   2.01020
 Alpha virt. eigenvalues --    2.01075   2.01564   2.01584   2.02190   2.02625
 Alpha virt. eigenvalues --    2.02886   2.02985   2.03187   2.03431   2.03775
 Alpha virt. eigenvalues --    2.03894   2.03971   2.04538   2.05051   2.05558
 Alpha virt. eigenvalues --    2.05757   2.06147   2.06276   2.06396   2.06894
 Alpha virt. eigenvalues --    2.07166   2.07341   2.07544   2.08258   2.08442
 Alpha virt. eigenvalues --    2.08746   2.08901   2.09221   2.09502   2.10088
 Alpha virt. eigenvalues --    2.10423   2.10663   2.10711   2.11478   2.11720
 Alpha virt. eigenvalues --    2.11900   2.11967   2.12352   2.12841   2.13016
 Alpha virt. eigenvalues --    2.13259   2.13439   2.13639   2.14507   2.14711
 Alpha virt. eigenvalues --    2.15066   2.15279   2.15719   2.16137   2.16671
 Alpha virt. eigenvalues --    2.16900   2.17483   2.18058   2.18218   2.18442
 Alpha virt. eigenvalues --    2.18815   2.19210   2.19241   2.19529   2.19627
 Alpha virt. eigenvalues --    2.19686   2.20230   2.20312   2.20394   2.20522
 Alpha virt. eigenvalues --    2.21119   2.21981   2.22202   2.22620   2.23083
 Alpha virt. eigenvalues --    2.23175   2.23552   2.23710   2.24275   2.24546
 Alpha virt. eigenvalues --    2.25190   2.25917   2.26253   2.26315   2.26791
 Alpha virt. eigenvalues --    2.26833   2.27042   2.27525   2.27871   2.28001
 Alpha virt. eigenvalues --    2.28074   2.28872   2.29071   2.29465   2.29911
 Alpha virt. eigenvalues --    2.30248   2.30472   2.30767   2.31180   2.31422
 Alpha virt. eigenvalues --    2.32212   2.32281   2.32375   2.32716   2.33341
 Alpha virt. eigenvalues --    2.33621   2.33840   2.34371   2.34489   2.34670
 Alpha virt. eigenvalues --    2.35338   2.35569   2.35798   2.36059   2.36307
 Alpha virt. eigenvalues --    2.36828   2.36859   2.37195   2.37398   2.37569
 Alpha virt. eigenvalues --    2.37917   2.38261   2.38666   2.38899   2.39024
 Alpha virt. eigenvalues --    2.39076   2.39513   2.39551   2.39719   2.40018
 Alpha virt. eigenvalues --    2.40105   2.41094   2.41331   2.41563   2.41854
 Alpha virt. eigenvalues --    2.42387   2.42591   2.42990   2.43130   2.43722
 Alpha virt. eigenvalues --    2.44080   2.44177   2.44476   2.45125   2.45271
 Alpha virt. eigenvalues --    2.45909   2.45949   2.46151   2.46557   2.47020
 Alpha virt. eigenvalues --    2.47483   2.47661   2.47854   2.48481   2.48503
 Alpha virt. eigenvalues --    2.48751   2.49169   2.49237   2.49718   2.50162
 Alpha virt. eigenvalues --    2.50338   2.50609   2.50863   2.50969   2.51718
 Alpha virt. eigenvalues --    2.51929   2.52430   2.53432   2.54038   2.54265
 Alpha virt. eigenvalues --    2.54908   2.55335   2.55736   2.55889   2.56677
 Alpha virt. eigenvalues --    2.56845   2.56944   2.57216   2.57473   2.57739
 Alpha virt. eigenvalues --    2.58118   2.59093   2.59352   2.59606   2.59944
 Alpha virt. eigenvalues --    2.60276   2.60753   2.61559   2.61776   2.61999
 Alpha virt. eigenvalues --    2.62278   2.62425   2.62616   2.63363   2.63663
 Alpha virt. eigenvalues --    2.64499   2.64887   2.64988   2.65609   2.66110
 Alpha virt. eigenvalues --    2.66508   2.66760   2.67231   2.67574   2.67591
 Alpha virt. eigenvalues --    2.67912   2.68443   2.68948   2.69014   2.69234
 Alpha virt. eigenvalues --    2.69492   2.69586   2.69835   2.70087   2.70618
 Alpha virt. eigenvalues --    2.71037   2.71522   2.71703   2.72003   2.72090
 Alpha virt. eigenvalues --    2.72773   2.73050   2.73158   2.73610   2.73822
 Alpha virt. eigenvalues --    2.74267   2.74538   2.75111   2.75429   2.76119
 Alpha virt. eigenvalues --    2.76328   2.77098   2.77285   2.77541   2.77779
 Alpha virt. eigenvalues --    2.78037   2.78106   2.78737   2.78972   2.79270
 Alpha virt. eigenvalues --    2.79402   2.79822   2.79914   2.80047   2.80379
 Alpha virt. eigenvalues --    2.80741   2.81113   2.81508   2.81535   2.81879
 Alpha virt. eigenvalues --    2.82326   2.82959   2.83191   2.83469   2.83502
 Alpha virt. eigenvalues --    2.84406   2.84768   2.84862   2.85372   2.85522
 Alpha virt. eigenvalues --    2.86396   2.86543   2.86705   2.87264   2.87642
 Alpha virt. eigenvalues --    2.88288   2.89024   2.89287   2.89477   2.89676
 Alpha virt. eigenvalues --    2.89859   2.90163   2.91089   2.91151   2.91606
 Alpha virt. eigenvalues --    2.91732   2.92248   2.92459   2.92669   2.93430
 Alpha virt. eigenvalues --    2.93794   2.94309   2.94387   2.94863   2.94992
 Alpha virt. eigenvalues --    2.96062   2.96138   2.96324   2.96627   2.96902
 Alpha virt. eigenvalues --    2.97423   2.97511   2.97672   2.98186   2.98630
 Alpha virt. eigenvalues --    2.99052   2.99653   2.99857   3.00103   3.00837
 Alpha virt. eigenvalues --    3.01274   3.01672   3.01874   3.02886   3.03108
 Alpha virt. eigenvalues --    3.04221   3.04421   3.04704   3.05638   3.05742
 Alpha virt. eigenvalues --    3.06132   3.06715   3.07251   3.07674   3.09461
 Alpha virt. eigenvalues --    3.09486   3.09735   3.11472   3.12322   3.12595
 Alpha virt. eigenvalues --    3.12698   3.13104   3.14855   3.15061   3.15418
 Alpha virt. eigenvalues --    3.16981   3.17724   3.18153   3.18665   3.18951
 Alpha virt. eigenvalues --    3.21310   3.21685   3.22628   3.22979   3.23679
 Alpha virt. eigenvalues --    3.24821   3.25521   3.25634   3.26421   3.26742
 Alpha virt. eigenvalues --    3.26943   3.27331   3.28155   3.28847   3.28982
 Alpha virt. eigenvalues --    3.29534   3.29613   3.30537   3.30797   3.31152
 Alpha virt. eigenvalues --    3.31391   3.31661   3.32032   3.33584   3.34657
 Alpha virt. eigenvalues --    3.37098   3.37560   3.38022   3.39160   3.39677
 Alpha virt. eigenvalues --    3.39746   3.40535   3.40759   3.42148   3.43810
 Alpha virt. eigenvalues --    3.43815   3.44520   3.45971   3.46283   3.46633
 Alpha virt. eigenvalues --    3.47524   3.47927   3.49723   3.49825   3.49996
 Alpha virt. eigenvalues --    3.51821   3.52553   3.53173   3.53664   3.54842
 Alpha virt. eigenvalues --    3.55269   3.55692   3.55872   3.56314   3.56718
 Alpha virt. eigenvalues --    3.58505   3.58603   3.59919   3.60005   3.60862
 Alpha virt. eigenvalues --    3.64035   3.66669   3.67723   3.70418   3.70758
 Alpha virt. eigenvalues --    3.72261   3.74800   3.77772   3.81840   3.83838
 Alpha virt. eigenvalues --    3.90422   3.92322   4.00060   4.01106   4.01728
 Alpha virt. eigenvalues --    4.05999   4.08994   4.16260   4.16656   4.17472
 Alpha virt. eigenvalues --    4.19180   4.20246   4.21137   4.22643   4.23076
 Alpha virt. eigenvalues --    4.24662   4.26245   4.26665   4.28064   4.28563
 Alpha virt. eigenvalues --    4.30470   4.34259   4.34589   4.35660   4.36657
 Alpha virt. eigenvalues --    4.38604   4.39367   4.40220   4.40941   4.42666
 Alpha virt. eigenvalues --    4.43570   4.44109   4.45627   4.45965   4.46487
 Alpha virt. eigenvalues --    4.47730   4.47851   4.49580   4.50439   4.51785
 Alpha virt. eigenvalues --    4.52841   4.53000   4.53291   4.57623   4.58297
 Alpha virt. eigenvalues --    4.58924   4.59471   4.59734   4.60760   4.63977
 Alpha virt. eigenvalues --    4.65626   4.65934   4.66446   4.67141   4.68539
 Alpha virt. eigenvalues --    4.70218   4.72113   4.73478   4.76953   4.77205
 Alpha virt. eigenvalues --    4.80974   4.81898   4.82571   4.83242   4.85168
 Alpha virt. eigenvalues --    4.85589   4.89267   4.92144
          Condensed to atoms (all electrons):
 Mulliken charges:
               1
     1  Mg   0.818328
     2  C    0.102688
     3  C   -0.198539
     4  C   -0.102355
     5  C   -0.068940
     6  N   -0.638895
     7  C    0.279770
     8  C   -0.131788
     9  C   -0.127339
    10  C    0.386798
    11  C   -0.316460
    12  C   -0.177520
    13  C   -0.235172
    14  C    0.552607
    15  O   -0.539442
    16  O   -0.385818
    17  N   -0.749558
    18  C    0.311988
    19  C    0.062989
    20  C   -0.039577
    21  C    0.346075
    22  C   -0.367853
    23  C   -0.048418
    24  C   -0.232432
    25  N   -0.658453
    26  C    0.263760
    27  C    0.099045
    28  C   -0.062524
    29  C    0.248900
    30  C   -0.373429
    31  C   -0.210722
    32  C   -0.302307
    33  N   -0.726953
    34  C    0.252369
    35  C    0.098963
    36  C   -0.008442
    37  C    0.307813
    38  C   -0.370929
    39  C    0.324035
    40  O   -0.495546
    41  C   -0.343281
    42  C    0.613138
    43  O   -0.405303
    44  O   -0.473234
    45  C   -0.086538
    46  C    0.006639
    47  C   -0.143012
    48  C    0.132832
    49  C   -0.366313
    50  C   -0.213220
    51  C   -0.197087
    52  C   -0.135326
    53  C   -0.069984
    54  C   -0.319339
    55  C   -0.181751
    56  C   -0.169204
    57  C   -0.165224
    58  C   -0.055148
    59  C   -0.330802
    60  C   -0.151590
    61  C   -0.181893
    62  C   -0.138943
    63  C   -0.062698
    64  C   -0.308985
    65  C   -0.294631
    66  H    0.069412
    67  H    0.037745
    68  H    0.046937
    69  H    0.115182
    70  H    0.085885
    71  H    0.108815
    72  H    0.106959
    73  H    0.121548
    74  H    0.120591
    75  H    0.114048
    76  H    0.125436
    77  H    0.120107
    78  H    0.115553
    79  H    0.091476
    80  H    0.107608
    81  H    0.084789
    82  H    0.103331
    83  H    0.089894
    84  H    0.088185
    85  H    0.118382
    86  H    0.122822
    87  H    0.121343
    88  H    0.102612
    89  H    0.120101
    90  H    0.063091
    91  H    0.128557
    92  H    0.101367
    93  H    0.157578
    94  H    0.079751
    95  H    0.151681
    96  H    0.136047
    97  H    0.114850
    98  H    0.121654
    99  H    0.120072
   100  H    0.148308
   101  H    0.071731
   102  H    0.107615
   103  H    0.121476
   104  H    0.111292
   105  H    0.059457
   106  H    0.106500
   107  H    0.093948
   108  H    0.108572
   109  H    0.096479
   110  H    0.096692
   111  H    0.087135
   112  H    0.110649
   113  H    0.093662
   114  H    0.089802
   115  H    0.084736
   116  H    0.093755
   117  H    0.111934
   118  H    0.093071
   119  H    0.095149
   120  H    0.027565
   121  H    0.057498
   122  H    0.105595
   123  H    0.102323
   124  H    0.105995
   125  H    0.092583
   126  H    0.089972
   127  H    0.089740
   128  H    0.084508
   129  H    0.078804
   130  H    0.079445
   131  H    0.080709
   132  H    0.114249
   133  H    0.080108
   134  H    0.099112
   135  H    0.089081
   136  H    0.099855
   137  H    0.081664
 Sum of Mulliken charges =  -0.00000
 Mulliken charges with hydrogens summed into heavy atoms:
               1
     1  Mg   0.818328
     2  C    0.102688
     3  C   -0.129126
     4  C   -0.064610
     5  C   -0.022003
     6  N   -0.638895
     7  C    0.279770
     8  C   -0.016606
     9  C   -0.041454
    10  C    0.386798
    11  C    0.020861
    12  C    0.057119
    13  C    0.010371
    14  C    0.552607
    15  O   -0.539442
    16  O   -0.385818
    17  N   -0.749558
    18  C    0.311988
    19  C    0.062989
    20  C   -0.039577
    21  C    0.346075
    22  C   -0.053215
    23  C    0.036371
    24  C   -0.039207
    25  N   -0.658453
    26  C    0.263760
    27  C    0.099045
    28  C   -0.062524
    29  C    0.248900
    30  C   -0.044040
    31  C    0.013233
    32  C    0.009443
    33  N   -0.726953
    34  C    0.252369
    35  C    0.098963
    36  C   -0.008442
    37  C    0.307813
    38  C   -0.032232
    39  C    0.324035
    40  O   -0.495546
    41  C   -0.191600
    42  C    0.613138
    43  O   -0.405303
    44  O   -0.473234
    45  C    0.286013
    46  C    0.275019
    47  C   -0.071281
    48  C    0.132832
    49  C   -0.025929
    50  C   -0.047264
    51  C    0.005433
    52  C    0.057845
    53  C    0.017151
    54  C   -0.025226
    55  C   -0.003261
    56  C    0.035801
    57  C   -0.042510
    58  C    0.002350
    59  C   -0.016889
    60  C    0.030965
    61  C   -0.007645
    62  C    0.019306
    63  C    0.018011
    64  C   -0.015516
    65  C   -0.024031
 Electronic spatial extent (au):  <R**2>=         180060.8448
 Charge=             -0.0000 electrons
 Dipole moment (field-independent basis, Debye):
    X=              1.5405    Y=              5.2114    Z=              0.8187  Tot=              5.4956
 Quadrupole moment (field-independent basis, Debye-Ang):
   XX=           -334.3032   YY=           -399.5581   ZZ=           -395.7061
   XY=            -26.9957   XZ=              6.3522   YZ=             -6.8968
 Traceless Quadrupole moment (field-independent basis, Debye-Ang):
   XX=             42.2193   YY=            -23.0356   ZZ=            -19.1837
   XY=            -26.9957   XZ=              6.3522   YZ=             -6.8968
 Octapole moment (field-independent basis, Debye-Ang**2):
  XXX=           -790.0266  YYY=            169.5387  ZZZ=             12.9615  XYY=            -22.6357
  XXY=             60.5184  XXZ=           -269.6716  XZZ=             -1.4434  YZZ=            -42.0464
  YYZ=             68.0690  XYZ=            -30.7765
 Hexadecapole moment (field-independent basis, Debye-Ang**3):
 XXXX=        -219634.5188 YYYY=         -17456.6575 ZZZZ=          -4151.8457 XXXY=          -1341.0226
 XXXZ=            835.2004 YYYX=          -1347.7199 YYYZ=           -208.6015 ZZZX=           -134.0702
 ZZZY=           -171.1639 XXYY=         -40276.1773 XXZZ=         -38979.4093 YYZZ=          -3426.2916
 XXYZ=            -30.1317 YYXZ=            -48.6418 ZZXY=            135.5155
 N-N= 8.757899260327D+03 E-N=-2.434089717501D+04  KE= 2.908703053019D+03

 Test job not archived.
 1\1\GINC-RYZEN-SSD3\SP\RCAM-B3LYP TD-FC\6-31G(d,p)\C55H72Mg1N4O5\PADAW
 AN\10-Sep-2019\0\\# td=(NStates=1) iop(3/107=0140000000,3/108=01400000
 00) CAM-B3LYP/6-31G(d,p)\\TD\\0,1\Mg,0,-7.1423789296,0.6564940329,0.12
 62989999\C,0,-4.8418930058,-1.972334464,0.405865989\C,0,-4.7960256332,
 2.7540841263,1.0866187671\C,0,-9.3714439089,3.1910966627,-0.4735398293
 \C,0,-9.5723833363,-1.707662532,-0.8672035253\N,0,-5.113828414,0.38710
 48011,0.7558334073\C,0,-4.351717419,-0.8042615694,0.8351314078\C,0,-2.
 8927554961,-0.4642748255,1.2673524043\C,0,-3.0031235393,0.954874189,1.
 6376500443\C,0,-4.4690571404,1.4031149626,1.1508794818\C,0,-2.86023220
 4,1.1883816575,3.1249078054\C,0,-1.9486605958,-0.618837873,-0.00547673
 74\C,0,-0.5542211313,-0.5197952275,0.4523586182\C,0,0.6021421374,-0.72
 57992018,-0.5564354336\O,0,0.3064208589,-1.2267164493,-1.7558929824\O,
 0,1.7848570841,-0.5363735758,-0.1487502626\N,0,-7.0931769611,2.6196451
 744,0.3307439985\C,0,-6.0110012439,3.3662403914,0.7840442805\C,0,-6.39
 36142698,4.7361704806,0.7569839571\C,0,-7.6968944747,4.7897807833,0.37
 91640428\C,0,-8.0822277503,3.4252294617,0.0841964182\C,0,-5.4400360375
 ,5.8608355573,1.1952696822\C,0,-8.396969705,6.0733576054,0.0723178443\
 C,0,-8.3948778978,7.1200811578,0.8161856779\N,0,-9.1479138325,0.697436
 7381,-0.3741039843\C,0,-9.8597134576,1.8302063449,-0.6734501585\C,0,-1
 1.2192158743,1.559895434,-1.1611609758\C,0,-11.2904185291,0.2045580016
 ,-1.2217322015\C,0,-9.9284704506,-0.3439945929,-0.6655987612\C,0,-12.2
 767686146,2.5564108825,-1.4658460373\C,0,-12.4154153344,-0.6860147253,
 -1.8039797286\C,0,-12.2326651754,-1.2156817605,-3.175798231\N,0,-7.276
 1805805,-1.3474195777,-0.1419268678\C,0,-8.3137457009,-2.166235169,-0.
 5006716471\C,0,-7.9645484946,-3.5730378552,-0.5375040502\C,0,-6.561743
 9649,-3.5153645186,-0.1951315949\C,0,-6.194043136,-2.1167696328,0.0121
 230477\C,0,-8.5805203915,-4.8261487133,-0.8133747206\C,0,-5.4364291058
 ,-4.327986362,0.1876037345\O,0,-5.2194029326,-5.5780746645,0.058701818
 8\C,0,-4.19627413,-3.288156263,0.5258309047\C,0,-3.6609202688,-3.70967
 89106,1.9155275213\O,0,-3.8763004134,-3.0776451224,2.8406174199\O,0,-2
 .7124265955,-4.7242110396,1.8062296605\C,0,-2.2282317802,-5.2189871046
 ,3.1169890993\C,0,2.7899253129,-0.7179300819,-1.1291264298\C,0,4.14143
 50287,-0.5288881567,-0.5485574185\C,0,5.1592614174,0.330329561,-0.8921
 320902\C,0,5.0963433599,1.291166792,-2.1517093059\C,0,6.4587721559,0.2
 91589775,-0.2153520596\C,0,7.6431457672,-0.014900038,-1.0333036591\C,0
 ,8.9021579274,-0.1458864047,-0.0454006425\C,0,10.0146869293,-0.4967413
 373,-0.7854842684\C,0,9.9471179884,-1.9704649264,-1.2702239884\C,0,11.
 4540700708,-0.241929084,0.025564594\C,0,12.7202297585,-0.3409541289,-0
 .6595834634\C,0,13.9284141132,0.2086551512,0.1133677484\C,0,15.3318491
 759,-0.0179408777,-0.5450301555\C,0,15.640000271,-1.6200103893,-0.7102
 028466\C,0,16.462163209,0.5596224795,0.3297777125\C,0,17.8818457723,0.
 4806617958,-0.2206085879\C,0,18.8870391225,1.1915072292,0.6298462413\C
 ,0,20.3123740418,1.2659560281,0.2059072967\C,0,20.4552183676,2.2005773
 628,-1.0366983657\C,0,21.248839951,1.7348551854,1.2764715872\H,0,-4.06
 49268562,3.4597592273,1.4140575016\H,0,-9.8608782111,3.9897012446,-0.6
 36528179\H,0,-10.3091253366,-2.2272182569,-1.07930575\H,0,-2.469284215
 6,-1.1636765704,1.9233988306\H,0,-2.0691803843,1.4544575069,1.12675632
 46\H,0,-1.92743583,0.7233414405,3.3788982272\H,0,-3.0624233514,2.21768
 09909,3.5461226345\H,0,-3.5144042409,0.4817733316,3.6486065459\H,0,-2.
 1927943984,-1.5674374145,-0.308688876\H,0,-2.136189988,-0.0887012503,-
 1.0606928039\H,0,-0.4159970284,0.5368532726,0.7352473877\H,0,-0.262094
 6298,-1.4167524418,1.2025037087\H,0,-5.293083486,6.7861661286,0.454035
 2348\H,0,-5.7113426056,6.5164745289,2.2536773802\H,0,-4.4137262172,5.3
 998742554,1.3484855812\H,0,-9.2356138212,6.0018935714,-0.5349548482\H,
 0,-9.0169207558,8.0097706981,0.6377935551\H,0,-7.5967676089,7.29332616
 9,1.6422431846\H,0,-12.1372241954,3.0832574728,-2.5989057221\H,0,-13.2
 669839961,2.0416229047,-1.6097166999\H,0,-12.2094219749,3.4035276869,-
 0.7398444239\H,0,-12.4299249574,-1.3778387067,-1.0938228832\H,0,-13.28
 10704061,-0.2172244329,-1.6222979842\H,0,-13.129568156,-1.7008137435,-
 3.4500359617\H,0,-12.3115015559,-0.284906962,-4.0152205005\H,0,-11.285
 3033697,-1.5899600232,-3.49581786\H,0,-9.1815127699,-4.7349699978,-1.8
 39289992\H,0,-8.0254169269,-5.6155175051,-0.8824782029\H,0,-9.61192537
 15,-5.1442028687,-0.0788501537\H,0,-3.2799955181,-3.476994305,-0.23227
 09652\H,0,-1.4583792255,-4.6447766911,3.4477664942\H,0,-3.1642028576,-
 5.4555250774,3.9281538531\H,0,-1.7209226128,-6.2276835532,2.8496783289
 \H,0,2.5736054153,-1.857612384,-1.2878702357\H,0,2.7158480261,-0.35289
 72049,-2.1322842859\H,0,4.5796684535,-1.2228006939,0.270368437\H,0,4.0
 878440959,1.4969552382,-2.6557660623\H,0,5.5031472469,2.2354039643,-1.
 7975571941\H,0,5.7355231208,0.8217933702,-3.0316194188\H,0,6.640922276
 1,1.4039303736,0.3673763515\H,0,6.2966875409,-0.2853458713,0.631779373
 4\H,0,7.5809902218,-1.0993706101,-1.4038851457\H,0,7.7558981483,0.5312
 422272,-1.903111134\H,0,8.9878548298,0.7035098485,0.4201244405\H,0,8.5
 231154323,-0.9041287656,0.5932554489\H,0,10.0432689587,-0.0542792801,-
 1.74992015\H,0,9.2647760867,-2.1948877723,-1.8490932912\H,0,10.8537045
 111,-2.2731107104,-1.8135667148\H,0,9.8323454316,-2.5945735721,-0.3758
 549792\H,0,11.324614103,0.6662530587,0.4927970505\H,0,11.5058681823,-0
 .9207033679,0.8026265828\H,0,12.9764856011,-1.3741248318,-0.5928715587
 \H,0,12.7430801379,0.0443793739,-1.6330176355\H,0,13.8427856989,1.0909
 544587,0.580282857\H,0,13.9788261932,-0.6149778767,1.1191042844\H,0,15
 .3750179032,0.4800514021,-1.6542566945\H,0,15.479001697,-2.3011594571,
 0.1393457991\H,0,14.9845300974,-1.9823127513,-1.5048718607\H,0,16.6305
 313327,-1.6755284498,-1.1123277461\H,0,16.1105443279,1.5055788916,0.68
 22141377\H,0,16.4492690047,-0.1440406889,1.2213306278\H,0,18.213378075
 5,-0.6215086649,-0.2739675924\H,0,17.9501323228,0.7236712612,-1.337319
 4755\H,0,18.7514942063,2.2937506431,0.8529072375\H,0,18.985494512,0.66
 02508646,1.6264358891\H,0,20.6500148338,0.2677677744,-0.1150156094\H,0
 ,20.2346602845,3.0980305796,-0.8749696817\H,0,21.4969034911,2.16219736
 18,-1.5281407953\H,0,19.8407424718,1.9215924494,-1.8495633407\H,0,21.1
 991237659,1.0895045914,2.2267663454\H,0,22.2739052833,1.6052409948,0.8
 145181054\H,0,21.1841184903,2.8664927665,1.6930364403\\Version=ES64L-G
 16RevA.03\State=1-A\HF=-2933.3859055\RMSD=5.050e-09\PG=C01 [X(C55H72Mg
 1N4O5)]\\@


 THE HURRIEDER I GO, THE BEHINDER I GET.
 Job cpu time:       1 days  1 hours 29 minutes 36.8 seconds.
 Elapsed time:       0 days  6 hours 23 minutes 11.7 seconds.
 File lengths (MBytes):  RWF=   6809 Int=      0 D2E=      0 Chk=    181 Scr=      1
 Normal termination of Gaussian 16 at Tue Sep 10 05:48:06 2019.
