 Entering Gaussian System, Link 0=g16
 Input=Geometria-474-.com
 Output=Geometria-474-.log
 Initial command:
 /usr/local/g09/l1.exe "/home/padawan/israel-mol/chlorophyll-a/spectra/emi/Gau-30350.inp" -scrdir="/home/padawan/israel-mol/chlorophyll-a/spectra/emi/"
 Entering Link 1 = /usr/local/g09/l1.exe PID=     30352.
  
 Copyright (c) 1988,1990,1992,1993,1995,1998,2003,2009,2013,
            Gaussian, Inc.  All Rights Reserved.
  
 This is part of the Gaussian(R) 09 program.  It is based on
 the Gaussian(R) 03 system (copyright 2003, Gaussian, Inc.),
 the Gaussian(R) 98 system (copyright 1998, Gaussian, Inc.),
 the Gaussian(R) 94 system (copyright 1995, Gaussian, Inc.),
 the Gaussian 92(TM) system (copyright 1992, Gaussian, Inc.),
 the Gaussian 90(TM) system (copyright 1990, Gaussian, Inc.),
 the Gaussian 88(TM) system (copyright 1988, Gaussian, Inc.),
 the Gaussian 86(TM) system (copyright 1986, Carnegie Mellon
 University), and the Gaussian 82(TM) system (copyright 1983,
 Carnegie Mellon University). Gaussian is a federally registered
 trademark of Gaussian, Inc.
  
 This software contains proprietary and confidential information,
 including trade secrets, belonging to Gaussian, Inc.
  
 This software is provided under written license and may be
 used, copied, transmitted, or stored only in accord with that
 written license.
  
 The following legend is applicable only to US Government
 contracts under FAR:
  
                    RESTRICTED RIGHTS LEGEND
  
 Use, reproduction and disclosure by the US Government is
 subject to restrictions as set forth in subparagraphs (a)
 and (c) of the Commercial Computer Software - Restricted
 Rights clause in FAR 52.227-19.
  
 Gaussian, Inc.
 340 Quinnipiac St., Bldg. 40, Wallingford CT 06492
  
  
 ---------------------------------------------------------------
 Warning -- This program may not be used in any manner that
 competes with the business of Gaussian, Inc. or will provide
 assistance to any competitor of Gaussian, Inc.  The licensee
 of this program is prohibited from giving any competitor of
 Gaussian, Inc. access to this program.  By using this program,
 the user acknowledges that Gaussian, Inc. is engaged in the
 business of creating and licensing software in the field of
 computational chemistry and represents and warrants to the
 licensee that it is not a competitor of Gaussian, Inc. and that
 it will not use this program in any manner prohibited above.
 ---------------------------------------------------------------
  

 Cite this work as:
 Gaussian 09, Revision D.01,
 M. J. Frisch, G. W. Trucks, H. B. Schlegel, G. E. Scuseria, 
 M. A. Robb, J. R. Cheeseman, G. Scalmani, V. Barone, B. Mennucci, 
 G. A. Petersson, H. Nakatsuji, M. Caricato, X. Li, H. P. Hratchian, 
 A. F. Izmaylov, J. Bloino, G. Zheng, J. L. Sonnenberg, M. Hada, 
 M. Ehara, K. Toyota, R. Fukuda, J. Hasegawa, M. Ishida, T. Nakajima, 
 Y. Honda, O. Kitao, H. Nakai, T. Vreven, J. A. Montgomery, Jr., 
 J. E. Peralta, F. Ogliaro, M. Bearpark, J. J. Heyd, E. Brothers, 
 K. N. Kudin, V. N. Staroverov, T. Keith, R. Kobayashi, J. Normand, 
 K. Raghavachari, A. Rendell, J. C. Burant, S. S. Iyengar, J. Tomasi, 
 M. Cossi, N. Rega, J. M. Millam, M. Klene, J. E. Knox, J. B. Cross, 
 V. Bakken, C. Adamo, J. Jaramillo, R. Gomperts, R. E. Stratmann, 
 O. Yazyev, A. J. Austin, R. Cammi, C. Pomelli, J. W. Ochterski, 
 R. L. Martin, K. Morokuma, V. G. Zakrzewski, G. A. Voth, 
 P. Salvador, J. J. Dannenberg, S. Dapprich, A. D. Daniels, 
 O. Farkas, J. B. Foresman, J. V. Ortiz, J. Cioslowski, 
 and D. J. Fox, Gaussian, Inc., Wallingford CT, 2013.
 
 ******************************************
 Gaussian 09:  ES64L-G09RevD.01 24-Apr-2013
                 6-Jul-2019 
 ******************************************
 %nproc=4
 Will use up to    4 processors via shared memory.
 %Mem=2GB
 -------------------------------------
 # td=(NStates=1) CAM-B3LYP/6-31G(d,p)
 -------------------------------------
 1/38=1/1;
 2/12=2,17=6,18=5,40=1/2;
 3/5=1,6=6,7=101,11=9,16=1,25=1,30=1,74=-40/1,2,8,3;
 4//1;
 5/5=2,38=5/2;
 8/6=1,10=2,108=1/1;
 9/41=1,42=1,70=2/14;
 6/7=2,8=2,9=2,10=2/1;
 99/5=1,9=1/99;
 --
 TD
 --
 Symbolic Z-matrix:
 Charge =  0 Multiplicity = 1
 12                   -7.12024   0.68016   0.15103 
 6                    -4.88248  -1.85137   0.48844 
 6                    -4.80353   2.85132   1.06759 
 6                    -9.42999   3.08685  -0.43163 
 6                    -9.63769  -1.75471  -0.75914 
 7                    -5.11483   0.39953   0.78616 
 6                    -4.29998  -0.70141   0.84896 
 6                    -2.9102   -0.36688   1.20955 
 6                    -2.94082   1.04746   1.56408 
 6                    -4.39648   1.51379   1.14841 
 6                    -2.96513   1.19014   3.14855 
 6                    -1.98837  -0.65883   0.00242 
 6                    -0.41855  -0.5417    0.37821 
 6                     0.46693  -0.87996  -0.70658 
 8                     0.16706  -1.26098  -1.8347 
 8                     1.79115  -0.64758  -0.31648 
 7                    -7.0816    2.62741   0.27542 
 6                    -6.06614   3.37735   0.7893 
 6                    -6.36466   4.83229   0.75227 
 6                    -7.71666   4.8825    0.31133 
 6                    -8.15      3.444    -0.01514 
 6                    -5.3698    5.87918   1.10724 
 6                    -8.64322   5.97091   0.082 
 6                    -8.51756   7.14945   0.86651 
 7                    -9.15712   0.69115  -0.51108 
 6                    -9.85043   1.83801  -0.68411 
 6                    -11.21778   1.51544  -1.03646 
 6                    -11.27829   0.12846  -1.20137 
 6                    -9.87708  -0.41386  -0.79714 
 6                    -12.29177   2.44087  -1.3798 
 6                    -12.3987  -0.83222  -1.68792 
 6                    -12.27022  -1.01311  -3.24604 
 7                    -7.30527  -1.39     -0.10766 
 6                    -8.3171   -2.2072   -0.5153 
 6                    -7.84716  -3.54524  -0.43862 
 6                    -6.5884   -3.50556   0.00828 
 6                    -6.19201  -2.11931   0.13336 
 6                    -8.64886  -4.81008  -0.7855 
 6                    -5.3752   -4.3453    0.3275 
 8                    -5.20345  -5.5912    0.27607 
 6                    -4.20837  -3.24939   0.60288 
 6                    -3.61353  -3.6351    1.99971 
 8                    -3.67203  -3.06688   3.02341 
 8                    -2.75106  -4.7928    1.69746 
 6                    -2.19975  -5.32302   2.85824 
 6                     2.85224  -0.87815  -1.2613 
 6                     4.18344  -0.49929  -0.56116 
 6                     5.10744   0.28392  -1.09552 
 6                     5.05636   0.98295  -2.36494 
 6                     6.4142    0.41854  -0.23579 
 6                     7.60658  -0.12309  -1.05072 
 6                     8.87587  -0.06199  -0.21532 
 6                     10.23459  -0.33534  -0.97836 
 6                     10.26751  -1.76493  -1.4345 
 6                     11.51811  -0.08878  -0.10477 
 6                     12.84508  -0.34971  -0.68408 
 6                     14.0393   0.02255   0.14581 
 6                     15.39792  -0.1463   -0.47667 
 6                     15.63396  -1.59988  -0.83255 
 6                     16.42722   0.42176   0.48093 
 6                     17.7644   0.70509  -0.20506 
 6                     18.85559   1.25914   0.85861 
 6                     20.22389   1.24668   0.36809 
 6                     20.4418   2.02005  -0.92036 
 6                     21.15424   1.80356   1.43101 
 1                    -4.22697   3.59993   1.48541 
 1                    -10.15988   3.96244  -0.5364 
 1                    -10.20201  -2.54055  -0.88941 
 1                    -2.63429  -1.02314   2.02726 
 1                    -2.22565   1.85394   1.1374 
 1                    -2.21121   0.79795   3.6859 
 1                    -3.15743   2.14209   3.5281 
 1                    -3.95804   0.59133   3.58388 
 1                    -2.09088  -1.66749  -0.26504 
 1                    -2.10155   0.11374  -0.77205 
 1                     0.15855   0.3514    0.88147 
 1                    -0.24866  -1.24173   1.39905 
 1                    -5.78405   6.88974   0.65216 
 1                    -5.51513   5.99241   2.14501 
 1                    -4.31713   5.44907   0.76584 
 1                    -9.366     5.66146  -0.46119 
 1                    -9.15458   8.18435   0.76889 
 1                    -7.70357   7.40796   1.37748 
 1                    -12.07205   3.19054  -2.19733 
 1                    -13.29174   2.04491  -1.54486 
 1                    -12.45306   2.9841   -0.50443 
 1                    -12.44986  -1.70155  -1.20952 
 1                    -13.32805  -0.27965  -1.69308 
 1                    -13.17667  -1.68483  -3.49966 
 1                    -12.04311   0.06268  -3.93895 
 1                    -11.42572  -1.64034  -3.3945 
 1                    -9.2564   -4.81855  -1.66394 
 1                    -7.9129   -5.50482  -0.76271 
 1                    -9.40317  -4.9553   -0.08891 
 1                    -3.55075  -3.30339  -0.20561 
 1                    -1.34391  -4.7999    3.37618 
 1                    -2.88869  -5.45347   3.71199 
 1                    -1.74909  -6.23198   2.68686 
 1                     2.64621  -1.82265  -1.60823 
 1                     2.89608  -0.30987  -2.09627 
 1                     4.4678   -1.15423   0.21978 
 1                     4.07588   1.3398   -2.83185 
 1                     5.40523   1.93709  -2.22831 
 1                     5.78583   0.67069  -3.12203 
 1                     6.65946   1.40478   0.13235 
 1                     6.33895  -0.09717   0.79699 
 1                     7.38061  -1.01231  -1.30651 
 1                     7.7167    0.61828  -1.92562 
 1                     8.91042   1.0453    0.25068 
 1                     8.90809  -0.82143   0.69124 
 1                     10.29897   0.4294   -1.5921 
 1                     9.24458  -2.12873  -1.95803 
 1                     11.12672  -1.87431  -2.043 
 1                     10.35178  -2.57609  -0.5582 
 1                     11.41103   0.9824    0.30846 
 1                     11.37691  -0.62879   0.65361 
 1                     13.05434  -1.3779   -1.05998 
 1                     12.90383   0.30602  -1.66173 
 1                     13.85091   0.98959   0.57949 
 1                     13.94799  -0.49072   0.91167 
 1                     15.47652   0.40776  -1.37949 
 1                     15.40214  -2.2755    0.09781 
 1                     14.95403  -1.96189  -1.62171 
 1                     16.73735  -1.58127  -1.15954 
 1                     16.21084   1.5232    0.86304 
 1                     16.4496  -0.44997   1.35405 
 1                     18.06886  -0.36117  -0.68253 
 1                     17.58896   1.52049  -0.87021 
 1                     18.68987   2.26124   1.05747 
 1                     18.87617   0.5291    1.80514 
 1                     20.39146   0.07672   0.30988 
 1                     20.20208   3.16538  -0.69183 
 1                     21.47156   1.78282  -1.34749 
 1                     19.70191   1.56792  -1.67496 
 1                     20.85752   1.29667   2.42559 
 1                     22.2736   1.68022   1.23391 
 1                     21.00381   2.99412   1.67649 
 
 Stoichiometry    C55H72MgN4O5
 Framework group  C1[X(C55H72MgN4O5)]
 Deg. of freedom   405
 Full point group                 C1      NOp   1
 Largest Abelian subgroup         C1      NOp   1
 Largest concise Abelian subgroup C1      NOp   1
                         Standard orientation:                         
 ---------------------------------------------------------------------
 Center     Atomic      Atomic             Coordinates (Angstroms)
 Number     Number       Type             X           Y           Z
 ---------------------------------------------------------------------
      1         12           0       -7.121083    0.683814    0.155061
      2          6           0       -4.884671   -1.850388    0.481101
      3          6           0       -4.802864    2.849766    1.080112
      4          6           0       -9.429622    3.094269   -0.416740
      5          6           0       -9.640189   -1.745749   -0.764661
      6          7           0       -5.115651    0.399361    0.788406
      7          6           0       -4.301406   -0.702298    0.846316
      8          6           0       -2.911331   -0.370084    1.207907
      9          6           0       -2.941037    1.042755    1.568418
     10          6           0       -4.396551    1.511673    1.155155
     11          6           0       -2.964808    1.178753    3.153483
     12          6           0       -1.990021   -0.657458   -0.000714
     13          6           0       -0.420022   -0.542810    0.375104
     14          6           0        0.464945   -0.876988   -0.711364
     15          8           0        0.164529   -1.253064   -1.841000
     16          8           0        1.789415   -0.647015   -0.320676
     17          7           0       -7.081290    2.630500    0.287664
     18          6           0       -6.065250    3.377682    0.804418
     19          6           0       -6.362957    4.832934    0.773621
     20          6           0       -7.715057    4.885780    0.333297
     21          6           0       -8.149309    3.448925    0.000878
     22          6           0       -5.367397    5.877750    1.132721
     23          6           0       -8.641060    5.975677    0.108839
     24          6           0       -8.514492    7.150821    0.898295
     25          7           0       -9.158144    0.698769   -0.506396
     26          6           0       -9.850853    1.846747   -0.674382
     27          6           0      -11.218489    1.526445   -1.027682
     28          6           0      -11.279838    0.140208   -1.198440
     29          6           0       -9.878824   -0.404617   -0.796924
     30          6           0      -12.292047    2.453935   -1.366801
     31          6           0      -12.400943   -0.817767   -1.688719
     32          6           0      -12.273020   -0.992144   -3.247627
     33          7           0       -7.307368   -1.385124   -0.112323
     34          6           0       -8.319785   -2.200013   -0.523118
     35          6           0       -7.850586   -3.538640   -0.452238
     36          6           0       -6.591675   -3.501569   -0.005544
     37          6           0       -6.194456   -2.116082    0.125277
     38          6           0       -8.653110   -4.801546   -0.804223
     39          6           0       -5.378861   -4.343336    0.309764
     40          8           0       -5.207835   -5.589111    0.253025
     41          6           0       -4.211328   -3.249268    0.589436
     42          6           0       -3.616299   -3.641217    1.984449
     43          8           0       -3.674173   -3.077301    3.010553
     44          8           0       -2.754573   -4.798125    1.677052
     45          6           0       -2.203232   -5.333555    2.835420
     46          6           0        2.850094   -0.874187   -1.266773
     47          6           0        4.181717   -0.499051   -0.565428
     48          6           0        5.106012    0.285887   -1.096746
     49          6           0        5.054962    0.990303   -2.363186
     50          6           0        6.413091    0.416125   -0.236839
     51          6           0        7.604926   -0.122740   -1.054404
     52          6           0        8.874496   -0.065895   -0.219127
     53          6           0       10.232842   -0.336790   -0.983710
     54          6           0       10.264812   -1.764454   -1.445898
     55          6           0       11.516757   -0.094659   -0.109463
     56          6           0       12.843404   -0.353890   -0.690260
     57          6           0       14.038082    0.014177    0.140846
     58          6           0       15.396416   -0.152813   -0.482739
     59          6           0       15.631522   -1.605009   -0.844837
     60          6           0       16.426321    0.410602    0.476950
     61          6           0       17.763466    0.696073   -0.208227
     62          6           0       18.855277    1.245001    0.857448
     63          6           0       20.223432    1.233826    0.366483
     64          6           0       20.441403    2.012517   -0.918755
     65          6           0       21.154405    1.785685    1.431471
     66          1           0       -4.225759    3.596266    1.500923
     67          1           0      -10.159041    3.970703   -0.517596
     68          1           0      -10.204995   -2.530712   -0.898079
     69          1           0       -2.635557   -1.029957    2.022756
     70          1           0       -2.225529    1.850626    1.144949
     71          1           0       -2.210950    0.783864    3.688955
     72          1           0       -3.156453    2.129196    3.537120
     73          1           0       -3.957931    0.578676    3.586574
     74          1           0       -2.093185   -1.664915   -0.272411
     75          1           0       -2.102985    0.118443   -0.771879
     76          1           0        0.157736    0.347823    0.881963
     77          1           0       -0.250238   -1.247247    1.392928
     78          1           0       -5.781195    6.890458    0.682044
     79          1           0       -5.512354    5.986676    2.171008
     80          1           0       -4.315063    5.448483    0.789200
     81          1           0       -9.364171    5.668942   -0.435434
     82          1           0       -9.150950    8.186485    0.805232
     83          1           0       -7.700210    7.406700    1.410107
     84          1           0      -12.072140    3.206924   -2.181216
     85          1           0      -13.292292    2.059240   -1.533230
     86          1           0      -12.452771    2.993543   -0.489091
     87          1           0      -12.452455   -1.689081   -1.213980
     88          1           0      -13.329976   -0.264654   -1.691275
     89          1           0      -13.179927   -1.662269   -3.503819
     90          1           0      -12.045491    0.086442   -3.936047
     91          1           0      -11.428916   -1.619217   -3.398984
     92          1           0       -9.260904   -4.805955   -1.682515
     93          1           0       -7.917539   -5.496792   -0.784585
     94          1           0       -9.407298   -4.949277   -0.108035
     95          1           0       -3.553965   -3.300227   -0.219464
     96          1           0       -1.346944   -4.813117    3.355316
     97          1           0       -2.891995   -5.467221    3.688817
     98          1           0       -1.753143   -6.242045    2.660068
     99          1           0        2.643430   -1.817102   -1.617640
    100          1           0        2.894015   -0.302408   -2.099351
    101          1           0        4.465928   -1.157449    0.212644
    102          1           0        4.074542    1.349684   -2.828296
    103          1           0        5.404408    1.943661   -2.222624
    104          1           0        5.784025    0.680828   -3.121804
    105          1           0        6.659024    1.400661    0.135391
    106          1           0        6.337849   -0.103905    0.793773
    107          1           0        7.378371   -1.010740   -1.313884
    108          1           0        7.715221    0.622257   -1.926187
    109          1           0        8.909817    1.039399    0.251546
    110          1           0        8.906546   -0.829175    0.684205
    111          1           0       10.297473    0.430497   -1.594236
    112          1           0        9.241518   -2.125458   -1.970666
    113          1           0       11.123774   -1.871757   -2.055109
    114          1           0       10.348868   -2.579362   -0.573058
    115          1           0       11.410403    0.974828    0.308325
    116          1           0       11.375466   -0.637786    0.646664
    117          1           0       13.051966   -1.380598   -1.070570
    118          1           0       12.902248    0.305934   -1.665147
    119          1           0       13.850364    0.979483    0.578659
    120          1           0       13.946696   -0.502274    0.904552
    121          1           0       15.475075    0.405013   -1.383238
    122          1           0       15.399589   -2.284424    0.082727
    123          1           0       14.951159   -1.963293   -1.635318
    124          1           0       16.734835   -1.585652   -1.172064
    125          1           0       16.210680    1.510543    0.863777
    126          1           0       16.448460   -0.464825    1.346366
    127          1           0       18.067175   -0.368337   -0.690296
    128          1           0       17.588293    1.514375   -0.869877
    129          1           0       18.690192    2.246342    1.060598
    130          1           0       18.875725    0.510947    1.800881
    131          1           0       20.390320    0.064036    0.303274
    132          1           0       20.202413    3.157007   -0.685314
    133          1           0       21.470909    1.776513   -1.347179
    134          1           0       19.701044    1.564002   -1.675044
    135          1           0       20.857691    1.274758    2.423990
    136          1           0       22.273640    1.662538    1.233523
    137          1           0       21.004730    2.975278    1.682026
 ---------------------------------------------------------------------
 Rotational constants (GHZ):      0.0648634      0.0060648      0.0057179
 Standard basis: 6-31G(d,p) (6D, 7F)
 There are  1339 symmetry adapted cartesian basis functions of A   symmetry.
 There are  1339 symmetry adapted basis functions of A   symmetry.
  1339 basis functions,  2348 primitive gaussians,  1339 cartesian basis functions
   241 alpha electrons      241 beta electrons
       nuclear repulsion energy      8747.6627479196 Hartrees.
 NAtoms=  137 NActive=  137 NUniq=  137 SFac= 1.00D+00 NAtFMM=   60 NAOKFM=T Big=T
 Integral buffers will be    131072 words long.
 Raffenetti 1 integral format.
 Two-electron integral symmetry is turned on.
 One-electron integrals computed using PRISM.
 NBasis=  1339 RedAO= T EigKep=  2.80D-04  NBF=  1339
 NBsUse=  1339 1.00D-06 EigRej= -1.00D+00 NBFU=  1339
 ExpMin= 4.21D-02 ExpMax= 1.17D+04 ExpMxC= 1.76D+03 IAcc=2 IRadAn=         4 AccDes= 0.00D+00
 Harris functional with IExCor=20419 and IRadAn=       4 diagonalized for initial guess.
 HarFok:  IExCor=20419 AccDes= 0.00D+00 IRadAn=         4 IDoV= 1 UseB2=F ITyADJ=14
 ICtDFT=  3500011 ScaDFX=  1.000000  1.000000  1.000000  1.000000
 FoFCou: FMM=F IPFlag=           0 FMFlag=      100000 FMFlg1=        2001
         NFxFlg=           0 DoJE=T BraDBF=F KetDBF=T FulRan=T
         wScrn=  0.000000 ICntrl=     500 IOpCl=  0 I1Cent=   200000004 NGrid=           0
         NMat0=    1 NMatS0=      1 NMatT0=    0 NMatD0=    1 NMtDS0=    0 NMtDT0=    0
 Petite list used in FoFCou.
 Requested convergence on RMS density matrix=1.00D-08 within 128 cycles.
 Requested convergence on MAX density matrix=1.00D-06.
 Requested convergence on             energy=1.00D-06.
 No special actions if energy rises.
 SCF Done:  E(RCAM-B3LYP) =  -2932.59973896     A.U. after   18 cycles
            NFock= 18  Conv=0.80D-08     -V/T= 2.0089
 DoSCS=F DFT=T ScalE2(SS,OS)=  1.000000  1.000000
 ExpMin= 4.21D-02 ExpMax= 1.17D+04 ExpMxC= 1.76D+03 IAcc=3 IRadAn=         5 AccDes= 0.00D+00
 HarFok:  IExCor=  205 AccDes= 0.00D+00 IRadAn=         5 IDoV=-2 UseB2=F ITyADJ=14
 ICtDFT= 12500011 ScaDFX=  1.000000  1.000000  1.000000  1.000000
 Range of M.O.s used for correlation:    70  1339
 NBasis=  1339 NAE=   241 NBE=   241 NFC=    69 NFV=     0
 NROrb=   1270 NOA=   172 NOB=   172 NVA=  1098 NVB=  1098
 Would need an additional       2415464100000 words for in-memory AO integral storage.
 Orbital symmetries:
       Occupied  (A) (A) (A) (A) (A) (A) (A) (A) (A) (A) (A) (A)
                 (A) (A) (A) (A) (A) (A) (A) (A) (A) (A) (A) (A)
                 (A) (A) (A) (A) (A) (A) (A) (A) (A) (A) (A) (A)
                 (A) (A) (A) (A) (A) (A) (A) (A) (A) (A) (A) (A)
                 (A) (A) (A) (A) (A) (A) (A) (A) (A) (A) (A) (A)
                 (A) (A) (A) (A) (A) (A) (A) (A) (A) (A) (A) (A)
                 (A) (A) (A) (A) (A) (A) (A) (A) (A) (A) (A) (A)
                 (A) (A) (A) (A) (A) (A) (A) (A) (A) (A) (A) (A)
                 (A) (A) (A) (A) (A) (A) (A) (A) (A) (A) (A) (A)
                 (A) (A) (A) (A) (A) (A) (A) (A) (A) (A) (A) (A)
                 (A) (A) (A) (A) (A) (A) (A) (A) (A) (A) (A) (A)
                 (A) (A) (A) (A) (A) (A) (A) (A) (A) (A) (A) (A)
                 (A) (A) (A) (A) (A) (A) (A) (A) (A) (A) (A) (A)
                 (A) (A) (A) (A) (A) (A) (A) (A) (A) (A) (A) (A)
                 (A) (A) (A) (A) (A) (A) (A) (A) (A) (A) (A) (A)
                 (A) (A) (A) (A) (A) (A) (A) (A) (A) (A) (A) (A)
                 (A) (A) (A) (A) (A) (A) (A) (A) (A) (A) (A) (A)
                 (A) (A) (A) (A) (A) (A) (A) (A) (A) (A) (A) (A)
                 (A) (A) (A) (A) (A) (A) (A) (A) (A) (A) (A) (A)
                 (A) (A) (A) (A) (A) (A) (A) (A) (A) (A) (A) (A)
                 (A)
       Virtual   (A) (A) (A) (A) (A) (A) (A) (A) (A) (A) (A) (A)
                 (A) (A) (A) (A) (A) (A) (A) (A) (A) (A) (A) (A)
                 (A) (A) (A) (A) (A) (A) (A) (A) (A) (A) (A) (A)
                 (A) (A) (A) (A) (A) (A) (A) (A) (A) (A) (A) (A)
                 (A) (A) (A) (A) (A) (A) (A) (A) (A) (A) (A) (A)
                 (A) (A) (A) (A) (A) (A) (A) (A) (A) (A) (A) (A)
                 (A) (A) (A) (A) (A) (A) (A) (A) (A) (A) (A) (A)
                 (A) (A) (A) (A) (A) (A) (A) (A) (A) (A) (A) (A)
                 (A) (A) (A) (A) (A) (A) (A) (A) (A) (A) (A) (A)
                 (A) (A) (A) (A) (A) (A) (A) (A) (A) (A) (A) (A)
                 (A) (A) (A) (A) (A) (A) (A) (A) (A) (A) (A) (A)
                 (A) (A) (A) (A) (A) (A) (A) (A) (A) (A) (A) (A)
                 (A) (A) (A) (A) (A) (A) (A) (A) (A) (A) (A) (A)
                 (A) (A) (A) (A) (A) (A) (A) (A) (A) (A) (A) (A)
                 (A) (A) (A) (A) (A) (A) (A) (A) (A) (A) (A) (A)
                 (A) (A) (A) (A) (A) (A) (A) (A) (A) (A) (A) (A)
                 (A) (A) (A) (A) (A) (A) (A) (A) (A) (A) (A) (A)
                 (A) (A) (A) (A) (A) (A) (A) (A) (A) (A) (A) (A)
                 (A) (A) (A) (A) (A) (A) (A) (A) (A) (A) (A) (A)
                 (A) (A) (A) (A) (A) (A) (A) (A) (A) (A) (A) (A)
                 (A) (A) (A) (A) (A) (A) (A) (A) (A) (A) (A) (A)
                 (A) (A) (A) (A) (A) (A) (A) (A) (A) (A) (A) (A)
                 (A) (A) (A) (A) (A) (A) (A) (A) (A) (A) (A) (A)
                 (A) (A) (A) (A) (A) (A) (A) (A) (A) (A) (A) (A)
                 (A) (A) (A) (A) (A) (A) (A) (A) (A) (A) (A) (A)
                 (A) (A) (A) (A) (A) (A) (A) (A) (A) (A) (A) (A)
                 (A) (A) (A) (A) (A) (A) (A) (A) (A) (A) (A) (A)
                 (A) (A) (A) (A) (A) (A) (A) (A) (A) (A) (A) (A)
                 (A) (A) (A) (A) (A) (A) (A) (A) (A) (A) (A) (A)
                 (A) (A) (A) (A) (A) (A) (A) (A) (A) (A) (A) (A)
                 (A) (A) (A) (A) (A) (A) (A) (A) (A) (A) (A) (A)
                 (A) (A) (A) (A) (A) (A) (A) (A) (A) (A) (A) (A)
                 (A) (A) (A) (A) (A) (A) (A) (A) (A) (A) (A) (A)
                 (A) (A) (A) (A) (A) (A) (A) (A) (A) (A) (A) (A)
                 (A) (A) (A) (A) (A) (A) (A) (A) (A) (A) (A) (A)
                 (A) (A) (A) (A) (A) (A) (A) (A) (A) (A) (A) (A)
                 (A) (A) (A) (A) (A) (A) (A) (A) (A) (A) (A) (A)
                 (A) (A) (A) (A) (A) (A) (A) (A) (A) (A) (A) (A)
                 (A) (A) (A) (A) (A) (A) (A) (A) (A) (A) (A) (A)
                 (A) (A) (A) (A) (A) (A) (A) (A) (A) (A) (A) (A)
                 (A) (A) (A) (A) (A) (A) (A) (A) (A) (A) (A) (A)
                 (A) (A) (A) (A) (A) (A) (A) (A) (A) (A) (A) (A)
                 (A) (A) (A) (A) (A) (A) (A) (A) (A) (A) (A) (A)
                 (A) (A) (A) (A) (A) (A) (A) (A) (A) (A) (A) (A)
                 (A) (A) (A) (A) (A) (A) (A) (A) (A) (A) (A) (A)
                 (A) (A) (A) (A) (A) (A) (A) (A) (A) (A) (A) (A)
                 (A) (A) (A) (A) (A) (A) (A) (A) (A) (A) (A) (A)
                 (A) (A) (A) (A) (A) (A) (A) (A) (A) (A) (A) (A)
                 (A) (A) (A) (A) (A) (A) (A) (A) (A) (A) (A) (A)
                 (A) (A) (A) (A) (A) (A) (A) (A) (A) (A) (A) (A)
                 (A) (A) (A) (A) (A) (A) (A) (A) (A) (A) (A) (A)
                 (A) (A) (A) (A) (A) (A) (A) (A) (A) (A) (A) (A)
                 (A) (A) (A) (A) (A) (A) (A) (A) (A) (A) (A) (A)
                 (A) (A) (A) (A) (A) (A) (A) (A) (A) (A) (A) (A)
                 (A) (A) (A) (A) (A) (A) (A) (A) (A) (A) (A) (A)
                 (A) (A) (A) (A) (A) (A) (A) (A) (A) (A) (A) (A)
                 (A) (A) (A) (A) (A) (A) (A) (A) (A) (A) (A) (A)
                 (A) (A) (A) (A) (A) (A) (A) (A) (A) (A) (A) (A)
                 (A) (A) (A) (A) (A) (A) (A) (A) (A) (A) (A) (A)
                 (A) (A) (A) (A) (A) (A) (A) (A) (A) (A) (A) (A)
                 (A) (A) (A) (A) (A) (A) (A) (A) (A) (A) (A) (A)
                 (A) (A) (A) (A) (A) (A) (A) (A) (A) (A) (A) (A)
                 (A) (A) (A) (A) (A) (A) (A) (A) (A) (A) (A) (A)
                 (A) (A) (A) (A) (A) (A) (A) (A) (A) (A) (A) (A)
                 (A) (A) (A) (A) (A) (A) (A) (A) (A) (A) (A) (A)
                 (A) (A) (A) (A) (A) (A) (A) (A) (A) (A) (A) (A)
                 (A) (A) (A) (A) (A) (A) (A) (A) (A) (A) (A) (A)
                 (A) (A) (A) (A) (A) (A) (A) (A) (A) (A) (A) (A)
                 (A) (A) (A) (A) (A) (A) (A) (A) (A) (A) (A) (A)
                 (A) (A) (A) (A) (A) (A) (A) (A) (A) (A) (A) (A)
                 (A) (A) (A) (A) (A) (A) (A) (A) (A) (A) (A) (A)
                 (A) (A) (A) (A) (A) (A) (A) (A) (A) (A) (A) (A)
                 (A) (A) (A) (A) (A) (A) (A) (A) (A) (A) (A) (A)
                 (A) (A) (A) (A) (A) (A) (A) (A) (A) (A) (A) (A)
                 (A) (A) (A) (A) (A) (A) (A) (A) (A) (A) (A) (A)
                 (A) (A) (A) (A) (A) (A) (A) (A) (A) (A) (A) (A)
                 (A) (A) (A) (A) (A) (A) (A) (A) (A) (A) (A) (A)
                 (A) (A) (A) (A) (A) (A) (A) (A) (A) (A) (A) (A)
                 (A) (A) (A) (A) (A) (A) (A) (A) (A) (A) (A) (A)
                 (A) (A) (A) (A) (A) (A) (A) (A) (A) (A) (A) (A)
                 (A) (A) (A) (A) (A) (A) (A) (A) (A) (A) (A) (A)
                 (A) (A) (A) (A) (A) (A) (A) (A) (A) (A) (A) (A)
                 (A) (A) (A) (A) (A) (A) (A) (A) (A) (A) (A) (A)
                 (A) (A) (A) (A) (A) (A) (A) (A) (A) (A) (A) (A)
                 (A) (A) (A) (A) (A) (A) (A) (A) (A) (A) (A) (A)
                 (A) (A) (A) (A) (A) (A) (A) (A) (A) (A) (A) (A)
                 (A) (A) (A) (A) (A) (A) (A) (A) (A) (A) (A) (A)
                 (A) (A) (A) (A) (A) (A) (A) (A) (A) (A) (A) (A)
                 (A) (A) (A) (A) (A) (A) (A) (A) (A) (A) (A) (A)
                 (A) (A) (A) (A) (A) (A) (A) (A) (A) (A) (A) (A)
                 (A) (A) (A) (A) (A) (A) (A) (A) (A) (A) (A) (A)
                 (A) (A) (A) (A) (A) (A)
     8 initial guesses have been made.
 Convergence on wavefunction:    0.001000000000000
 Iteration     1 Dimension     8 NMult     0 NNew      8
 CISAX will form     8 AO SS matrices at one time.
 Iteration     2 Dimension    12 NMult     8 NNew      4
 Iteration     3 Dimension    16 NMult    12 NNew      4
 Iteration     4 Dimension    20 NMult    16 NNew      4
 Iteration     5 Dimension    24 NMult    20 NNew      4
 Iteration     6 Dimension    28 NMult    24 NNew      4
 ***********************************************************************
 Excited states from <AA,BB:AA,BB> singles matrix:
 ***********************************************************************
 
 Ground to excited state transition densities written to RWF  633
 Ground to excited state transition electric dipole moments (Au):
       state          X           Y           Z        Dip. S.      Osc.
         1         0.2823     -2.5477     -0.2134      6.6158      0.3214
 Ground to excited state transition velocity dipole moments (Au):
       state          X           Y           Z        Dip. S.      Osc.
         1        -0.0193      0.1808      0.0171      0.0334      0.3052
 Ground to excited state transition magnetic dipole moments (Au):
       state          X           Y           Z
         1         0.3623      0.3081     -3.5613
 Ground to excited state transition velocity quadrupole moments (Au):
       state          XX          YY          ZZ          XY          XZ          YZ
         1         0.3918      0.4076      0.0362     -2.3615     -0.2034      0.1864
 <0|del|b> * <b|rxdel|0> + <0|del|b> * <b|delr+rdel|0>
 Rotatory Strengths (R) in cgs (10**-40 erg-esu-cm/Gauss)
       state          XX          YY          ZZ    R(velocity)    E-M Angle
         1       -44.0211   -151.1434     75.4356    -39.9096       91.08
 1/2[<0|r|b>*<b|rxdel|0> + (<0|rxdel|b>*<b|r|0>)*]
 Rotatory Strengths (R) in cgs (10**-40 erg-esu-cm/Gauss)
       state          XX          YY          ZZ     R(length)
         1       -72.3289    555.0808   -537.5432    -18.2637
  1/2[<0|del|b>*<b|r|0> + (<0|r|b>*<b|del|0>)*] (Au)
       state          X           Y           Z        Dip. S.   Osc.(frdel)
         1        -0.0054     -0.4607     -0.0037      0.4698      0.3132

 Excitation energies and oscillator strengths:
 
 Excited State   1:      Singlet-A      1.9829 eV  625.25 nm  f=0.3214  <S**2>=0.000
     240 -> 243        0.21525
     241 -> 242        0.66820
 This state for optimization and/or second-order correction.
 Total Energy, E(TD-HF/TD-KS) =  -2932.52686693    
 Copying the excited state density for this state as the 1-particle RhoCI density.
 SavETr:  write IOETrn=   770 NScale= 10 NData=  16 NLR=1 NState=    1 LETran=      28.

 **********************************************************************

            Population analysis using the SCF density.

 **********************************************************************

 Orbital symmetries:
       Occupied  (A) (A) (A) (A) (A) (A) (A) (A) (A) (A) (A) (A)
                 (A) (A) (A) (A) (A) (A) (A) (A) (A) (A) (A) (A)
                 (A) (A) (A) (A) (A) (A) (A) (A) (A) (A) (A) (A)
                 (A) (A) (A) (A) (A) (A) (A) (A) (A) (A) (A) (A)
                 (A) (A) (A) (A) (A) (A) (A) (A) (A) (A) (A) (A)
                 (A) (A) (A) (A) (A) (A) (A) (A) (A) (A) (A) (A)
                 (A) (A) (A) (A) (A) (A) (A) (A) (A) (A) (A) (A)
                 (A) (A) (A) (A) (A) (A) (A) (A) (A) (A) (A) (A)
                 (A) (A) (A) (A) (A) (A) (A) (A) (A) (A) (A) (A)
                 (A) (A) (A) (A) (A) (A) (A) (A) (A) (A) (A) (A)
                 (A) (A) (A) (A) (A) (A) (A) (A) (A) (A) (A) (A)
                 (A) (A) (A) (A) (A) (A) (A) (A) (A) (A) (A) (A)
                 (A) (A) (A) (A) (A) (A) (A) (A) (A) (A) (A) (A)
                 (A) (A) (A) (A) (A) (A) (A) (A) (A) (A) (A) (A)
                 (A) (A) (A) (A) (A) (A) (A) (A) (A) (A) (A) (A)
                 (A) (A) (A) (A) (A) (A) (A) (A) (A) (A) (A) (A)
                 (A) (A) (A) (A) (A) (A) (A) (A) (A) (A) (A) (A)
                 (A) (A) (A) (A) (A) (A) (A) (A) (A) (A) (A) (A)
                 (A) (A) (A) (A) (A) (A) (A) (A) (A) (A) (A) (A)
                 (A) (A) (A) (A) (A) (A) (A) (A) (A) (A) (A) (A)
                 (A)
       Virtual   (A) (A) (A) (A) (A) (A) (A) (A) (A) (A) (A) (A)
                 (A) (A) (A) (A) (A) (A) (A) (A) (A) (A) (A) (A)
                 (A) (A) (A) (A) (A) (A) (A) (A) (A) (A) (A) (A)
                 (A) (A) (A) (A) (A) (A) (A) (A) (A) (A) (A) (A)
                 (A) (A) (A) (A) (A) (A) (A) (A) (A) (A) (A) (A)
                 (A) (A) (A) (A) (A) (A) (A) (A) (A) (A) (A) (A)
                 (A) (A) (A) (A) (A) (A) (A) (A) (A) (A) (A) (A)
                 (A) (A) (A) (A) (A) (A) (A) (A) (A) (A) (A) (A)
                 (A) (A) (A) (A) (A) (A) (A) (A) (A) (A) (A) (A)
                 (A) (A) (A) (A) (A) (A) (A) (A) (A) (A) (A) (A)
                 (A) (A) (A) (A) (A) (A) (A) (A) (A) (A) (A) (A)
                 (A) (A) (A) (A) (A) (A) (A) (A) (A) (A) (A) (A)
                 (A) (A) (A) (A) (A) (A) (A) (A) (A) (A) (A) (A)
                 (A) (A) (A) (A) (A) (A) (A) (A) (A) (A) (A) (A)
                 (A) (A) (A) (A) (A) (A) (A) (A) (A) (A) (A) (A)
                 (A) (A) (A) (A) (A) (A) (A) (A) (A) (A) (A) (A)
                 (A) (A) (A) (A) (A) (A) (A) (A) (A) (A) (A) (A)
                 (A) (A) (A) (A) (A) (A) (A) (A) (A) (A) (A) (A)
                 (A) (A) (A) (A) (A) (A) (A) (A) (A) (A) (A) (A)
                 (A) (A) (A) (A) (A) (A) (A) (A) (A) (A) (A) (A)
                 (A) (A) (A) (A) (A) (A) (A) (A) (A) (A) (A) (A)
                 (A) (A) (A) (A) (A) (A) (A) (A) (A) (A) (A) (A)
                 (A) (A) (A) (A) (A) (A) (A) (A) (A) (A) (A) (A)
                 (A) (A) (A) (A) (A) (A) (A) (A) (A) (A) (A) (A)
                 (A) (A) (A) (A) (A) (A) (A) (A) (A) (A) (A) (A)
                 (A) (A) (A) (A) (A) (A) (A) (A) (A) (A) (A) (A)
                 (A) (A) (A) (A) (A) (A) (A) (A) (A) (A) (A) (A)
                 (A) (A) (A) (A) (A) (A) (A) (A) (A) (A) (A) (A)
                 (A) (A) (A) (A) (A) (A) (A) (A) (A) (A) (A) (A)
                 (A) (A) (A) (A) (A) (A) (A) (A) (A) (A) (A) (A)
                 (A) (A) (A) (A) (A) (A) (A) (A) (A) (A) (A) (A)
                 (A) (A) (A) (A) (A) (A) (A) (A) (A) (A) (A) (A)
                 (A) (A) (A) (A) (A) (A) (A) (A) (A) (A) (A) (A)
                 (A) (A) (A) (A) (A) (A) (A) (A) (A) (A) (A) (A)
                 (A) (A) (A) (A) (A) (A) (A) (A) (A) (A) (A) (A)
                 (A) (A) (A) (A) (A) (A) (A) (A) (A) (A) (A) (A)
                 (A) (A) (A) (A) (A) (A) (A) (A) (A) (A) (A) (A)
                 (A) (A) (A) (A) (A) (A) (A) (A) (A) (A) (A) (A)
                 (A) (A) (A) (A) (A) (A) (A) (A) (A) (A) (A) (A)
                 (A) (A) (A) (A) (A) (A) (A) (A) (A) (A) (A) (A)
                 (A) (A) (A) (A) (A) (A) (A) (A) (A) (A) (A) (A)
                 (A) (A) (A) (A) (A) (A) (A) (A) (A) (A) (A) (A)
                 (A) (A) (A) (A) (A) (A) (A) (A) (A) (A) (A) (A)
                 (A) (A) (A) (A) (A) (A) (A) (A) (A) (A) (A) (A)
                 (A) (A) (A) (A) (A) (A) (A) (A) (A) (A) (A) (A)
                 (A) (A) (A) (A) (A) (A) (A) (A) (A) (A) (A) (A)
                 (A) (A) (A) (A) (A) (A) (A) (A) (A) (A) (A) (A)
                 (A) (A) (A) (A) (A) (A) (A) (A) (A) (A) (A) (A)
                 (A) (A) (A) (A) (A) (A) (A) (A) (A) (A) (A) (A)
                 (A) (A) (A) (A) (A) (A) (A) (A) (A) (A) (A) (A)
                 (A) (A) (A) (A) (A) (A) (A) (A) (A) (A) (A) (A)
                 (A) (A) (A) (A) (A) (A) (A) (A) (A) (A) (A) (A)
                 (A) (A) (A) (A) (A) (A) (A) (A) (A) (A) (A) (A)
                 (A) (A) (A) (A) (A) (A) (A) (A) (A) (A) (A) (A)
                 (A) (A) (A) (A) (A) (A) (A) (A) (A) (A) (A) (A)
                 (A) (A) (A) (A) (A) (A) (A) (A) (A) (A) (A) (A)
                 (A) (A) (A) (A) (A) (A) (A) (A) (A) (A) (A) (A)
                 (A) (A) (A) (A) (A) (A) (A) (A) (A) (A) (A) (A)
                 (A) (A) (A) (A) (A) (A) (A) (A) (A) (A) (A) (A)
                 (A) (A) (A) (A) (A) (A) (A) (A) (A) (A) (A) (A)
                 (A) (A) (A) (A) (A) (A) (A) (A) (A) (A) (A) (A)
                 (A) (A) (A) (A) (A) (A) (A) (A) (A) (A) (A) (A)
                 (A) (A) (A) (A) (A) (A) (A) (A) (A) (A) (A) (A)
                 (A) (A) (A) (A) (A) (A) (A) (A) (A) (A) (A) (A)
                 (A) (A) (A) (A) (A) (A) (A) (A) (A) (A) (A) (A)
                 (A) (A) (A) (A) (A) (A) (A) (A) (A) (A) (A) (A)
                 (A) (A) (A) (A) (A) (A) (A) (A) (A) (A) (A) (A)
                 (A) (A) (A) (A) (A) (A) (A) (A) (A) (A) (A) (A)
                 (A) (A) (A) (A) (A) (A) (A) (A) (A) (A) (A) (A)
                 (A) (A) (A) (A) (A) (A) (A) (A) (A) (A) (A) (A)
                 (A) (A) (A) (A) (A) (A) (A) (A) (A) (A) (A) (A)
                 (A) (A) (A) (A) (A) (A) (A) (A) (A) (A) (A) (A)
                 (A) (A) (A) (A) (A) (A) (A) (A) (A) (A) (A) (A)
                 (A) (A) (A) (A) (A) (A) (A) (A) (A) (A) (A) (A)
                 (A) (A) (A) (A) (A) (A) (A) (A) (A) (A) (A) (A)
                 (A) (A) (A) (A) (A) (A) (A) (A) (A) (A) (A) (A)
                 (A) (A) (A) (A) (A) (A) (A) (A) (A) (A) (A) (A)
                 (A) (A) (A) (A) (A) (A) (A) (A) (A) (A) (A) (A)
                 (A) (A) (A) (A) (A) (A) (A) (A) (A) (A) (A) (A)
                 (A) (A) (A) (A) (A) (A) (A) (A) (A) (A) (A) (A)
                 (A) (A) (A) (A) (A) (A) (A) (A) (A) (A) (A) (A)
                 (A) (A) (A) (A) (A) (A) (A) (A) (A) (A) (A) (A)
                 (A) (A) (A) (A) (A) (A) (A) (A) (A) (A) (A) (A)
                 (A) (A) (A) (A) (A) (A) (A) (A) (A) (A) (A) (A)
                 (A) (A) (A) (A) (A) (A) (A) (A) (A) (A) (A) (A)
                 (A) (A) (A) (A) (A) (A) (A) (A) (A) (A) (A) (A)
                 (A) (A) (A) (A) (A) (A) (A) (A) (A) (A) (A) (A)
                 (A) (A) (A) (A) (A) (A) (A) (A) (A) (A) (A) (A)
                 (A) (A) (A) (A) (A) (A) (A) (A) (A) (A) (A) (A)
                 (A) (A) (A) (A) (A) (A) (A) (A) (A) (A) (A) (A)
                 (A) (A) (A) (A) (A) (A) (A) (A) (A) (A) (A) (A)
                 (A) (A) (A) (A) (A) (A)
 The electronic state is 1-A.
 Alpha  occ. eigenvalues --  -46.84562 -19.25254 -19.24602 -19.24124 -19.20886
 Alpha  occ. eigenvalues --  -19.20747 -14.42148 -14.40056 -14.39295 -14.38800
 Alpha  occ. eigenvalues --  -10.40737 -10.39016 -10.36040 -10.31803 -10.30520
 Alpha  occ. eigenvalues --  -10.30480 -10.30149 -10.29594 -10.29376 -10.29225
 Alpha  occ. eigenvalues --  -10.29186 -10.29139 -10.28913 -10.28899 -10.28414
 Alpha  occ. eigenvalues --  -10.28301 -10.28094 -10.28080 -10.28006 -10.27981
 Alpha  occ. eigenvalues --  -10.27855 -10.27782 -10.27632 -10.27612 -10.27225
 Alpha  occ. eigenvalues --  -10.27127 -10.26927 -10.26752 -10.26726 -10.26706
 Alpha  occ. eigenvalues --  -10.26585 -10.26438 -10.26429 -10.26425 -10.26272
 Alpha  occ. eigenvalues --  -10.26247 -10.26023 -10.25924 -10.25922 -10.25819
 Alpha  occ. eigenvalues --  -10.25781 -10.25771 -10.25752 -10.25709 -10.25214
 Alpha  occ. eigenvalues --  -10.25210 -10.25150 -10.25135 -10.24967 -10.24938
 Alpha  occ. eigenvalues --  -10.24886 -10.24842 -10.23925 -10.23524 -10.22029
 Alpha  occ. eigenvalues --   -3.13589  -1.88301  -1.87820  -1.87769  -1.18288
 Alpha  occ. eigenvalues --   -1.15806  -1.10586  -1.08567  -1.07952  -1.04956
 Alpha  occ. eigenvalues --   -1.03747  -1.03480  -1.02347  -0.92500  -0.91957
 Alpha  occ. eigenvalues --   -0.91444  -0.90845  -0.90313  -0.89544  -0.89271
 Alpha  occ. eigenvalues --   -0.89231  -0.88171  -0.87652  -0.87156  -0.86456
 Alpha  occ. eigenvalues --   -0.85538  -0.84762  -0.84079  -0.83341  -0.83172
 Alpha  occ. eigenvalues --   -0.81876  -0.80878  -0.80375  -0.80238  -0.79024
 Alpha  occ. eigenvalues --   -0.77490  -0.76693  -0.76169  -0.76044  -0.75503
 Alpha  occ. eigenvalues --   -0.75389  -0.74794  -0.74073  -0.73685  -0.73352
 Alpha  occ. eigenvalues --   -0.72159  -0.71461  -0.70091  -0.69416  -0.68800
 Alpha  occ. eigenvalues --   -0.67605  -0.67209  -0.66264  -0.65794  -0.65293
 Alpha  occ. eigenvalues --   -0.65057  -0.63885  -0.62744  -0.62369  -0.62260
 Alpha  occ. eigenvalues --   -0.60914  -0.60816  -0.60438  -0.60349  -0.59847
 Alpha  occ. eigenvalues --   -0.59273  -0.58270  -0.58202  -0.57628  -0.56769
 Alpha  occ. eigenvalues --   -0.56530  -0.55958  -0.55461  -0.55155  -0.54890
 Alpha  occ. eigenvalues --   -0.54693  -0.54484  -0.54226  -0.54194  -0.53342
 Alpha  occ. eigenvalues --   -0.52933  -0.52641  -0.52513  -0.52192  -0.52126
 Alpha  occ. eigenvalues --   -0.51853  -0.51690  -0.51191  -0.50860  -0.50634
 Alpha  occ. eigenvalues --   -0.50365  -0.50160  -0.49869  -0.49784  -0.49748
 Alpha  occ. eigenvalues --   -0.49286  -0.49209  -0.48891  -0.48809  -0.48761
 Alpha  occ. eigenvalues --   -0.48643  -0.48498  -0.48309  -0.48255  -0.47656
 Alpha  occ. eigenvalues --   -0.47476  -0.47287  -0.46955  -0.46876  -0.46602
 Alpha  occ. eigenvalues --   -0.46279  -0.45798  -0.45745  -0.45336  -0.45200
 Alpha  occ. eigenvalues --   -0.45062  -0.44893  -0.44781  -0.44721  -0.44596
 Alpha  occ. eigenvalues --   -0.43933  -0.43709  -0.43630  -0.43237  -0.42992
 Alpha  occ. eigenvalues --   -0.42560  -0.42520  -0.42439  -0.42328  -0.42265
 Alpha  occ. eigenvalues --   -0.42068  -0.42005  -0.41826  -0.41573  -0.41441
 Alpha  occ. eigenvalues --   -0.41182  -0.41064  -0.40811  -0.40653  -0.40389
 Alpha  occ. eigenvalues --   -0.40301  -0.39766  -0.39625  -0.39494  -0.39337
 Alpha  occ. eigenvalues --   -0.39175  -0.39022  -0.38567  -0.38339  -0.38221
 Alpha  occ. eigenvalues --   -0.38153  -0.37696  -0.37391  -0.36851  -0.36819
 Alpha  occ. eigenvalues --   -0.36332  -0.35941  -0.35931  -0.35791  -0.35472
 Alpha  occ. eigenvalues --   -0.35365  -0.34805  -0.34549  -0.34394  -0.33670
 Alpha  occ. eigenvalues --   -0.33388  -0.32327  -0.32117  -0.31801  -0.30323
 Alpha  occ. eigenvalues --   -0.30028  -0.29319  -0.27757  -0.27104  -0.23685
 Alpha  occ. eigenvalues --   -0.20894
 Alpha virt. eigenvalues --   -0.06802  -0.02646   0.00803   0.02697   0.04656
 Alpha virt. eigenvalues --    0.05229   0.06014   0.06208   0.06359   0.06910
 Alpha virt. eigenvalues --    0.08212   0.10798   0.11268   0.11604   0.11836
 Alpha virt. eigenvalues --    0.12156   0.12427   0.12529   0.13195   0.13328
 Alpha virt. eigenvalues --    0.13422   0.13697   0.14180   0.14307   0.14622
 Alpha virt. eigenvalues --    0.14798   0.14955   0.15089   0.15452   0.15650
 Alpha virt. eigenvalues --    0.15862   0.15893   0.16284   0.16505   0.16772
 Alpha virt. eigenvalues --    0.16851   0.17117   0.17457   0.17482   0.17711
 Alpha virt. eigenvalues --    0.18009   0.18097   0.18202   0.18438   0.18491
 Alpha virt. eigenvalues --    0.18616   0.18993   0.19051   0.19194   0.19315
 Alpha virt. eigenvalues --    0.19580   0.19685   0.19976   0.20124   0.20139
 Alpha virt. eigenvalues --    0.20365   0.20480   0.20633   0.20988   0.21203
 Alpha virt. eigenvalues --    0.21413   0.21608   0.21633   0.21718   0.21771
 Alpha virt. eigenvalues --    0.22103   0.22379   0.22567   0.22705   0.22819
 Alpha virt. eigenvalues --    0.22932   0.22974   0.23037   0.23274   0.23506
 Alpha virt. eigenvalues --    0.23707   0.23907   0.23977   0.24471   0.24756
 Alpha virt. eigenvalues --    0.24806   0.24871   0.24964   0.25232   0.25347
 Alpha virt. eigenvalues --    0.25407   0.25613   0.25912   0.26117   0.26174
 Alpha virt. eigenvalues --    0.26553   0.26613   0.26735   0.27062   0.27550
 Alpha virt. eigenvalues --    0.27689   0.27757   0.28099   0.28343   0.28548
 Alpha virt. eigenvalues --    0.28701   0.28827   0.29017   0.29132   0.29171
 Alpha virt. eigenvalues --    0.29328   0.29774   0.29865   0.29953   0.30323
 Alpha virt. eigenvalues --    0.30533   0.30973   0.31097   0.31297   0.31507
 Alpha virt. eigenvalues --    0.31627   0.32054   0.32502   0.32614   0.32916
 Alpha virt. eigenvalues --    0.33164   0.33377   0.33423   0.33645   0.34524
 Alpha virt. eigenvalues --    0.34577   0.35042   0.35050   0.35422   0.35869
 Alpha virt. eigenvalues --    0.36083   0.36262   0.37347   0.37379   0.37546
 Alpha virt. eigenvalues --    0.37821   0.39312   0.39839   0.40109   0.40432
 Alpha virt. eigenvalues --    0.40701   0.41450   0.41878   0.42234   0.42519
 Alpha virt. eigenvalues --    0.42972   0.43061   0.43843   0.44066   0.44934
 Alpha virt. eigenvalues --    0.45998   0.47016   0.47977   0.48331   0.49326
 Alpha virt. eigenvalues --    0.49588   0.49957   0.50589   0.51213   0.51902
 Alpha virt. eigenvalues --    0.52310   0.53270   0.54038   0.54216   0.54536
 Alpha virt. eigenvalues --    0.54802   0.54935   0.55216   0.55752   0.55995
 Alpha virt. eigenvalues --    0.56162   0.56506   0.56587   0.56769   0.57164
 Alpha virt. eigenvalues --    0.57389   0.57548   0.57881   0.58341   0.58487
 Alpha virt. eigenvalues --    0.58597   0.58740   0.58878   0.59127   0.59379
 Alpha virt. eigenvalues --    0.59619   0.59719   0.60011   0.60153   0.60303
 Alpha virt. eigenvalues --    0.60428   0.60511   0.61292   0.61527   0.61623
 Alpha virt. eigenvalues --    0.61811   0.61864   0.62034   0.62481   0.62532
 Alpha virt. eigenvalues --    0.62986   0.63268   0.63561   0.63597   0.63837
 Alpha virt. eigenvalues --    0.64259   0.64464   0.64708   0.65174   0.65277
 Alpha virt. eigenvalues --    0.65538   0.65825   0.66069   0.66125   0.66402
 Alpha virt. eigenvalues --    0.66703   0.67256   0.67367   0.67565   0.67976
 Alpha virt. eigenvalues --    0.68089   0.68158   0.68420   0.68735   0.68991
 Alpha virt. eigenvalues --    0.69384   0.69593   0.69919   0.70222   0.70401
 Alpha virt. eigenvalues --    0.70712   0.70945   0.70972   0.71244   0.71371
 Alpha virt. eigenvalues --    0.71703   0.72228   0.72444   0.72861   0.73040
 Alpha virt. eigenvalues --    0.73284   0.73619   0.73626   0.73784   0.74004
 Alpha virt. eigenvalues --    0.74122   0.74331   0.74525   0.74704   0.75331
 Alpha virt. eigenvalues --    0.75580   0.75906   0.75949   0.76085   0.76618
 Alpha virt. eigenvalues --    0.76930   0.77129   0.77635   0.78064   0.78117
 Alpha virt. eigenvalues --    0.78251   0.78659   0.78873   0.79365   0.79664
 Alpha virt. eigenvalues --    0.79722   0.80008   0.80267   0.80296   0.80488
 Alpha virt. eigenvalues --    0.81074   0.81277   0.81572   0.81891   0.82151
 Alpha virt. eigenvalues --    0.82362   0.82466   0.82925   0.83075   0.83376
 Alpha virt. eigenvalues --    0.83493   0.83983   0.84041   0.84176   0.84284
 Alpha virt. eigenvalues --    0.84532   0.84787   0.85039   0.85178   0.85328
 Alpha virt. eigenvalues --    0.85426   0.85737   0.86431   0.86697   0.86848
 Alpha virt. eigenvalues --    0.87092   0.87389   0.87431   0.87669   0.88062
 Alpha virt. eigenvalues --    0.88399   0.88590   0.88805   0.88956   0.89098
 Alpha virt. eigenvalues --    0.89258   0.89367   0.89726   0.90025   0.90155
 Alpha virt. eigenvalues --    0.90329   0.90384   0.90690   0.90725   0.90966
 Alpha virt. eigenvalues --    0.91256   0.91731   0.91829   0.91981   0.92261
 Alpha virt. eigenvalues --    0.92363   0.92502   0.92592   0.92922   0.93056
 Alpha virt. eigenvalues --    0.93078   0.93240   0.93439   0.93716   0.93961
 Alpha virt. eigenvalues --    0.94053   0.94241   0.94544   0.94569   0.94953
 Alpha virt. eigenvalues --    0.95182   0.95423   0.95542   0.95830   0.95938
 Alpha virt. eigenvalues --    0.96083   0.96236   0.96605   0.96706   0.96766
 Alpha virt. eigenvalues --    0.97183   0.97284   0.97530   0.97761   0.97825
 Alpha virt. eigenvalues --    0.98160   0.98488   0.98665   0.99025   0.99035
 Alpha virt. eigenvalues --    0.99468   0.99667   1.00004   1.00287   1.00558
 Alpha virt. eigenvalues --    1.00862   1.01084   1.01377   1.01387   1.01735
 Alpha virt. eigenvalues --    1.02284   1.02539   1.02897   1.03003   1.03295
 Alpha virt. eigenvalues --    1.03372   1.03758   1.04132   1.04372   1.04621
 Alpha virt. eigenvalues --    1.04854   1.05046   1.05230   1.05653   1.05736
 Alpha virt. eigenvalues --    1.06009   1.06517   1.06968   1.07032   1.07206
 Alpha virt. eigenvalues --    1.07410   1.07485   1.07577   1.07956   1.08616
 Alpha virt. eigenvalues --    1.08698   1.08871   1.09118   1.09609   1.09804
 Alpha virt. eigenvalues --    1.10100   1.10379   1.10571   1.11183   1.11782
 Alpha virt. eigenvalues --    1.12209   1.12542   1.13051   1.13653   1.13953
 Alpha virt. eigenvalues --    1.13980   1.14286   1.14384   1.14714   1.15094
 Alpha virt. eigenvalues --    1.15386   1.15660   1.16118   1.16989   1.17332
 Alpha virt. eigenvalues --    1.18226   1.18973   1.19167   1.19452   1.20058
 Alpha virt. eigenvalues --    1.20633   1.21398   1.22640   1.23248   1.23719
 Alpha virt. eigenvalues --    1.23778   1.23998   1.24479   1.24911   1.25176
 Alpha virt. eigenvalues --    1.25381   1.26284   1.26503   1.27509   1.28014
 Alpha virt. eigenvalues --    1.28169   1.28506   1.28864   1.29152   1.29786
 Alpha virt. eigenvalues --    1.30581   1.31143   1.31416   1.32198   1.32802
 Alpha virt. eigenvalues --    1.33300   1.34235   1.34487   1.35111   1.35671
 Alpha virt. eigenvalues --    1.35892   1.36608   1.36863   1.37260   1.37964
 Alpha virt. eigenvalues --    1.38440   1.39054   1.39526   1.39706   1.40483
 Alpha virt. eigenvalues --    1.40554   1.40669   1.41446   1.41845   1.42642
 Alpha virt. eigenvalues --    1.43048   1.43393   1.43735   1.44139   1.44593
 Alpha virt. eigenvalues --    1.45032   1.45198   1.46225   1.46419   1.46915
 Alpha virt. eigenvalues --    1.47281   1.47361   1.48641   1.49438   1.50138
 Alpha virt. eigenvalues --    1.50729   1.51602   1.51749   1.52529   1.53066
 Alpha virt. eigenvalues --    1.53666   1.54084   1.54142   1.54748   1.54965
 Alpha virt. eigenvalues --    1.55533   1.56069   1.56782   1.57173   1.57415
 Alpha virt. eigenvalues --    1.57872   1.58006   1.58376   1.59191   1.59553
 Alpha virt. eigenvalues --    1.59992   1.60495   1.60882   1.60940   1.61064
 Alpha virt. eigenvalues --    1.61844   1.61941   1.62001   1.62854   1.63639
 Alpha virt. eigenvalues --    1.63747   1.64128   1.64230   1.64864   1.65188
 Alpha virt. eigenvalues --    1.65365   1.65418   1.66142   1.66329   1.67040
 Alpha virt. eigenvalues --    1.67237   1.67367   1.67801   1.68320   1.68781
 Alpha virt. eigenvalues --    1.69549   1.70061   1.70557   1.70835   1.70928
 Alpha virt. eigenvalues --    1.71727   1.71816   1.72591   1.73059   1.73455
 Alpha virt. eigenvalues --    1.73914   1.74516   1.75033   1.75382   1.75873
 Alpha virt. eigenvalues --    1.76331   1.76706   1.77149   1.77706   1.77923
 Alpha virt. eigenvalues --    1.78454   1.78643   1.79629   1.79781   1.80094
 Alpha virt. eigenvalues --    1.80359   1.80601   1.80666   1.80993   1.81986
 Alpha virt. eigenvalues --    1.82379   1.82595   1.83071   1.83351   1.83522
 Alpha virt. eigenvalues --    1.83595   1.84103   1.84597   1.85338   1.85493
 Alpha virt. eigenvalues --    1.85683   1.85803   1.85991   1.86903   1.86947
 Alpha virt. eigenvalues --    1.87337   1.87646   1.87879   1.88010   1.88520
 Alpha virt. eigenvalues --    1.88692   1.88811   1.89482   1.89785   1.89969
 Alpha virt. eigenvalues --    1.90279   1.90384   1.90744   1.90982   1.91197
 Alpha virt. eigenvalues --    1.91506   1.91940   1.91982   1.92179   1.92500
 Alpha virt. eigenvalues --    1.92802   1.93020   1.93181   1.93259   1.93440
 Alpha virt. eigenvalues --    1.93685   1.94082   1.94283   1.94604   1.95251
 Alpha virt. eigenvalues --    1.95561   1.95567   1.95898   1.96113   1.96260
 Alpha virt. eigenvalues --    1.96320   1.96841   1.97090   1.97352   1.97493
 Alpha virt. eigenvalues --    1.97805   1.98201   1.98511   1.99282   1.99339
 Alpha virt. eigenvalues --    1.99599   1.99877   2.00136   2.00469   2.00557
 Alpha virt. eigenvalues --    2.00651   2.00821   2.01251   2.01275   2.01455
 Alpha virt. eigenvalues --    2.01650   2.02104   2.02146   2.02930   2.03055
 Alpha virt. eigenvalues --    2.03283   2.03465   2.03517   2.04181   2.04321
 Alpha virt. eigenvalues --    2.04579   2.04810   2.04939   2.05257   2.05962
 Alpha virt. eigenvalues --    2.06205   2.06877   2.07141   2.07235   2.07425
 Alpha virt. eigenvalues --    2.07771   2.07970   2.08175   2.08325   2.08745
 Alpha virt. eigenvalues --    2.09272   2.09385   2.09513   2.09655   2.10521
 Alpha virt. eigenvalues --    2.10642   2.10746   2.11172   2.11446   2.11794
 Alpha virt. eigenvalues --    2.12048   2.12499   2.12816   2.13108   2.13334
 Alpha virt. eigenvalues --    2.13621   2.14006   2.14224   2.14437   2.14598
 Alpha virt. eigenvalues --    2.14958   2.15009   2.15164   2.15935   2.16000
 Alpha virt. eigenvalues --    2.16317   2.16582   2.17241   2.17959   2.18383
 Alpha virt. eigenvalues --    2.18673   2.18928   2.19146   2.19478   2.20040
 Alpha virt. eigenvalues --    2.20398   2.20495   2.20664   2.20830   2.21774
 Alpha virt. eigenvalues --    2.22075   2.22106   2.22772   2.23073   2.23164
 Alpha virt. eigenvalues --    2.23689   2.24126   2.24419   2.24738   2.25384
 Alpha virt. eigenvalues --    2.25635   2.25981   2.26259   2.26672   2.27109
 Alpha virt. eigenvalues --    2.27374   2.28012   2.28603   2.28915   2.29279
 Alpha virt. eigenvalues --    2.29653   2.30127   2.30261   2.30838   2.31192
 Alpha virt. eigenvalues --    2.31394   2.32030   2.32355   2.32527   2.32913
 Alpha virt. eigenvalues --    2.33031   2.33144   2.33193   2.33369   2.33777
 Alpha virt. eigenvalues --    2.34057   2.34185   2.34684   2.34967   2.35241
 Alpha virt. eigenvalues --    2.35728   2.35925   2.36008   2.36292   2.36592
 Alpha virt. eigenvalues --    2.36805   2.37131   2.37643   2.37747   2.38139
 Alpha virt. eigenvalues --    2.38464   2.38771   2.38880   2.39427   2.39597
 Alpha virt. eigenvalues --    2.39717   2.39983   2.40427   2.40535   2.41210
 Alpha virt. eigenvalues --    2.41366   2.41520   2.42010   2.42155   2.42486
 Alpha virt. eigenvalues --    2.43542   2.43718   2.43928   2.44437   2.44506
 Alpha virt. eigenvalues --    2.44759   2.45284   2.45525   2.45638   2.45766
 Alpha virt. eigenvalues --    2.45980   2.46147   2.46471   2.46548   2.46719
 Alpha virt. eigenvalues --    2.47342   2.48491   2.48596   2.48651   2.49082
 Alpha virt. eigenvalues --    2.49095   2.49628   2.49957   2.50284   2.50758
 Alpha virt. eigenvalues --    2.51289   2.51751   2.52166   2.52392   2.52488
 Alpha virt. eigenvalues --    2.52702   2.52942   2.53756   2.53939   2.54560
 Alpha virt. eigenvalues --    2.54807   2.54971   2.55249   2.55715   2.55976
 Alpha virt. eigenvalues --    2.56404   2.56866   2.57367   2.57652   2.57756
 Alpha virt. eigenvalues --    2.57887   2.58307   2.58538   2.58998   2.59538
 Alpha virt. eigenvalues --    2.59925   2.60153   2.61153   2.61533   2.61815
 Alpha virt. eigenvalues --    2.62064   2.62512   2.62829   2.63525   2.63784
 Alpha virt. eigenvalues --    2.63993   2.64196   2.64828   2.65335   2.65517
 Alpha virt. eigenvalues --    2.65776   2.66299   2.66896   2.67174   2.67268
 Alpha virt. eigenvalues --    2.67515   2.67701   2.68242   2.68774   2.69158
 Alpha virt. eigenvalues --    2.69467   2.69866   2.70288   2.70652   2.70806
 Alpha virt. eigenvalues --    2.71054   2.71896   2.72115   2.72426   2.72629
 Alpha virt. eigenvalues --    2.72730   2.73102   2.73513   2.73818   2.73896
 Alpha virt. eigenvalues --    2.74290   2.74743   2.74862   2.75303   2.75416
 Alpha virt. eigenvalues --    2.75513   2.75823   2.76342   2.76949   2.77341
 Alpha virt. eigenvalues --    2.77727   2.78276   2.78296   2.78547   2.79129
 Alpha virt. eigenvalues --    2.79156   2.79673   2.79891   2.80148   2.80680
 Alpha virt. eigenvalues --    2.81048   2.81440   2.81773   2.81992   2.82138
 Alpha virt. eigenvalues --    2.82605   2.83273   2.83286   2.83671   2.84246
 Alpha virt. eigenvalues --    2.84527   2.84684   2.85003   2.85173   2.85854
 Alpha virt. eigenvalues --    2.86146   2.86567   2.86775   2.86971   2.87339
 Alpha virt. eigenvalues --    2.87810   2.88061   2.88287   2.88597   2.88740
 Alpha virt. eigenvalues --    2.89358   2.90151   2.90646   2.91090   2.91382
 Alpha virt. eigenvalues --    2.91562   2.92059   2.92325   2.92598   2.92743
 Alpha virt. eigenvalues --    2.93058   2.93950   2.94079   2.95284   2.95441
 Alpha virt. eigenvalues --    2.95846   2.96123   2.96185   2.97489   2.97889
 Alpha virt. eigenvalues --    2.98008   2.98151   2.98531   2.98576   2.98958
 Alpha virt. eigenvalues --    2.99789   2.99807   3.00202   3.00378   3.00552
 Alpha virt. eigenvalues --    3.00828   3.01295   3.01489   3.02279   3.02878
 Alpha virt. eigenvalues --    3.03444   3.03675   3.04643   3.04924   3.05176
 Alpha virt. eigenvalues --    3.05823   3.06670   3.07441   3.07913   3.08545
 Alpha virt. eigenvalues --    3.08694   3.09119   3.09568   3.10135   3.10738
 Alpha virt. eigenvalues --    3.11732   3.11807   3.11937   3.12370   3.13386
 Alpha virt. eigenvalues --    3.15366   3.16325   3.16525   3.17405   3.17713
 Alpha virt. eigenvalues --    3.18264   3.18378   3.19058   3.19230   3.19988
 Alpha virt. eigenvalues --    3.20622   3.22047   3.22638   3.22944   3.23322
 Alpha virt. eigenvalues --    3.23514   3.23995   3.24298   3.25135   3.27105
 Alpha virt. eigenvalues --    3.27314   3.27779   3.28651   3.29290   3.29506
 Alpha virt. eigenvalues --    3.30468   3.31173   3.31294   3.31403   3.31750
 Alpha virt. eigenvalues --    3.32465   3.32883   3.34273   3.34291   3.34808
 Alpha virt. eigenvalues --    3.36612   3.38539   3.38696   3.39565   3.39923
 Alpha virt. eigenvalues --    3.40082   3.41612   3.42114   3.42682   3.45385
 Alpha virt. eigenvalues --    3.45436   3.46157   3.46963   3.47506   3.47687
 Alpha virt. eigenvalues --    3.48201   3.48253   3.49111   3.50265   3.51391
 Alpha virt. eigenvalues --    3.52229   3.54252   3.55456   3.55972   3.56354
 Alpha virt. eigenvalues --    3.56775   3.57762   3.58200   3.58324   3.59929
 Alpha virt. eigenvalues --    3.60948   3.61778   3.62551   3.62767   3.62912
 Alpha virt. eigenvalues --    3.63328   3.64315   3.64691   3.65370   3.66244
 Alpha virt. eigenvalues --    3.67243   3.68250   3.69726   3.70513   3.71398
 Alpha virt. eigenvalues --    3.72960   3.73367   3.74219   3.80079   3.90841
 Alpha virt. eigenvalues --    3.91197   3.98350   4.00520   4.06231   4.07101
 Alpha virt. eigenvalues --    4.08021   4.10455   4.18188   4.22190   4.23251
 Alpha virt. eigenvalues --    4.23319   4.23999   4.25992   4.26394   4.27697
 Alpha virt. eigenvalues --    4.28115   4.30219   4.30540   4.32814   4.34116
 Alpha virt. eigenvalues --    4.35844   4.37003   4.37293   4.39433   4.40453
 Alpha virt. eigenvalues --    4.42129   4.44243   4.44467   4.44809   4.46442
 Alpha virt. eigenvalues --    4.47418   4.47953   4.49115   4.50783   4.51170
 Alpha virt. eigenvalues --    4.53493   4.53937   4.54971   4.55312   4.55861
 Alpha virt. eigenvalues --    4.57190   4.57545   4.58855   4.59016   4.60416
 Alpha virt. eigenvalues --    4.61740   4.61955   4.64274   4.64439   4.68982
 Alpha virt. eigenvalues --    4.69678   4.70836   4.72033   4.72903   4.73523
 Alpha virt. eigenvalues --    4.74879   4.76277   4.77673   4.79964   4.81403
 Alpha virt. eigenvalues --    4.83315   4.84705   4.87205   4.87726   4.89812
 Alpha virt. eigenvalues --    4.90549   4.95204   4.99473
          Condensed to atoms (all electrons):
 Mulliken charges:
               1
     1  Mg   0.819837
     2  C    0.009060
     3  C   -0.191764
     4  C   -0.184928
     5  C   -0.089695
     6  N   -0.637849
     7  C    0.326751
     8  C   -0.133815
     9  C   -0.147857
    10  C    0.326933
    11  C   -0.318191
    12  C   -0.159191
    13  C   -0.303714
    14  C    0.644073
    15  O   -0.486382
    16  O   -0.515218
    17  N   -0.736378
    18  C    0.304849
    19  C    0.018553
    20  C   -0.027528
    21  C    0.311166
    22  C   -0.368748
    23  C   -0.034034
    24  C   -0.239210
    25  N   -0.704472
    26  C    0.345706
    27  C    0.014807
    28  C   -0.021028
    29  C    0.308078
    30  C   -0.384413
    31  C   -0.226080
    32  C   -0.300173
    33  N   -0.728830
    34  C    0.250101
    35  C   -0.057416
    36  C    0.029979
    37  C    0.296091
    38  C   -0.359552
    39  C    0.362123
    40  O   -0.467821
    41  C   -0.306950
    42  C    0.613643
    43  O   -0.410070
    44  O   -0.467240
    45  C   -0.078158
    46  C    0.040927
    47  C   -0.148885
    48  C    0.140561
    49  C   -0.401083
    50  C   -0.239944
    51  C   -0.145715
    52  C   -0.181131
    53  C   -0.048334
    54  C   -0.302497
    55  C   -0.167263
    56  C   -0.186101
    57  C   -0.144656
    58  C   -0.061012
    59  C   -0.303680
    60  C   -0.148538
    61  C   -0.190577
    62  C   -0.148123
    63  C   -0.045513
    64  C   -0.295924
    65  C   -0.287857
    66  H    0.070202
    67  H    0.101999
    68  H    0.070375
    69  H    0.136122
    70  H    0.111034
    71  H    0.122826
    72  H    0.116125
    73  H    0.094331
    74  H    0.135404
    75  H    0.130253
    76  H    0.145454
    77  H    0.120339
    78  H    0.115713
    79  H    0.147379
    80  H    0.119201
    81  H    0.072023
    82  H    0.088038
    83  H    0.105935
    84  H    0.113920
    85  H    0.116401
    86  H    0.125645
    87  H    0.114485
    88  H    0.111692
    89  H    0.093508
    90  H    0.089000
    91  H    0.117818
    92  H    0.117706
    93  H    0.148977
    94  H    0.127837
    95  H    0.180158
    96  H    0.086892
    97  H    0.113313
    98  H    0.123979
    99  H    0.120951
   100  H    0.108710
   101  H    0.091397
   102  H    0.121100
   103  H    0.129287
   104  H    0.132700
   105  H    0.102553
   106  H    0.092292
   107  H    0.112811
   108  H    0.086087
   109  H    0.060126
   110  H    0.072546
   111  H    0.095792
   112  H    0.080732
   113  H    0.117307
   114  H    0.084857
   115  H    0.070282
   116  H    0.098408
   117  H    0.086872
   118  H    0.059871
   119  H    0.079373
   120  H    0.096525
   121  H    0.085460
   122  H    0.088407
   123  H    0.112307
   124  H    0.089991
   125  H    0.078493
   126  H    0.062592
   127  H    0.072504
   128  H    0.110686
   129  H    0.091226
   130  H    0.078270
   131  H    0.071513
   132  H    0.087984
   133  H    0.103631
   134  H    0.097523
   135  H    0.086333
   136  H    0.098162
   137  H    0.070555
 Sum of Mulliken charges =   0.00000
 Mulliken charges with hydrogens summed into heavy atoms:
               1
     1  Mg   0.819837
     2  C    0.009060
     3  C   -0.121562
     4  C   -0.082929
     5  C   -0.019320
     6  N   -0.637849
     7  C    0.326751
     8  C    0.002307
     9  C   -0.036823
    10  C    0.326933
    11  C    0.015091
    12  C    0.106466
    13  C   -0.037920
    14  C    0.644073
    15  O   -0.486382
    16  O   -0.515218
    17  N   -0.736378
    18  C    0.304849
    19  C    0.018553
    20  C   -0.027528
    21  C    0.311166
    22  C    0.013545
    23  C    0.037989
    24  C   -0.045237
    25  N   -0.704472
    26  C    0.345706
    27  C    0.014807
    28  C   -0.021028
    29  C    0.308078
    30  C   -0.028447
    31  C    0.000097
    32  C    0.000153
    33  N   -0.728830
    34  C    0.250101
    35  C   -0.057416
    36  C    0.029979
    37  C    0.296091
    38  C    0.034969
    39  C    0.362123
    40  O   -0.467821
    41  C   -0.126792
    42  C    0.613643
    43  O   -0.410070
    44  O   -0.467240
    45  C    0.246025
    46  C    0.270589
    47  C   -0.057488
    48  C    0.140561
    49  C   -0.017996
    50  C   -0.045099
    51  C    0.053183
    52  C   -0.048459
    53  C    0.047458
    54  C   -0.019602
    55  C    0.001427
    56  C   -0.039358
    57  C    0.031242
    58  C    0.024448
    59  C   -0.012976
    60  C   -0.007453
    61  C   -0.007387
    62  C    0.021373
    63  C    0.026000
    64  C   -0.006786
    65  C   -0.032807
 Electronic spatial extent (au):  <R**2>=         180280.5236
 Charge=              0.0000 electrons
 Dipole moment (field-independent basis, Debye):
    X=              1.4219    Y=              6.0271    Z=              0.8842  Tot=              6.2553
 Quadrupole moment (field-independent basis, Debye-Ang):
   XX=           -345.9628   YY=           -396.8788   ZZ=           -399.8231
   XY=            -21.5824   XZ=              1.1659   YZ=             -1.6311
 Traceless Quadrupole moment (field-independent basis, Debye-Ang):
   XX=             34.9254   YY=            -15.9906   ZZ=            -18.9349
   XY=            -21.5824   XZ=              1.1659   YZ=             -1.6311
 Octapole moment (field-independent basis, Debye-Ang**2):
  XXX=           -643.2169  YYY=            175.1015  ZZZ=             23.2934  XYY=            -37.9737
  XXY=             71.8783  XXZ=           -199.1126  XZZ=            -14.7960  YZZ=            -21.1624
  YYZ=             50.8616  XYZ=            -50.6919
 Hexadecapole moment (field-independent basis, Debye-Ang**3):
 XXXX=        -223400.5408 YYYY=         -17500.0530 ZZZZ=          -4310.5057 XXXY=            163.1274
 XXXZ=            112.7991 YYYX=          -1193.2236 YYYZ=            -24.9072 ZZZX=           -189.1605
 ZZZY=           -148.5990 XXYY=         -40325.5058 XXZZ=         -39978.7001 YYZZ=          -3491.5552
 XXYZ=            -65.2084 YYXZ=             -8.0685 ZZXY=             15.4199
 N-N= 8.747662747920D+03 E-N=-2.431831251227D+04  KE= 2.906707413398D+03
 1\1\GINC-PEDRO-RYZENSSD\SP\RCAM-B3LYP TD-FC\6-31G(d,p)\C55H72Mg1N4O5\P
 ADAWAN\06-Jul-2019\0\\# td=(NStates=1) CAM-B3LYP/6-31G(d,p)\\TD\\0,1\M
 g,0,-7.1202425973,0.6801567638,0.1510327907\C,0,-4.8824828663,-1.85136
 6315,0.4884353762\C,0,-4.8035302819,2.8513235797,1.0675931242\C,0,-9.4
 299877343,3.0868541809,-0.4316260223\C,0,-9.6376940831,-1.7547109821,-
 0.7591423433\N,0,-5.1148349081,0.3995297711,0.7861590342\C,0,-4.299979
 7041,-0.701409963,0.8489629195\C,0,-2.9102000254,-0.3668761133,1.20955
 13093\C,0,-2.9408175202,1.047457414,1.5640771384\C,0,-4.3964766426,1.5
 13792128,1.1484118711\C,0,-2.9651315953,1.1901413022,3.1485462635\C,0,
 -1.9883722982,-0.6588311445,0.0024242007\C,0,-0.4185492775,-0.54169851
 71,0.3782119505\C,0,0.46692783,-0.8799615091,-0.7065760381\O,0,0.16705
 79459,-1.2609815058,-1.8346998017\O,0,1.7911509256,-0.6475821546,-0.31
 64784367\N,0,-7.0815986078,2.6274083306,0.2754162371\C,0,-6.0661358926
 ,3.3773487107,0.7893024638\C,0,-6.3646637195,4.8322875182,0.7522659138
 \C,0,-7.7166643734,4.8824988814,0.3113295243\C,0,-8.1499992715,3.44400
 35957,-0.0151389676\C,0,-5.3698049372,5.8791803839,1.107235484\C,0,-8.
 6432221198,5.9709081245,0.0819951849\C,0,-8.5175556469,7.1494510637,0.
 8665129011\N,0,-9.1571179844,0.6911519763,-0.5110751412\C,0,-9.8504313
 028,1.8380137545,-0.6841147356\C,0,-11.2177808747,1.5154398831,-1.0364
 55365\C,0,-11.2782902329,0.1284582099,-1.2013688509\C,0,-9.877083389,-
 0.4138633606,-0.7971447306\C,0,-12.2917680005,2.4408746585,-1.37980475
 53\C,0,-12.3987044167,-0.8322206322,-1.6879196005\C,0,-12.2702245109,-
 1.0131137226,-3.2460397226\N,0,-7.3052699953,-1.3899986135,-0.10765544
 25\C,0,-8.31710195,-2.2071958917,-0.5152964848\C,0,-7.8471608617,-3.54
 52427918,-0.4386211394\C,0,-6.5884027244,-3.5055648935,0.008279096\C,0
 ,-6.1920117976,-2.1193102123,0.1333561398\C,0,-8.6488623536,-4.8100838
 508,-0.7854970281\C,0,-5.3752019905,-4.3452984133,0.3274956222\O,0,-5.
 2034491828,-5.5912036038,0.2760746382\C,0,-4.2083744168,-3.2493907289,
 0.6028801533\C,0,-3.6135319841,-3.6350987312,1.9997103439\O,0,-3.67202
 88035,-3.0668834245,3.0234050216\O,0,-2.7510562993,-4.7928040028,1.697
 4583267\C,0,-2.199750563,-5.3230165308,2.8582407596\C,0,2.8522377355,-
 0.8781456092,-1.2612973301\C,0,4.183440433,-0.4992881051,-0.5611562646
 \C,0,5.1074442288,0.2839246579,-1.0955193246\C,0,5.0563640594,0.982950
 9444,-2.3649406594\C,0,6.4141957524,0.4185437046,-0.2357900642\C,0,7.6
 065781957,-0.1230926562,-1.0507220227\C,0,8.8758694595,-0.0619913295,-
 0.2153233451\C,0,10.2345940839,-0.3353406058,-0.9783588064\C,0,10.2675
 134515,-1.7649274288,-1.4344969147\C,0,11.5181146884,-0.0887826591,-0.
 1047696084\C,0,12.8450794156,-0.349709022,-0.6840784307\C,0,14.0393033
 987,0.0225510523,0.1458116487\C,0,15.3979159165,-0.1462983589,-0.47666
 59064\C,0,15.6339550644,-1.5998776216,-0.832552873\C,0,16.4272168276,0
 .4217565357,0.4809326005\C,0,17.7644010295,0.7050919076,-0.2050563202\
 C,0,18.8555859281,1.2591441314,0.8586062936\C,0,20.2238910583,1.246675
 001,0.3680915724\C,0,20.4417955334,2.0200503022,-0.920363029\C,0,21.15
 42363544,1.8035632926,1.4310084642\H,0,-4.2269741819,3.599925514,1.485
 4131282\H,0,-10.1598763803,3.9624370787,-0.5363990314\H,0,-10.20201349
 07,-2.5405533961,-0.8894055928\H,0,-2.6342898859,-1.023140628,2.027263
 4175\H,0,-2.2256461698,1.8539389765,1.1374043908\H,0,-2.2112055781,0.7
 979502479,3.6859023037\H,0,-3.1574308031,2.1420882663,3.5281049759\H,0
 ,-3.9580392466,0.5913338174,3.5838808009\H,0,-2.0908815731,-1.66748670
 91,-0.2650404132\H,0,-2.1015518277,0.1137386243,-0.7720472443\H,0,0.15
 85523378,0.3513997539,0.881468546\H,0,-0.2486626683,-1.2417286881,1.39
 90538606\H,0,-5.7840471801,6.8897376179,0.6521609253\H,0,-5.5151285023
 ,5.9924126044,2.1450107982\H,0,-4.3171256686,5.449066073,0.7658397596\
 H,0,-9.3659986524,5.6614622943,-0.4611863468\H,0,-9.1545766736,8.18434
 91738,0.7688865105\H,0,-7.7035698228,7.4079571952,1.3774761331\H,0,-12
 .0720513102,3.1905393799,-2.197332738\H,0,-13.2917388431,2.044908382,-
 1.5448556771\H,0,-12.4530570368,2.9840970644,-0.5044316872\H,0,-12.449
 8597644,-1.7015496001,-1.2095159065\H,0,-13.3280515241,-0.2796547023,-
 1.693084836\H,0,-13.17667402,-1.6848331695,-3.4996598505\H,0,-12.04310
 7875,0.0626817306,-3.9389473904\H,0,-11.4257188512,-1.640338901,-3.394
 4980698\H,0,-9.2563952425,-4.8185525982,-1.6639396581\H,0,-7.912900654
 9,-5.5048204862,-0.7627058836\H,0,-9.4031702019,-4.9553005514,-0.08891
 07137\H,0,-3.5507457705,-3.3033935901,-0.2056058321\H,0,-1.3439125578,
 -4.7998964293,3.3761805334\H,0,-2.8886884774,-5.4534669643,3.711994038
 3\H,0,-1.7490930208,-6.2319824714,2.6868626392\H,0,2.6462139255,-1.822
 6541013,-1.6082347885\H,0,2.8960770853,-0.3098667071,-2.0962727795\H,0
 ,4.4677976854,-1.154227638,0.2197751935\H,0,4.0758765512,1.3398026907,
 -2.8318515549\H,0,5.4052259343,1.9370939683,-2.2283092991\H,0,5.785825
 8902,0.6706881763,-3.1220309341\H,0,6.6594580087,1.4047844784,0.132345
 8774\H,0,6.3389480142,-0.0971677542,0.7969894156\H,0,7.3806054452,-1.0
 123104662,-1.3065119748\H,0,7.7167041063,0.6182750356,-1.9256154851\H,
 0,8.9104230939,1.0453024152,0.2506827005\H,0,8.9080892976,-0.821427649
 ,0.6912369874\H,0,10.2989674481,0.4293954772,-1.5921040999\H,0,9.24457
 94434,-2.1287308496,-1.958031728\H,0,11.1267152272,-1.8743142153,-2.04
 29985438\H,0,10.3517780638,-2.576089551,-0.5581952592\H,0,11.411028783
 8,0.9824004702,0.3084623337\H,0,11.3769107445,-0.6287888402,0.65360598
 22\H,0,13.0543387528,-1.3778959508,-1.059983666\H,0,12.9038341359,0.30
 60212931,-1.6617295343\H,0,13.8509065274,0.9895915152,0.5794852915\H,0
 ,13.9479875519,-0.4907186766,0.9116676833\H,0,15.4765209406,0.40776026
 1,-1.3794923072\H,0,15.4021376567,-2.2754978419,0.0978083269\H,0,14.95
 40284535,-1.9618885645,-1.6217095861\H,0,16.7373533647,-1.5812736523,-
 1.1595374232\H,0,16.2108362843,1.5232001537,0.8630428486\H,0,16.449599
 4071,-0.4499741725,1.354048166\H,0,18.0688578245,-0.3611726647,-0.6825
 315936\H,0,17.5889559601,1.5204893678,-0.8702105969\H,0,18.6898697796,
 2.2612402817,1.0574737527\H,0,18.8761747778,0.5290970907,1.8051405144\
 H,0,20.3914640591,0.0767238206,0.3098780518\H,0,20.202084315,3.1653800
 999,-0.6918327767\H,0,21.4715614082,1.7828249353,-1.3474861119\H,0,19.
 7019140958,1.5679186027,-1.6749644654\H,0,20.8575217274,1.2966677759,2
 .4255921764\H,0,22.2735990662,1.6802192516,1.2339083571\H,0,21.0038101
 109,2.9941194952,1.6764880893\\Version=ES64L-G09RevD.01\State=1-A\HF=-
 2932.599739\RMSD=8.049e-09\PG=C01 [X(C55H72Mg1N4O5)]\\@


 GOD DOES NOT PLAY WITH DICE.
               -- A. EINSTEIN
 Job cpu time:       0 days  6 hours 22 minutes  5.0 seconds.
 File lengths (MBytes):  RWF=   2106 Int=      0 D2E=      0 Chk=    163 Scr=      1
 Normal termination of Gaussian 09 at Sat Jul  6 23:46:17 2019.
