 Entering Gaussian System, Link 0=g16
 Input=Geometria-74-.com
 Output=Geometria-74-.log
 Initial command:
 /usr/local/g09/l1.exe "/home/padawan/israel-mol/chlorophyll-a/spectra/emi/Gau-107599.inp" -scrdir="/home/padawan/israel-mol/chlorophyll-a/spectra/emi/"
 Entering Link 1 = /usr/local/g09/l1.exe PID=    107601.
  
 Copyright (c) 1988,1990,1992,1993,1995,1998,2003,2009,2013,
            Gaussian, Inc.  All Rights Reserved.
  
 This is part of the Gaussian(R) 09 program.  It is based on
 the Gaussian(R) 03 system (copyright 2003, Gaussian, Inc.),
 the Gaussian(R) 98 system (copyright 1998, Gaussian, Inc.),
 the Gaussian(R) 94 system (copyright 1995, Gaussian, Inc.),
 the Gaussian 92(TM) system (copyright 1992, Gaussian, Inc.),
 the Gaussian 90(TM) system (copyright 1990, Gaussian, Inc.),
 the Gaussian 88(TM) system (copyright 1988, Gaussian, Inc.),
 the Gaussian 86(TM) system (copyright 1986, Carnegie Mellon
 University), and the Gaussian 82(TM) system (copyright 1983,
 Carnegie Mellon University). Gaussian is a federally registered
 trademark of Gaussian, Inc.
  
 This software contains proprietary and confidential information,
 including trade secrets, belonging to Gaussian, Inc.
  
 This software is provided under written license and may be
 used, copied, transmitted, or stored only in accord with that
 written license.
  
 The following legend is applicable only to US Government
 contracts under FAR:
  
                    RESTRICTED RIGHTS LEGEND
  
 Use, reproduction and disclosure by the US Government is
 subject to restrictions as set forth in subparagraphs (a)
 and (c) of the Commercial Computer Software - Restricted
 Rights clause in FAR 52.227-19.
  
 Gaussian, Inc.
 340 Quinnipiac St., Bldg. 40, Wallingford CT 06492
  
  
 ---------------------------------------------------------------
 Warning -- This program may not be used in any manner that
 competes with the business of Gaussian, Inc. or will provide
 assistance to any competitor of Gaussian, Inc.  The licensee
 of this program is prohibited from giving any competitor of
 Gaussian, Inc. access to this program.  By using this program,
 the user acknowledges that Gaussian, Inc. is engaged in the
 business of creating and licensing software in the field of
 computational chemistry and represents and warrants to the
 licensee that it is not a competitor of Gaussian, Inc. and that
 it will not use this program in any manner prohibited above.
 ---------------------------------------------------------------
  

 Cite this work as:
 Gaussian 09, Revision D.01,
 M. J. Frisch, G. W. Trucks, H. B. Schlegel, G. E. Scuseria, 
 M. A. Robb, J. R. Cheeseman, G. Scalmani, V. Barone, B. Mennucci, 
 G. A. Petersson, H. Nakatsuji, M. Caricato, X. Li, H. P. Hratchian, 
 A. F. Izmaylov, J. Bloino, G. Zheng, J. L. Sonnenberg, M. Hada, 
 M. Ehara, K. Toyota, R. Fukuda, J. Hasegawa, M. Ishida, T. Nakajima, 
 Y. Honda, O. Kitao, H. Nakai, T. Vreven, J. A. Montgomery, Jr., 
 J. E. Peralta, F. Ogliaro, M. Bearpark, J. J. Heyd, E. Brothers, 
 K. N. Kudin, V. N. Staroverov, T. Keith, R. Kobayashi, J. Normand, 
 K. Raghavachari, A. Rendell, J. C. Burant, S. S. Iyengar, J. Tomasi, 
 M. Cossi, N. Rega, J. M. Millam, M. Klene, J. E. Knox, J. B. Cross, 
 V. Bakken, C. Adamo, J. Jaramillo, R. Gomperts, R. E. Stratmann, 
 O. Yazyev, A. J. Austin, R. Cammi, C. Pomelli, J. W. Ochterski, 
 R. L. Martin, K. Morokuma, V. G. Zakrzewski, G. A. Voth, 
 P. Salvador, J. J. Dannenberg, S. Dapprich, A. D. Daniels, 
 O. Farkas, J. B. Foresman, J. V. Ortiz, J. Cioslowski, 
 and D. J. Fox, Gaussian, Inc., Wallingford CT, 2013.
 
 ******************************************
 Gaussian 09:  ES64L-G09RevD.01 24-Apr-2013
                 3-Jul-2019 
 ******************************************
 %nproc=4
 Will use up to    4 processors via shared memory.
 %Mem=2GB
 -------------------------------------
 # td=(NStates=1) CAM-B3LYP/6-31G(d,p)
 -------------------------------------
 1/38=1/1;
 2/12=2,17=6,18=5,40=1/2;
 3/5=1,6=6,7=101,11=9,16=1,25=1,30=1,74=-40/1,2,8,3;
 4//1;
 5/5=2,38=5/2;
 8/6=1,10=2,108=1/1;
 9/41=1,42=1,70=2/14;
 6/7=2,8=2,9=2,10=2/1;
 99/5=1,9=1/99;
 --
 TD
 --
 Symbolic Z-matrix:
 Charge =  0 Multiplicity = 1
 12                   -7.10198   0.59174   0.11615 
 6                    -4.98514  -2.00956   0.63258 
 6                    -4.75875   2.80471   1.04519 
 6                    -9.38338   3.14071  -0.40191 
 6                    -9.47956  -1.6843   -1.0182 
 7                    -5.03919   0.41963   0.67999 
 6                    -4.33307  -0.73787   0.92975 
 6                    -2.92384  -0.45484   1.3194 
 6                    -3.02742   1.06834   1.65306 
 6                    -4.40402   1.46459   1.11918 
 6                    -3.08618   1.21322   3.2629 
 6                    -1.95167  -0.61749   0.11316 
 6                    -0.46623  -0.3634    0.40519 
 6                     0.57833  -0.59767  -0.61366 
 8                     0.26284  -0.85221  -1.73945 
 8                     1.83073  -0.39058  -0.28982 
 7                    -7.05601   2.63523   0.18699 
 6                    -5.99451   3.3541    0.68986 
 6                    -6.38713   4.72858   0.78712 
 6                    -7.70455   4.87245   0.33407 
 6                    -8.15293   3.46724   0.03387 
 6                    -5.34498   5.80272   1.1128 
 6                    -8.513     5.94646   0.22547 
 6                    -8.51544   7.07647   0.99248 
 7                    -9.10505   0.64603  -0.56029 
 6                    -9.90403   1.81079  -0.69637 
 6                    -11.22805   1.50425  -1.17997 
 6                    -11.22915   0.12229  -1.34173 
 6                    -9.9175   -0.33656  -0.97712 
 6                    -12.34855   2.48934  -1.42786 
 6                    -12.43258  -0.77845  -1.62822 
 6                    -12.36231  -1.04291  -3.13924 
 7                    -7.25235  -1.4103   -0.05684 
 6                    -8.27711  -2.29929  -0.57232 
 6                    -7.88739  -3.6203   -0.51887 
 6                    -6.59621  -3.60883  -0.07727 
 6                    -6.25902  -2.23076   0.21547 
 6                    -8.65756  -4.83214  -0.79337 
 6                    -5.41919  -4.46361   0.20776 
 8                    -5.17024  -5.66142   0.26248 
 6                    -4.29599  -3.33512   0.62949 
 6                    -3.55193  -3.68465   1.99067 
 8                    -3.67224  -3.10196   2.98319 
 8                    -2.78237  -4.7986    1.79018 
 6                    -2.08955  -5.14592   2.98861 
 6                     2.8745   -0.64431  -1.20704 
 6                     4.20828  -0.32113  -0.6429 
 6                     5.14552   0.40019  -1.16508 
 6                     5.16653   1.10615  -2.45101 
 6                     6.46123   0.59311  -0.30661 
 6                     7.62046  -0.01012  -1.1099 
 6                     8.91818  -0.02331  -0.20133 
 6                     10.1838  -0.54312  -0.87819 
 6                     10.05722  -2.02566  -1.23007 
 6                     11.47616  -0.27764  -0.0031 
 6                     12.76691  -0.55395  -0.70624 
 6                     13.99996  -0.11947   0.12851 
 6                     15.34021  -0.26481  -0.42793 
 6                     15.7213  -1.70273  -0.79547 
 6                     16.45465   0.40329   0.44232 
 6                     17.87169   0.50907  -0.16218 
 6                     18.73112   1.34865   0.72548 
 6                     20.18929   1.34197   0.32352 
 6                     20.39036   2.04031  -1.03517 
 6                     21.08395   2.00299   1.36642 
 1                    -3.77488   3.47317   1.50953 
 1                    -10.18132   3.98778  -0.4851 
 1                    -10.31009  -2.38364  -1.34064 
 1                    -2.35139  -1.        2.18053 
 1                    -2.22854   1.66181   1.23292 
 1                    -2.05429   1.06648   3.68249 
 1                    -3.28902   2.31836   3.58951 
 1                    -3.87118   0.55339   3.77642 
 1                    -2.06884  -1.5443   -0.18275 
 1                    -2.05761   0.20323  -0.63517 
 1                    -0.30523   0.51441   1.08756 
 1                     0.07969  -1.20262   1.11596 
 1                    -5.84145   6.80592   0.80872 
 1                    -5.34062   5.46617   2.39069 
 1                    -4.31985   5.57737   0.77901 
 1                    -9.20301   5.79993  -0.48973 
 1                    -9.32149   7.85871   0.59224 
 1                    -7.81048   7.45531   1.83977 
 1                    -12.41982   3.00751  -2.33801 
 1                    -13.25588   1.82025  -1.61919 
 1                    -12.39253   3.32512  -0.60916 
 1                    -12.29503  -1.79137  -1.03254 
 1                    -13.38832  -0.14684  -1.29892 
 1                    -13.30833  -1.66742  -3.46363 
 1                    -12.25637  -0.08434  -3.89785 
 1                    -11.53512  -1.61195  -3.5726 
 1                    -8.87734  -5.0349   -1.84747 
 1                    -8.09791  -5.61608  -0.31317 
 1                    -9.75159  -4.75454  -0.28238 
 1                    -3.46403  -3.42176  -0.31129 
 1                    -1.41689  -4.35336   3.31299 
 1                    -2.79574  -4.93778   3.86658 
 1                    -1.47253  -5.99608   2.63279 
 1                     2.78901  -1.60058  -1.59288 
 1                     2.5413   -0.32856  -2.14573 
 1                     4.32914  -0.66582   0.51377 
 1                     4.08561   1.24241  -2.75441 
 1                     5.52408   2.09043  -2.35272 
 1                     5.93753   0.64451  -3.18799 
 1                     6.52047   1.65467  -0.14967 
 1                     6.44311  -0.0751    0.58166 
 1                     7.44006  -1.00482  -1.43968 
 1                     7.92859   0.63625  -2.01349 
 1                     9.27301   0.8908    0.26482 
 1                     8.52513  -0.66224   0.55113 
 1                     10.30292   0.11174  -1.68059 
 1                     9.25259  -2.23318  -1.78749 
 1                     10.90853  -2.29192  -1.83563 
 1                     10.12361  -2.66764  -0.23746 
 1                     11.39233   0.70699   0.42733 
 1                     11.61507  -0.94855   0.84039 
 1                     12.75231  -1.72232  -0.93077 
 1                     12.7558  -0.062    -1.66487 
 1                     13.88891   0.87919   0.52375 
 1                     13.91353  -0.68786   1.10035 
 1                     15.41499   0.18202  -1.5012 
 1                     15.56349  -2.35609   0.20825 
 1                     15.07747  -2.31268  -1.30449 
 1                     16.68914  -2.07466  -1.10855 
 1                     16.0166   1.4058    0.72434 
 1                     16.38704  -0.11998   1.30743 
 1                     18.2839  -0.41793  -0.37402 
 1                     17.60065   1.18076  -1.02315 
 1                     18.21744   2.27253   0.99104 
 1                     18.75594   0.75915   1.72778 
 1                     20.54237   0.37632  -0.00136 
 1                     20.20392   3.15509  -0.9711 
 1                     21.2779   2.11141  -1.17924 
 1                     19.76781   1.51563  -1.87973 
 1                     20.72564   1.37975   2.1911 
 1                     22.13805   1.97671   1.26131 
 1                     20.82184   3.07113   1.52034 
 
 Stoichiometry    C55H72MgN4O5
 Framework group  C1[X(C55H72MgN4O5)]
 Deg. of freedom   405
 Full point group                 C1      NOp   1
 Largest Abelian subgroup         C1      NOp   1
 Largest concise Abelian subgroup C1      NOp   1
                         Standard orientation:                         
 ---------------------------------------------------------------------
 Center     Atomic      Atomic             Coordinates (Angstroms)
 Number     Number       Type             X           Y           Z
 ---------------------------------------------------------------------
      1         12           0       -7.102357    0.595383    0.117426
      2          6           0       -4.986792   -2.009483    0.620936
      3          6           0       -4.757835    2.802617    1.056812
      4          6           0       -9.382514    3.148015   -0.387943
      5          6           0       -9.481285   -1.673909   -1.027562
      6          7           0       -5.039568    0.419481    0.680111
      7          6           0       -4.334017   -0.739585    0.924160
      8          6           0       -2.924581   -0.459176    1.314962
      9          6           0       -3.027315    1.062428    1.656000
     10          6           0       -4.403790    1.461969    1.124258
     11          6           0       -3.085766    1.199549    3.266533
     12          6           0       -1.952673   -0.616481    0.107793
     13          6           0       -0.467063   -0.364581    0.400832
     14          6           0        0.577225   -0.594460   -0.619301
     15          8           0        0.261433   -0.843382   -1.746265
     16          8           0        1.829787   -0.389582   -0.294652
     17          7           0       -7.055311    2.638484    0.198148
     18          6           0       -5.993366    3.354358    0.704335
     19          6           0       -6.385255    4.728555    0.808304
     20          6           0       -7.702675    4.875300    0.356160
     21          6           0       -8.151826    3.471790    0.049224
     22          6           0       -5.342506    5.800572    1.139018
     23          6           0       -8.510580    5.950240    0.252881
     24          6           0       -8.512315    7.076533    1.025348
     25          7           0       -9.105502    0.653984   -0.558437
     26          6           0       -9.903892    1.819807   -0.688751
     27          6           0      -11.228149    1.516295   -1.173631
     28          6           0      -11.229983    0.135134   -1.342081
     29          6           0       -9.918519   -0.326148   -0.979897
     30          6           0      -12.348176    2.503155   -1.416578
     31          6           0      -12.433926   -0.763578   -1.632745
     32          6           0      -12.364026   -1.020758   -3.145034
     33          7           0       -7.253796   -1.405716   -0.065229
     34          6           0       -8.279087   -2.291664   -0.584852
     35          6           0       -7.890052   -3.613124   -0.537854
     36          6           0       -6.598798   -3.604456   -0.096401
     37          6           0       -6.260844   -2.228000    0.202959
     38          6           0       -8.660890   -4.823218   -0.818098
     39          6           0       -5.422172   -4.461220    0.184312
     40          8           0       -5.173835   -5.659410    0.233195
     41          6           0       -4.298330   -3.335366    0.611327
     42          6           0       -3.554240   -3.691871    1.970682
     43          8           0       -3.674102   -3.113923    2.966031
     44          8           0       -2.785292   -4.805237    1.764683
     45          6           0       -2.092472   -5.158707    2.961319
     46          6           0        2.873282   -0.639416   -1.213255
     47          6           0        4.207318   -0.319660   -0.647763
     48          6           0        5.144848    0.403690   -1.166580
     49          6           0        5.166029    1.115863   -2.449084
     50          6           0        6.460790    0.591776   -0.307388
     51          6           0        7.619585   -0.008162   -1.113766
     52          6           0        8.917438   -0.026418   -0.205473
     53          6           0       10.182682   -0.543605   -0.885031
     54          6           0       10.055284   -2.024361   -1.244062
     55          6           0       11.475313   -0.283034   -0.008864
     56          6           0       12.765815   -0.556604   -0.713532
     57          6           0       13.999213   -0.126812    0.123124
     58          6           0       15.339305   -0.270149   -0.434218
     59          6           0       15.719597   -1.706468   -0.808771
     60          6           0       16.454221    0.393158    0.439085
     61          6           0       17.871227    0.501127   -0.165113
     62          6           0       18.731228    1.335955    0.726475
     63          6           0       20.189328    1.330467    0.324259
     64          6           0       20.390559    2.035270   -1.031067
     65          6           0       21.084489    1.985966    1.370215
     66          1           0       -3.773551    3.468315    1.524226
     67          1           0      -10.180022    3.995891   -0.466911
     68          1           0      -10.312232   -2.371243   -1.353260
     69          1           0       -2.352284   -1.008788    2.173352
     70          1           0       -2.228190    1.657512    1.238624
     71          1           0       -2.053885    1.050238    3.685255
     72          1           0       -3.287983    2.303192    3.598524
     73          1           0       -3.871028    0.537644    3.776976
     74          1           0       -2.070369   -1.541795   -0.192579
     75          1           0       -2.058299    0.207901   -0.636538
     76          1           0       -0.305505    0.509829    1.087413
     77          1           0        0.078532   -1.207519    1.107439
     78          1           0       -5.838501    6.805485    0.839874
     79          1           0       -5.338127    5.457835    2.415262
     80          1           0       -4.317536    5.576305    0.803989
     81          1           0       -9.200777    5.807531   -0.462914
     82          1           0       -9.318027    7.861111    0.629026
     83          1           0       -7.807037    7.450900    1.874361
     84          1           0      -12.419306    3.025763   -2.324196
     85          1           0      -13.255874    1.835465   -1.611010
     86          1           0      -12.391597    3.334986   -0.593838
     87          1           0      -12.296819   -1.779444   -1.041991
     88          1           0      -13.389288   -0.133080   -1.300238
     89          1           0      -13.310412   -1.643205   -3.472296
     90          1           0      -12.257698   -0.058588   -3.899015
     91          1           0      -11.537192   -1.588122   -3.581266
     92          1           0       -8.880927   -5.020767   -1.873133
     93          1           0       -8.101570   -5.609768   -0.341786
     94          1           0       -9.754795   -4.747530   -0.306573
     95          1           0       -3.466550   -3.417878   -0.329987
     96          1           0       -1.419353   -4.368078    3.289429
     97          1           0       -2.798422   -4.954450    3.840389
     98          1           0       -1.475943   -6.007454    2.601287
     99          1           0        2.787237   -1.593762   -1.603708
    100          1           0        2.540107   -0.318950   -2.150350
    101          1           0        4.328173   -0.670006    0.507215
    102          1           0        4.085137    1.254150   -2.751661
    103          1           0        5.524107    2.099466   -2.346088
    104          1           0        5.936684    0.657389   -3.188406
    105          1           0        6.520608    1.652531   -0.145326
    106          1           0        6.442454   -0.080714    0.577635
    107          1           0        7.438621   -1.001159   -1.448327
    108          1           0        7.927910    0.642413   -2.014270
    109          1           0        9.272808    0.885235    0.265048
    110          1           0        8.524167   -0.668784    0.543950
    111          1           0       10.302020    0.115075   -1.684274
    112          1           0        9.250460   -2.228761   -1.802365
    113          1           0       10.906366   -2.288120   -1.851035
    114          1           0       10.121482   -2.671168   -0.254588
    115          1           0       11.392055    0.699548    0.426343
    116          1           0       11.614005   -0.958091    0.831351
    117          1           0       12.750572   -1.723867   -0.943713
    118          1           0       12.754814   -0.060010   -1.669767
    119          1           0       13.888741    0.869984    0.523210
    120          1           0       13.912639   -0.699850    1.092211
    121          1           0       15.414160    0.181831   -1.505328
    122          1           0       15.561599   -2.364595    0.191797
    123          1           0       15.075371   -2.313618   -1.320638
    124          1           0       16.687192   -2.077384   -1.123798
    125          1           0       16.016731    1.394512    0.726022
    126          1           0       16.386473   -0.134264    1.301667
    127          1           0       18.282922   -0.425051   -0.381499
    128          1           0       17.600402    1.177110   -1.022774
    129          1           0       18.218066    2.258803    0.996576
    130          1           0       18.755892    0.741595    1.725905
    131          1           0       20.541860    0.366218   -0.005346
    132          1           0       20.204711    3.149820   -0.961570
    133          1           0       21.278116    2.106602   -1.174922
    134          1           0       19.767610    1.515008   -1.878063
    135          1           0       20.725979    1.358920    2.191919
    136          1           0       22.138556    1.959645    1.264817
    137          1           0       20.822959    3.053478    1.529344
 ---------------------------------------------------------------------
 Rotational constants (GHZ):      0.0645284      0.0060765      0.0057298
 Standard basis: 6-31G(d,p) (6D, 7F)
 There are  1339 symmetry adapted cartesian basis functions of A   symmetry.
 There are  1339 symmetry adapted basis functions of A   symmetry.
  1339 basis functions,  2348 primitive gaussians,  1339 cartesian basis functions
   241 alpha electrons      241 beta electrons
       nuclear repulsion energy      8738.7152229790 Hartrees.
 NAtoms=  137 NActive=  137 NUniq=  137 SFac= 1.00D+00 NAtFMM=   60 NAOKFM=T Big=T
 Integral buffers will be    131072 words long.
 Raffenetti 1 integral format.
 Two-electron integral symmetry is turned on.
 One-electron integrals computed using PRISM.
 NBasis=  1339 RedAO= T EigKep=  2.46D-04  NBF=  1339
 NBsUse=  1339 1.00D-06 EigRej= -1.00D+00 NBFU=  1339
 ExpMin= 4.21D-02 ExpMax= 1.17D+04 ExpMxC= 1.76D+03 IAcc=2 IRadAn=         4 AccDes= 0.00D+00
 Harris functional with IExCor=20419 and IRadAn=       4 diagonalized for initial guess.
 HarFok:  IExCor=20419 AccDes= 0.00D+00 IRadAn=         4 IDoV= 1 UseB2=F ITyADJ=14
 ICtDFT=  3500011 ScaDFX=  1.000000  1.000000  1.000000  1.000000
 FoFCou: FMM=F IPFlag=           0 FMFlag=      100000 FMFlg1=        2001
         NFxFlg=           0 DoJE=T BraDBF=F KetDBF=T FulRan=T
         wScrn=  0.000000 ICntrl=     500 IOpCl=  0 I1Cent=   200000004 NGrid=           0
         NMat0=    1 NMatS0=      1 NMatT0=    0 NMatD0=    1 NMtDS0=    0 NMtDT0=    0
 Petite list used in FoFCou.
 Requested convergence on RMS density matrix=1.00D-08 within 128 cycles.
 Requested convergence on MAX density matrix=1.00D-06.
 Requested convergence on             energy=1.00D-06.
 No special actions if energy rises.
 SCF Done:  E(RCAM-B3LYP) =  -2932.67151131     A.U. after   18 cycles
            NFock= 18  Conv=0.40D-08     -V/T= 2.0091
 DoSCS=F DFT=T ScalE2(SS,OS)=  1.000000  1.000000
 ExpMin= 4.21D-02 ExpMax= 1.17D+04 ExpMxC= 1.76D+03 IAcc=3 IRadAn=         5 AccDes= 0.00D+00
 HarFok:  IExCor=  205 AccDes= 0.00D+00 IRadAn=         5 IDoV=-2 UseB2=F ITyADJ=14
 ICtDFT= 12500011 ScaDFX=  1.000000  1.000000  1.000000  1.000000
 Range of M.O.s used for correlation:    70  1339
 NBasis=  1339 NAE=   241 NBE=   241 NFC=    69 NFV=     0
 NROrb=   1270 NOA=   172 NOB=   172 NVA=  1098 NVB=  1098
 Would need an additional       2415464100000 words for in-memory AO integral storage.
 Orbital symmetries:
       Occupied  (A) (A) (A) (A) (A) (A) (A) (A) (A) (A) (A) (A)
                 (A) (A) (A) (A) (A) (A) (A) (A) (A) (A) (A) (A)
                 (A) (A) (A) (A) (A) (A) (A) (A) (A) (A) (A) (A)
                 (A) (A) (A) (A) (A) (A) (A) (A) (A) (A) (A) (A)
                 (A) (A) (A) (A) (A) (A) (A) (A) (A) (A) (A) (A)
                 (A) (A) (A) (A) (A) (A) (A) (A) (A) (A) (A) (A)
                 (A) (A) (A) (A) (A) (A) (A) (A) (A) (A) (A) (A)
                 (A) (A) (A) (A) (A) (A) (A) (A) (A) (A) (A) (A)
                 (A) (A) (A) (A) (A) (A) (A) (A) (A) (A) (A) (A)
                 (A) (A) (A) (A) (A) (A) (A) (A) (A) (A) (A) (A)
                 (A) (A) (A) (A) (A) (A) (A) (A) (A) (A) (A) (A)
                 (A) (A) (A) (A) (A) (A) (A) (A) (A) (A) (A) (A)
                 (A) (A) (A) (A) (A) (A) (A) (A) (A) (A) (A) (A)
                 (A) (A) (A) (A) (A) (A) (A) (A) (A) (A) (A) (A)
                 (A) (A) (A) (A) (A) (A) (A) (A) (A) (A) (A) (A)
                 (A) (A) (A) (A) (A) (A) (A) (A) (A) (A) (A) (A)
                 (A) (A) (A) (A) (A) (A) (A) (A) (A) (A) (A) (A)
                 (A) (A) (A) (A) (A) (A) (A) (A) (A) (A) (A) (A)
                 (A) (A) (A) (A) (A) (A) (A) (A) (A) (A) (A) (A)
                 (A) (A) (A) (A) (A) (A) (A) (A) (A) (A) (A) (A)
                 (A)
       Virtual   (A) (A) (A) (A) (A) (A) (A) (A) (A) (A) (A) (A)
                 (A) (A) (A) (A) (A) (A) (A) (A) (A) (A) (A) (A)
                 (A) (A) (A) (A) (A) (A) (A) (A) (A) (A) (A) (A)
                 (A) (A) (A) (A) (A) (A) (A) (A) (A) (A) (A) (A)
                 (A) (A) (A) (A) (A) (A) (A) (A) (A) (A) (A) (A)
                 (A) (A) (A) (A) (A) (A) (A) (A) (A) (A) (A) (A)
                 (A) (A) (A) (A) (A) (A) (A) (A) (A) (A) (A) (A)
                 (A) (A) (A) (A) (A) (A) (A) (A) (A) (A) (A) (A)
                 (A) (A) (A) (A) (A) (A) (A) (A) (A) (A) (A) (A)
                 (A) (A) (A) (A) (A) (A) (A) (A) (A) (A) (A) (A)
                 (A) (A) (A) (A) (A) (A) (A) (A) (A) (A) (A) (A)
                 (A) (A) (A) (A) (A) (A) (A) (A) (A) (A) (A) (A)
                 (A) (A) (A) (A) (A) (A) (A) (A) (A) (A) (A) (A)
                 (A) (A) (A) (A) (A) (A) (A) (A) (A) (A) (A) (A)
                 (A) (A) (A) (A) (A) (A) (A) (A) (A) (A) (A) (A)
                 (A) (A) (A) (A) (A) (A) (A) (A) (A) (A) (A) (A)
                 (A) (A) (A) (A) (A) (A) (A) (A) (A) (A) (A) (A)
                 (A) (A) (A) (A) (A) (A) (A) (A) (A) (A) (A) (A)
                 (A) (A) (A) (A) (A) (A) (A) (A) (A) (A) (A) (A)
                 (A) (A) (A) (A) (A) (A) (A) (A) (A) (A) (A) (A)
                 (A) (A) (A) (A) (A) (A) (A) (A) (A) (A) (A) (A)
                 (A) (A) (A) (A) (A) (A) (A) (A) (A) (A) (A) (A)
                 (A) (A) (A) (A) (A) (A) (A) (A) (A) (A) (A) (A)
                 (A) (A) (A) (A) (A) (A) (A) (A) (A) (A) (A) (A)
                 (A) (A) (A) (A) (A) (A) (A) (A) (A) (A) (A) (A)
                 (A) (A) (A) (A) (A) (A) (A) (A) (A) (A) (A) (A)
                 (A) (A) (A) (A) (A) (A) (A) (A) (A) (A) (A) (A)
                 (A) (A) (A) (A) (A) (A) (A) (A) (A) (A) (A) (A)
                 (A) (A) (A) (A) (A) (A) (A) (A) (A) (A) (A) (A)
                 (A) (A) (A) (A) (A) (A) (A) (A) (A) (A) (A) (A)
                 (A) (A) (A) (A) (A) (A) (A) (A) (A) (A) (A) (A)
                 (A) (A) (A) (A) (A) (A) (A) (A) (A) (A) (A) (A)
                 (A) (A) (A) (A) (A) (A) (A) (A) (A) (A) (A) (A)
                 (A) (A) (A) (A) (A) (A) (A) (A) (A) (A) (A) (A)
                 (A) (A) (A) (A) (A) (A) (A) (A) (A) (A) (A) (A)
                 (A) (A) (A) (A) (A) (A) (A) (A) (A) (A) (A) (A)
                 (A) (A) (A) (A) (A) (A) (A) (A) (A) (A) (A) (A)
                 (A) (A) (A) (A) (A) (A) (A) (A) (A) (A) (A) (A)
                 (A) (A) (A) (A) (A) (A) (A) (A) (A) (A) (A) (A)
                 (A) (A) (A) (A) (A) (A) (A) (A) (A) (A) (A) (A)
                 (A) (A) (A) (A) (A) (A) (A) (A) (A) (A) (A) (A)
                 (A) (A) (A) (A) (A) (A) (A) (A) (A) (A) (A) (A)
                 (A) (A) (A) (A) (A) (A) (A) (A) (A) (A) (A) (A)
                 (A) (A) (A) (A) (A) (A) (A) (A) (A) (A) (A) (A)
                 (A) (A) (A) (A) (A) (A) (A) (A) (A) (A) (A) (A)
                 (A) (A) (A) (A) (A) (A) (A) (A) (A) (A) (A) (A)
                 (A) (A) (A) (A) (A) (A) (A) (A) (A) (A) (A) (A)
                 (A) (A) (A) (A) (A) (A) (A) (A) (A) (A) (A) (A)
                 (A) (A) (A) (A) (A) (A) (A) (A) (A) (A) (A) (A)
                 (A) (A) (A) (A) (A) (A) (A) (A) (A) (A) (A) (A)
                 (A) (A) (A) (A) (A) (A) (A) (A) (A) (A) (A) (A)
                 (A) (A) (A) (A) (A) (A) (A) (A) (A) (A) (A) (A)
                 (A) (A) (A) (A) (A) (A) (A) (A) (A) (A) (A) (A)
                 (A) (A) (A) (A) (A) (A) (A) (A) (A) (A) (A) (A)
                 (A) (A) (A) (A) (A) (A) (A) (A) (A) (A) (A) (A)
                 (A) (A) (A) (A) (A) (A) (A) (A) (A) (A) (A) (A)
                 (A) (A) (A) (A) (A) (A) (A) (A) (A) (A) (A) (A)
                 (A) (A) (A) (A) (A) (A) (A) (A) (A) (A) (A) (A)
                 (A) (A) (A) (A) (A) (A) (A) (A) (A) (A) (A) (A)
                 (A) (A) (A) (A) (A) (A) (A) (A) (A) (A) (A) (A)
                 (A) (A) (A) (A) (A) (A) (A) (A) (A) (A) (A) (A)
                 (A) (A) (A) (A) (A) (A) (A) (A) (A) (A) (A) (A)
                 (A) (A) (A) (A) (A) (A) (A) (A) (A) (A) (A) (A)
                 (A) (A) (A) (A) (A) (A) (A) (A) (A) (A) (A) (A)
                 (A) (A) (A) (A) (A) (A) (A) (A) (A) (A) (A) (A)
                 (A) (A) (A) (A) (A) (A) (A) (A) (A) (A) (A) (A)
                 (A) (A) (A) (A) (A) (A) (A) (A) (A) (A) (A) (A)
                 (A) (A) (A) (A) (A) (A) (A) (A) (A) (A) (A) (A)
                 (A) (A) (A) (A) (A) (A) (A) (A) (A) (A) (A) (A)
                 (A) (A) (A) (A) (A) (A) (A) (A) (A) (A) (A) (A)
                 (A) (A) (A) (A) (A) (A) (A) (A) (A) (A) (A) (A)
                 (A) (A) (A) (A) (A) (A) (A) (A) (A) (A) (A) (A)
                 (A) (A) (A) (A) (A) (A) (A) (A) (A) (A) (A) (A)
                 (A) (A) (A) (A) (A) (A) (A) (A) (A) (A) (A) (A)
                 (A) (A) (A) (A) (A) (A) (A) (A) (A) (A) (A) (A)
                 (A) (A) (A) (A) (A) (A) (A) (A) (A) (A) (A) (A)
                 (A) (A) (A) (A) (A) (A) (A) (A) (A) (A) (A) (A)
                 (A) (A) (A) (A) (A) (A) (A) (A) (A) (A) (A) (A)
                 (A) (A) (A) (A) (A) (A) (A) (A) (A) (A) (A) (A)
                 (A) (A) (A) (A) (A) (A) (A) (A) (A) (A) (A) (A)
                 (A) (A) (A) (A) (A) (A) (A) (A) (A) (A) (A) (A)
                 (A) (A) (A) (A) (A) (A) (A) (A) (A) (A) (A) (A)
                 (A) (A) (A) (A) (A) (A) (A) (A) (A) (A) (A) (A)
                 (A) (A) (A) (A) (A) (A) (A) (A) (A) (A) (A) (A)
                 (A) (A) (A) (A) (A) (A) (A) (A) (A) (A) (A) (A)
                 (A) (A) (A) (A) (A) (A) (A) (A) (A) (A) (A) (A)
                 (A) (A) (A) (A) (A) (A) (A) (A) (A) (A) (A) (A)
                 (A) (A) (A) (A) (A) (A) (A) (A) (A) (A) (A) (A)
                 (A) (A) (A) (A) (A) (A) (A) (A) (A) (A) (A) (A)
                 (A) (A) (A) (A) (A) (A) (A) (A) (A) (A) (A) (A)
                 (A) (A) (A) (A) (A) (A) (A) (A) (A) (A) (A) (A)
                 (A) (A) (A) (A) (A) (A)
     8 initial guesses have been made.
 Convergence on wavefunction:    0.001000000000000
 Iteration     1 Dimension     8 NMult     0 NNew      8
 CISAX will form     8 AO SS matrices at one time.
 Iteration     2 Dimension    12 NMult     8 NNew      4
 Iteration     3 Dimension    16 NMult    12 NNew      4
 Iteration     4 Dimension    20 NMult    16 NNew      4
 Iteration     5 Dimension    24 NMult    20 NNew      4
 Iteration     6 Dimension    28 NMult    24 NNew      4
 ***********************************************************************
 Excited states from <AA,BB:AA,BB> singles matrix:
 ***********************************************************************
 
 Ground to excited state transition densities written to RWF  633
 Ground to excited state transition electric dipole moments (Au):
       state          X           Y           Z        Dip. S.      Osc.
         1         0.4143     -1.7393     -0.0838      3.2039      0.1672
 Ground to excited state transition velocity dipole moments (Au):
       state          X           Y           Z        Dip. S.      Osc.
         1        -0.0308      0.1320      0.0069      0.0184      0.1568
 Ground to excited state transition magnetic dipole moments (Au):
       state          X           Y           Z
         1         0.6183      0.2412     -3.4521
 Ground to excited state transition velocity quadrupole moments (Au):
       state          XX          YY          ZZ          XY          XZ          YZ
         1         0.8211      0.1009      0.0521     -1.6647     -0.0194      0.1479
 <0|del|b> * <b|rxdel|0> + <0|del|b> * <b|delr+rdel|0>
 Rotatory Strengths (R) in cgs (10**-40 erg-esu-cm/Gauss)
       state          XX          YY          ZZ    R(velocity)    E-M Angle
         1        -4.1995   -162.3450     66.7115    -33.2777       91.33
 1/2[<0|r|b>*<b|rxdel|0> + (<0|rxdel|b>*<b|r|0>)*]
 Rotatory Strengths (R) in cgs (10**-40 erg-esu-cm/Gauss)
       state          XX          YY          ZZ     R(length)
         1      -181.1327    296.6299   -204.5551    -29.6860
  1/2[<0|del|b>*<b|r|0> + (<0|r|b>*<b|del|0>)*] (Au)
       state          X           Y           Z        Dip. S.   Osc.(frdel)
         1        -0.0128     -0.2295     -0.0006      0.2429      0.1619

 Excitation energies and oscillator strengths:
 
 Excited State   1:      Singlet-A      2.1304 eV  581.97 nm  f=0.1672  <S**2>=0.000
     240 -> 242       -0.13281
     240 -> 243       -0.30197
     241 -> 242        0.61047
 This state for optimization and/or second-order correction.
 Total Energy, E(TD-HF/TD-KS) =  -2932.59322030    
 Copying the excited state density for this state as the 1-particle RhoCI density.
 SavETr:  write IOETrn=   770 NScale= 10 NData=  16 NLR=1 NState=    1 LETran=      28.

 **********************************************************************

            Population analysis using the SCF density.

 **********************************************************************

 Orbital symmetries:
       Occupied  (A) (A) (A) (A) (A) (A) (A) (A) (A) (A) (A) (A)
                 (A) (A) (A) (A) (A) (A) (A) (A) (A) (A) (A) (A)
                 (A) (A) (A) (A) (A) (A) (A) (A) (A) (A) (A) (A)
                 (A) (A) (A) (A) (A) (A) (A) (A) (A) (A) (A) (A)
                 (A) (A) (A) (A) (A) (A) (A) (A) (A) (A) (A) (A)
                 (A) (A) (A) (A) (A) (A) (A) (A) (A) (A) (A) (A)
                 (A) (A) (A) (A) (A) (A) (A) (A) (A) (A) (A) (A)
                 (A) (A) (A) (A) (A) (A) (A) (A) (A) (A) (A) (A)
                 (A) (A) (A) (A) (A) (A) (A) (A) (A) (A) (A) (A)
                 (A) (A) (A) (A) (A) (A) (A) (A) (A) (A) (A) (A)
                 (A) (A) (A) (A) (A) (A) (A) (A) (A) (A) (A) (A)
                 (A) (A) (A) (A) (A) (A) (A) (A) (A) (A) (A) (A)
                 (A) (A) (A) (A) (A) (A) (A) (A) (A) (A) (A) (A)
                 (A) (A) (A) (A) (A) (A) (A) (A) (A) (A) (A) (A)
                 (A) (A) (A) (A) (A) (A) (A) (A) (A) (A) (A) (A)
                 (A) (A) (A) (A) (A) (A) (A) (A) (A) (A) (A) (A)
                 (A) (A) (A) (A) (A) (A) (A) (A) (A) (A) (A) (A)
                 (A) (A) (A) (A) (A) (A) (A) (A) (A) (A) (A) (A)
                 (A) (A) (A) (A) (A) (A) (A) (A) (A) (A) (A) (A)
                 (A) (A) (A) (A) (A) (A) (A) (A) (A) (A) (A) (A)
                 (A)
       Virtual   (A) (A) (A) (A) (A) (A) (A) (A) (A) (A) (A) (A)
                 (A) (A) (A) (A) (A) (A) (A) (A) (A) (A) (A) (A)
                 (A) (A) (A) (A) (A) (A) (A) (A) (A) (A) (A) (A)
                 (A) (A) (A) (A) (A) (A) (A) (A) (A) (A) (A) (A)
                 (A) (A) (A) (A) (A) (A) (A) (A) (A) (A) (A) (A)
                 (A) (A) (A) (A) (A) (A) (A) (A) (A) (A) (A) (A)
                 (A) (A) (A) (A) (A) (A) (A) (A) (A) (A) (A) (A)
                 (A) (A) (A) (A) (A) (A) (A) (A) (A) (A) (A) (A)
                 (A) (A) (A) (A) (A) (A) (A) (A) (A) (A) (A) (A)
                 (A) (A) (A) (A) (A) (A) (A) (A) (A) (A) (A) (A)
                 (A) (A) (A) (A) (A) (A) (A) (A) (A) (A) (A) (A)
                 (A) (A) (A) (A) (A) (A) (A) (A) (A) (A) (A) (A)
                 (A) (A) (A) (A) (A) (A) (A) (A) (A) (A) (A) (A)
                 (A) (A) (A) (A) (A) (A) (A) (A) (A) (A) (A) (A)
                 (A) (A) (A) (A) (A) (A) (A) (A) (A) (A) (A) (A)
                 (A) (A) (A) (A) (A) (A) (A) (A) (A) (A) (A) (A)
                 (A) (A) (A) (A) (A) (A) (A) (A) (A) (A) (A) (A)
                 (A) (A) (A) (A) (A) (A) (A) (A) (A) (A) (A) (A)
                 (A) (A) (A) (A) (A) (A) (A) (A) (A) (A) (A) (A)
                 (A) (A) (A) (A) (A) (A) (A) (A) (A) (A) (A) (A)
                 (A) (A) (A) (A) (A) (A) (A) (A) (A) (A) (A) (A)
                 (A) (A) (A) (A) (A) (A) (A) (A) (A) (A) (A) (A)
                 (A) (A) (A) (A) (A) (A) (A) (A) (A) (A) (A) (A)
                 (A) (A) (A) (A) (A) (A) (A) (A) (A) (A) (A) (A)
                 (A) (A) (A) (A) (A) (A) (A) (A) (A) (A) (A) (A)
                 (A) (A) (A) (A) (A) (A) (A) (A) (A) (A) (A) (A)
                 (A) (A) (A) (A) (A) (A) (A) (A) (A) (A) (A) (A)
                 (A) (A) (A) (A) (A) (A) (A) (A) (A) (A) (A) (A)
                 (A) (A) (A) (A) (A) (A) (A) (A) (A) (A) (A) (A)
                 (A) (A) (A) (A) (A) (A) (A) (A) (A) (A) (A) (A)
                 (A) (A) (A) (A) (A) (A) (A) (A) (A) (A) (A) (A)
                 (A) (A) (A) (A) (A) (A) (A) (A) (A) (A) (A) (A)
                 (A) (A) (A) (A) (A) (A) (A) (A) (A) (A) (A) (A)
                 (A) (A) (A) (A) (A) (A) (A) (A) (A) (A) (A) (A)
                 (A) (A) (A) (A) (A) (A) (A) (A) (A) (A) (A) (A)
                 (A) (A) (A) (A) (A) (A) (A) (A) (A) (A) (A) (A)
                 (A) (A) (A) (A) (A) (A) (A) (A) (A) (A) (A) (A)
                 (A) (A) (A) (A) (A) (A) (A) (A) (A) (A) (A) (A)
                 (A) (A) (A) (A) (A) (A) (A) (A) (A) (A) (A) (A)
                 (A) (A) (A) (A) (A) (A) (A) (A) (A) (A) (A) (A)
                 (A) (A) (A) (A) (A) (A) (A) (A) (A) (A) (A) (A)
                 (A) (A) (A) (A) (A) (A) (A) (A) (A) (A) (A) (A)
                 (A) (A) (A) (A) (A) (A) (A) (A) (A) (A) (A) (A)
                 (A) (A) (A) (A) (A) (A) (A) (A) (A) (A) (A) (A)
                 (A) (A) (A) (A) (A) (A) (A) (A) (A) (A) (A) (A)
                 (A) (A) (A) (A) (A) (A) (A) (A) (A) (A) (A) (A)
                 (A) (A) (A) (A) (A) (A) (A) (A) (A) (A) (A) (A)
                 (A) (A) (A) (A) (A) (A) (A) (A) (A) (A) (A) (A)
                 (A) (A) (A) (A) (A) (A) (A) (A) (A) (A) (A) (A)
                 (A) (A) (A) (A) (A) (A) (A) (A) (A) (A) (A) (A)
                 (A) (A) (A) (A) (A) (A) (A) (A) (A) (A) (A) (A)
                 (A) (A) (A) (A) (A) (A) (A) (A) (A) (A) (A) (A)
                 (A) (A) (A) (A) (A) (A) (A) (A) (A) (A) (A) (A)
                 (A) (A) (A) (A) (A) (A) (A) (A) (A) (A) (A) (A)
                 (A) (A) (A) (A) (A) (A) (A) (A) (A) (A) (A) (A)
                 (A) (A) (A) (A) (A) (A) (A) (A) (A) (A) (A) (A)
                 (A) (A) (A) (A) (A) (A) (A) (A) (A) (A) (A) (A)
                 (A) (A) (A) (A) (A) (A) (A) (A) (A) (A) (A) (A)
                 (A) (A) (A) (A) (A) (A) (A) (A) (A) (A) (A) (A)
                 (A) (A) (A) (A) (A) (A) (A) (A) (A) (A) (A) (A)
                 (A) (A) (A) (A) (A) (A) (A) (A) (A) (A) (A) (A)
                 (A) (A) (A) (A) (A) (A) (A) (A) (A) (A) (A) (A)
                 (A) (A) (A) (A) (A) (A) (A) (A) (A) (A) (A) (A)
                 (A) (A) (A) (A) (A) (A) (A) (A) (A) (A) (A) (A)
                 (A) (A) (A) (A) (A) (A) (A) (A) (A) (A) (A) (A)
                 (A) (A) (A) (A) (A) (A) (A) (A) (A) (A) (A) (A)
                 (A) (A) (A) (A) (A) (A) (A) (A) (A) (A) (A) (A)
                 (A) (A) (A) (A) (A) (A) (A) (A) (A) (A) (A) (A)
                 (A) (A) (A) (A) (A) (A) (A) (A) (A) (A) (A) (A)
                 (A) (A) (A) (A) (A) (A) (A) (A) (A) (A) (A) (A)
                 (A) (A) (A) (A) (A) (A) (A) (A) (A) (A) (A) (A)
                 (A) (A) (A) (A) (A) (A) (A) (A) (A) (A) (A) (A)
                 (A) (A) (A) (A) (A) (A) (A) (A) (A) (A) (A) (A)
                 (A) (A) (A) (A) (A) (A) (A) (A) (A) (A) (A) (A)
                 (A) (A) (A) (A) (A) (A) (A) (A) (A) (A) (A) (A)
                 (A) (A) (A) (A) (A) (A) (A) (A) (A) (A) (A) (A)
                 (A) (A) (A) (A) (A) (A) (A) (A) (A) (A) (A) (A)
                 (A) (A) (A) (A) (A) (A) (A) (A) (A) (A) (A) (A)
                 (A) (A) (A) (A) (A) (A) (A) (A) (A) (A) (A) (A)
                 (A) (A) (A) (A) (A) (A) (A) (A) (A) (A) (A) (A)
                 (A) (A) (A) (A) (A) (A) (A) (A) (A) (A) (A) (A)
                 (A) (A) (A) (A) (A) (A) (A) (A) (A) (A) (A) (A)
                 (A) (A) (A) (A) (A) (A) (A) (A) (A) (A) (A) (A)
                 (A) (A) (A) (A) (A) (A) (A) (A) (A) (A) (A) (A)
                 (A) (A) (A) (A) (A) (A) (A) (A) (A) (A) (A) (A)
                 (A) (A) (A) (A) (A) (A) (A) (A) (A) (A) (A) (A)
                 (A) (A) (A) (A) (A) (A) (A) (A) (A) (A) (A) (A)
                 (A) (A) (A) (A) (A) (A) (A) (A) (A) (A) (A) (A)
                 (A) (A) (A) (A) (A) (A) (A) (A) (A) (A) (A) (A)
                 (A) (A) (A) (A) (A) (A) (A) (A) (A) (A) (A) (A)
                 (A) (A) (A) (A) (A) (A) (A) (A) (A) (A) (A) (A)
                 (A) (A) (A) (A) (A) (A)
 The electronic state is 1-A.
 Alpha  occ. eigenvalues --  -46.84987 -19.26008 -19.25523 -19.22099 -19.20688
 Alpha  occ. eigenvalues --  -19.19321 -14.42096 -14.39690 -14.39390 -14.39268
 Alpha  occ. eigenvalues --  -10.38966 -10.38670 -10.35754 -10.31968 -10.30905
 Alpha  occ. eigenvalues --  -10.30764 -10.30533 -10.30486 -10.29482 -10.29406
 Alpha  occ. eigenvalues --  -10.29114 -10.29096 -10.29051 -10.29045 -10.28926
 Alpha  occ. eigenvalues --  -10.28746 -10.28530 -10.28431 -10.28366 -10.28318
 Alpha  occ. eigenvalues --  -10.28237 -10.27785 -10.27723 -10.27667 -10.27478
 Alpha  occ. eigenvalues --  -10.27354 -10.27290 -10.27042 -10.26732 -10.26717
 Alpha  occ. eigenvalues --  -10.26708 -10.26558 -10.26530 -10.26431 -10.26430
 Alpha  occ. eigenvalues --  -10.26328 -10.26259 -10.26256 -10.26236 -10.26140
 Alpha  occ. eigenvalues --  -10.26097 -10.25610 -10.25527 -10.25349 -10.25278
 Alpha  occ. eigenvalues --  -10.25097 -10.24907 -10.24629 -10.24398 -10.24316
 Alpha  occ. eigenvalues --  -10.24308 -10.24203 -10.24054 -10.23950 -10.22503
 Alpha  occ. eigenvalues --   -3.13900  -1.88615  -1.88132  -1.88076  -1.19929
 Alpha  occ. eigenvalues --   -1.19460  -1.11256  -1.10338  -1.09410  -1.05919
 Alpha  occ. eigenvalues --   -1.03931  -1.03092  -1.02116  -0.91850  -0.91690
 Alpha  occ. eigenvalues --   -0.91133  -0.90523  -0.90268  -0.90077  -0.88984
 Alpha  occ. eigenvalues --   -0.88853  -0.88400  -0.87983  -0.86711  -0.86469
 Alpha  occ. eigenvalues --   -0.85196  -0.84518  -0.83627  -0.82508  -0.82380
 Alpha  occ. eigenvalues --   -0.82140  -0.80726  -0.80224  -0.79968  -0.78387
 Alpha  occ. eigenvalues --   -0.77307  -0.76651  -0.76527  -0.76310  -0.75994
 Alpha  occ. eigenvalues --   -0.75489  -0.75017  -0.74716  -0.74163  -0.72536
 Alpha  occ. eigenvalues --   -0.71694  -0.71493  -0.69499  -0.69204  -0.68413
 Alpha  occ. eigenvalues --   -0.67167  -0.67147  -0.66269  -0.65679  -0.64898
 Alpha  occ. eigenvalues --   -0.64792  -0.64023  -0.63637  -0.63488  -0.62626
 Alpha  occ. eigenvalues --   -0.61431  -0.61193  -0.60379  -0.59611  -0.59329
 Alpha  occ. eigenvalues --   -0.58609  -0.58039  -0.57457  -0.56906  -0.56847
 Alpha  occ. eigenvalues --   -0.55938  -0.55640  -0.55378  -0.55022  -0.54786
 Alpha  occ. eigenvalues --   -0.54564  -0.54150  -0.54093  -0.53978  -0.53398
 Alpha  occ. eigenvalues --   -0.52903  -0.52563  -0.52316  -0.52243  -0.51722
 Alpha  occ. eigenvalues --   -0.51661  -0.51406  -0.51049  -0.50912  -0.50743
 Alpha  occ. eigenvalues --   -0.50528  -0.50399  -0.50067  -0.49699  -0.49546
 Alpha  occ. eigenvalues --   -0.49441  -0.49283  -0.49092  -0.48737  -0.48259
 Alpha  occ. eigenvalues --   -0.47827  -0.47736  -0.47660  -0.47430  -0.47013
 Alpha  occ. eigenvalues --   -0.46914  -0.46725  -0.46465  -0.46273  -0.46142
 Alpha  occ. eigenvalues --   -0.45734  -0.45565  -0.45282  -0.45215  -0.44782
 Alpha  occ. eigenvalues --   -0.44732  -0.44469  -0.44119  -0.44002  -0.43918
 Alpha  occ. eigenvalues --   -0.43784  -0.43763  -0.43618  -0.43423  -0.43270
 Alpha  occ. eigenvalues --   -0.43110  -0.42879  -0.42838  -0.42790  -0.42670
 Alpha  occ. eigenvalues --   -0.42497  -0.42288  -0.42062  -0.41832  -0.41617
 Alpha  occ. eigenvalues --   -0.41550  -0.41393  -0.40917  -0.40492  -0.40458
 Alpha  occ. eigenvalues --   -0.40335  -0.39737  -0.39719  -0.39362  -0.38985
 Alpha  occ. eigenvalues --   -0.38581  -0.38338  -0.38317  -0.38185  -0.38111
 Alpha  occ. eigenvalues --   -0.37764  -0.37685  -0.37462  -0.37130  -0.36963
 Alpha  occ. eigenvalues --   -0.36545  -0.36510  -0.35995  -0.35774  -0.35494
 Alpha  occ. eigenvalues --   -0.35221  -0.34575  -0.34350  -0.34079  -0.33864
 Alpha  occ. eigenvalues --   -0.33835  -0.32581  -0.32474  -0.30988  -0.30503
 Alpha  occ. eigenvalues --   -0.29898  -0.29382  -0.28013  -0.26577  -0.23043
 Alpha  occ. eigenvalues --   -0.21488
 Alpha virt. eigenvalues --   -0.06104  -0.03963   0.00595   0.03893   0.05507
 Alpha virt. eigenvalues --    0.06350   0.06610   0.07416   0.07707   0.07945
 Alpha virt. eigenvalues --    0.08253   0.09936   0.10778   0.11206   0.11858
 Alpha virt. eigenvalues --    0.12546   0.12633   0.12684   0.12974   0.13086
 Alpha virt. eigenvalues --    0.13122   0.13533   0.13772   0.14048   0.14456
 Alpha virt. eigenvalues --    0.14632   0.14934   0.15017   0.15198   0.15331
 Alpha virt. eigenvalues --    0.15521   0.15596   0.16142   0.16387   0.16613
 Alpha virt. eigenvalues --    0.16790   0.16992   0.17114   0.17196   0.17422
 Alpha virt. eigenvalues --    0.17446   0.17824   0.18074   0.18145   0.18184
 Alpha virt. eigenvalues --    0.18247   0.18724   0.18791   0.19041   0.19393
 Alpha virt. eigenvalues --    0.19417   0.19544   0.19834   0.20138   0.20246
 Alpha virt. eigenvalues --    0.20308   0.20509   0.20563   0.20884   0.20981
 Alpha virt. eigenvalues --    0.21074   0.21178   0.21445   0.21533   0.21558
 Alpha virt. eigenvalues --    0.21799   0.21900   0.22238   0.22328   0.22452
 Alpha virt. eigenvalues --    0.22708   0.22797   0.23108   0.23274   0.23643
 Alpha virt. eigenvalues --    0.23689   0.23789   0.24029   0.24086   0.24174
 Alpha virt. eigenvalues --    0.24644   0.24857   0.24933   0.25250   0.25376
 Alpha virt. eigenvalues --    0.25536   0.25752   0.26124   0.26213   0.26532
 Alpha virt. eigenvalues --    0.26574   0.27057   0.27107   0.27278   0.27780
 Alpha virt. eigenvalues --    0.27911   0.28176   0.28219   0.28387   0.28681
 Alpha virt. eigenvalues --    0.28713   0.28725   0.29136   0.29394   0.29430
 Alpha virt. eigenvalues --    0.29659   0.29802   0.29893   0.30326   0.30466
 Alpha virt. eigenvalues --    0.30755   0.30888   0.31328   0.31405   0.31701
 Alpha virt. eigenvalues --    0.32096   0.32401   0.32751   0.32931   0.33024
 Alpha virt. eigenvalues --    0.33443   0.33613   0.33847   0.34174   0.34207
 Alpha virt. eigenvalues --    0.34436   0.35064   0.35445   0.35937   0.36131
 Alpha virt. eigenvalues --    0.36195   0.36538   0.37261   0.37800   0.38352
 Alpha virt. eigenvalues --    0.38626   0.39547   0.39935   0.40713   0.41112
 Alpha virt. eigenvalues --    0.41653   0.41731   0.41966   0.42144   0.42639
 Alpha virt. eigenvalues --    0.42781   0.43875   0.44595   0.45343   0.46219
 Alpha virt. eigenvalues --    0.46430   0.46852   0.48106   0.48284   0.49714
 Alpha virt. eigenvalues --    0.50119   0.50462   0.51012   0.51992   0.52546
 Alpha virt. eigenvalues --    0.52955   0.53009   0.53546   0.53962   0.54200
 Alpha virt. eigenvalues --    0.54605   0.54852   0.54911   0.55233   0.55527
 Alpha virt. eigenvalues --    0.55975   0.56113   0.56377   0.56692   0.56883
 Alpha virt. eigenvalues --    0.57708   0.57945   0.58164   0.58290   0.58513
 Alpha virt. eigenvalues --    0.58692   0.58890   0.59115   0.59202   0.59237
 Alpha virt. eigenvalues --    0.59479   0.59760   0.59828   0.59959   0.60342
 Alpha virt. eigenvalues --    0.60486   0.60632   0.60761   0.60877   0.61281
 Alpha virt. eigenvalues --    0.61605   0.61908   0.62124   0.62382   0.62544
 Alpha virt. eigenvalues --    0.62848   0.62952   0.63164   0.63646   0.63998
 Alpha virt. eigenvalues --    0.64358   0.64669   0.64808   0.65280   0.65492
 Alpha virt. eigenvalues --    0.65697   0.65909   0.66184   0.66277   0.66387
 Alpha virt. eigenvalues --    0.66643   0.66842   0.66929   0.67525   0.67934
 Alpha virt. eigenvalues --    0.68088   0.68755   0.69021   0.69104   0.69345
 Alpha virt. eigenvalues --    0.69864   0.70109   0.70199   0.70584   0.70895
 Alpha virt. eigenvalues --    0.71182   0.71339   0.71586   0.71889   0.72155
 Alpha virt. eigenvalues --    0.72461   0.72689   0.72838   0.72915   0.73190
 Alpha virt. eigenvalues --    0.73347   0.73561   0.73908   0.74039   0.74361
 Alpha virt. eigenvalues --    0.74635   0.74699   0.74896   0.75439   0.75563
 Alpha virt. eigenvalues --    0.75735   0.75741   0.76110   0.76296   0.76726
 Alpha virt. eigenvalues --    0.76839   0.76969   0.77447   0.78019   0.78061
 Alpha virt. eigenvalues --    0.78242   0.78359   0.78589   0.79356   0.79381
 Alpha virt. eigenvalues --    0.79856   0.80180   0.80214   0.80446   0.80927
 Alpha virt. eigenvalues --    0.81146   0.81283   0.81447   0.81671   0.81841
 Alpha virt. eigenvalues --    0.82526   0.82613   0.82760   0.82953   0.83067
 Alpha virt. eigenvalues --    0.83163   0.83504   0.83708   0.84011   0.84272
 Alpha virt. eigenvalues --    0.84496   0.84993   0.85016   0.85083   0.85681
 Alpha virt. eigenvalues --    0.85752   0.86111   0.86323   0.86467   0.86600
 Alpha virt. eigenvalues --    0.86840   0.86922   0.87073   0.87417   0.87515
 Alpha virt. eigenvalues --    0.87655   0.87764   0.87815   0.87997   0.88121
 Alpha virt. eigenvalues --    0.88792   0.88974   0.89103   0.89273   0.89513
 Alpha virt. eigenvalues --    0.89906   0.89949   0.90114   0.90408   0.90678
 Alpha virt. eigenvalues --    0.90996   0.91293   0.91363   0.91538   0.91763
 Alpha virt. eigenvalues --    0.92105   0.92534   0.92675   0.92706   0.92797
 Alpha virt. eigenvalues --    0.93376   0.93405   0.93460   0.93789   0.94160
 Alpha virt. eigenvalues --    0.94406   0.94428   0.94491   0.94684   0.94808
 Alpha virt. eigenvalues --    0.94927   0.95548   0.95823   0.96041   0.96210
 Alpha virt. eigenvalues --    0.96585   0.96625   0.96763   0.96860   0.97176
 Alpha virt. eigenvalues --    0.97204   0.97542   0.97647   0.97861   0.97966
 Alpha virt. eigenvalues --    0.98248   0.98379   0.98589   0.98658   0.98744
 Alpha virt. eigenvalues --    0.99250   0.99289   0.99394   0.99669   1.00113
 Alpha virt. eigenvalues --    1.00222   1.00524   1.00586   1.00912   1.01170
 Alpha virt. eigenvalues --    1.01464   1.01608   1.01670   1.02040   1.02534
 Alpha virt. eigenvalues --    1.02761   1.02939   1.03194   1.03456   1.03585
 Alpha virt. eigenvalues --    1.03755   1.04201   1.04381   1.04786   1.04982
 Alpha virt. eigenvalues --    1.05200   1.05538   1.05907   1.05953   1.06350
 Alpha virt. eigenvalues --    1.06416   1.06643   1.07089   1.07263   1.07507
 Alpha virt. eigenvalues --    1.07593   1.07968   1.08312   1.08798   1.08998
 Alpha virt. eigenvalues --    1.09969   1.10080   1.10454   1.11159   1.11463
 Alpha virt. eigenvalues --    1.12168   1.12597   1.13059   1.13166   1.13868
 Alpha virt. eigenvalues --    1.13881   1.14570   1.14757   1.15762   1.16002
 Alpha virt. eigenvalues --    1.16291   1.16377   1.16843   1.17174   1.17899
 Alpha virt. eigenvalues --    1.18096   1.18356   1.18633   1.20055   1.20163
 Alpha virt. eigenvalues --    1.21240   1.21703   1.21835   1.22337   1.23506
 Alpha virt. eigenvalues --    1.24049   1.24248   1.24481   1.25248   1.25463
 Alpha virt. eigenvalues --    1.26151   1.26646   1.26787   1.27079   1.28105
 Alpha virt. eigenvalues --    1.28462   1.29214   1.29486   1.30151   1.30958
 Alpha virt. eigenvalues --    1.31287   1.31520   1.32073   1.32732   1.32854
 Alpha virt. eigenvalues --    1.33571   1.34022   1.34418   1.35301   1.36176
 Alpha virt. eigenvalues --    1.36331   1.36514   1.37131   1.37469   1.38318
 Alpha virt. eigenvalues --    1.39035   1.39236   1.39734   1.40495   1.40756
 Alpha virt. eigenvalues --    1.41110   1.41269   1.41886   1.42272   1.42836
 Alpha virt. eigenvalues --    1.43468   1.43611   1.44376   1.44682   1.45057
 Alpha virt. eigenvalues --    1.45447   1.45552   1.45923   1.46256   1.46475
 Alpha virt. eigenvalues --    1.47162   1.48194   1.48728   1.49134   1.50098
 Alpha virt. eigenvalues --    1.50215   1.50742   1.51261   1.52444   1.52975
 Alpha virt. eigenvalues --    1.53479   1.53845   1.54020   1.54314   1.54885
 Alpha virt. eigenvalues --    1.55349   1.55555   1.56045   1.56606   1.56991
 Alpha virt. eigenvalues --    1.57102   1.57494   1.57984   1.58329   1.58701
 Alpha virt. eigenvalues --    1.59521   1.59718   1.60262   1.60782   1.60929
 Alpha virt. eigenvalues --    1.61429   1.61447   1.62110   1.62590   1.63125
 Alpha virt. eigenvalues --    1.63696   1.63972   1.64062   1.64404   1.65184
 Alpha virt. eigenvalues --    1.65469   1.65746   1.66092   1.66840   1.67277
 Alpha virt. eigenvalues --    1.67760   1.68235   1.68487   1.69301   1.69762
 Alpha virt. eigenvalues --    1.70171   1.70244   1.70293   1.70794   1.71918
 Alpha virt. eigenvalues --    1.72281   1.72530   1.72785   1.73119   1.73465
 Alpha virt. eigenvalues --    1.74108   1.74941   1.75157   1.75449   1.76249
 Alpha virt. eigenvalues --    1.76357   1.76578   1.76952   1.77011   1.77552
 Alpha virt. eigenvalues --    1.77682   1.78109   1.78474   1.78822   1.79712
 Alpha virt. eigenvalues --    1.80285   1.80318   1.80692   1.80728   1.81327
 Alpha virt. eigenvalues --    1.81872   1.82229   1.82647   1.83074   1.83619
 Alpha virt. eigenvalues --    1.83868   1.84266   1.84585   1.84674   1.84816
 Alpha virt. eigenvalues --    1.85170   1.85966   1.86714   1.86833   1.87006
 Alpha virt. eigenvalues --    1.87117   1.87464   1.87509   1.88477   1.88586
 Alpha virt. eigenvalues --    1.88802   1.89100   1.89345   1.89487   1.89644
 Alpha virt. eigenvalues --    1.89711   1.90248   1.90329   1.90778   1.91291
 Alpha virt. eigenvalues --    1.91368   1.91625   1.91661   1.91947   1.92266
 Alpha virt. eigenvalues --    1.92356   1.92479   1.93536   1.93717   1.93865
 Alpha virt. eigenvalues --    1.94134   1.94198   1.94523   1.94923   1.95026
 Alpha virt. eigenvalues --    1.95641   1.95758   1.96146   1.96219   1.96567
 Alpha virt. eigenvalues --    1.97010   1.97098   1.97421   1.97635   1.97827
 Alpha virt. eigenvalues --    1.98031   1.98271   1.98346   1.98413   1.99021
 Alpha virt. eigenvalues --    1.99091   1.99242   1.99695   1.99720   2.00128
 Alpha virt. eigenvalues --    2.00785   2.01011   2.01122   2.01600   2.01977
 Alpha virt. eigenvalues --    2.02238   2.02441   2.02606   2.02721   2.02804
 Alpha virt. eigenvalues --    2.03232   2.03424   2.03829   2.04104   2.04343
 Alpha virt. eigenvalues --    2.04864   2.04936   2.05251   2.05447   2.05661
 Alpha virt. eigenvalues --    2.06023   2.06331   2.06840   2.06938   2.07111
 Alpha virt. eigenvalues --    2.07498   2.07862   2.08625   2.08806   2.08907
 Alpha virt. eigenvalues --    2.09653   2.09746   2.10046   2.10332   2.10438
 Alpha virt. eigenvalues --    2.10921   2.11087   2.11239   2.12006   2.12191
 Alpha virt. eigenvalues --    2.12877   2.13285   2.13443   2.14006   2.14078
 Alpha virt. eigenvalues --    2.14488   2.14731   2.14870   2.14923   2.15104
 Alpha virt. eigenvalues --    2.15356   2.15860   2.15889   2.16751   2.17152
 Alpha virt. eigenvalues --    2.17280   2.17659   2.18132   2.18259   2.18666
 Alpha virt. eigenvalues --    2.18895   2.19052   2.19208   2.19272   2.19488
 Alpha virt. eigenvalues --    2.19840   2.19949   2.20584   2.20723   2.21283
 Alpha virt. eigenvalues --    2.21674   2.21968   2.22280   2.22396   2.22810
 Alpha virt. eigenvalues --    2.23481   2.23555   2.24228   2.24351   2.24898
 Alpha virt. eigenvalues --    2.25382   2.25994   2.26199   2.26290   2.26700
 Alpha virt. eigenvalues --    2.26778   2.27240   2.27390   2.27703   2.27751
 Alpha virt. eigenvalues --    2.28659   2.28774   2.28901   2.29500   2.30472
 Alpha virt. eigenvalues --    2.30653   2.30795   2.31182   2.31447   2.31927
 Alpha virt. eigenvalues --    2.32290   2.32391   2.32813   2.33349   2.33384
 Alpha virt. eigenvalues --    2.33495   2.33970   2.34155   2.34419   2.34840
 Alpha virt. eigenvalues --    2.35610   2.35817   2.35931   2.36390   2.36442
 Alpha virt. eigenvalues --    2.36572   2.36971   2.37347   2.37528   2.37889
 Alpha virt. eigenvalues --    2.38522   2.39256   2.39306   2.39533   2.39813
 Alpha virt. eigenvalues --    2.39947   2.40184   2.40737   2.41248   2.41311
 Alpha virt. eigenvalues --    2.41519   2.41786   2.42205   2.42351   2.43046
 Alpha virt. eigenvalues --    2.43287   2.43669   2.43905   2.44102   2.44330
 Alpha virt. eigenvalues --    2.44868   2.45008   2.45250   2.45508   2.46164
 Alpha virt. eigenvalues --    2.46232   2.46698   2.47017   2.47078   2.47326
 Alpha virt. eigenvalues --    2.47623   2.47876   2.48387   2.48402   2.48775
 Alpha virt. eigenvalues --    2.49194   2.49478   2.49930   2.50234   2.50687
 Alpha virt. eigenvalues --    2.50745   2.50949   2.51436   2.51870   2.52169
 Alpha virt. eigenvalues --    2.52544   2.52871   2.53192   2.53250   2.53721
 Alpha virt. eigenvalues --    2.54149   2.54305   2.54677   2.55110   2.55731
 Alpha virt. eigenvalues --    2.56168   2.56303   2.56720   2.56827   2.57177
 Alpha virt. eigenvalues --    2.57632   2.57960   2.58245   2.58685   2.59205
 Alpha virt. eigenvalues --    2.59622   2.59891   2.60507   2.61035   2.61288
 Alpha virt. eigenvalues --    2.61708   2.62582   2.62976   2.63158   2.63442
 Alpha virt. eigenvalues --    2.63503   2.64493   2.64614   2.64870   2.65261
 Alpha virt. eigenvalues --    2.65443   2.65814   2.66400   2.66799   2.67315
 Alpha virt. eigenvalues --    2.67712   2.67784   2.68055   2.68635   2.69345
 Alpha virt. eigenvalues --    2.69406   2.69469   2.69729   2.70254   2.70598
 Alpha virt. eigenvalues --    2.70636   2.70745   2.71129   2.71506   2.71947
 Alpha virt. eigenvalues --    2.72441   2.72608   2.72789   2.72951   2.73269
 Alpha virt. eigenvalues --    2.73576   2.73924   2.74379   2.74605   2.74980
 Alpha virt. eigenvalues --    2.75280   2.75762   2.75830   2.76129   2.76742
 Alpha virt. eigenvalues --    2.76973   2.77844   2.77904   2.78097   2.78428
 Alpha virt. eigenvalues --    2.78653   2.79498   2.79617   2.79771   2.79899
 Alpha virt. eigenvalues --    2.80209   2.80732   2.81234   2.81496   2.81749
 Alpha virt. eigenvalues --    2.82098   2.82750   2.82924   2.83073   2.83522
 Alpha virt. eigenvalues --    2.83787   2.83900   2.84134   2.84716   2.84834
 Alpha virt. eigenvalues --    2.85017   2.85364   2.85547   2.86035   2.86816
 Alpha virt. eigenvalues --    2.87013   2.87219   2.87982   2.88215   2.88533
 Alpha virt. eigenvalues --    2.89049   2.89152   2.89619   2.89719   2.89993
 Alpha virt. eigenvalues --    2.91058   2.91517   2.91815   2.92212   2.92622
 Alpha virt. eigenvalues --    2.92869   2.93186   2.93368   2.93996   2.94655
 Alpha virt. eigenvalues --    2.94877   2.95288   2.95608   2.96651   2.96755
 Alpha virt. eigenvalues --    2.97288   2.97409   2.97481   2.97666   2.98395
 Alpha virt. eigenvalues --    2.98665   2.99158   2.99420   2.99580   3.00341
 Alpha virt. eigenvalues --    3.00751   3.01047   3.01271   3.02382   3.02673
 Alpha virt. eigenvalues --    3.02979   3.03340   3.03636   3.03895   3.04829
 Alpha virt. eigenvalues --    3.05205   3.05476   3.05761   3.05969   3.06906
 Alpha virt. eigenvalues --    3.07226   3.07758   3.08439   3.09027   3.09179
 Alpha virt. eigenvalues --    3.09492   3.09716   3.09781   3.10728   3.12300
 Alpha virt. eigenvalues --    3.12814   3.13147   3.13354   3.13786   3.14911
 Alpha virt. eigenvalues --    3.16171   3.16320   3.16617   3.17144   3.17527
 Alpha virt. eigenvalues --    3.18570   3.19376   3.19759   3.22828   3.23091
 Alpha virt. eigenvalues --    3.24623   3.25047   3.25533   3.26227   3.26474
 Alpha virt. eigenvalues --    3.27275   3.27448   3.28199   3.28433   3.28847
 Alpha virt. eigenvalues --    3.29019   3.29305   3.31907   3.32746   3.33367
 Alpha virt. eigenvalues --    3.34386   3.35705   3.37593   3.38082   3.38308
 Alpha virt. eigenvalues --    3.38878   3.39374   3.39872   3.40069   3.40424
 Alpha virt. eigenvalues --    3.41213   3.41422   3.42046   3.42654   3.42801
 Alpha virt. eigenvalues --    3.43321   3.43570   3.45292   3.45583   3.45790
 Alpha virt. eigenvalues --    3.46119   3.46515   3.47084   3.47604   3.49092
 Alpha virt. eigenvalues --    3.49276   3.49893   3.50081   3.50211   3.51324
 Alpha virt. eigenvalues --    3.51721   3.52190   3.53021   3.53685   3.54953
 Alpha virt. eigenvalues --    3.55319   3.55392   3.55744   3.56643   3.58002
 Alpha virt. eigenvalues --    3.58205   3.58549   3.60336   3.60598   3.62178
 Alpha virt. eigenvalues --    3.62578   3.62614   3.63421   3.64713   3.67799
 Alpha virt. eigenvalues --    3.68721   3.69312   3.71925   3.73268   3.74622
 Alpha virt. eigenvalues --    3.77388   3.80668   3.82354   4.07307   4.11088
 Alpha virt. eigenvalues --    4.14395   4.15968   4.21638   4.22123   4.22972
 Alpha virt. eigenvalues --    4.24095   4.24910   4.26578   4.27781   4.28264
 Alpha virt. eigenvalues --    4.29439   4.30246   4.32222   4.32314   4.34298
 Alpha virt. eigenvalues --    4.35763   4.39127   4.39316   4.40014   4.41021
 Alpha virt. eigenvalues --    4.42591   4.43508   4.44771   4.45835   4.45856
 Alpha virt. eigenvalues --    4.46921   4.48203   4.49832   4.49946   4.50836
 Alpha virt. eigenvalues --    4.52234   4.54171   4.55226   4.56164   4.56901
 Alpha virt. eigenvalues --    4.58151   4.59444   4.59541   4.60097   4.62509
 Alpha virt. eigenvalues --    4.62832   4.63103   4.63272   4.64350   4.67579
 Alpha virt. eigenvalues --    4.69172   4.70220   4.70762   4.72105   4.73850
 Alpha virt. eigenvalues --    4.74607   4.75386   4.77965   4.80598   4.81945
 Alpha virt. eigenvalues --    4.85513   4.86084   4.86936   4.87377   4.88715
 Alpha virt. eigenvalues --    4.90284   4.94417   4.99871
          Condensed to atoms (all electrons):
 Mulliken charges:
               1
     1  Mg   0.813336
     2  C    0.078425
     3  C   -0.216076
     4  C   -0.200176
     5  C   -0.198058
     6  N   -0.630895
     7  C    0.304346
     8  C   -0.158934
     9  C   -0.171494
    10  C    0.390176
    11  C   -0.314764
    12  C   -0.135120
    13  C   -0.283997
    14  C    0.602534
    15  O   -0.482615
    16  O   -0.461764
    17  N   -0.731838
    18  C    0.352244
    19  C   -0.026215
    20  C    0.049006
    21  C    0.336005
    22  C   -0.326159
    23  C   -0.092401
    24  C   -0.247824
    25  N   -0.673109
    26  C    0.246046
    27  C    0.035063
    28  C    0.023352
    29  C    0.317257
    30  C   -0.369301
    31  C   -0.227227
    32  C   -0.300996
    33  N   -0.734758
    34  C    0.232991
    35  C    0.078495
    36  C   -0.013782
    37  C    0.317845
    38  C   -0.376087
    39  C    0.376076
    40  O   -0.454294
    41  C   -0.359272
    42  C    0.622676
    43  O   -0.434097
    44  O   -0.449200
    45  C   -0.106825
    46  C    0.008410
    47  C   -0.153034
    48  C    0.134388
    49  C   -0.364980
    50  C   -0.210105
    51  C   -0.194834
    52  C   -0.176192
    53  C   -0.058837
    54  C   -0.307998
    55  C   -0.182761
    56  C   -0.177453
    57  C   -0.175200
    58  C   -0.048055
    59  C   -0.320285
    60  C   -0.186148
    61  C   -0.172827
    62  C   -0.152478
    63  C   -0.075367
    64  C   -0.284297
    65  C   -0.310686
    66  H    0.075433
    67  H    0.089047
    68  H    0.081764
    69  H    0.129751
    70  H    0.108792
    71  H    0.105599
    72  H    0.093256
    73  H    0.132217
    74  H    0.120101
    75  H    0.124703
    76  H    0.131834
    77  H    0.095204
    78  H    0.118744
    79  H    0.084256
    80  H    0.133305
    81  H    0.095155
    82  H    0.086639
    83  H    0.117111
    84  H    0.135312
    85  H    0.099993
    86  H    0.110984
    87  H    0.107174
    88  H    0.107030
    89  H    0.084243
    90  H    0.090496
    91  H    0.124269
    92  H    0.134879
    93  H    0.151751
    94  H    0.100912
    95  H    0.131382
    96  H    0.110444
    97  H    0.140203
    98  H    0.134042
    99  H    0.123743
   100  H    0.125558
   101  H    0.083205
   102  H    0.113341
   103  H    0.124126
   104  H    0.120444
   105  H    0.110681
   106  H    0.097851
   107  H    0.113425
   108  H    0.077400
   109  H    0.083878
   110  H    0.089196
   111  H    0.090427
   112  H    0.107607
   113  H    0.103102
   114  H    0.089896
   115  H    0.083798
   116  H    0.091240
   117  H    0.083741
   118  H    0.090682
   119  H    0.094636
   120  H    0.081653
   121  H    0.069023
   122  H    0.050585
   123  H    0.114474
   124  H    0.107155
   125  H    0.075728
   126  H    0.100524
   127  H    0.105007
   128  H    0.100210
   129  H    0.097173
   130  H    0.065708
   131  H    0.094002
   132  H    0.071921
   133  H    0.102521
   134  H    0.085515
   135  H    0.099836
   136  H    0.105444
   137  H    0.099659
 Sum of Mulliken charges =   0.00000
 Mulliken charges with hydrogens summed into heavy atoms:
               1
     1  Mg   0.813336
     2  C    0.078425
     3  C   -0.140643
     4  C   -0.111129
     5  C   -0.116294
     6  N   -0.630895
     7  C    0.304346
     8  C   -0.029182
     9  C   -0.062702
    10  C    0.390176
    11  C    0.016308
    12  C    0.109683
    13  C   -0.056959
    14  C    0.602534
    15  O   -0.482615
    16  O   -0.461764
    17  N   -0.731838
    18  C    0.352244
    19  C   -0.026215
    20  C    0.049006
    21  C    0.336005
    22  C    0.010147
    23  C    0.002753
    24  C   -0.044073
    25  N   -0.673109
    26  C    0.246046
    27  C    0.035063
    28  C    0.023352
    29  C    0.317257
    30  C   -0.023012
    31  C   -0.013022
    32  C   -0.001988
    33  N   -0.734758
    34  C    0.232991
    35  C    0.078495
    36  C   -0.013782
    37  C    0.317845
    38  C    0.011454
    39  C    0.376076
    40  O   -0.454294
    41  C   -0.227890
    42  C    0.622676
    43  O   -0.434097
    44  O   -0.449200
    45  C    0.277864
    46  C    0.257710
    47  C   -0.069828
    48  C    0.134388
    49  C   -0.007069
    50  C   -0.001573
    51  C   -0.004009
    52  C   -0.003118
    53  C    0.031590
    54  C   -0.007394
    55  C   -0.007722
    56  C   -0.003030
    57  C    0.001089
    58  C    0.020968
    59  C   -0.048071
    60  C   -0.009896
    61  C    0.032390
    62  C    0.010403
    63  C    0.018636
    64  C   -0.024340
    65  C   -0.005747
 Electronic spatial extent (au):  <R**2>=         179938.1036
 Charge=              0.0000 electrons
 Dipole moment (field-independent basis, Debye):
    X=              1.6453    Y=              4.5698    Z=              0.5563  Tot=              4.8887
 Quadrupole moment (field-independent basis, Debye-Ang):
   XX=           -345.1013   YY=           -400.6567   ZZ=           -398.9314
   XY=            -21.1254   XZ=              9.5029   YZ=              1.5236
 Traceless Quadrupole moment (field-independent basis, Debye-Ang):
   XX=             36.4619   YY=            -19.0936   ZZ=            -17.3683
   XY=            -21.1254   XZ=              9.5029   YZ=              1.5236
 Octapole moment (field-independent basis, Debye-Ang**2):
  XXX=           -354.0302  YYY=            149.3954  ZZZ=             10.4088  XYY=              5.9972
  XXY=             58.3363  XXZ=           -199.9153  XZZ=            -22.7185  YZZ=            -31.9775
  YYZ=             13.0874  XYZ=            -17.5801
 Hexadecapole moment (field-independent basis, Debye-Ang**3):
 XXXX=        -215600.2779 YYYY=         -17984.9975 ZZZZ=          -4377.7867 XXXY=           -545.7791
 XXXZ=           1621.9619 YYYX=          -1046.0652 YYYZ=            -63.7286 ZZZX=            -80.9867
 ZZZY=           -116.9617 XXYY=         -40047.9261 XXZZ=         -39624.9080 YYZZ=          -3568.7029
 XXYZ=            287.1571 YYXZ=            153.5272 ZZXY=             36.9230
 N-N= 8.738715222979D+03 E-N=-2.430012795734D+04  KE= 2.906095936201D+03
 1\1\GINC-PEDRO-RYZENSSD\SP\RCAM-B3LYP TD-FC\6-31G(d,p)\C55H72Mg1N4O5\P
 ADAWAN\03-Jul-2019\0\\# td=(NStates=1) CAM-B3LYP/6-31G(d,p)\\TD\\0,1\M
 g,0,-7.1019807711,0.5917379219,0.1161493023\C,0,-4.9851431323,-2.00956
 21346,0.6325797907\C,0,-4.7587458035,2.8047089182,1.045190884\C,0,-9.3
 833830738,3.1407095665,-0.401913051\C,0,-9.4795582695,-1.6843039414,-1
 .0181982489\N,0,-5.0391873433,0.4196317813,0.6799884171\C,0,-4.3330730
 134,-0.7378736094,0.9297509983\C,0,-2.9238413895,-0.4548449102,1.31940
 22944\C,0,-3.02741618,1.0683395023,1.6530560363\C,0,-4.4040173966,1.46
 45872075,1.1191789478\C,0,-3.0861837005,1.2132236105,3.2628976987\C,0,
 -1.9516686279,-0.6174870101,0.1131552738\C,0,-0.466234046,-0.363400687
 3,0.4051946488\C,0,0.5783289701,-0.5976732802,-0.6136567462\O,0,0.2628
 375239,-0.8522106287,-1.7394502767\O,0,1.830734884,-0.390576454,-0.289
 8157705\N,0,-7.0560060485,2.6352291127,0.1869873942\C,0,-5.9945087299,
 3.3540963854,0.6898625199\C,0,-6.3871259657,4.7285771471,0.7871193991\
 C,0,-7.7045531623,4.8724478763,0.3340717985\C,0,-8.1529295646,3.467235
 9189,0.0338659329\C,0,-5.3449824549,5.8027227382,1.1127960401\C,0,-8.5
 129990975,5.9464556793,0.2254695324\C,0,-8.5154354348,7.076473766,0.99
 24754973\N,0,-9.1050527779,0.6460274638,-0.5602900627\C,0,-9.904026662
 4,1.8107910322,-0.6963659607\C,0,-11.2280519018,1.504248764,-1.1799697
 165\C,0,-11.2291453184,0.1222875929,-1.3417328873\C,0,-9.9174974304,-0
 .3365556299,-0.9771227284\C,0,-12.3485536791,2.489339505,-1.4278595608
 \C,0,-12.4325778041,-0.7784452546,-1.6282236309\C,0,-12.3623137198,-1.
 0429067019,-3.1392390425\N,0,-7.2523547038,-1.4103006437,-0.056840361\
 C,0,-8.2771079506,-2.2992851006,-0.5723221874\C,0,-7.8873948851,-3.620
 3002975,-0.5188691642\C,0,-6.5962135055,-3.6088252195,-0.0772694588\C,
 0,-6.2590184982,-2.2307613574,0.2154743516\C,0,-8.6575632237,-4.832136
 056,-0.7933678152\C,0,-5.4191863889,-4.4636102445,0.207763649\O,0,-5.1
 702358615,-5.6614206255,0.262483279\C,0,-4.2959931787,-3.3351193017,0.
 6294928146\C,0,-3.5519258235,-3.6846536867,1.9906694398\O,0,-3.6722388
 245,-3.1019569319,2.9831910002\O,0,-2.7823694306,-4.7986045829,1.79017
 75987\C,0,-2.0895495429,-5.145918821,2.9886137969\C,0,2.8744999617,-0.
 6443122258,-1.2070419046\C,0,4.2082829173,-0.3211302893,-0.6429044394\
 C,0,5.1455180362,0.400186284,-1.1650762803\C,0,5.1665250755,1.10615326
 46,-2.4510092662\C,0,6.4612304558,0.5931111613,-0.3066071459\C,0,7.620
 4595839,-0.010121359,-1.1098979403\C,0,8.918183691,-0.0233074611,-0.20
 1331946\C,0,10.1837990044,-0.5431213838,-0.8781887894\C,0,10.057222422
 4,-2.0256635025,-1.2300664716\C,0,11.4761604929,-0.277641545,-0.003099
 4413\C,0,12.7669115989,-0.553949446,-0.706240647\C,0,13.9999594643,-0.
 1194731501,0.1285099185\C,0,15.3402101459,-0.2648102101,-0.4279310329\
 C,0,15.7213037993,-1.7027279066,-0.7954691646\C,0,16.4546495709,0.4032
 946895,0.4423187391\C,0,17.8716917586,0.5090723056,-0.1621820328\C,0,1
 8.7311234818,1.3486530823,0.7254829813\C,0,20.189287598,1.341974531,0.
 3235171149\C,0,20.3903603898,2.0403123284,-1.0351745102\C,0,21.0839493
 257,2.0029932356,1.3664220056\H,0,-3.7748789724,3.4731728387,1.5095255
 395\H,0,-10.1813185246,3.987779613,-0.4851039019\H,0,-10.3100942988,-2
 .3836377046,-1.3406407163\H,0,-2.3513915961,-0.9999983137,2.1805287441
 \H,0,-2.2285364588,1.6618097636,1.2329239428\H,0,-2.0542898865,1.06647
 71006,3.6824919627\H,0,-3.2890239624,2.3183558931,3.5895111165\H,0,-3.
 8711805608,0.553390023,3.7764200548\H,0,-2.0688393688,-1.5443043908,-0
 .1827521844\H,0,-2.0576074332,0.2032275732,-0.635173557\H,0,-0.3052340
 408,0.5144060545,1.087559155\H,0,0.079690167,-1.2026247777,1.115955550
 8\H,0,-5.8414529207,6.805919236,0.8087165809\H,0,-5.3406210515,5.46616
 99801,2.3906853656\H,0,-4.3198459406,5.5773689033,0.7790110767\H,0,-9.
 2030123537,5.7999261407,-0.4897292011\H,0,-9.3214933652,7.8587066096,0
 .5922388457\H,0,-7.8104805139,7.4553119307,1.8397723627\H,0,-12.419816
 0867,3.0075110771,-2.3380068054\H,0,-13.2558752567,1.8202459158,-1.619
 1931108\H,0,-12.3925309842,3.3251211668,-0.6091621602\H,0,-12.29503428
 18,-1.791368582,-1.0325382087\H,0,-13.3883175507,-0.1468414209,-1.2989
 15419\H,0,-13.3083271853,-1.6674214283,-3.4636262471\H,0,-12.256369201
 1,-0.0843429719,-3.897853281\H,0,-11.5351197913,-1.6119460617,-3.57259
 58796\H,0,-8.8773373367,-5.0349042333,-1.8474680109\H,0,-8.0979091557,
 -5.6160816124,-0.3131709301\H,0,-9.7515850434,-4.7545404753,-0.2823800
 606\H,0,-3.4640270986,-3.4217554262,-0.3112864001\H,0,-1.4168898555,-4
 .3533617759,3.3129942147\H,0,-2.7957391825,-4.9377753951,3.8665794968\
 H,0,-1.472525364,-5.9960788811,2.6327872316\H,0,2.7890082049,-1.600581
 8941,-1.5928832533\H,0,2.5413016078,-0.3285585763,-2.145727725\H,0,4.3
 2914382,-0.6658187971,0.5137745935\H,0,4.0856075243,1.2424129517,-2.75
 44138111\H,0,5.5240778195,2.0904293018,-2.3527217404\H,0,5.9375310607,
 0.6445055581,-3.1879875298\H,0,6.5204741103,1.6546694669,-0.1496723244
 \H,0,6.4431084302,-0.075095547,0.5816578825\H,0,7.4400613908,-1.004819
 7172,-1.4396752911\H,0,7.9285852944,0.6362468328,-2.013494273\H,0,9.27
 30093525,0.8907969647,0.2648241146\H,0,8.5251310018,-0.6622417304,0.55
 1132977\H,0,10.3029178432,0.1117437121,-1.6805929488\H,0,9.2525902445,
 -2.2331812946,-1.7874946743\H,0,10.908533409,-2.2919159755,-1.83562780
 67\H,0,10.1236052465,-2.6676387059,-0.237463186\H,0,11.3923269136,0.70
 69929295,0.4273342209\H,0,11.6150745609,-0.9485508164,0.8403946611\H,0
 ,12.7523085498,-1.7223203932,-0.9307707447\H,0,12.7557993324,-0.061995
 5086,-1.6648698483\H,0,13.8889103277,0.879190475,0.523749718\H,0,13.91
 35341065,-0.6878583905,1.1003465512\H,0,15.414994788,0.1820176868,-1.5
 012044784\H,0,15.5634937923,-2.3560859007,0.208249371\H,0,15.077470797
 8,-2.312683644,-1.3044878639\H,0,16.6891385433,-2.0746629912,-1.108552
 3247\H,0,16.0165968604,1.4057984135,0.7243389782\H,0,16.3870431515,-0.
 1199811732,1.3074335046\H,0,18.2838993286,-0.4179283402,-0.3740207425\
 H,0,17.6006471292,1.1807553944,-1.0231458904\H,0,18.2174425369,2.27253
 14108,0.991037109\H,0,18.7559427546,0.759150096,1.7277827786\H,0,20.54
 23691496,0.3763237806,-0.0013630723\H,0,20.203924499,3.1550890708,-0.9
 711007035\H,0,21.2779020423,2.1114077936,-1.1792392872\H,0,19.76781068
 55,1.5156333741,-1.8797349425\H,0,20.7256385391,1.3797460837,2.1910987
 271\H,0,22.1380455109,1.9767089006,1.2613110974\H,0,20.8218419141,3.07
 1127196,1.5203424747\\Version=ES64L-G09RevD.01\State=1-A\HF=-2932.6715
 113\RMSD=4.020e-09\PG=C01 [X(C55H72Mg1N4O5)]\\@


 ... THIS SEEMS PLAINLY ABSURD; BUT WHOEVER WISHES TO BECOME A 
 PHILOSOPHER MUST LEARN NOT TO BE FRIGHTENED BY ABSURDITIES.

                          -- BERTRAND RUSSELL
 Job cpu time:       0 days  6 hours 31 minutes 58.0 seconds.
 File lengths (MBytes):  RWF=   2106 Int=      0 D2E=      0 Chk=    163 Scr=      1
 Normal termination of Gaussian 09 at Wed Jul  3 03:16:02 2019.
