 Entering Gaussian System, Link 0=g16
 Input=Geometria-146-.com
 Output=Geometria-146-.log
 Initial command:
 /usr/local/g16/l1.exe "/home/padawan/israel-mol/chlorophyll-a/spectra/emi/Gau-29803.inp" -scrdir="/home/padawan/israel-mol/chlorophyll-a/spectra/emi/"
 Entering Link 1 = /usr/local/g16/l1.exe PID=     29805.
  
 Copyright (c) 1988,1990,1992,1993,1995,1998,2003,2009,2016,
            Gaussian, Inc.  All Rights Reserved.
  
 This is part of the Gaussian(R) 16 program.  It is based on
 the Gaussian(R) 09 system (copyright 2009, Gaussian, Inc.),
 the Gaussian(R) 03 system (copyright 2003, Gaussian, Inc.),
 the Gaussian(R) 98 system (copyright 1998, Gaussian, Inc.),
 the Gaussian(R) 94 system (copyright 1995, Gaussian, Inc.),
 the Gaussian 92(TM) system (copyright 1992, Gaussian, Inc.),
 the Gaussian 90(TM) system (copyright 1990, Gaussian, Inc.),
 the Gaussian 88(TM) system (copyright 1988, Gaussian, Inc.),
 the Gaussian 86(TM) system (copyright 1986, Carnegie Mellon
 University), and the Gaussian 82(TM) system (copyright 1983,
 Carnegie Mellon University). Gaussian is a federally registered
 trademark of Gaussian, Inc.
  
 This software contains proprietary and confidential information,
 including trade secrets, belonging to Gaussian, Inc.
  
 This software is provided under written license and may be
 used, copied, transmitted, or stored only in accord with that
 written license.
  
 The following legend is applicable only to US Government
 contracts under FAR:
  
                    RESTRICTED RIGHTS LEGEND
  
 Use, reproduction and disclosure by the US Government is
 subject to restrictions as set forth in subparagraphs (a)
 and (c) of the Commercial Computer Software - Restricted
 Rights clause in FAR 52.227-19.
  
 Gaussian, Inc.
 340 Quinnipiac St., Bldg. 40, Wallingford CT 06492
  
  
 ---------------------------------------------------------------
 Warning -- This program may not be used in any manner that
 competes with the business of Gaussian, Inc. or will provide
 assistance to any competitor of Gaussian, Inc.  The licensee
 of this program is prohibited from giving any competitor of
 Gaussian, Inc. access to this program.  By using this program,
 the user acknowledges that Gaussian, Inc. is engaged in the
 business of creating and licensing software in the field of
 computational chemistry and represents and warrants to the
 licensee that it is not a competitor of Gaussian, Inc. and that
 it will not use this program in any manner prohibited above.
 ---------------------------------------------------------------
  

 Cite this work as:
 Gaussian 16, Revision A.03,
 M. J. Frisch, G. W. Trucks, H. B. Schlegel, G. E. Scuseria, 
 M. A. Robb, J. R. Cheeseman, G. Scalmani, V. Barone, 
 G. A. Petersson, H. Nakatsuji, X. Li, M. Caricato, A. V. Marenich, 
 J. Bloino, B. G. Janesko, R. Gomperts, B. Mennucci, H. P. Hratchian, 
 J. V. Ortiz, A. F. Izmaylov, J. L. Sonnenberg, D. Williams-Young, 
 F. Ding, F. Lipparini, F. Egidi, J. Goings, B. Peng, A. Petrone, 
 T. Henderson, D. Ranasinghe, V. G. Zakrzewski, J. Gao, N. Rega, 
 G. Zheng, W. Liang, M. Hada, M. Ehara, K. Toyota, R. Fukuda, 
 J. Hasegawa, M. Ishida, T. Nakajima, Y. Honda, O. Kitao, H. Nakai, 
 T. Vreven, K. Throssell, J. A. Montgomery, Jr., J. E. Peralta, 
 F. Ogliaro, M. J. Bearpark, J. J. Heyd, E. N. Brothers, K. N. Kudin, 
 V. N. Staroverov, T. A. Keith, R. Kobayashi, J. Normand, 
 K. Raghavachari, A. P. Rendell, J. C. Burant, S. S. Iyengar, 
 J. Tomasi, M. Cossi, J. M. Millam, M. Klene, C. Adamo, R. Cammi, 
 J. W. Ochterski, R. L. Martin, K. Morokuma, O. Farkas, 
 J. B. Foresman, and D. J. Fox, Gaussian, Inc., Wallingford CT, 2016.
 
 ******************************************
 Gaussian 16:  ES64L-G16RevA.03 25-Dec-2016
                27-Jun-2019 
 ******************************************
 %nproc=4
 Will use up to    4 processors via shared memory.
 %Mem=2GB
 -------------------------------------
 # td=(NStates=1) CAM-B3LYP/6-31G(d,p)
 -------------------------------------
 1/38=1,172=1/1;
 2/12=2,17=6,18=5,40=1/2;
 3/5=1,6=6,7=101,11=9,25=1,30=1,74=-40/1,2,3,8;
 4//1;
 5/5=2,38=5/2;
 8/6=1,10=2,108=1/1;
 9/41=1,42=1,70=2/14;
 6/7=2,8=2,9=2,10=2/1;
 99/5=1,9=1/99;
 --
 TD
 --
 Symbolic Z-matrix:
 Charge =  0 Multiplicity = 1
 12                   -7.13496   0.67142   0.01294 
 6                    -4.79333  -1.9321    0.54897 
 6                    -4.75306   2.83775   1.03786 
 6                    -9.45408   3.06582  -0.34601 
 6                    -9.46962  -1.72285  -0.75688 
 7                    -5.11774   0.50117   0.5861 
 6                    -4.37224  -0.64517   0.63687 
 6                    -2.94405  -0.32605   1.18421 
 6                    -3.01361   1.20233   1.67498 
 6                    -4.38697   1.54406   1.06327 
 6                    -2.95031   1.28019   3.19339 
 6                    -1.90999  -0.5164   -0.01734 
 6                    -0.42049  -0.55896   0.52944 
 6                     0.57457  -0.64908  -0.60962 
 8                     0.26106  -0.87723  -1.76715 
 8                     1.84852  -0.41877  -0.18606 
 7                    -7.09972   2.54967   0.27463 
 6                    -6.03953   3.28616   0.717 
 6                    -6.50343   4.70585   0.78463 
 6                    -7.83613   4.78574   0.33119 
 6                    -8.14281   3.46031   0.10452 
 6                    -5.5498    5.78289   1.08499 
 6                    -8.63948   5.98997   0.22132 
 6                    -8.53211   7.18285   0.9495 
 7                    -9.19939   0.68117  -0.40313 
 6                    -9.97198   1.72975  -0.52928 
 6                    -11.19023   1.42761  -1.12806 
 6                    -11.28406   0.10154  -1.30413 
 6                    -10.03036  -0.37336  -0.77936 
 6                    -12.23391   2.55439  -1.48055 
 6                    -12.27714  -0.88826  -1.83825 
 6                    -12.11288  -1.13045  -3.35362 
 7                    -7.22029  -1.41225  -0.10574 
 6                    -8.24481  -2.24289  -0.5047 
 6                    -7.87626  -3.63069  -0.37991 
 6                    -6.55005  -3.52229  -0.09885 
 6                    -6.1854   -2.15042   0.20345 
 6                    -8.70649  -4.81871  -0.66621 
 6                    -5.28443  -4.24021   0.15059 
 8                    -5.10989  -5.464     0.12151 
 6                    -4.17443  -3.20683   0.58142 
 6                    -3.49871  -3.57171   1.8586 
 8                    -3.68503  -3.18986   3.07978 
 8                    -2.56019  -4.62369   1.65405 
 6                    -1.85458  -5.07767   2.93226 
 6                     2.78496  -0.60117  -1.29346 
 6                     4.1629   -0.46323  -0.61086 
 6                     5.17685   0.33266  -0.99592 
 6                     5.0649    1.36491  -2.08113 
 6                     6.43047   0.29199  -0.16404 
 6                     7.61138  -0.26734  -0.9258 
 6                     8.83975  -0.26903  -0.14302 
 6                     10.08861  -0.76644  -0.81189 
 6                     9.98635  -2.33504  -1.22018 
 6                     11.32477  -0.50783  -0.03744 
 6                     12.79726  -0.65923  -0.64696 
 6                     14.058   -0.14994   0.21799 
 6                     15.40763  -0.21146  -0.43104 
 6                     15.74518  -1.68632  -0.88661 
 6                     16.35795   0.52703   0.5055 
 6                     17.77273   0.52447  -0.00732 
 6                     18.79368   1.27215   0.78977 
 6                     20.19302   1.41616   0.13392 
 6                     20.11592   2.19666  -1.1739 
 6                     21.14441   2.11737   1.1938 
 1                    -4.08524   3.43496   1.46807 
 1                    -10.19973   3.78306  -0.34704 
 1                    -10.1613  -2.52687  -1.20636 
 1                    -2.38675  -1.0615    1.8829 
 1                    -2.34895   1.83542   1.02566 
 1                    -2.05657   1.09291   3.71746 
 1                    -3.20644   2.36416   3.53361 
 1                    -3.59648   0.57126   3.6385 
 1                    -2.0232   -1.60342  -0.45718 
 1                    -1.78925   0.30228  -0.76587 
 1                    -0.14232   0.47107   0.99189 
 1                    -0.28839  -1.17054   1.37272 
 1                    -5.56475   6.58618   0.311 
 1                    -5.61728   6.11911   2.03602 
 1                    -4.47209   5.35503   0.82126 
 1                    -9.67321   5.97328  -0.33898 
 1                    -9.2861    7.88476   0.7183 
 1                    -7.73333   7.35505   1.72529 
 1                    -12.09456   3.23357  -2.23859 
 1                    -13.09705   2.16272  -1.65113 
 1                    -12.38838   3.3205   -0.65838 
 1                    -12.32022  -1.6263   -1.189 
 1                    -13.24242  -0.38819  -1.53763 
 1                    -12.98333  -1.7793   -3.77243 
 1                    -12.11005  -0.14649  -3.96604 
 1                    -11.15133  -1.65288  -3.368 
 1                    -9.34923  -4.64749  -1.56187 
 1                    -8.0157   -5.74077  -0.87809 
 1                    -9.34334  -4.96138   0.35524 
 1                    -3.2193   -3.33529  -0.22586 
 1                    -1.3054   -4.28413   3.24997 
 1                    -2.6406   -5.3011    3.50082 
 1                    -1.1939   -5.88322   2.48446 
 1                     2.70967  -1.50656  -1.58589 
 1                     2.45761   0.16705  -2.01466 
 1                     4.17925  -1.28951   0.19131 
 1                     4.17037   1.79331  -2.37503 
 1                     5.47895   2.30713  -1.6634 
 1                     5.69771   1.05536  -2.92333 
 1                     6.91305   1.21943   0.24913 
 1                     6.25175  -0.52479   0.78043 
 1                     7.45123  -1.29442  -1.44111 
 1                     7.5876    0.26292  -1.79971 
 1                     9.07541   0.7681    0.29088 
 1                     8.7923   -0.96262   0.59808 
 1                     10.24037  -0.34519  -1.78104 
 1                     9.23645  -2.38798  -2.10223 
 1                     11.12696  -2.68064  -1.662 
 1                     9.64434  -2.74179  -0.30704 
 1                     11.45538   0.50566   0.32557 
 1                     11.26098  -1.1595    0.73928 
 1                     12.95318  -1.83105  -0.80406 
 1                     13.08954   0.00883  -1.4229 
 1                     13.8755   1.00772   0.32052 
 1                     13.74388  -0.68334   1.13436 
 1                     15.17116   0.31086  -1.53094 
 1                     15.91536  -2.26936   0.01858 
 1                     14.97104  -2.23132  -1.51202 
 1                     16.50703  -1.66725  -1.64215 
 1                     15.85656   1.57725   0.79013 
 1                     16.16121  -0.0266    1.55157 
 1                     18.14875  -0.55715  -0.16081 
 1                     17.64421   1.04055  -1.00257 
 1                     18.35535   2.1759    0.98787 
 1                     18.93353   0.76864   1.83057 
 1                     20.73497   0.40018   0.07192 
 1                     19.7768   3.23818  -0.92343 
 1                     21.19261   2.27196  -1.66262 
 1                     19.72746   1.91957  -2.06917 
 1                     20.95293   1.62476   2.19352 
 1                     22.17876   2.04347   0.81722 
 1                     20.84047   3.12692   1.47917 
 
 Stoichiometry    C55H72MgN4O5
 Framework group  C1[X(C55H72MgN4O5)]
 Deg. of freedom   405
 Full point group                 C1      NOp   1
 Largest Abelian subgroup         C1      NOp   1
 Largest concise Abelian subgroup C1      NOp   1
                         Standard orientation:                         
 ---------------------------------------------------------------------
 Center     Atomic      Atomic             Coordinates (Angstroms)
 Number     Number       Type             X           Y           Z
 ---------------------------------------------------------------------
      1         12           0       -7.138152    0.654833    0.010351
      2          6           0       -4.790304   -1.940712    0.557744
      3          6           0       -4.760931    2.831461    1.024293
      4          6           0       -9.462940    3.042148   -0.358987
      5          6           0       -9.467501   -1.748416   -0.747444
      6          7           0       -5.120340    0.491951    0.583598
      7          6           0       -4.372166   -0.652411    0.639474
      8          6           0       -2.944542   -0.327419    1.184814
      9          6           0       -3.017484    1.203081    1.668451
     10          6           0       -4.391831    1.538750    1.055632
     11          6           0       -2.953848    1.288190    3.186460
     12          6           0       -1.910450   -0.520986   -0.016189
     13          6           0       -0.420665   -0.557535    0.530259
     14          6           0        0.574214   -0.650675   -0.608707
     15          8           0        0.260842   -0.884972   -1.765054
     16          8           0        1.847767   -0.415432   -0.186672
     17          7           0       -7.107179    2.534368    0.263234
     18          6           0       -6.048555    3.275377    0.701782
     19          6           0       -6.515720    4.694293    0.762934
     20          6           0       -7.848754    4.768963    0.309592
     21          6           0       -8.152436    3.441775    0.089235
     22          6           0       -5.564497    5.774932    1.057922
     23          6           0       -8.654939    5.970800    0.194366
     24          6           0       -8.550088    7.167325    0.916921
     25          7           0       -9.202737    0.657852   -0.405043
     26          6           0       -9.977803    1.704038   -0.535824
     27          6           0      -11.195545    1.396272   -1.132764
     28          6           0      -11.286359    0.069173   -1.302589
     29          6           0      -10.031381   -0.400352   -0.776043
     30          6           0      -12.241961    2.518961   -1.490159
     31          6           0      -12.277321   -0.925409   -1.831730
     32          6           0      -12.113008   -1.174306   -3.346004
     33          7           0       -7.218683   -1.429559   -0.098542
     34          6           0       -8.241410   -2.264429   -0.493253
     35          6           0       -7.869597   -3.650774   -0.362099
     36          6           0       -6.543542   -3.537979   -0.082018
     37          6           0       -6.181977   -2.163874    0.213737
     38          6           0       -8.697158   -4.842046   -0.642547
     39          6           0       -5.276179   -4.251787    0.170337
     40          8           0       -5.098806   -5.475295    0.146924
     41          6           0       -4.168433   -3.213829    0.595939
     42          6           0       -3.491436   -3.571165    1.874575
     43          8           0       -3.678229   -3.184031    3.094024
     44          8           0       -2.550543   -4.621906    1.674631
     45          6           0       -1.843448   -5.068266    2.954699
     46          6           0        2.784258   -0.600839   -1.293538
     47          6           0        4.162102   -0.456517   -0.612073
     48          6           0        5.174075    0.339916   -1.001204
     49          6           0        5.059367    1.366813   -2.091197
     50          6           0        6.428063    0.306049   -0.169584
     51          6           0        7.610012   -0.254098   -0.929127
     52          6           0        8.838644   -0.249280   -0.146772
     53          6           0       10.088433   -0.746919   -0.813749
     54          6           0        9.989672   -2.317646   -1.214652
     55          6           0       11.324247   -0.481821   -0.040949
     56          6           0       12.796888   -0.632652   -0.650270
     57          6           0       14.056725   -0.116393    0.211852
     58          6           0       15.406276   -0.177828   -0.437354
     59          6           0       15.747094   -1.654008   -0.886133
     60          6           0       16.355199    0.567242    0.495385
     61          6           0       17.769810    0.565570   -0.017903
     62          6           0       18.789289    1.319330    0.775320
     63          6           0       20.188067    1.463520    0.118314
     64          6           0       20.108719    2.237706   -1.193114
     65          6           0       21.138183    2.171891    1.174576
     66          1           0       -4.094359    3.432222    1.451472
     67          1           0      -10.210253    3.757640   -0.363116
     68          1           0      -10.157467   -2.556137   -1.192910
     69          1           0       -2.385292   -1.058299    1.886744
     70          1           0       -2.354509    1.834659    1.015948
     71          1           0       -2.059498    1.105438    3.711084
     72          1           0       -3.212374    2.373144    3.521688
     73          1           0       -3.598223    0.579856    3.635103
     74          1           0       -2.021285   -1.610316   -0.450900
     75          1           0       -1.791859    0.294454   -0.768583
     76          1           0       -0.144729    0.475292    0.987790
     77          1           0       -0.286858   -1.164855    1.376350
     78          1           0       -5.581565    6.574551    0.280181
     79          1           0       -5.632431    6.115437    2.007389
     80          1           0       -4.485884    5.348339    0.795814
     81          1           0       -9.688815    5.949094   -0.365492
     82          1           0       -9.305786    7.866390    0.682702
     83          1           0       -7.751453    7.345004    1.691618
     84          1           0      -12.104445    3.194915   -2.251410
     85          1           0      -13.104244    2.124500   -1.658595
     86          1           0      -12.397929    3.288555   -0.671521
     87          1           0      -12.318463   -1.660506   -1.179018
     88          1           0      -13.243658   -0.426177   -1.533112
     89          1           0      -12.982097   -1.827133   -3.761466
     90          1           0      -12.112675   -0.193223   -3.963022
     91          1           0      -11.150256   -1.694570   -3.358269
     92          1           0       -9.340603   -4.676502   -1.538778
     93          1           0       -8.004304   -5.763483   -0.850353
     94          1           0       -9.333336   -4.981407    0.379780
     95          1           0       -3.213282   -3.343851   -0.211060
     96          1           0       -1.296007   -4.271979    3.268500
     97          1           0       -2.628763   -5.290855    3.524577
     98          1           0       -1.181053   -5.874364    2.510447
     99          1           0        2.710971   -1.507765   -1.581704
    100          1           0        2.454885    0.163235   -2.018215
    101          1           0        4.180642   -1.278990    0.193953
    102          1           0        4.163736    1.791756   -2.386780
    103          1           0        5.471368    2.311937   -1.678025
    104          1           0        5.692601    1.054791   -2.932158
    105          1           0        6.908635    1.236524    0.239074
    106          1           0        6.251561   -0.506716    0.778761
    107          1           0        7.452076   -1.283948   -1.439565
    108          1           0        7.584709    0.272007   -1.805503
    109          1           0        9.072047    0.790420    0.282180
    110          1           0        8.793057   -0.939502    0.597575
    111          1           0       10.238890   -0.329856   -1.784913
    112          1           0        9.239602   -2.376445   -2.096184
    113          1           0       11.130932   -2.662664   -1.655253
    114          1           0        9.648918   -2.720902   -0.299504
    115          1           0       11.452635    0.533664    0.317275
    116          1           0       11.262236   -1.129992    0.738841
    117          1           0       12.955468   -1.804831   -0.801932
    118          1           0       13.087352    0.032447   -1.429420
    119          1           0       13.871577    1.041308    0.309027
    120          1           0       13.744155   -0.646227    1.130818
    121          1           0       15.168227    0.338794   -1.539600
    122          1           0       15.918935   -2.232410    0.021715
    123          1           0       14.974014   -2.203723   -1.508716
    124          1           0       16.508647   -1.636713   -1.642016
    125          1           0       15.851470    1.617615    0.775273
    126          1           0       16.160099    0.018060    1.544105
    127          1           0       18.148281   -0.515888   -0.166464
    128          1           0       17.639756    1.076684   -1.015519
    129          1           0       18.348926    2.222984    0.969339
    130          1           0       18.930660    0.821028    1.818419
    131          1           0       20.732354    0.448515    0.060886
    132          1           0       19.767266    3.279597   -0.947399
    133          1           0       21.185067    2.313221   -1.682555
    134          1           0       19.720595    1.955535   -2.086947
    135          1           0       20.948190    1.683518    2.176651
    136          1           0       22.172578    2.098619    0.797977
    137          1           0       20.832005    3.182056    1.455318
 ---------------------------------------------------------------------
 Rotational constants (GHZ):           0.0654972           0.0061055           0.0057550
 Standard basis: 6-31G(d,p) (6D, 7F)
 There are  1339 symmetry adapted cartesian basis functions of A   symmetry.
 There are  1339 symmetry adapted basis functions of A   symmetry.
  1339 basis functions,  2348 primitive gaussians,  1339 cartesian basis functions
   241 alpha electrons      241 beta electrons
       nuclear repulsion energy      8754.5031874596 Hartrees.
 NAtoms=  137 NActive=  137 NUniq=  137 SFac= 1.00D+00 NAtFMM=   60 NAOKFM=T Big=T
 Integral buffers will be    131072 words long.
 Raffenetti 1 integral format.
 Two-electron integral symmetry is turned on.
 One-electron integrals computed using PRISM.
