 Entering Gaussian System, Link 0=g16
 Input=Geometria-130-.com
 Output=Geometria-130-.log
 Initial command:
 /usr/local/g16/l1.exe "/home/padawan/israel-mol/chlorophyll-a/spectra/emi/Gau-61658.inp" -scrdir="/home/padawan/israel-mol/chlorophyll-a/spectra/emi/"
 Entering Link 1 = /usr/local/g16/l1.exe PID=     61660.
  
 Copyright (c) 1988,1990,1992,1993,1995,1998,2003,2009,2016,
            Gaussian, Inc.  All Rights Reserved.
  
 This is part of the Gaussian(R) 16 program.  It is based on
 the Gaussian(R) 09 system (copyright 2009, Gaussian, Inc.),
 the Gaussian(R) 03 system (copyright 2003, Gaussian, Inc.),
 the Gaussian(R) 98 system (copyright 1998, Gaussian, Inc.),
 the Gaussian(R) 94 system (copyright 1995, Gaussian, Inc.),
 the Gaussian 92(TM) system (copyright 1992, Gaussian, Inc.),
 the Gaussian 90(TM) system (copyright 1990, Gaussian, Inc.),
 the Gaussian 88(TM) system (copyright 1988, Gaussian, Inc.),
 the Gaussian 86(TM) system (copyright 1986, Carnegie Mellon
 University), and the Gaussian 82(TM) system (copyright 1983,
 Carnegie Mellon University). Gaussian is a federally registered
 trademark of Gaussian, Inc.
  
 This software contains proprietary and confidential information,
 including trade secrets, belonging to Gaussian, Inc.
  
 This software is provided under written license and may be
 used, copied, transmitted, or stored only in accord with that
 written license.
  
 The following legend is applicable only to US Government
 contracts under FAR:
  
                    RESTRICTED RIGHTS LEGEND
  
 Use, reproduction and disclosure by the US Government is
 subject to restrictions as set forth in subparagraphs (a)
 and (c) of the Commercial Computer Software - Restricted
 Rights clause in FAR 52.227-19.
  
 Gaussian, Inc.
 340 Quinnipiac St., Bldg. 40, Wallingford CT 06492
  
  
 ---------------------------------------------------------------
 Warning -- This program may not be used in any manner that
 competes with the business of Gaussian, Inc. or will provide
 assistance to any competitor of Gaussian, Inc.  The licensee
 of this program is prohibited from giving any competitor of
 Gaussian, Inc. access to this program.  By using this program,
 the user acknowledges that Gaussian, Inc. is engaged in the
 business of creating and licensing software in the field of
 computational chemistry and represents and warrants to the
 licensee that it is not a competitor of Gaussian, Inc. and that
 it will not use this program in any manner prohibited above.
 ---------------------------------------------------------------
  

 Cite this work as:
 Gaussian 16, Revision A.03,
 M. J. Frisch, G. W. Trucks, H. B. Schlegel, G. E. Scuseria, 
 M. A. Robb, J. R. Cheeseman, G. Scalmani, V. Barone, 
 G. A. Petersson, H. Nakatsuji, X. Li, M. Caricato, A. V. Marenich, 
 J. Bloino, B. G. Janesko, R. Gomperts, B. Mennucci, H. P. Hratchian, 
 J. V. Ortiz, A. F. Izmaylov, J. L. Sonnenberg, D. Williams-Young, 
 F. Ding, F. Lipparini, F. Egidi, J. Goings, B. Peng, A. Petrone, 
 T. Henderson, D. Ranasinghe, V. G. Zakrzewski, J. Gao, N. Rega, 
 G. Zheng, W. Liang, M. Hada, M. Ehara, K. Toyota, R. Fukuda, 
 J. Hasegawa, M. Ishida, T. Nakajima, Y. Honda, O. Kitao, H. Nakai, 
 T. Vreven, K. Throssell, J. A. Montgomery, Jr., J. E. Peralta, 
 F. Ogliaro, M. J. Bearpark, J. J. Heyd, E. N. Brothers, K. N. Kudin, 
 V. N. Staroverov, T. A. Keith, R. Kobayashi, J. Normand, 
 K. Raghavachari, A. P. Rendell, J. C. Burant, S. S. Iyengar, 
 J. Tomasi, M. Cossi, J. M. Millam, M. Klene, C. Adamo, R. Cammi, 
 J. W. Ochterski, R. L. Martin, K. Morokuma, O. Farkas, 
 J. B. Foresman, and D. J. Fox, Gaussian, Inc., Wallingford CT, 2016.
 
 ******************************************
 Gaussian 16:  ES64L-G16RevA.03 25-Dec-2016
                 7-Sep-2019 
 ******************************************
 %nproc=4
 Will use up to    4 processors via shared memory.
 %Mem=3GB
 ----------------------------------------------------------------------
 # td=(NStates=1) iop(3/107=0140000000,3/108=0140000000) CAM-B3LYP/6-31
 G(d,p)
 ----------------------------------------------------------------------
 1/38=1,172=1/1;
 2/12=2,17=6,18=5,40=1/2;
 3/5=1,6=6,7=101,11=9,25=1,30=1,74=-40,107=140000000,108=140000000/1,2,3,8;
 4//1;
 5/5=2,38=5/2;
 8/6=1,10=2,108=1/1;
 9/41=1,42=1,70=2/14;
 6/7=2,8=2,9=2,10=2/1;
 99/5=1,9=1/99;
 --
 TD
 --
 Symbolic Z-matrix:
 Charge =  0 Multiplicity = 1
 12                   -7.09016   0.59556   0.07334 
 6                    -4.81362  -1.93883   0.54072 
 6                    -4.78613   2.84811   1.15263 
 6                    -9.42647   3.15382  -0.46052 
 6                    -9.4562   -1.64514  -0.98409 
 7                    -5.07819   0.38029   0.7674 
 6                    -4.34908  -0.64249   0.85429 
 6                    -2.88647  -0.37491   1.26471 
 6                    -3.05298   1.09554   1.75675 
 6                    -4.3264    1.47608   1.29054 
 6                    -3.03913   1.28188   3.20777 
 6                    -1.96231  -0.58387   0.08895 
 6                    -0.49427  -0.53315   0.61671 
 6                     0.45861  -0.6364   -0.53665 
 8                     0.2089   -0.82342  -1.74338 
 8                     1.79229  -0.38319  -0.24698 
 7                    -7.07629   2.58187   0.32837 
 6                    -6.06022   3.35007   0.72881 
 6                    -6.3905    4.74481   0.73011 
 6                    -7.70058   4.86652   0.32131 
 6                    -8.08975   3.45088   0.02604 
 6                    -5.31093   5.86984   1.09719 
 6                    -8.49738   6.06261   0.18178 
 6                    -8.3165    7.28072   0.65312 
 7                    -9.14924   0.79192  -0.58393 
 6                    -9.82138   1.92423  -0.70796 
 6                    -11.20356   1.46442  -1.07017 
 6                    -11.18212   0.12028  -1.25142 
 6                    -9.87631  -0.25233  -1.02245 
 6                    -12.36519   2.48863  -1.23686 
 6                    -12.32418  -0.74184  -1.65906 
 6                    -12.39474  -1.01931  -3.19045 
 7                    -7.22818  -1.37704  -0.07471 
 6                    -8.13856  -2.23452  -0.6212 
 6                    -7.78826  -3.59443  -0.54603 
 6                    -6.45691  -3.57326  -0.07173 
 6                    -6.15499  -2.2404    0.14671 
 6                    -8.63178  -4.79045  -0.91611 
 6                    -5.30004  -4.38148   0.22346 
 8                    -5.176    -5.60588   0.199 
 6                    -4.10146  -3.27636   0.57224 
 6                    -3.44928  -3.72747   1.85493 
 8                    -3.82645  -3.233     2.94339 
 8                    -2.7033   -4.77751   1.73923 
 6                    -2.11602  -5.31955   2.83553 
 6                     2.83417  -0.59615  -1.17134 
 6                     4.13568  -0.43572  -0.55683 
 6                     5.13726   0.34448  -1.00994 
 6                     5.09337   1.28093  -2.21803 
 6                     6.38805   0.34329  -0.21253 
 6                     7.62868  -0.1927   -1.0584 
 6                     8.85281  -0.26874  -0.13355 
 6                     10.20196  -0.74266  -0.8483 
 6                     10.16193  -2.25548  -1.37112 
 6                     11.42119  -0.45629   0.02613 
 6                     12.66803  -0.68057  -0.59741 
 6                     13.95257  -0.25656   0.29237 
 6                     15.29438  -0.16274  -0.49517 
 6                     15.60116  -1.62356  -0.91661 
 6                     16.36872   0.3361    0.53663 
 6                     17.73607   0.62101  -0.05699 
 6                     18.74579   1.31203   0.82327 
 6                     20.14548   1.52563   0.17525 
 6                     20.07522   2.15919  -1.24101 
 6                     21.15647   2.15043   1.19729 
 1                    -4.10771   3.5559    1.58847 
 1                    -9.9616    4.01562  -0.71794 
 1                    -10.28255  -2.48361  -1.2156 
 1                    -2.56911  -1.10133   1.97679 
 1                    -2.28078   1.5491    1.29258 
 1                    -1.90851   1.28597   3.66634 
 1                    -3.51778   2.3108    3.54624 
 1                    -4.00703   0.49186   3.72036 
 1                    -2.35818  -1.63896  -0.3771 
 1                    -2.08748   0.08517  -0.70841 
 1                    -0.20347   0.41937   1.20588 
 1                    -0.32027  -1.31474   1.40911 
 1                    -5.56685   6.61124   0.29391 
 1                    -5.27458   6.29933   2.09819 
 1                    -4.29908   5.49546   1.01523 
 1                    -9.18679   6.00835  -0.52067 
 1                    -9.0549    7.91483   0.39812 
 1                    -7.412     7.48865   1.24552 
 1                    -12.33235   3.08141  -2.07556 
 1                    -13.15598   1.77289  -1.42258 
 1                    -12.48799   2.84202  -0.31339 
 1                    -12.41466  -1.62805  -1.03673 
 1                    -13.3373  -0.10387  -1.2056 
 1                    -13.12334  -1.71145  -3.57118 
 1                    -12.55672  -0.12694  -3.86925 
 1                    -11.34121  -1.72308  -3.29478 
 1                    -8.91904  -4.99313  -1.96995 
 1                    -7.96755  -5.71117  -0.41692 
 1                    -9.69236  -4.87757  -0.42084 
 1                    -3.37919  -3.35494  -0.13286 
 1                    -1.42597  -4.72416   3.22986 
 1                    -2.89094  -5.6143    3.51517 
 1                    -1.58355  -6.32498   2.35687 
 1                     2.74107  -1.64596  -1.55666 
 1                     2.83883  -0.01407  -1.97696 
 1                     4.23044  -1.1235    0.27433 
 1                     4.09974   1.18402  -2.60384 
 1                     5.11346   2.2423   -1.88311 
 1                     5.70448   0.97981  -3.13666 
 1                     6.78487   1.22964   0.19461 
 1                     6.06544  -0.20952   0.72576 
 1                     7.3837   -1.18397  -1.39289 
 1                     7.75437   0.66575  -1.83707 
 1                     9.14112   0.54804   0.42672 
 1                     8.75639  -0.91561   0.72435 
 1                     10.38679  -0.15797  -1.76915 
 1                     9.26213  -2.37862  -1.8494 
 1                     10.96227  -2.54305  -1.908 
 1                     10.09285  -2.83709  -0.44917 
 1                     11.55595   0.50838   0.66772 
 1                     11.18565  -1.05726   0.77539 
 1                     12.81823  -1.63539  -0.81781 
 1                     12.95131   0.06198  -1.35958 
 1                     13.61289   0.71172   0.56913 
 1                     14.199   -0.81267   1.13043 
 1                     15.35783   0.4127   -1.44424 
 1                     15.80682  -2.22683   0.08645 
 1                     14.98476  -2.19132  -1.55445 
 1                     16.6104  -1.55227  -1.48136 
 1                     15.96236   1.28927   0.91179 
 1                     16.35463  -0.29239   1.42272 
 1                     17.97173  -0.38524  -0.31929 
 1                     17.47748   1.24087  -1.03101 
 1                     18.37303   2.29344   1.08096 
 1                     18.87403   0.72299   1.77658 
 1                     20.33044   0.45627  -0.18296 
 1                     19.80771   3.30078  -0.99277 
 1                     21.20369   2.12317  -1.5319 
 1                     19.31187   1.80794  -1.98224 
 1                     21.10702   1.36308   2.06588 
 1                     22.02577   2.23459   0.71815 
 1                     20.75561   2.95493   1.66256 
 
 Stoichiometry    C55H72MgN4O5
 Framework group  C1[X(C55H72MgN4O5)]
 Deg. of freedom   405
 Full point group                 C1      NOp   1
 Largest Abelian subgroup         C1      NOp   1
 Largest concise Abelian subgroup C1      NOp   1
                         Standard orientation:                         
 ---------------------------------------------------------------------
 Center     Atomic      Atomic             Coordinates (Angstroms)
 Number     Number       Type             X           Y           Z
 ---------------------------------------------------------------------
      1         12           0       -7.089330    0.590138    0.076798
      2          6           0       -4.809614   -1.943411    0.533133
      3          6           0       -4.787587    2.841054    1.164345
      4          6           0       -9.428861    3.147760   -0.445905
      5          6           0       -9.453089   -1.649079   -0.988826
      6          7           0       -5.076858    0.374465    0.769271
      7          6           0       -4.346496   -0.647790    0.851772
      8          6           0       -2.884065   -0.380132    1.262748
      9          6           0       -3.052136    1.088115    1.760778
     10          6           0       -4.326179    1.469025    1.296561
     11          6           0       -3.037987    1.268617    3.212528
     12          6           0       -1.960078   -0.583256    0.085827
     13          6           0       -0.491903   -0.532915    0.613259
     14          6           0        0.460677   -0.630381   -0.540845
     15          8           0        0.210759   -0.812822   -1.748230
     16          8           0        1.794160   -0.376757   -0.250625
     17          7           0       -7.077717    2.575421    0.339839
     18          6           0       -6.062416    3.343202    0.743010
     19          6           0       -6.394357    4.737535    0.750060
     20          6           0       -7.704729    4.859335    0.342216
     21          6           0       -8.092319    3.444440    0.041375
     22          6           0       -5.315990    5.862351    1.121293
     23          6           0       -8.502992    6.055029    0.207798
     24          6           0       -8.323388    7.271442    0.683987
     25          7           0       -9.148879    0.786701   -0.578952
     26          6           0       -9.822402    1.918703   -0.698170
     27          6           0      -11.204170    1.458718   -1.061741
     28          6           0      -11.181194    0.115350   -1.248416
     29          6           0       -9.874858   -0.256625   -1.021424
     30          6           0      -12.367067    2.482220   -1.223885
     31          6           0      -12.322376   -0.746473   -1.659127
     32          6           0      -12.393162   -1.017846   -3.191604
     33          7           0       -7.225056   -1.382011   -0.079167
     34          6           0       -8.134617   -2.238359   -0.628794
     35          6           0       -7.782679   -3.598142   -0.559239
     36          6           0       -6.451187   -3.577306   -0.085325
     37          6           0       -6.150766   -2.244982    0.138382
     38          6           0       -8.624908   -4.793655   -0.933844
     39          6           0       -5.293245   -4.385337    0.206187
     40          8           0       -5.167765   -5.609476    0.176740
     41          6           0       -4.095861   -3.280204    0.558997
     42          6           0       -3.442679   -3.735718    1.839631
     43          8           0       -3.820041   -3.246093    2.930208
     44          8           0       -2.695493   -4.784392    1.719430
     45          6           0       -2.107181   -5.330154    2.813323
     46          6           0        2.835961   -0.584746   -1.176208
     47          6           0        4.137506   -0.425253   -0.561515
     48          6           0        5.137991    0.357958   -1.011833
     49          6           0        5.092560    1.299218   -2.216110
     50          6           0        6.389064    0.355040   -0.214876
     51          6           0        7.630034   -0.176061   -1.063337
     52          6           0        8.854585   -0.254380   -0.139239
     53          6           0       10.204032   -0.723806   -0.856376
     54          6           0       10.165612   -2.234557   -1.385288
     55          6           0       11.423237   -0.439524    0.018775
     56          6           0       12.670125   -0.659802   -0.606110
     57          6           0       13.954473   -0.237864    0.284911
     58          6           0       15.295887   -0.139267   -0.502710
     59          6           0       15.604249   -1.598014   -0.930160
     60          6           0       16.370013    0.356676    0.530707
     61          6           0       17.736808    0.645599   -0.062244
     62          6           0       18.746028    1.334263    0.820437
     63          6           0       20.145223    1.552142    0.172797
     64          6           0       20.073705    2.191330   -1.240873
     65          6           0       21.155842    2.174007    1.196991
     66          1           0       -4.109847    3.547880    1.602807
     67          1           0       -9.965105    4.009957   -0.699652
     68          1           0      -10.278528   -2.487596   -1.223430
     69          1           0       -2.565587   -1.109047    1.971780
     70          1           0       -2.280645    1.544460    1.298170
     71          1           0       -1.907211    1.272195    3.670710
     72          1           0       -3.517734    2.295592    3.555324
     73          1           0       -4.004768    0.475389    3.722276
     74          1           0       -2.354863   -1.636926   -0.384336
     75          1           0       -2.086321    0.088848   -0.708782
     76          1           0       -0.202021    0.417562    1.206175
     77          1           0       -0.316696   -1.317495    1.402445
     78          1           0       -5.573076    6.606685    0.321102
     79          1           0       -5.279785    6.287847    2.124007
     80          1           0       -4.303728    5.489514    1.037466
     81          1           0       -9.192589    6.002793   -0.494622
     82          1           0       -9.062636    7.905702    0.431811
     83          1           0       -7.418921    7.478052    1.276905
     84          1           0      -12.335238    3.078412   -2.060197
     85          1           0      -13.157080    1.766288   -1.412206
     86          1           0      -12.489957    2.831731   -0.298951
     87          1           0      -12.411588   -1.635298   -1.040349
     88          1           0      -13.336088   -0.111545   -1.202737
     89          1           0      -13.121074   -1.709312   -3.574864
     90          1           0      -12.556440   -0.122936   -3.866735
     91          1           0      -11.338833   -1.719939   -3.299145
     92          1           0       -8.912307   -4.992422   -1.988390
     93          1           0       -7.959412   -5.715595   -0.438607
     94          1           0       -9.685213   -4.884034   -0.438553
     95          1           0       -3.373743   -3.355087   -0.146667
     96          1           0       -1.417691   -4.735549    3.209812
     97          1           0       -2.881501   -5.628569    3.492044
     98          1           0       -1.573689   -6.333017    2.330418
     99          1           0        2.743971   -1.633106   -1.565725
    100          1           0        2.839642    0.000580   -1.979472
    101          1           0        4.233380   -1.116271    0.266826
    102          1           0        4.098899    1.202694   -2.601960
    103          1           0        5.111625    2.259261   -1.877319
    104          1           0        5.703693    1.002538   -3.136169
    105          1           0        6.784981    1.240208    0.195698
    106          1           0        6.067457   -0.201939    0.721290
    107          1           0        7.386106   -1.166264   -1.401746
    108          1           0        7.754419    0.685667   -1.838589
    109          1           0        9.142124    0.560477    0.424215
    110          1           0        8.759237   -0.904822    0.716075
    111          1           0       10.387844   -0.135189   -1.774926
    112          1           0        9.265783   -2.356828   -1.863741
    113          1           0       10.966095   -2.519002   -1.923600
    114          1           0       10.097556   -2.819960   -0.465666
    115          1           0       11.557083    0.522706    0.664205
    116          1           0       11.188679   -1.043789    0.765686
    117          1           0       12.821374   -1.613548   -0.830422
    118          1           0       12.952246    0.086153   -1.365380
    119          1           0       13.613751    0.728885    0.565704
    120          1           0       14.201866   -0.797055    1.120632
    121          1           0       15.358313    0.440074   -1.449473
    122          1           0       15.810993   -2.205084    0.070387
    123          1           0       14.988297   -2.163930   -1.570061
    124          1           0       16.613203   -1.523242   -1.494977
    125          1           0       15.962654    1.307838    0.909854
    126          1           0       16.356983   -0.275397    1.414260
    127          1           0       17.973570   -0.359294   -0.328687
    128          1           0       17.477127    1.269084   -1.033659
    129          1           0       18.372188    2.314183    1.082223
    130          1           0       18.875308    0.741531    1.771322
    131          1           0       20.331328    0.484451   -0.189799
    132          1           0       19.804927    3.331588   -0.987935
    133          1           0       21.202116    2.157824   -1.532308
    134          1           0       19.310505    1.842165   -1.983241
    135          1           0       21.107642    1.383105    2.062410
    136          1           0       22.024869    2.261140    0.717881
    137          1           0       20.754190    2.976151    1.665646
 ---------------------------------------------------------------------
 Rotational constants (GHZ):           0.0639361           0.0061305           0.0057659
 Standard basis: 6-31G(d,p) (6D, 7F)
 There are  1339 symmetry adapted cartesian basis functions of A   symmetry.
 There are  1339 symmetry adapted basis functions of A   symmetry.
  1339 basis functions,  2348 primitive gaussians,  1339 cartesian basis functions
   241 alpha electrons      241 beta electrons
       nuclear repulsion energy      8754.2469178174 Hartrees.
 NAtoms=  137 NActive=  137 NUniq=  137 SFac= 1.00D+00 NAtFMM=   60 NAOKFM=T Big=T
 Integral buffers will be    131072 words long.
 Raffenetti 1 integral format.
 Two-electron integral symmetry is turned on.
 One-electron integrals computed using PRISM.
 NBasis=  1339 RedAO= T EigKep=  2.94D-04  NBF=  1339
 NBsUse=  1339 1.00D-06 EigRej= -1.00D+00 NBFU=  1339
 ExpMin= 4.21D-02 ExpMax= 1.17D+04 ExpMxC= 1.76D+03 IAcc=3 IRadAn=         5 AccDes= 0.00D+00
 Harris functional with IExCor=20419 and IRadAn=       5 diagonalized for initial guess.
 HarFok:  IExCor=20419 AccDes= 0.00D+00 IRadAn=         5 IDoV= 1 UseB2=F ITyADJ=14
 ICtDFT=  3500011 ScaDFX=  1.000000  1.000000  1.000000  1.000000
 FoFCou: FMM=F IPFlag=           0 FMFlag=      100000 FMFlg1=        2001
         NFxFlg=           0 DoJE=T BraDBF=F KetDBF=T FulRan=T
         wScrn=  0.000000 ICntrl=       500 IOpCl=  0 I1Cent=   200000004 NGrid=           0
         NMat0=    1 NMatS0=      1 NMatT0=    0 NMatD0=    1 NMtDS0=    0 NMtDT0=    0
 Petite list used in FoFCou.
 Requested convergence on RMS density matrix=1.00D-08 within 128 cycles.
 Requested convergence on MAX density matrix=1.00D-06.
 Requested convergence on             energy=1.00D-06.
 No special actions if energy rises.
 SCF Done:  E(RCAM-B3LYP) =  -2933.47191405     A.U. after   16 cycles
            NFock= 16  Conv=0.68D-08     -V/T= 2.0085
 DoSCS=F DFT=T ScalE2(SS,OS)=  1.000000  1.000000
 ExpMin= 4.21D-02 ExpMax= 1.17D+04 ExpMxC= 1.76D+03 IAcc=3 IRadAn=         5 AccDes= 0.00D+00
 HarFok:  IExCor=  205 AccDes= 0.00D+00 IRadAn=         5 IDoV=-2 UseB2=F ITyADJ=14
 ICtDFT= 12500011 ScaDFX=  1.000000  1.000000  1.000000  1.000000
 GSVD:  LWork=       -5313 too small for GESVD, short by       24840 words or       24840 for optimal perf.
 Range of M.O.s used for correlation:    70  1339
 NBasis=  1339 NAE=   241 NBE=   241 NFC=    69 NFV=     0
 NROrb=   1270 NOA=   172 NOB=   172 NVA=  1098 NVB=  1098
 Orbital symmetries:
       Occupied  (A) (A) (A) (A) (A) (A) (A) (A) (A) (A) (A) (A)
                 (A) (A) (A) (A) (A) (A) (A) (A) (A) (A) (A) (A)
                 (A) (A) (A) (A) (A) (A) (A) (A) (A) (A) (A) (A)
                 (A) (A) (A) (A) (A) (A) (A) (A) (A) (A) (A) (A)
                 (A) (A) (A) (A) (A) (A) (A) (A) (A) (A) (A) (A)
                 (A) (A) (A) (A) (A) (A) (A) (A) (A) (A) (A) (A)
                 (A) (A) (A) (A) (A) (A) (A) (A) (A) (A) (A) (A)
                 (A) (A) (A) (A) (A) (A) (A) (A) (A) (A) (A) (A)
                 (A) (A) (A) (A) (A) (A) (A) (A) (A) (A) (A) (A)
                 (A) (A) (A) (A) (A) (A) (A) (A) (A) (A) (A) (A)
                 (A) (A) (A) (A) (A) (A) (A) (A) (A) (A) (A) (A)
                 (A) (A) (A) (A) (A) (A) (A) (A) (A) (A) (A) (A)
                 (A) (A) (A) (A) (A) (A) (A) (A) (A) (A) (A) (A)
                 (A) (A) (A) (A) (A) (A) (A) (A) (A) (A) (A) (A)
                 (A) (A) (A) (A) (A) (A) (A) (A) (A) (A) (A) (A)
                 (A) (A) (A) (A) (A) (A) (A) (A) (A) (A) (A) (A)
                 (A) (A) (A) (A) (A) (A) (A) (A) (A) (A) (A) (A)
                 (A) (A) (A) (A) (A) (A) (A) (A) (A) (A) (A) (A)
                 (A) (A) (A) (A) (A) (A) (A) (A) (A) (A) (A) (A)
                 (A) (A) (A) (A) (A) (A) (A) (A) (A) (A) (A) (A)
                 (A)
       Virtual   (A) (A) (A) (A) (A) (A) (A) (A) (A) (A) (A) (A)
                 (A) (A) (A) (A) (A) (A) (A) (A) (A) (A) (A) (A)
                 (A) (A) (A) (A) (A) (A) (A) (A) (A) (A) (A) (A)
                 (A) (A) (A) (A) (A) (A) (A) (A) (A) (A) (A) (A)
                 (A) (A) (A) (A) (A) (A) (A) (A) (A) (A) (A) (A)
                 (A) (A) (A) (A) (A) (A) (A) (A) (A) (A) (A) (A)
                 (A) (A) (A) (A) (A) (A) (A) (A) (A) (A) (A) (A)
                 (A) (A) (A) (A) (A) (A) (A) (A) (A) (A) (A) (A)
                 (A) (A) (A) (A) (A) (A) (A) (A) (A) (A) (A) (A)
                 (A) (A) (A) (A) (A) (A) (A) (A) (A) (A) (A) (A)
                 (A) (A) (A) (A) (A) (A) (A) (A) (A) (A) (A) (A)
                 (A) (A) (A) (A) (A) (A) (A) (A) (A) (A) (A) (A)
                 (A) (A) (A) (A) (A) (A) (A) (A) (A) (A) (A) (A)
                 (A) (A) (A) (A) (A) (A) (A) (A) (A) (A) (A) (A)
                 (A) (A) (A) (A) (A) (A) (A) (A) (A) (A) (A) (A)
                 (A) (A) (A) (A) (A) (A) (A) (A) (A) (A) (A) (A)
                 (A) (A) (A) (A) (A) (A) (A) (A) (A) (A) (A) (A)
                 (A) (A) (A) (A) (A) (A) (A) (A) (A) (A) (A) (A)
                 (A) (A) (A) (A) (A) (A) (A) (A) (A) (A) (A) (A)
                 (A) (A) (A) (A) (A) (A) (A) (A) (A) (A) (A) (A)
                 (A) (A) (A) (A) (A) (A) (A) (A) (A) (A) (A) (A)
                 (A) (A) (A) (A) (A) (A) (A) (A) (A) (A) (A) (A)
                 (A) (A) (A) (A) (A) (A) (A) (A) (A) (A) (A) (A)
                 (A) (A) (A) (A) (A) (A) (A) (A) (A) (A) (A) (A)
                 (A) (A) (A) (A) (A) (A) (A) (A) (A) (A) (A) (A)
                 (A) (A) (A) (A) (A) (A) (A) (A) (A) (A) (A) (A)
                 (A) (A) (A) (A) (A) (A) (A) (A) (A) (A) (A) (A)
                 (A) (A) (A) (A) (A) (A) (A) (A) (A) (A) (A) (A)
                 (A) (A) (A) (A) (A) (A) (A) (A) (A) (A) (A) (A)
                 (A) (A) (A) (A) (A) (A) (A) (A) (A) (A) (A) (A)
                 (A) (A) (A) (A) (A) (A) (A) (A) (A) (A) (A) (A)
                 (A) (A) (A) (A) (A) (A) (A) (A) (A) (A) (A) (A)
                 (A) (A) (A) (A) (A) (A) (A) (A) (A) (A) (A) (A)
                 (A) (A) (A) (A) (A) (A) (A) (A) (A) (A) (A) (A)
                 (A) (A) (A) (A) (A) (A) (A) (A) (A) (A) (A) (A)
                 (A) (A) (A) (A) (A) (A) (A) (A) (A) (A) (A) (A)
                 (A) (A) (A) (A) (A) (A) (A) (A) (A) (A) (A) (A)
                 (A) (A) (A) (A) (A) (A) (A) (A) (A) (A) (A) (A)
                 (A) (A) (A) (A) (A) (A) (A) (A) (A) (A) (A) (A)
                 (A) (A) (A) (A) (A) (A) (A) (A) (A) (A) (A) (A)
                 (A) (A) (A) (A) (A) (A) (A) (A) (A) (A) (A) (A)
                 (A) (A) (A) (A) (A) (A) (A) (A) (A) (A) (A) (A)
                 (A) (A) (A) (A) (A) (A) (A) (A) (A) (A) (A) (A)
                 (A) (A) (A) (A) (A) (A) (A) (A) (A) (A) (A) (A)
                 (A) (A) (A) (A) (A) (A) (A) (A) (A) (A) (A) (A)
                 (A) (A) (A) (A) (A) (A) (A) (A) (A) (A) (A) (A)
                 (A) (A) (A) (A) (A) (A) (A) (A) (A) (A) (A) (A)
                 (A) (A) (A) (A) (A) (A) (A) (A) (A) (A) (A) (A)
                 (A) (A) (A) (A) (A) (A) (A) (A) (A) (A) (A) (A)
                 (A) (A) (A) (A) (A) (A) (A) (A) (A) (A) (A) (A)
                 (A) (A) (A) (A) (A) (A) (A) (A) (A) (A) (A) (A)
                 (A) (A) (A) (A) (A) (A) (A) (A) (A) (A) (A) (A)
                 (A) (A) (A) (A) (A) (A) (A) (A) (A) (A) (A) (A)
                 (A) (A) (A) (A) (A) (A) (A) (A) (A) (A) (A) (A)
                 (A) (A) (A) (A) (A) (A) (A) (A) (A) (A) (A) (A)
                 (A) (A) (A) (A) (A) (A) (A) (A) (A) (A) (A) (A)
                 (A) (A) (A) (A) (A) (A) (A) (A) (A) (A) (A) (A)
                 (A) (A) (A) (A) (A) (A) (A) (A) (A) (A) (A) (A)
                 (A) (A) (A) (A) (A) (A) (A) (A) (A) (A) (A) (A)
                 (A) (A) (A) (A) (A) (A) (A) (A) (A) (A) (A) (A)
                 (A) (A) (A) (A) (A) (A) (A) (A) (A) (A) (A) (A)
                 (A) (A) (A) (A) (A) (A) (A) (A) (A) (A) (A) (A)
                 (A) (A) (A) (A) (A) (A) (A) (A) (A) (A) (A) (A)
                 (A) (A) (A) (A) (A) (A) (A) (A) (A) (A) (A) (A)
                 (A) (A) (A) (A) (A) (A) (A) (A) (A) (A) (A) (A)
                 (A) (A) (A) (A) (A) (A) (A) (A) (A) (A) (A) (A)
                 (A) (A) (A) (A) (A) (A) (A) (A) (A) (A) (A) (A)
                 (A) (A) (A) (A) (A) (A) (A) (A) (A) (A) (A) (A)
                 (A) (A) (A) (A) (A) (A) (A) (A) (A) (A) (A) (A)
                 (A) (A) (A) (A) (A) (A) (A) (A) (A) (A) (A) (A)
                 (A) (A) (A) (A) (A) (A) (A) (A) (A) (A) (A) (A)
                 (A) (A) (A) (A) (A) (A) (A) (A) (A) (A) (A) (A)
                 (A) (A) (A) (A) (A) (A) (A) (A) (A) (A) (A) (A)
                 (A) (A) (A) (A) (A) (A) (A) (A) (A) (A) (A) (A)
                 (A) (A) (A) (A) (A) (A) (A) (A) (A) (A) (A) (A)
                 (A) (A) (A) (A) (A) (A) (A) (A) (A) (A) (A) (A)
                 (A) (A) (A) (A) (A) (A) (A) (A) (A) (A) (A) (A)
                 (A) (A) (A) (A) (A) (A) (A) (A) (A) (A) (A) (A)
                 (A) (A) (A) (A) (A) (A) (A) (A) (A) (A) (A) (A)
                 (A) (A) (A) (A) (A) (A) (A) (A) (A) (A) (A) (A)
                 (A) (A) (A) (A) (A) (A) (A) (A) (A) (A) (A) (A)
                 (A) (A) (A) (A) (A) (A) (A) (A) (A) (A) (A) (A)
                 (A) (A) (A) (A) (A) (A) (A) (A) (A) (A) (A) (A)
                 (A) (A) (A) (A) (A) (A) (A) (A) (A) (A) (A) (A)
                 (A) (A) (A) (A) (A) (A) (A) (A) (A) (A) (A) (A)
                 (A) (A) (A) (A) (A) (A) (A) (A) (A) (A) (A) (A)
                 (A) (A) (A) (A) (A) (A) (A) (A) (A) (A) (A) (A)
                 (A) (A) (A) (A) (A) (A) (A) (A) (A) (A) (A) (A)
                 (A) (A) (A) (A) (A) (A) (A) (A) (A) (A) (A) (A)
                 (A) (A) (A) (A) (A) (A) (A) (A) (A) (A) (A) (A)
                 (A) (A) (A) (A) (A) (A) (A) (A) (A) (A) (A) (A)
                 (A) (A) (A) (A) (A) (A)
     4 initial guesses have been made.
 Convergence on wavefunction:    0.001000000000000
 Iteration     1 Dimension     4 NMult     0 NNew      4
 CISAX will form     4 AO SS matrices at one time.
 Iteration     2 Dimension     6 NMult     4 NNew      2
 Iteration     3 Dimension     8 NMult     6 NNew      2
 Iteration     4 Dimension    10 NMult     8 NNew      2
 Iteration     5 Dimension    12 NMult    10 NNew      2
 Iteration     6 Dimension    14 NMult    12 NNew      2
 Iteration     7 Dimension    16 NMult    14 NNew      2
 Iteration     8 Dimension    18 NMult    16 NNew      2
 Iteration     9 Dimension    20 NMult    18 NNew      2
 ***********************************************************************
 Excited states from <AA,BB:AA,BB> singles matrix:
 ***********************************************************************
 
 Ground to excited state transition densities written to RWF  633
 Ground to excited state transition electric dipole moments (Au):
       state          X           Y           Z        Dip. S.      Osc.
         1        -0.1797      2.3152      0.2277      5.4444      0.2631
 Ground to excited state transition velocity dipole moments (Au):
       state          X           Y           Z        Dip. S.      Osc.
         1         0.0112     -0.1637     -0.0179      0.0272      0.2504
 Ground to excited state transition magnetic dipole moments (Au):
       state          X           Y           Z
         1        -0.2576     -0.3217      2.9261
 Ground to excited state transition velocity quadrupole moments (Au):
       state          XX          YY          ZZ          XY          XZ          YZ
         1        -0.1481     -0.3100     -0.0325      2.0771      0.2179     -0.1475
 <0|del|b> * <b|rxdel|0> + <0|del|b> * <b|delr+rdel|0>
 Rotatory Strengths (R) in cgs (10**-40 erg-esu-cm/Gauss)
       state          XX          YY          ZZ    R(velocity)    E-M Angle
         1        -4.8773    -96.0690     76.7851     -8.0537       90.29
 1/2[<0|r|b>*<b|rxdel|0> + (<0|rxdel|b>*<b|r|0>)*]
 Rotatory Strengths (R) in cgs (10**-40 erg-esu-cm/Gauss)
       state          XX          YY          ZZ     R(length)
         1       -32.7340    526.6774   -471.2363      7.5690
  1/2[<0|del|b>*<b|r|0> + (<0|r|b>*<b|del|0>)*] (Au)
       state          X           Y           Z        Dip. S.   Osc.(frdel)
         1        -0.0020     -0.3789     -0.0041      0.3850      0.2567

 Excitation energies and oscillator strengths:
 
 Excited State   1:      Singlet-A      1.9728 eV  628.46 nm  f=0.2631  <S**2>=0.000
     240 -> 243       -0.24348
     241 -> 242        0.65372
 This state for optimization and/or second-order correction.
 Total Energy, E(TD-HF/TD-DFT) =  -2933.39941369    
 Copying the excited state density for this state as the 1-particle RhoCI density.
 SavETr:  write IOETrn=   770 NScale= 10 NData=  16 NLR=1 NState=    1 LETran=      28.
 Hyperfine terms turned off by default for NAtoms > 100.

 **********************************************************************

            Population analysis using the SCF density.

 **********************************************************************

 Orbital symmetries:
       Occupied  (A) (A) (A) (A) (A) (A) (A) (A) (A) (A) (A) (A)
                 (A) (A) (A) (A) (A) (A) (A) (A) (A) (A) (A) (A)
                 (A) (A) (A) (A) (A) (A) (A) (A) (A) (A) (A) (A)
                 (A) (A) (A) (A) (A) (A) (A) (A) (A) (A) (A) (A)
                 (A) (A) (A) (A) (A) (A) (A) (A) (A) (A) (A) (A)
                 (A) (A) (A) (A) (A) (A) (A) (A) (A) (A) (A) (A)
                 (A) (A) (A) (A) (A) (A) (A) (A) (A) (A) (A) (A)
                 (A) (A) (A) (A) (A) (A) (A) (A) (A) (A) (A) (A)
                 (A) (A) (A) (A) (A) (A) (A) (A) (A) (A) (A) (A)
                 (A) (A) (A) (A) (A) (A) (A) (A) (A) (A) (A) (A)
                 (A) (A) (A) (A) (A) (A) (A) (A) (A) (A) (A) (A)
                 (A) (A) (A) (A) (A) (A) (A) (A) (A) (A) (A) (A)
                 (A) (A) (A) (A) (A) (A) (A) (A) (A) (A) (A) (A)
                 (A) (A) (A) (A) (A) (A) (A) (A) (A) (A) (A) (A)
                 (A) (A) (A) (A) (A) (A) (A) (A) (A) (A) (A) (A)
                 (A) (A) (A) (A) (A) (A) (A) (A) (A) (A) (A) (A)
                 (A) (A) (A) (A) (A) (A) (A) (A) (A) (A) (A) (A)
                 (A) (A) (A) (A) (A) (A) (A) (A) (A) (A) (A) (A)
                 (A) (A) (A) (A) (A) (A) (A) (A) (A) (A) (A) (A)
                 (A) (A) (A) (A) (A) (A) (A) (A) (A) (A) (A) (A)
                 (A)
       Virtual   (A) (A) (A) (A) (A) (A) (A) (A) (A) (A) (A) (A)
                 (A) (A) (A) (A) (A) (A) (A) (A) (A) (A) (A) (A)
                 (A) (A) (A) (A) (A) (A) (A) (A) (A) (A) (A) (A)
                 (A) (A) (A) (A) (A) (A) (A) (A) (A) (A) (A) (A)
                 (A) (A) (A) (A) (A) (A) (A) (A) (A) (A) (A) (A)
                 (A) (A) (A) (A) (A) (A) (A) (A) (A) (A) (A) (A)
                 (A) (A) (A) (A) (A) (A) (A) (A) (A) (A) (A) (A)
                 (A) (A) (A) (A) (A) (A) (A) (A) (A) (A) (A) (A)
                 (A) (A) (A) (A) (A) (A) (A) (A) (A) (A) (A) (A)
                 (A) (A) (A) (A) (A) (A) (A) (A) (A) (A) (A) (A)
                 (A) (A) (A) (A) (A) (A) (A) (A) (A) (A) (A) (A)
                 (A) (A) (A) (A) (A) (A) (A) (A) (A) (A) (A) (A)
                 (A) (A) (A) (A) (A) (A) (A) (A) (A) (A) (A) (A)
                 (A) (A) (A) (A) (A) (A) (A) (A) (A) (A) (A) (A)
                 (A) (A) (A) (A) (A) (A) (A) (A) (A) (A) (A) (A)
                 (A) (A) (A) (A) (A) (A) (A) (A) (A) (A) (A) (A)
                 (A) (A) (A) (A) (A) (A) (A) (A) (A) (A) (A) (A)
                 (A) (A) (A) (A) (A) (A) (A) (A) (A) (A) (A) (A)
                 (A) (A) (A) (A) (A) (A) (A) (A) (A) (A) (A) (A)
                 (A) (A) (A) (A) (A) (A) (A) (A) (A) (A) (A) (A)
                 (A) (A) (A) (A) (A) (A) (A) (A) (A) (A) (A) (A)
                 (A) (A) (A) (A) (A) (A) (A) (A) (A) (A) (A) (A)
                 (A) (A) (A) (A) (A) (A) (A) (A) (A) (A) (A) (A)
                 (A) (A) (A) (A) (A) (A) (A) (A) (A) (A) (A) (A)
                 (A) (A) (A) (A) (A) (A) (A) (A) (A) (A) (A) (A)
                 (A) (A) (A) (A) (A) (A) (A) (A) (A) (A) (A) (A)
                 (A) (A) (A) (A) (A) (A) (A) (A) (A) (A) (A) (A)
                 (A) (A) (A) (A) (A) (A) (A) (A) (A) (A) (A) (A)
                 (A) (A) (A) (A) (A) (A) (A) (A) (A) (A) (A) (A)
                 (A) (A) (A) (A) (A) (A) (A) (A) (A) (A) (A) (A)
                 (A) (A) (A) (A) (A) (A) (A) (A) (A) (A) (A) (A)
                 (A) (A) (A) (A) (A) (A) (A) (A) (A) (A) (A) (A)
                 (A) (A) (A) (A) (A) (A) (A) (A) (A) (A) (A) (A)
                 (A) (A) (A) (A) (A) (A) (A) (A) (A) (A) (A) (A)
                 (A) (A) (A) (A) (A) (A) (A) (A) (A) (A) (A) (A)
                 (A) (A) (A) (A) (A) (A) (A) (A) (A) (A) (A) (A)
                 (A) (A) (A) (A) (A) (A) (A) (A) (A) (A) (A) (A)
                 (A) (A) (A) (A) (A) (A) (A) (A) (A) (A) (A) (A)
                 (A) (A) (A) (A) (A) (A) (A) (A) (A) (A) (A) (A)
                 (A) (A) (A) (A) (A) (A) (A) (A) (A) (A) (A) (A)
                 (A) (A) (A) (A) (A) (A) (A) (A) (A) (A) (A) (A)
                 (A) (A) (A) (A) (A) (A) (A) (A) (A) (A) (A) (A)
                 (A) (A) (A) (A) (A) (A) (A) (A) (A) (A) (A) (A)
                 (A) (A) (A) (A) (A) (A) (A) (A) (A) (A) (A) (A)
                 (A) (A) (A) (A) (A) (A) (A) (A) (A) (A) (A) (A)
                 (A) (A) (A) (A) (A) (A) (A) (A) (A) (A) (A) (A)
                 (A) (A) (A) (A) (A) (A) (A) (A) (A) (A) (A) (A)
                 (A) (A) (A) (A) (A) (A) (A) (A) (A) (A) (A) (A)
                 (A) (A) (A) (A) (A) (A) (A) (A) (A) (A) (A) (A)
                 (A) (A) (A) (A) (A) (A) (A) (A) (A) (A) (A) (A)
                 (A) (A) (A) (A) (A) (A) (A) (A) (A) (A) (A) (A)
                 (A) (A) (A) (A) (A) (A) (A) (A) (A) (A) (A) (A)
                 (A) (A) (A) (A) (A) (A) (A) (A) (A) (A) (A) (A)
                 (A) (A) (A) (A) (A) (A) (A) (A) (A) (A) (A) (A)
                 (A) (A) (A) (A) (A) (A) (A) (A) (A) (A) (A) (A)
                 (A) (A) (A) (A) (A) (A) (A) (A) (A) (A) (A) (A)
                 (A) (A) (A) (A) (A) (A) (A) (A) (A) (A) (A) (A)
                 (A) (A) (A) (A) (A) (A) (A) (A) (A) (A) (A) (A)
                 (A) (A) (A) (A) (A) (A) (A) (A) (A) (A) (A) (A)
                 (A) (A) (A) (A) (A) (A) (A) (A) (A) (A) (A) (A)
                 (A) (A) (A) (A) (A) (A) (A) (A) (A) (A) (A) (A)
                 (A) (A) (A) (A) (A) (A) (A) (A) (A) (A) (A) (A)
                 (A) (A) (A) (A) (A) (A) (A) (A) (A) (A) (A) (A)
                 (A) (A) (A) (A) (A) (A) (A) (A) (A) (A) (A) (A)
                 (A) (A) (A) (A) (A) (A) (A) (A) (A) (A) (A) (A)
                 (A) (A) (A) (A) (A) (A) (A) (A) (A) (A) (A) (A)
                 (A) (A) (A) (A) (A) (A) (A) (A) (A) (A) (A) (A)
                 (A) (A) (A) (A) (A) (A) (A) (A) (A) (A) (A) (A)
                 (A) (A) (A) (A) (A) (A) (A) (A) (A) (A) (A) (A)
                 (A) (A) (A) (A) (A) (A) (A) (A) (A) (A) (A) (A)
                 (A) (A) (A) (A) (A) (A) (A) (A) (A) (A) (A) (A)
                 (A) (A) (A) (A) (A) (A) (A) (A) (A) (A) (A) (A)
                 (A) (A) (A) (A) (A) (A) (A) (A) (A) (A) (A) (A)
                 (A) (A) (A) (A) (A) (A) (A) (A) (A) (A) (A) (A)
                 (A) (A) (A) (A) (A) (A) (A) (A) (A) (A) (A) (A)
                 (A) (A) (A) (A) (A) (A) (A) (A) (A) (A) (A) (A)
                 (A) (A) (A) (A) (A) (A) (A) (A) (A) (A) (A) (A)
                 (A) (A) (A) (A) (A) (A) (A) (A) (A) (A) (A) (A)
                 (A) (A) (A) (A) (A) (A) (A) (A) (A) (A) (A) (A)
                 (A) (A) (A) (A) (A) (A) (A) (A) (A) (A) (A) (A)
                 (A) (A) (A) (A) (A) (A) (A) (A) (A) (A) (A) (A)
                 (A) (A) (A) (A) (A) (A) (A) (A) (A) (A) (A) (A)
                 (A) (A) (A) (A) (A) (A) (A) (A) (A) (A) (A) (A)
                 (A) (A) (A) (A) (A) (A) (A) (A) (A) (A) (A) (A)
                 (A) (A) (A) (A) (A) (A) (A) (A) (A) (A) (A) (A)
                 (A) (A) (A) (A) (A) (A) (A) (A) (A) (A) (A) (A)
                 (A) (A) (A) (A) (A) (A) (A) (A) (A) (A) (A) (A)
                 (A) (A) (A) (A) (A) (A) (A) (A) (A) (A) (A) (A)
                 (A) (A) (A) (A) (A) (A) (A) (A) (A) (A) (A) (A)
                 (A) (A) (A) (A) (A) (A) (A) (A) (A) (A) (A) (A)
                 (A) (A) (A) (A) (A) (A) (A) (A) (A) (A) (A) (A)
                 (A) (A) (A) (A) (A) (A)
 The electronic state is 1-A.
 Alpha  occ. eigenvalues --  -46.80553 -19.23027 -19.20831 -19.16703 -19.16560
 Alpha  occ. eigenvalues --  -19.15130 -14.38048 -14.36006 -14.35157 -14.34320
 Alpha  occ. eigenvalues --  -10.35293 -10.34051 -10.31111 -10.26962 -10.26665
 Alpha  occ. eigenvalues --  -10.26008 -10.25786 -10.25756 -10.25429 -10.25429
 Alpha  occ. eigenvalues --  -10.25181 -10.25134 -10.24603 -10.24531 -10.24350
 Alpha  occ. eigenvalues --  -10.24085 -10.23874 -10.23830 -10.23657 -10.23394
 Alpha  occ. eigenvalues --  -10.23378 -10.23051 -10.22998 -10.22879 -10.22753
 Alpha  occ. eigenvalues --  -10.22723 -10.22605 -10.22560 -10.22432 -10.22375
 Alpha  occ. eigenvalues --  -10.22221 -10.21958 -10.21874 -10.21855 -10.21800
 Alpha  occ. eigenvalues --  -10.21621 -10.21529 -10.21294 -10.21214 -10.21193
 Alpha  occ. eigenvalues --  -10.20886 -10.20842 -10.20805 -10.20704 -10.20672
 Alpha  occ. eigenvalues --  -10.20597 -10.20469 -10.20255 -10.20231 -10.19908
 Alpha  occ. eigenvalues --  -10.19571 -10.19474 -10.18938 -10.18876 -10.18830
 Alpha  occ. eigenvalues --   -3.09112  -1.84054  -1.83556  -1.83547  -1.16246
 Alpha  occ. eigenvalues --   -1.11587  -1.05480  -1.02565  -1.02452  -1.01444
 Alpha  occ. eigenvalues --   -0.99835  -0.99055  -0.98458  -0.87362  -0.86821
 Alpha  occ. eigenvalues --   -0.86235  -0.85630  -0.84766  -0.84364  -0.84314
 Alpha  occ. eigenvalues --   -0.83994  -0.82602  -0.82535  -0.81823  -0.81005
 Alpha  occ. eigenvalues --   -0.80407  -0.80038  -0.79175  -0.78463  -0.77758
 Alpha  occ. eigenvalues --   -0.77025  -0.76460  -0.76038  -0.75329  -0.73919
 Alpha  occ. eigenvalues --   -0.73090  -0.72933  -0.72474  -0.71931  -0.71395
 Alpha  occ. eigenvalues --   -0.70672  -0.70312  -0.69788  -0.68717  -0.68038
 Alpha  occ. eigenvalues --   -0.66912  -0.66159  -0.65293  -0.64812  -0.64502
 Alpha  occ. eigenvalues --   -0.63629  -0.62437  -0.61858  -0.61326  -0.60595
 Alpha  occ. eigenvalues --   -0.60519  -0.59773  -0.59369  -0.59138  -0.58476
 Alpha  occ. eigenvalues --   -0.57811  -0.57189  -0.56710  -0.56263  -0.55731
 Alpha  occ. eigenvalues --   -0.54975  -0.54910  -0.54418  -0.53706  -0.53427
 Alpha  occ. eigenvalues --   -0.52987  -0.52456  -0.52402  -0.52087  -0.51231
 Alpha  occ. eigenvalues --   -0.50958  -0.50602  -0.50342  -0.49867  -0.49690
 Alpha  occ. eigenvalues --   -0.49264  -0.49147  -0.48775  -0.48606  -0.48457
 Alpha  occ. eigenvalues --   -0.47859  -0.47630  -0.47388  -0.47267  -0.46939
 Alpha  occ. eigenvalues --   -0.46710  -0.46370  -0.46324  -0.46073  -0.45949
 Alpha  occ. eigenvalues --   -0.45879  -0.45815  -0.45319  -0.45006  -0.44967
 Alpha  occ. eigenvalues --   -0.44761  -0.44405  -0.44315  -0.43877  -0.43785
 Alpha  occ. eigenvalues --   -0.43468  -0.43385  -0.43310  -0.43031  -0.42917
 Alpha  occ. eigenvalues --   -0.42801  -0.42354  -0.42001  -0.41939  -0.41753
 Alpha  occ. eigenvalues --   -0.41669  -0.41337  -0.41140  -0.41101  -0.40850
 Alpha  occ. eigenvalues --   -0.40516  -0.40363  -0.40142  -0.40015  -0.39666
 Alpha  occ. eigenvalues --   -0.39592  -0.39434  -0.39304  -0.39235  -0.39152
 Alpha  occ. eigenvalues --   -0.38996  -0.38967  -0.38693  -0.38298  -0.38070
 Alpha  occ. eigenvalues --   -0.37951  -0.37908  -0.37714  -0.37666  -0.37357
 Alpha  occ. eigenvalues --   -0.36993  -0.36735  -0.36592  -0.36169  -0.36018
 Alpha  occ. eigenvalues --   -0.35653  -0.35620  -0.34981  -0.34954  -0.34703
 Alpha  occ. eigenvalues --   -0.34319  -0.34071  -0.33921  -0.33844  -0.33494
 Alpha  occ. eigenvalues --   -0.33314  -0.32913  -0.32689  -0.32622  -0.32379
 Alpha  occ. eigenvalues --   -0.31808  -0.31559  -0.30998  -0.30145  -0.29976
 Alpha  occ. eigenvalues --   -0.29745  -0.29660  -0.28853  -0.28668  -0.27118
 Alpha  occ. eigenvalues --   -0.26977  -0.26686  -0.25909  -0.25570  -0.21088
 Alpha  occ. eigenvalues --   -0.20102
 Alpha virt. eigenvalues --   -0.07604  -0.03640  -0.00297   0.01836   0.02472
 Alpha virt. eigenvalues --    0.03881   0.03949   0.04375   0.04540   0.05401
 Alpha virt. eigenvalues --    0.06728   0.08500   0.09236   0.09606   0.10258
 Alpha virt. eigenvalues --    0.10309   0.10738   0.11187   0.11425   0.11552
 Alpha virt. eigenvalues --    0.11804   0.11996   0.12312   0.12366   0.12528
 Alpha virt. eigenvalues --    0.12622   0.12751   0.12958   0.13481   0.13800
 Alpha virt. eigenvalues --    0.14015   0.14412   0.14866   0.15004   0.15129
 Alpha virt. eigenvalues --    0.15185   0.15303   0.15517   0.15625   0.15801
 Alpha virt. eigenvalues --    0.16008   0.16276   0.16402   0.16417   0.16657
 Alpha virt. eigenvalues --    0.16716   0.16835   0.16972   0.17058   0.17317
 Alpha virt. eigenvalues --    0.17509   0.17591   0.17710   0.17817   0.18316
 Alpha virt. eigenvalues --    0.18365   0.18424   0.18522   0.18735   0.18875
 Alpha virt. eigenvalues --    0.19113   0.19290   0.19323   0.19604   0.19765
 Alpha virt. eigenvalues --    0.20075   0.20240   0.20307   0.20447   0.20588
 Alpha virt. eigenvalues --    0.20804   0.20944   0.21114   0.21180   0.21593
 Alpha virt. eigenvalues --    0.21842   0.22044   0.22122   0.22358   0.22414
 Alpha virt. eigenvalues --    0.22576   0.22621   0.22869   0.23134   0.23171
 Alpha virt. eigenvalues --    0.23592   0.23675   0.24002   0.24053   0.24315
 Alpha virt. eigenvalues --    0.24467   0.24654   0.24777   0.25191   0.25390
 Alpha virt. eigenvalues --    0.25429   0.25514   0.26228   0.26305   0.26615
 Alpha virt. eigenvalues --    0.26758   0.26964   0.27123   0.27239   0.27355
 Alpha virt. eigenvalues --    0.27520   0.27784   0.27864   0.28093   0.28312
 Alpha virt. eigenvalues --    0.28469   0.28823   0.28976   0.29087   0.29366
 Alpha virt. eigenvalues --    0.29525   0.29624   0.29942   0.30026   0.30259
 Alpha virt. eigenvalues --    0.30666   0.31073   0.31636   0.31933   0.32350
 Alpha virt. eigenvalues --    0.32511   0.32640   0.33461   0.33620   0.33879
 Alpha virt. eigenvalues --    0.34148   0.34231   0.34614   0.35296   0.35733
 Alpha virt. eigenvalues --    0.36434   0.37190   0.37302   0.37622   0.38284
 Alpha virt. eigenvalues --    0.38356   0.38708   0.39376   0.39506   0.39765
 Alpha virt. eigenvalues --    0.40365   0.40722   0.41258   0.41666   0.42009
 Alpha virt. eigenvalues --    0.43572   0.43997   0.44988   0.46335   0.46829
 Alpha virt. eigenvalues --    0.47388   0.47597   0.49062   0.49106   0.49653
 Alpha virt. eigenvalues --    0.50245   0.50285   0.50738   0.50981   0.51622
 Alpha virt. eigenvalues --    0.52355   0.52499   0.52791   0.52900   0.53110
 Alpha virt. eigenvalues --    0.53230   0.53667   0.53700   0.53780   0.53843
 Alpha virt. eigenvalues --    0.54029   0.54108   0.54346   0.54729   0.55142
 Alpha virt. eigenvalues --    0.55223   0.55387   0.55641   0.56077   0.56190
 Alpha virt. eigenvalues --    0.56337   0.56368   0.57032   0.57570   0.57718
 Alpha virt. eigenvalues --    0.57906   0.57939   0.58201   0.58301   0.58646
 Alpha virt. eigenvalues --    0.58856   0.58887   0.58972   0.59228   0.59704
 Alpha virt. eigenvalues --    0.60204   0.60451   0.60786   0.60932   0.61182
 Alpha virt. eigenvalues --    0.61385   0.61721   0.61772   0.62032   0.62245
 Alpha virt. eigenvalues --    0.62656   0.63020   0.63051   0.63382   0.63624
 Alpha virt. eigenvalues --    0.63671   0.63908   0.64147   0.64582   0.64744
 Alpha virt. eigenvalues --    0.65076   0.65245   0.65564   0.65669   0.65812
 Alpha virt. eigenvalues --    0.65912   0.66322   0.66503   0.66713   0.67032
 Alpha virt. eigenvalues --    0.67530   0.67839   0.67944   0.68151   0.68393
 Alpha virt. eigenvalues --    0.68531   0.69018   0.69197   0.69367   0.69495
 Alpha virt. eigenvalues --    0.69803   0.70111   0.70351   0.70551   0.70946
 Alpha virt. eigenvalues --    0.71052   0.71370   0.71724   0.71975   0.72069
 Alpha virt. eigenvalues --    0.72613   0.72673   0.72784   0.73306   0.73431
 Alpha virt. eigenvalues --    0.73918   0.74265   0.74577   0.74708   0.74852
 Alpha virt. eigenvalues --    0.75115   0.75184   0.75412   0.75668   0.75815
 Alpha virt. eigenvalues --    0.76175   0.76654   0.76738   0.76868   0.76956
 Alpha virt. eigenvalues --    0.77746   0.77857   0.78045   0.78499   0.78629
 Alpha virt. eigenvalues --    0.78699   0.79298   0.79491   0.79672   0.79732
 Alpha virt. eigenvalues --    0.80191   0.80636   0.81259   0.81481   0.81581
 Alpha virt. eigenvalues --    0.81848   0.81895   0.82048   0.82413   0.82743
 Alpha virt. eigenvalues --    0.82865   0.82941   0.83135   0.83261   0.83517
 Alpha virt. eigenvalues --    0.83956   0.84271   0.84346   0.84554   0.84690
 Alpha virt. eigenvalues --    0.85101   0.85585   0.85731   0.85826   0.86267
 Alpha virt. eigenvalues --    0.86354   0.86427   0.86708   0.86767   0.87045
 Alpha virt. eigenvalues --    0.87113   0.87402   0.87871   0.87917   0.88093
 Alpha virt. eigenvalues --    0.88404   0.88626   0.88789   0.89038   0.89294
 Alpha virt. eigenvalues --    0.89402   0.89665   0.89772   0.89889   0.90426
 Alpha virt. eigenvalues --    0.90512   0.90570   0.91191   0.91356   0.91646
 Alpha virt. eigenvalues --    0.91660   0.91933   0.92248   0.92390   0.92558
 Alpha virt. eigenvalues --    0.92696   0.92806   0.93008   0.93273   0.93464
 Alpha virt. eigenvalues --    0.93496   0.93790   0.93923   0.94251   0.94428
 Alpha virt. eigenvalues --    0.94649   0.94861   0.95034   0.95100   0.95212
 Alpha virt. eigenvalues --    0.95623   0.95790   0.95988   0.96119   0.96347
 Alpha virt. eigenvalues --    0.96655   0.96828   0.96981   0.97032   0.97647
 Alpha virt. eigenvalues --    0.97858   0.97875   0.98006   0.98371   0.98427
 Alpha virt. eigenvalues --    0.98761   0.99096   0.99168   0.99293   0.99498
 Alpha virt. eigenvalues --    0.99945   1.00028   1.00046   1.00411   1.00440
 Alpha virt. eigenvalues --    1.00720   1.00863   1.01355   1.01442   1.01701
 Alpha virt. eigenvalues --    1.02092   1.02317   1.02885   1.03045   1.03197
 Alpha virt. eigenvalues --    1.03377   1.03767   1.03868   1.04246   1.04426
 Alpha virt. eigenvalues --    1.04763   1.04940   1.05314   1.05638   1.06226
 Alpha virt. eigenvalues --    1.06633   1.06813   1.07225   1.07574   1.07934
 Alpha virt. eigenvalues --    1.08312   1.09346   1.09785   1.09907   1.10393
 Alpha virt. eigenvalues --    1.10896   1.11093   1.11930   1.12454   1.13125
 Alpha virt. eigenvalues --    1.13552   1.13615   1.14277   1.14313   1.15139
 Alpha virt. eigenvalues --    1.15668   1.15952   1.16327   1.16753   1.17280
 Alpha virt. eigenvalues --    1.17718   1.18269   1.18473   1.18754   1.19339
 Alpha virt. eigenvalues --    1.19984   1.20605   1.21309   1.21713   1.22158
 Alpha virt. eigenvalues --    1.22768   1.23752   1.23995   1.24046   1.25470
 Alpha virt. eigenvalues --    1.25762   1.25865   1.26350   1.27212   1.27397
 Alpha virt. eigenvalues --    1.27672   1.28402   1.28696   1.30403   1.30776
 Alpha virt. eigenvalues --    1.30847   1.31394   1.31958   1.32193   1.32677
 Alpha virt. eigenvalues --    1.33328   1.33689   1.33962   1.34626   1.34909
 Alpha virt. eigenvalues --    1.35058   1.35423   1.35510   1.35684   1.36676
 Alpha virt. eigenvalues --    1.36745   1.37128   1.37575   1.37714   1.38055
 Alpha virt. eigenvalues --    1.38681   1.39315   1.39547   1.40018   1.40710
 Alpha virt. eigenvalues --    1.41532   1.42007   1.42431   1.42758   1.42887
 Alpha virt. eigenvalues --    1.43771   1.44727   1.45164   1.45337   1.45753
 Alpha virt. eigenvalues --    1.46169   1.46249   1.47454   1.47638   1.48242
 Alpha virt. eigenvalues --    1.48645   1.48866   1.49300   1.49947   1.50183
 Alpha virt. eigenvalues --    1.50554   1.50740   1.51480   1.51917   1.51961
 Alpha virt. eigenvalues --    1.52720   1.53112   1.53684   1.53992   1.54624
 Alpha virt. eigenvalues --    1.54703   1.56126   1.57061   1.57336   1.57672
 Alpha virt. eigenvalues --    1.58161   1.58443   1.58795   1.59570   1.60075
 Alpha virt. eigenvalues --    1.60503   1.60559   1.60815   1.61139   1.61548
 Alpha virt. eigenvalues --    1.62043   1.62546   1.62736   1.63220   1.63819
 Alpha virt. eigenvalues --    1.63943   1.64191   1.64291   1.64583   1.65053
 Alpha virt. eigenvalues --    1.66381   1.66677   1.67323   1.67721   1.68061
 Alpha virt. eigenvalues --    1.68618   1.68901   1.68914   1.69166   1.69796
 Alpha virt. eigenvalues --    1.70063   1.70605   1.70722   1.71146   1.71578
 Alpha virt. eigenvalues --    1.72063   1.72727   1.72875   1.73350   1.73489
 Alpha virt. eigenvalues --    1.73665   1.74006   1.74210   1.74884   1.75362
 Alpha virt. eigenvalues --    1.75678   1.75811   1.76346   1.77022   1.78214
 Alpha virt. eigenvalues --    1.78478   1.79058   1.79229   1.79990   1.80363
 Alpha virt. eigenvalues --    1.80796   1.81158   1.81422   1.81716   1.82276
 Alpha virt. eigenvalues --    1.82488   1.82805   1.83094   1.83190   1.83479
 Alpha virt. eigenvalues --    1.83871   1.84156   1.84843   1.84980   1.85097
 Alpha virt. eigenvalues --    1.85371   1.85722   1.85920   1.86008   1.86324
 Alpha virt. eigenvalues --    1.86660   1.86693   1.87054   1.87127   1.87877
 Alpha virt. eigenvalues --    1.87969   1.88134   1.88486   1.88981   1.89276
 Alpha virt. eigenvalues --    1.89385   1.89498   1.89795   1.89965   1.90157
 Alpha virt. eigenvalues --    1.90477   1.90735   1.90934   1.91327   1.91648
 Alpha virt. eigenvalues --    1.91832   1.91947   1.92196   1.92383   1.93056
 Alpha virt. eigenvalues --    1.93107   1.93494   1.94109   1.94257   1.94401
 Alpha virt. eigenvalues --    1.94653   1.94799   1.95176   1.95317   1.95449
 Alpha virt. eigenvalues --    1.95520   1.95948   1.96168   1.96685   1.97070
 Alpha virt. eigenvalues --    1.97234   1.97475   1.97626   1.97896   1.98370
 Alpha virt. eigenvalues --    1.98706   1.98929   1.99246   1.99632   2.00007
 Alpha virt. eigenvalues --    2.00220   2.00434   2.00923   2.00990   2.01138
 Alpha virt. eigenvalues --    2.01522   2.02323   2.02729   2.02867   2.03060
 Alpha virt. eigenvalues --    2.03170   2.03780   2.03868   2.04059   2.04251
 Alpha virt. eigenvalues --    2.04572   2.04905   2.05350   2.05780   2.06027
 Alpha virt. eigenvalues --    2.06280   2.06344   2.06465   2.07169   2.07353
 Alpha virt. eigenvalues --    2.07778   2.08023   2.08246   2.08384   2.08629
 Alpha virt. eigenvalues --    2.08768   2.09259   2.09303   2.10382   2.10440
 Alpha virt. eigenvalues --    2.10802   2.11206   2.11327   2.11379   2.12030
 Alpha virt. eigenvalues --    2.12219   2.12467   2.12842   2.12882   2.13066
 Alpha virt. eigenvalues --    2.13494   2.13901   2.14328   2.14579   2.14928
 Alpha virt. eigenvalues --    2.15310   2.15624   2.16499   2.16619   2.16926
 Alpha virt. eigenvalues --    2.17202   2.17437   2.17899   2.17966   2.18441
 Alpha virt. eigenvalues --    2.18625   2.18834   2.19680   2.19769   2.20005
 Alpha virt. eigenvalues --    2.20226   2.20482   2.20929   2.21230   2.21589
 Alpha virt. eigenvalues --    2.21708   2.21789   2.21893   2.22478   2.22569
 Alpha virt. eigenvalues --    2.22980   2.23470   2.23861   2.24117   2.24561
 Alpha virt. eigenvalues --    2.25015   2.25223   2.25546   2.25667   2.25852
 Alpha virt. eigenvalues --    2.25919   2.26557   2.26639   2.26794   2.27072
 Alpha virt. eigenvalues --    2.27354   2.27676   2.28075   2.28239   2.28512
 Alpha virt. eigenvalues --    2.29034   2.29768   2.30577   2.30796   2.31087
 Alpha virt. eigenvalues --    2.31439   2.31650   2.32698   2.32886   2.33016
 Alpha virt. eigenvalues --    2.33318   2.33353   2.33784   2.34028   2.34461
 Alpha virt. eigenvalues --    2.34729   2.34906   2.35048   2.35693   2.36152
 Alpha virt. eigenvalues --    2.36187   2.36520   2.36931   2.37142   2.37434
 Alpha virt. eigenvalues --    2.37667   2.37794   2.38471   2.38725   2.39186
 Alpha virt. eigenvalues --    2.39700   2.39748   2.40199   2.40704   2.41249
 Alpha virt. eigenvalues --    2.41679   2.41731   2.42067   2.42131   2.42375
 Alpha virt. eigenvalues --    2.42759   2.42980   2.43126   2.43812   2.44278
 Alpha virt. eigenvalues --    2.44428   2.44707   2.45068   2.45201   2.45329
 Alpha virt. eigenvalues --    2.45663   2.46177   2.46751   2.47320   2.47474
 Alpha virt. eigenvalues --    2.47696   2.48136   2.48313   2.48792   2.49228
 Alpha virt. eigenvalues --    2.49744   2.49971   2.50625   2.50665   2.50786
 Alpha virt. eigenvalues --    2.51521   2.51909   2.52214   2.52757   2.53075
 Alpha virt. eigenvalues --    2.53374   2.53768   2.54049   2.54428   2.54923
 Alpha virt. eigenvalues --    2.55525   2.55970   2.56471   2.56533   2.56916
 Alpha virt. eigenvalues --    2.57330   2.57467   2.58348   2.58507   2.59070
 Alpha virt. eigenvalues --    2.59289   2.59412   2.59796   2.59916   2.60519
 Alpha virt. eigenvalues --    2.60960   2.61212   2.61442   2.62008   2.62771
 Alpha virt. eigenvalues --    2.62898   2.63018   2.63182   2.63737   2.63920
 Alpha virt. eigenvalues --    2.63991   2.64962   2.65536   2.65733   2.66630
 Alpha virt. eigenvalues --    2.66846   2.67028   2.67664   2.67708   2.67852
 Alpha virt. eigenvalues --    2.67964   2.68220   2.68490   2.68939   2.69167
 Alpha virt. eigenvalues --    2.69406   2.69813   2.70120   2.70484   2.70548
 Alpha virt. eigenvalues --    2.71242   2.71290   2.71488   2.71712   2.72247
 Alpha virt. eigenvalues --    2.72926   2.73080   2.73304   2.73427   2.73572
 Alpha virt. eigenvalues --    2.74036   2.74363   2.74552   2.74915   2.75048
 Alpha virt. eigenvalues --    2.75878   2.76738   2.76953   2.77222   2.77461
 Alpha virt. eigenvalues --    2.77780   2.77988   2.78326   2.78694   2.78854
 Alpha virt. eigenvalues --    2.79176   2.79629   2.79739   2.79851   2.80253
 Alpha virt. eigenvalues --    2.80762   2.81056   2.81348   2.81786   2.81916
 Alpha virt. eigenvalues --    2.82408   2.83176   2.83360   2.84260   2.84350
 Alpha virt. eigenvalues --    2.84519   2.84720   2.84952   2.85160   2.85251
 Alpha virt. eigenvalues --    2.85949   2.86204   2.87386   2.87657   2.87906
 Alpha virt. eigenvalues --    2.88008   2.88515   2.89012   2.89251   2.89956
 Alpha virt. eigenvalues --    2.90131   2.90534   2.90888   2.91436   2.91711
 Alpha virt. eigenvalues --    2.91753   2.92519   2.92829   2.92998   2.93138
 Alpha virt. eigenvalues --    2.93422   2.94218   2.95022   2.95168   2.95810
 Alpha virt. eigenvalues --    2.96144   2.96753   2.96829   2.97015   2.97316
 Alpha virt. eigenvalues --    2.97518   2.98082   2.98534   2.99428   2.99493
 Alpha virt. eigenvalues --    2.99840   3.00205   3.00385   3.00922   3.01408
 Alpha virt. eigenvalues --    3.01451   3.02262   3.02308   3.03387   3.03611
 Alpha virt. eigenvalues --    3.04056   3.04233   3.04311   3.05443   3.05503
 Alpha virt. eigenvalues --    3.06453   3.06515   3.06806   3.07531   3.07791
 Alpha virt. eigenvalues --    3.08999   3.09141   3.09793   3.10747   3.11397
 Alpha virt. eigenvalues --    3.12245   3.12418   3.13237   3.13627   3.14347
 Alpha virt. eigenvalues --    3.17090   3.18506   3.18774   3.20676   3.21623
 Alpha virt. eigenvalues --    3.22316   3.22888   3.23933   3.24462   3.25365
 Alpha virt. eigenvalues --    3.26167   3.26517   3.27032   3.27232   3.28591
 Alpha virt. eigenvalues --    3.28840   3.30169   3.31529   3.31903   3.31988
 Alpha virt. eigenvalues --    3.32215   3.32326   3.33120   3.33871   3.34473
 Alpha virt. eigenvalues --    3.34883   3.36143   3.36628   3.37080   3.37427
 Alpha virt. eigenvalues --    3.38700   3.39152   3.39616   3.40166   3.41762
 Alpha virt. eigenvalues --    3.42817   3.43104   3.43206   3.43486   3.44281
 Alpha virt. eigenvalues --    3.44809   3.45446   3.45566   3.46441   3.47452
 Alpha virt. eigenvalues --    3.48480   3.48509   3.49718   3.50417   3.51379
 Alpha virt. eigenvalues --    3.51645   3.52867   3.54453   3.55611   3.55765
 Alpha virt. eigenvalues --    3.57477   3.59352   3.59668   3.60012   3.61728
 Alpha virt. eigenvalues --    3.62536   3.62724   3.62842   3.63226   3.63458
 Alpha virt. eigenvalues --    3.64466   3.65356   3.65953   3.66186   3.66501
 Alpha virt. eigenvalues --    3.67629   3.68027   3.68072   3.69834   3.73311
 Alpha virt. eigenvalues --    3.73351   3.77980   3.79805   3.83364   4.01113
 Alpha virt. eigenvalues --    4.05607   4.12562   4.15080   4.16534   4.16936
 Alpha virt. eigenvalues --    4.18438   4.20146   4.20986   4.21567   4.23854
 Alpha virt. eigenvalues --    4.24792   4.25818   4.26174   4.27792   4.28572
 Alpha virt. eigenvalues --    4.30252   4.30496   4.33763   4.34753   4.36543
 Alpha virt. eigenvalues --    4.37779   4.39269   4.39975   4.40834   4.42198
 Alpha virt. eigenvalues --    4.43166   4.44127   4.44579   4.46554   4.47698
 Alpha virt. eigenvalues --    4.48136   4.48864   4.50771   4.51216   4.53257
 Alpha virt. eigenvalues --    4.54109   4.54590   4.55792   4.57808   4.58368
 Alpha virt. eigenvalues --    4.58547   4.58958   4.60060   4.61118   4.62262
 Alpha virt. eigenvalues --    4.63506   4.67167   4.67767   4.68582   4.69403
 Alpha virt. eigenvalues --    4.70960   4.71946   4.74290   4.77088   4.78076
 Alpha virt. eigenvalues --    4.79919   4.81262   4.81971   4.84270   4.85039
 Alpha virt. eigenvalues --    4.86104   4.91352   4.98956
          Condensed to atoms (all electrons):
 Mulliken charges:
               1
     1  Mg   0.820066
     2  C    0.076940
     3  C   -0.189427
     4  C   -0.159878
     5  C   -0.194487
     6  N   -0.615933
     7  C    0.342832
     8  C   -0.142390
     9  C   -0.106149
    10  C    0.276642
    11  C   -0.283911
    12  C   -0.167945
    13  C   -0.278128
    14  C    0.604423
    15  O   -0.476720
    16  O   -0.488689
    17  N   -0.709255
    18  C    0.327806
    19  C   -0.000612
    20  C    0.011519
    21  C    0.262674
    22  C   -0.375231
    23  C   -0.067543
    24  C   -0.223214
    25  N   -0.689209
    26  C    0.367103
    27  C   -0.071365
    28  C    0.098932
    29  C    0.298122
    30  C   -0.355061
    31  C   -0.247174
    32  C   -0.289633
    33  N   -0.707023
    34  C    0.257726
    35  C    0.049905
    36  C    0.066546
    37  C    0.250049
    38  C   -0.391947
    39  C    0.345164
    40  O   -0.464962
    41  C   -0.333823
    42  C    0.584468
    43  O   -0.508556
    44  O   -0.376476
    45  C   -0.080491
    46  C    0.049243
    47  C   -0.132888
    48  C    0.120608
    49  C   -0.375225
    50  C   -0.235991
    51  C   -0.174093
    52  C   -0.187346
    53  C   -0.082364
    54  C   -0.323289
    55  C   -0.158993
    56  C   -0.170760
    57  C   -0.186339
    58  C   -0.077406
    59  C   -0.299360
    60  C   -0.179862
    61  C   -0.173220
    62  C   -0.161862
    63  C   -0.061937
    64  C   -0.297780
    65  C   -0.302623
    66  H    0.071226
    67  H    0.085196
    68  H    0.077874
    69  H    0.119266
    70  H    0.111279
    71  H    0.087821
    72  H    0.106040
    73  H    0.091805
    74  H    0.105794
    75  H    0.133093
    76  H    0.141307
    77  H    0.144194
    78  H    0.125174
    79  H    0.125808
    80  H    0.114381
    81  H    0.081978
    82  H    0.096048
    83  H    0.097365
    84  H    0.129381
    85  H    0.103467
    86  H    0.134895
    87  H    0.115100
    88  H    0.059067
    89  H    0.115384
    90  H    0.113735
    91  H    0.077834
    92  H    0.134439
    93  H    0.126179
    94  H    0.111337
    95  H    0.145488
    96  H    0.129117
    97  H    0.138590
    98  H    0.100442
    99  H    0.102693
   100  H    0.104771
   101  H    0.085430
   102  H    0.111666
   103  H    0.135795
   104  H    0.123122
   105  H    0.105301
   106  H    0.085447
   107  H    0.110054
   108  H    0.098772
   109  H    0.100206
   110  H    0.089170
   111  H    0.072850
   112  H    0.109973
   113  H    0.116602
   114  H    0.094010
   115  H    0.061562
   116  H    0.098115
   117  H    0.101321
   118  H    0.094902
   119  H    0.085793
   120  H    0.090831
   121  H    0.080549
   122  H    0.077168
   123  H    0.113053
   124  H    0.081132
   125  H    0.083591
   126  H    0.087242
   127  H    0.101928
   128  H    0.071741
   129  H    0.086011
   130  H    0.079792
   131  H    0.076574
   132  H    0.068856
   133  H    0.090582
   134  H    0.114128
   135  H    0.091835
   136  H    0.112198
   137  H    0.120930
 Sum of Mulliken charges =  -0.00000
 Mulliken charges with hydrogens summed into heavy atoms:
               1
     1  Mg   0.820066
     2  C    0.076940
     3  C   -0.118201
     4  C   -0.074681
     5  C   -0.116613
     6  N   -0.615933
     7  C    0.342832
     8  C   -0.023125
     9  C    0.005130
    10  C    0.276642
    11  C    0.001755
    12  C    0.070942
    13  C    0.007372
    14  C    0.604423
    15  O   -0.476720
    16  O   -0.488689
    17  N   -0.709255
    18  C    0.327806
    19  C   -0.000612
    20  C    0.011519
    21  C    0.262674
    22  C   -0.009867
    23  C    0.014435
    24  C   -0.029801
    25  N   -0.689209
    26  C    0.367103
    27  C   -0.071365
    28  C    0.098932
    29  C    0.298122
    30  C    0.012682
    31  C   -0.073006
    32  C    0.017319
    33  N   -0.707023
    34  C    0.257726
    35  C    0.049905
    36  C    0.066546
    37  C    0.250049
    38  C   -0.019991
    39  C    0.345164
    40  O   -0.464962
    41  C   -0.188335
    42  C    0.584468
    43  O   -0.508556
    44  O   -0.376476
    45  C    0.287658
    46  C    0.256707
    47  C   -0.047457
    48  C    0.120608
    49  C   -0.004642
    50  C   -0.045243
    51  C    0.034734
    52  C    0.002030
    53  C   -0.009515
    54  C   -0.002704
    55  C    0.000684
    56  C    0.025463
    57  C   -0.009715
    58  C    0.003143
    59  C   -0.028007
    60  C   -0.009028
    61  C    0.000449
    62  C    0.003941
    63  C    0.014637
    64  C   -0.024214
    65  C    0.022340
 Electronic spatial extent (au):  <R**2>=         178767.3161
 Charge=             -0.0000 electrons
 Dipole moment (field-independent basis, Debye):
    X=              1.7606    Y=              4.1742    Z=              0.3177  Tot=              4.5414
 Quadrupole moment (field-independent basis, Debye-Ang):
   XX=           -360.3991   YY=           -393.9384   ZZ=           -399.1976
   XY=            -22.4759   XZ=             21.7333   YZ=             -0.3322
 Traceless Quadrupole moment (field-independent basis, Debye-Ang):
   XX=             24.1126   YY=             -9.4267   ZZ=            -14.6859
   XY=            -22.4759   XZ=             21.7333   YZ=             -0.3322
 Octapole moment (field-independent basis, Debye-Ang**2):
  XXX=           -535.6300  YYY=            104.7769  ZZZ=             -4.9627  XYY=            -40.1185
  XXY=             89.9614  XXZ=           -144.6521  XZZ=             18.4308  YZZ=            -16.6668
  YYZ=             33.1868  XYZ=            -11.3361
 Hexadecapole moment (field-independent basis, Debye-Ang**3):
 XXXX=        -219543.5967 YYYY=         -17842.4773 ZZZZ=          -4258.2353 XXXY=            -34.7629
 XXXZ=           3950.1468 YYYX=          -1101.9327 YYYZ=           -225.7626 ZZZX=            114.4363
 ZZZY=            -89.5673 XXYY=         -40337.2841 XXZZ=         -38461.5589 YYZZ=          -3552.1821
 XXYZ=            287.2457 YYXZ=            256.9696 ZZXY=            -14.6998
 N-N= 8.754246917817D+03 E-N=-2.433360928264D+04  KE= 2.908668608334D+03

 Test job not archived.
 1\1\GINC-RYZEN-SSD3\SP\RCAM-B3LYP TD-FC\6-31G(d,p)\C55H72Mg1N4O5\PADAW
 AN\07-Sep-2019\0\\# td=(NStates=1) iop(3/107=0140000000,3/108=01400000
 00) CAM-B3LYP/6-31G(d,p)\\TD\\0,1\Mg,0,-7.0901637081,0.5955579393,0.07
 33437044\C,0,-4.8136201785,-1.9388311137,0.5407194743\C,0,-4.786134644
 1,2.8481135293,1.1526253677\C,0,-9.4264694114,3.1538229353,-0.46051852
 72\C,0,-9.4562017182,-1.6451362793,-0.9840852134\N,0,-5.0781948507,0.3
 8029412,0.7674045645\C,0,-4.349077155,-0.6424853917,0.854293324\C,0,-2
 .8864748681,-0.3749058886,1.2647121403\C,0,-3.0529785248,1.0955382554,
 1.7567519545\C,0,-4.326402875,1.4760822593,1.2905434482\C,0,-3.0391300
 938,1.2818810074,3.2077660912\C,0,-1.9623119609,-0.5838743766,0.088952
 7056\C,0,-0.4942651357,-0.5331465627,0.6167050528\C,0,0.458607784,-0.6
 364002619,-0.5366534554\O,0,0.2089011069,-0.8234161193,-1.7433817313\O
 ,0,1.7922878272,-0.3831882572,-0.2469800856\N,0,-7.0762852719,2.581871
 397,0.3283737615\C,0,-6.0602161654,3.3500687743,0.728808757\C,0,-6.390
 5039588,4.7448113447,0.7301112698\C,0,-7.7005848438,4.866518457,0.3213
 082572\C,0,-8.0897485024,3.450882027,0.0260406027\C,0,-5.3109331272,5.
 8698364573,1.0971898742\C,0,-8.497379746,6.0626065303,0.1817787904\C,0
 ,-8.31650006,7.2807172214,0.6531193712\N,0,-9.1492439655,0.791916186,-
 0.5839349674\C,0,-9.8213796243,1.9242257469,-0.7079636099\C,0,-11.2035
 643091,1.4644158861,-1.0701718769\C,0,-11.182117699,0.1202795738,-1.25
 14151698\C,0,-9.8763052341,-0.2523254259,-1.0224544467\C,0,-12.3651874
 564,2.4886341048,-1.236863139\C,0,-12.3241762105,-0.7418403078,-1.6590
 552361\C,0,-12.394741383,-1.0193121235,-3.1904496962\N,0,-7.22817578,-
 1.37704254,-0.0747101461\C,0,-8.1385581821,-2.2345219977,-0.6212037003
 \C,0,-7.7882608659,-3.5944299944,-0.5460349033\C,0,-6.4569134818,-3.57
 32603081,-0.0717292546\C,0,-6.1549892306,-2.240401996,0.1467065061\C,0
 ,-8.6317755171,-4.7904451429,-0.9161149946\C,0,-5.3000354664,-4.381481
 7116,0.2234573198\O,0,-5.1759985922,-5.6058774447,0.1989958482\C,0,-4.
 1014646491,-3.2763550829,0.5722355452\C,0,-3.4492791047,-3.7274706898,
 1.8549314616\O,0,-3.8264454279,-3.233000658,2.943387697\O,0,-2.7032956
 824,-4.7775063691,1.7392329608\C,0,-2.1160205591,-5.3195471606,2.83553
 09535\C,0,2.8341697374,-0.5961479037,-1.1713406513\C,0,4.1356844536,-0
 .4357188398,-0.5568282456\C,0,5.1372592172,0.3444809761,-1.0099438714\
 C,0,5.0933730629,1.2809257679,-2.2180259376\C,0,6.3880450832,0.3432949
 455,-0.2125317776\C,0,7.628684321,-0.1926978178,-1.0583961683\C,0,8.85
 28129929,-0.26873869,-0.1335494573\C,0,10.2019556562,-0.7426559288,-0.
 8483005501\C,0,10.1619294695,-2.2554834282,-1.3711240784\C,0,11.421186
 7825,-0.4562905202,0.026134651\C,0,12.668034539,-0.6805680903,-0.59740
 72458\C,0,13.9525665285,-0.2565613704,0.2923656482\C,0,15.2943754285,-
 0.1627353571,-0.495165169\C,0,15.6011563866,-1.6235607444,-0.916613487
 6\C,0,16.3687238651,0.3361001273,0.5366283975\C,0,17.7360711948,0.6210
 058302,-0.0569922262\C,0,18.7457949981,1.3120292814,0.8232655833\C,0,2
 0.1454773521,1.5256319957,0.1752542314\C,0,20.0752203678,2.1591932244,
 -1.2410087968\C,0,21.1564707141,2.1504267426,1.1972936694\H,0,-4.10771
 11346,3.5558988413,1.5884749433\H,0,-9.9615982831,4.0156238369,-0.7179
 363198\H,0,-10.2825526794,-2.4836138965,-1.2155993793\H,0,-2.569114198
 6,-1.1013303357,1.9767941701\H,0,-2.2807815445,1.5490969708,1.29258290
 73\H,0,-1.9085139378,1.2859677032,3.6663369711\H,0,-3.517778887,2.3108
 003028,3.5462426465\H,0,-4.0070335039,0.4918643407,3.7203637216\H,0,-2
 .3581809371,-1.6389645673,-0.3770957167\H,0,-2.0874751165,0.0851661364
 ,-0.7084075754\H,0,-0.2034657753,0.4193715245,1.2058844514\H,0,-0.3202
 704473,-1.3147422408,1.4091143697\H,0,-5.5668508628,6.6112386359,0.293
 9092222\H,0,-5.2745789292,6.2993328147,2.0981918317\H,0,-4.2990847531,
 5.4954638144,1.0152322558\H,0,-9.1867889387,6.0083542174,-0.52067342\H
 ,0,-9.0549045542,7.9148312041,0.3981195877\H,0,-7.411999132,7.48864570
 1,1.2455235127\H,0,-12.3323537084,3.0814072878,-2.0755633878\H,0,-13.1
 55982896,1.772886031,-1.422577986\H,0,-12.4879898317,2.8420215363,-0.3
 133917787\H,0,-12.4146634312,-1.6280537282,-1.0367271736\H,0,-13.33729
 60287,-0.1038730978,-1.205596314\H,0,-13.123337533,-1.7114548076,-3.57
 11780759\H,0,-12.5567160773,-0.1269411654,-3.869245903\H,0,-11.3412089
 603,-1.7230833355,-3.294777756\H,0,-8.9190365223,-4.9931258134,-1.9699
 530583\H,0,-7.9675511403,-5.71116707,-0.4169216473\H,0,-9.6923634153,-
 4.877566205,-0.4208443531\H,0,-3.379185437,-3.3549420998,-0.1328610242
 \H,0,-1.4259659842,-4.7241646299,3.2298647041\H,0,-2.8909355309,-5.614
 300955,3.515172555\H,0,-1.5835488754,-6.3249832831,2.356869048\H,0,2.7
 41072162,-1.6459612189,-1.5566571144\H,0,2.8388303243,-0.0140733225,-1
 .9769587534\H,0,4.2304435311,-1.1235007639,0.2743288331\H,0,4.09973528
 5,1.1840239451,-2.6038408698\H,0,5.113458278,2.2423046544,-1.883105749
 \H,0,5.7044800165,0.9798091718,-3.1366599229\H,0,6.7848666706,1.229642
 9449,0.1946090748\H,0,6.0654444165,-0.2095182885,0.7257587714\H,0,7.38
 37004928,-1.1839690699,-1.3928940466\H,0,7.7543679953,0.6657456776,-1.
 8370745304\H,0,9.1411201563,0.5480443019,0.4267150996\H,0,8.7563887597
 ,-0.9156099137,0.7243485583\H,0,10.3867933111,-0.1579696492,-1.7691520
 732\H,0,9.2621258217,-2.3786161451,-1.8494033222\H,0,10.9622653671,-2.
 5430477041,-1.9079961577\H,0,10.0928514822,-2.8370878235,-0.4491723109
 \H,0,11.5559472363,0.5083772711,0.6677245433\H,0,11.1856461601,-1.0572
 570233,0.7753938595\H,0,12.8182297755,-1.6353909584,-0.8178140529\H,0,
 12.951310961,0.0619811341,-1.3595802917\H,0,13.6128927096,0.711716535,
 0.5691317419\H,0,14.1989982104,-0.8126676457,1.1304254165\H,0,15.35782
 6184,0.4127046675,-1.4442356924\H,0,15.8068244792,-2.2268320244,0.0864
 505096\H,0,14.9847601204,-2.1913236524,-1.5544468182\H,0,16.6103993195
 ,-1.5522661236,-1.4813646498\H,0,15.9623595095,1.2892672604,0.91178709
 5\H,0,16.3546295408,-0.2923855234,1.4227207668\H,0,17.9717339111,-0.38
 52350375,-0.3192921248\H,0,17.4774750571,1.2408729814,-1.0310088445\H,
 0,18.3730263595,2.2934406121,1.0809600428\H,0,18.8740333658,0.72298713
 82,1.7765809036\H,0,20.3304428766,0.4562666243,-0.182962404\H,0,19.807
 7075893,3.3007808546,-0.9927714618\H,0,21.2036941702,2.1231734594,-1.5
 319011713\H,0,19.3118695846,1.8079410843,-1.9822366081\H,0,21.10702455
 6,1.3630819491,2.0658802568\H,0,22.0257704698,2.2345939301,0.718148468
 4\H,0,20.7556056391,2.9549316104,1.662563393\\Version=ES64L-G16RevA.03
 \State=1-A\HF=-2933.471914\RMSD=6.786e-09\PG=C01 [X(C55H72Mg1N4O5)]\\@


 One man practicing sportsmanship is far better than 50 preaching it.
 -- Knute K. Rockne
 Job cpu time:       1 days  3 hours 21 minutes  6.1 seconds.
 Elapsed time:       0 days  6 hours 51 minutes 23.8 seconds.
 File lengths (MBytes):  RWF=   6809 Int=      0 D2E=      0 Chk=    181 Scr=      1
 Normal termination of Gaussian 16 at Sat Sep  7 20:03:28 2019.
