 Entering Gaussian System, Link 0=g16
 Input=Geometria-397-.com
 Output=Geometria-397-.log
 Initial command:
 /usr/local/g09/l1.exe "/home/padawan/israel-mol/chlorophyll-a/spectra/emi/Gau-22458.inp" -scrdir="/home/padawan/israel-mol/chlorophyll-a/spectra/emi/"
 Entering Link 1 = /usr/local/g09/l1.exe PID=     22460.
  
 Copyright (c) 1988,1990,1992,1993,1995,1998,2003,2009,2013,
            Gaussian, Inc.  All Rights Reserved.
  
 This is part of the Gaussian(R) 09 program.  It is based on
 the Gaussian(R) 03 system (copyright 2003, Gaussian, Inc.),
 the Gaussian(R) 98 system (copyright 1998, Gaussian, Inc.),
 the Gaussian(R) 94 system (copyright 1995, Gaussian, Inc.),
 the Gaussian 92(TM) system (copyright 1992, Gaussian, Inc.),
 the Gaussian 90(TM) system (copyright 1990, Gaussian, Inc.),
 the Gaussian 88(TM) system (copyright 1988, Gaussian, Inc.),
 the Gaussian 86(TM) system (copyright 1986, Carnegie Mellon
 University), and the Gaussian 82(TM) system (copyright 1983,
 Carnegie Mellon University). Gaussian is a federally registered
 trademark of Gaussian, Inc.
  
 This software contains proprietary and confidential information,
 including trade secrets, belonging to Gaussian, Inc.
  
 This software is provided under written license and may be
 used, copied, transmitted, or stored only in accord with that
 written license.
  
 The following legend is applicable only to US Government
 contracts under FAR:
  
                    RESTRICTED RIGHTS LEGEND
  
 Use, reproduction and disclosure by the US Government is
 subject to restrictions as set forth in subparagraphs (a)
 and (c) of the Commercial Computer Software - Restricted
 Rights clause in FAR 52.227-19.
  
 Gaussian, Inc.
 340 Quinnipiac St., Bldg. 40, Wallingford CT 06492
  
  
 ---------------------------------------------------------------
 Warning -- This program may not be used in any manner that
 competes with the business of Gaussian, Inc. or will provide
 assistance to any competitor of Gaussian, Inc.  The licensee
 of this program is prohibited from giving any competitor of
 Gaussian, Inc. access to this program.  By using this program,
 the user acknowledges that Gaussian, Inc. is engaged in the
 business of creating and licensing software in the field of
 computational chemistry and represents and warrants to the
 licensee that it is not a competitor of Gaussian, Inc. and that
 it will not use this program in any manner prohibited above.
 ---------------------------------------------------------------
  

 Cite this work as:
 Gaussian 09, Revision D.01,
 M. J. Frisch, G. W. Trucks, H. B. Schlegel, G. E. Scuseria, 
 M. A. Robb, J. R. Cheeseman, G. Scalmani, V. Barone, B. Mennucci, 
 G. A. Petersson, H. Nakatsuji, M. Caricato, X. Li, H. P. Hratchian, 
 A. F. Izmaylov, J. Bloino, G. Zheng, J. L. Sonnenberg, M. Hada, 
 M. Ehara, K. Toyota, R. Fukuda, J. Hasegawa, M. Ishida, T. Nakajima, 
 Y. Honda, O. Kitao, H. Nakai, T. Vreven, J. A. Montgomery, Jr., 
 J. E. Peralta, F. Ogliaro, M. Bearpark, J. J. Heyd, E. Brothers, 
 K. N. Kudin, V. N. Staroverov, T. Keith, R. Kobayashi, J. Normand, 
 K. Raghavachari, A. Rendell, J. C. Burant, S. S. Iyengar, J. Tomasi, 
 M. Cossi, N. Rega, J. M. Millam, M. Klene, J. E. Knox, J. B. Cross, 
 V. Bakken, C. Adamo, J. Jaramillo, R. Gomperts, R. E. Stratmann, 
 O. Yazyev, A. J. Austin, R. Cammi, C. Pomelli, J. W. Ochterski, 
 R. L. Martin, K. Morokuma, V. G. Zakrzewski, G. A. Voth, 
 P. Salvador, J. J. Dannenberg, S. Dapprich, A. D. Daniels, 
 O. Farkas, J. B. Foresman, J. V. Ortiz, J. Cioslowski, 
 and D. J. Fox, Gaussian, Inc., Wallingford CT, 2013.
 
 ******************************************
 Gaussian 09:  ES64L-G09RevD.01 24-Apr-2013
                 6-Jul-2019 
 ******************************************
 %nproc=4
 Will use up to    4 processors via shared memory.
 %Mem=2GB
 -------------------------------------
 # td=(NStates=1) CAM-B3LYP/6-31G(d,p)
 -------------------------------------
 1/38=1/1;
 2/12=2,17=6,18=5,40=1/2;
 3/5=1,6=6,7=101,11=9,16=1,25=1,30=1,74=-40/1,2,8,3;
 4//1;
 5/5=2,38=5/2;
 8/6=1,10=2,108=1/1;
 9/41=1,42=1,70=2/14;
 6/7=2,8=2,9=2,10=2/1;
 99/5=1,9=1/99;
 --
 TD
 --
 Symbolic Z-matrix:
 Charge =  0 Multiplicity = 1
 12                   -7.1944    0.67055   0.08399 
 6                    -4.85403  -1.90972   0.47176 
 6                    -4.7297    2.89278   0.9811 
 6                    -9.37029   3.1331   -0.3189 
 6                    -9.54928  -1.74787  -0.79026 
 7                    -5.06746   0.44987   0.60083 
 6                    -4.31906  -0.69336   0.821 
 6                    -2.91148  -0.39561   1.27614 
 6                    -2.9446    1.12087   1.48392 
 6                    -4.38675   1.50387   1.1594 
 6                    -2.60358   1.4552    2.9838 
 6                    -1.92426  -0.77368   0.03475 
 6                    -0.4583   -0.44547   0.45279 
 6                     0.45922  -0.632    -0.63356 
 8                     0.1024   -1.04069  -1.74316 
 8                     1.73264  -0.30942  -0.28683 
 7                    -7.08623   2.65685   0.28105 
 6                    -6.02531   3.39491   0.6794 
 6                    -6.36602   4.77188   0.80872 
 6                    -7.68343   4.85912   0.3975 
 6                    -8.21913   3.49469   0.14618 
 6                    -5.38986   5.81074   1.12823 
 6                    -8.60386   6.02628   0.16559 
 6                    -8.47195   7.13697   0.83035 
 7                    -9.09382   0.65853  -0.57885 
 6                    -9.84759   1.78703  -0.67875 
 6                    -11.1661   1.42647  -1.06637 
 6                    -11.19546   0.03965  -1.25766 
 6                    -9.90761  -0.42218  -0.88659 
 6                    -12.35177   2.32577  -1.27719 
 6                    -12.36204  -0.81011  -1.68744 
 6                    -12.33238  -1.08786  -3.26145 
 7                    -7.21398  -1.31426  -0.08466 
 6                    -8.26895  -2.17376  -0.52788 
 6                    -7.80687  -3.58568  -0.46998 
 6                    -6.46951  -3.63777  -0.04221 
 6                    -6.20669  -2.15622   0.13189 
 6                    -8.74203  -4.81372  -0.664 
 6                    -5.27095  -4.43852   0.21247 
 8                    -5.25922  -5.66878   0.28063 
 6                    -4.19894  -3.29926   0.54502 
 6                    -3.55426  -3.76475   1.89352 
 8                    -3.63358  -3.15334   2.94823 
 8                    -2.83601  -4.89775   1.65288 
 6                    -2.15337  -5.35588   2.89326 
 6                     2.82251  -0.55557  -1.23737 
 6                     4.09483  -0.38474  -0.60433 
 6                     5.09254   0.30557  -1.00666 
 6                     5.01558   1.38144  -2.11753 
 6                     6.38462   0.42867  -0.22193 
 6                     7.59018  -0.20523  -1.02308 
 6                     8.91483  -0.1613   -0.18338 
 6                     10.12047  -0.60396  -0.90523 
 6                     10.17277  -2.0281   -1.31974 
 6                     11.49126  -0.38046   0.06449 
 6                     12.80234  -0.46084  -0.87613 
 6                     13.96489  -0.06493   0.15746 
 6                     15.31986  -0.16528  -0.44383 
 6                     15.63886  -1.65079  -0.67394 
 6                     16.3862   0.40207   0.46814 
 6                     17.79849   0.55136  -0.06077 
 6                     18.79616   1.30579   0.79318 
 6                     20.22233   1.32745   0.32146 
 6                     20.48406   1.95813  -1.2065 
 6                     21.23786   2.13032   1.42926 
 1                    -3.93976   3.52953   1.3447 
 1                    -10.09707   3.82913  -0.52948 
 1                    -10.32925  -2.44451  -1.11059 
 1                    -3.12058  -1.12649   2.12769 
 1                    -2.36703   1.75105   0.98371 
 1                    -1.52512   0.97776   3.36125 
 1                    -2.50748   2.44687   3.11482 
 1                    -3.43949   0.96768   3.64139 
 1                    -2.07278  -1.75833  -0.16612 
 1                    -2.41242  -0.26945  -0.97205 
 1                    -0.82012   0.58146   1.15237 
 1                    -0.25721  -1.1194    1.39754 
 1                    -5.75778   6.77296   0.70229 
 1                    -5.41134   6.21361   2.13091 
 1                    -4.37002   5.61722   0.93748 
 1                    -9.52288   6.09215  -0.71598 
 1                    -9.07979   8.06042   0.61788 
 1                    -7.8051    7.43728   1.57405 
 1                    -12.25289   2.86339  -2.27119 
 1                    -13.23526   1.75594  -1.62135 
 1                    -12.56089   2.9487   -0.32853 
 1                    -12.49696  -1.73787  -1.18587 
 1                    -13.28673  -0.46861  -1.44775 
 1                    -13.06552  -1.90995  -3.49 
 1                    -12.42344  -0.21185  -3.85826 
 1                    -11.39623  -1.39024  -3.46847 
 1                    -9.10558  -4.62914  -1.6226 
 1                    -8.2779   -5.67813  -0.73563 
 1                    -9.60468  -5.00758   0.03215 
 1                    -3.33694  -3.47374  -0.18114 
 1                    -1.68442  -4.39727   3.3888 
 1                    -2.94339  -5.67701   3.68907 
 1                    -1.45418  -6.12967   2.74533 
 1                     3.0589   -1.57049  -1.55199 
 1                     2.58438  -0.04383  -2.21467 
 1                     4.31058  -1.09113   0.14814 
 1                     4.15866   1.83663  -2.36647 
 1                     5.49151   2.35624  -1.6833 
 1                     5.4801    1.00166  -2.8278 
 1                     6.69537   1.40803   0.06058 
 1                     6.16855  -0.21046   0.77066 
 1                     7.27203  -1.19687  -1.33389 
 1                     7.76188   0.41304  -1.98247 
 1                     8.89828   0.96922   0.28782 
 1                     8.93794  -0.6072    0.66911 
 1                     10.21817   0.18691  -1.69348 
 1                     9.36025  -2.15785  -1.87763 
 1                     10.96909  -2.1361   -2.02334 
 1                     10.26795  -2.60097  -0.51988 
 1                     11.41788   0.65259   0.40603 
 1                     11.33707  -1.13636   0.90607 
 1                     12.86296  -1.41431  -1.06461 
 1                     12.7208   0.11349  -1.86971 
 1                     13.66655   0.85079   0.53994 
 1                     13.75953  -0.74328   1.06679 
 1                     15.17298   0.13349  -1.45564 
 1                     15.78376  -2.15994   0.39678 
 1                     14.91302  -2.24768  -1.14443 
 1                     16.51513  -1.92682  -1.34807 
 1                     16.17989   1.36695   0.8085 
 1                     16.18258  -0.28875   1.47263 
 1                     18.27235  -0.35537  -0.42321 
 1                     17.76145   1.31181  -0.91303 
 1                     18.18624   2.34967   1.07808 
 1                     18.85527   0.88116   1.74217 
 1                     20.62003   0.35662   0.36816 
 1                     20.13781   3.05777  -1.12372 
 1                     21.48298   1.71709  -1.6088 
 1                     19.60224   1.38505  -1.84789 
 1                     21.07328   1.71891   2.35186 
 1                     22.26287   2.04185   0.89808 
 1                     20.99625   3.06186   1.46887 
 
 Stoichiometry    C55H72MgN4O5
 Framework group  C1[X(C55H72MgN4O5)]
 Deg. of freedom   405
 Full point group                 C1      NOp   1
 Largest Abelian subgroup         C1      NOp   1
 Largest concise Abelian subgroup C1      NOp   1
                         Standard orientation:                         
 ---------------------------------------------------------------------
 Center     Atomic      Atomic             Coordinates (Angstroms)
 Number     Number       Type             X           Y           Z
 ---------------------------------------------------------------------
      1         12           0       -7.192921    0.680219    0.090279
      2          6           0       -4.855184   -1.903301    0.472244
      3          6           0       -4.724727    2.898362    0.987905
      4          6           0       -9.366332    3.145852   -0.307122
      5          6           0       -9.551499   -1.734267   -0.784843
      6          7           0       -5.065724    0.456368    0.604692
      7          6           0       -4.318443   -0.688034    0.822576
      8          6           0       -2.910059   -0.392541    1.276700
      9          6           0       -2.941194    1.123700    1.486549
     10          6           0       -4.383217    1.508817    1.163995
     11          6           0       -2.598277    1.455609    2.986534
     12          6           0       -1.924522   -0.770100    0.033812
     13          6           0       -0.457768   -0.444162    0.450823
     14          6           0        0.458444   -0.630302   -0.636695
     15          8           0        0.100039   -1.037087   -1.746486
     16          8           0        1.732586   -0.309678   -0.290807
     17          7           0       -7.082228    2.666130    0.289897
     18          6           0       -6.020050    3.402413    0.688177
     19          6           0       -6.359021    4.779607    0.819687
     20          6           0       -7.676736    4.868934    0.409903
     21          6           0       -8.214279    3.505471    0.157289
     22          6           0       -5.381319    5.816897    1.139607
     23          6           0       -8.596029    6.037486    0.180489
     24          6           0       -8.462156    7.147123    0.846602
     25          7           0       -9.093018    0.671312   -0.570668
     26          6           0       -9.845567    1.800825   -0.668298
     27          6           0      -11.164880    1.442330   -1.055073
     28          6           0      -11.196061    0.055802   -1.248200
     29          6           0       -9.908375   -0.408035   -0.879042
     30          6           0      -12.349716    2.343300   -1.263501
     31          6           0      -12.364063   -0.792014   -1.677944
     32          6           0      -12.336305   -1.067687   -3.252356
     33          7           0       -7.214993   -1.304335   -0.081014
     34          6           0       -8.271408   -2.162007   -0.524323
     35          6           0       -7.810922   -3.574537   -0.468788
     36          6           0       -6.473200   -3.628766   -0.042423
     37          6           0       -6.208474   -2.147765    0.133394
     38          6           0       -8.747717   -4.801229   -0.663518
     39          6           0       -5.275323   -4.431257    0.209979
     40          8           0       -5.264968   -5.661624    0.276467
     41          6           0       -4.201650   -3.293696    0.542982
     42          6           0       -3.556157   -3.761756    1.890204
     43          8           0       -3.633713   -3.151672    2.945810
     44          8           0       -2.839483   -4.895273    1.647327
     45          6           0       -2.156128   -5.355862    2.886405
     46          6           0        2.821223   -0.555830   -1.242780
     47          6           0        4.094373   -0.387331   -0.610784
     48          6           0        5.092488    0.302346   -1.013188
     49          6           0        5.015670    1.379801   -2.122531
     50          6           0        6.385496    0.422890   -0.229589
     51          6           0        7.589504   -0.211347   -1.032800
     52          6           0        8.915052   -0.170094   -0.194372
     53          6           0       10.119449   -0.613189   -0.918027
     54          6           0       10.169669   -2.036837   -1.334494
     55          6           0       11.491470   -0.392598    0.050614
     56          6           0       12.801505   -0.473245   -0.891423
     57          6           0       13.965553   -0.080080    0.141531
     58          6           0       15.319804   -0.181208   -0.461259
     59          6           0       15.636832   -1.666782   -0.693677
     60          6           0       16.387725    0.383674    0.450405
     61          6           0       17.799660    0.532016   -0.079725
     62          6           0       18.799062    1.284134    0.774237
     63          6           0       20.224784    1.304765    0.301112
     64          6           0       20.485720    1.937192   -1.226260
     65          6           0       21.242366    2.104952    1.408970
     66          1           0       -3.933671    3.533700    1.351561
     67          1           0      -10.092506    3.843018   -0.516032
     68          1           0      -10.332605   -2.429567   -1.105327
     69          1           0       -3.119158   -1.124321    2.127483
     70          1           0       -2.363391    1.753870    0.986606
     71          1           0       -1.520001    0.976403    3.362260
     72          1           0       -2.500886    2.446990    3.118792
     73          1           0       -3.434100    0.968187    3.644305
     74          1           0       -2.074399   -1.754298   -0.168228
     75          1           0       -2.413107   -0.263945   -0.971814
     76          1           0       -0.817677    0.582252    1.152140
     77          1           0       -0.256520   -1.119592    1.394470
     78          1           0       -5.748547    6.780110    0.715326
     79          1           0       -5.401324    6.218446    2.142849
     80          1           0       -4.361902    5.622441    0.947573
     81          1           0       -9.515861    6.105606   -0.700074
     82          1           0       -9.069126    8.071565    0.635984
     83          1           0       -7.794209    7.445655    1.590032
     84          1           0      -12.251199    2.882132   -2.256873
     85          1           0      -13.234216    1.774962   -1.607538
     86          1           0      -12.557150    2.965199   -0.313796
     87          1           0      -12.499569   -1.720293   -1.177489
     88          1           0      -13.288109   -0.449761   -1.436869
     89          1           0      -13.070637   -1.888606   -3.481271
     90          1           0      -12.426933   -0.190764   -3.847896
     91          1           0      -11.400713   -1.370885   -3.460716
     92          1           0       -9.112010   -4.614936   -1.621495
     93          1           0       -8.284666   -5.666077   -0.736772
     94          1           0       -9.609894   -4.995007    0.033243
     95          1           0       -3.340584   -3.468213   -0.184284
     96          1           0       -1.685561   -4.398464    3.382758
     97          1           0       -2.945734   -5.677137    3.682574
     98          1           0       -1.458000   -6.130272    2.736729
     99          1           0        3.056101   -1.570597   -1.558993
    100          1           0        2.582704   -0.042496   -2.219152
    101          1           0        4.310051   -1.094987    0.140519
    102          1           0        4.159039    1.836327   -2.369999
    103          1           0        5.493180    2.353455   -1.687480
    104          1           0        5.479029    1.000433   -2.833782
    105          1           0        6.697674    1.401506    0.053920
    106          1           0        6.169672   -0.217324    0.762354
    107          1           0        7.269891   -1.202195   -1.344626
    108          1           0        7.760968    0.408015   -1.991533
    109          1           0        8.900296    0.959817    0.278357
    110          1           0        8.938494   -0.617160    0.657500
    111          1           0       10.217281    0.178623   -1.705315
    112          1           0        9.356436   -2.164888   -1.891750
    113          1           0       10.965152   -2.144819   -2.039039
    114          1           0       10.264975   -2.610890   -0.535506
    115          1           0       11.419638    0.640077    0.393619
    116          1           0       11.337234   -1.149445    0.891337
    117          1           0       12.860825   -1.426531   -1.081250
    118          1           0       12.719642    0.102516   -1.884152
    119          1           0       13.668671    0.835468    0.525537
    120          1           0       13.760314   -0.759417    1.050155
    121          1           0       15.172262    0.119095   -1.472516
    122          1           0       15.782210   -2.177533    0.376208
    123          1           0       14.909832   -2.262185   -1.164244
    124          1           0       16.512108   -1.942926   -1.369055
    125          1           0       16.182886    1.348337    0.792263
    126          1           0       16.184304   -0.308259    1.454170
    127          1           0       18.272089   -0.374778   -0.443850
    128          1           0       17.762654    1.293655   -0.930929
    129          1           0       18.190650    2.328343    1.061146
    130          1           0       18.858629    0.858164    1.722601
    131          1           0       20.621391    0.333408    0.346117
    132          1           0       20.140838    3.037119   -1.141651
    133          1           0       21.483956    1.695519   -1.629887
    134          1           0       19.602592    1.366001   -1.867534
    135          1           0       21.078229    1.692499    2.331189
    136          1           0       22.266733    2.015997    0.876650
    137          1           0       21.001881    3.036720    1.450072
 ---------------------------------------------------------------------
 Rotational constants (GHZ):      0.0644222      0.0060886      0.0057275
 Standard basis: 6-31G(d,p) (6D, 7F)
 There are  1339 symmetry adapted cartesian basis functions of A   symmetry.
 There are  1339 symmetry adapted basis functions of A   symmetry.
  1339 basis functions,  2348 primitive gaussians,  1339 cartesian basis functions
   241 alpha electrons      241 beta electrons
       nuclear repulsion energy      8735.7611287642 Hartrees.
 NAtoms=  137 NActive=  137 NUniq=  137 SFac= 1.00D+00 NAtFMM=   60 NAOKFM=T Big=T
 Integral buffers will be    131072 words long.
 Raffenetti 1 integral format.
 Two-electron integral symmetry is turned on.
 One-electron integrals computed using PRISM.
 NBasis=  1339 RedAO= T EigKep=  3.36D-04  NBF=  1339
 NBsUse=  1339 1.00D-06 EigRej= -1.00D+00 NBFU=  1339
 ExpMin= 4.21D-02 ExpMax= 1.17D+04 ExpMxC= 1.76D+03 IAcc=2 IRadAn=         4 AccDes= 0.00D+00
 Harris functional with IExCor=20419 and IRadAn=       4 diagonalized for initial guess.
 HarFok:  IExCor=20419 AccDes= 0.00D+00 IRadAn=         4 IDoV= 1 UseB2=F ITyADJ=14
 ICtDFT=  3500011 ScaDFX=  1.000000  1.000000  1.000000  1.000000
 FoFCou: FMM=F IPFlag=           0 FMFlag=      100000 FMFlg1=        2001
         NFxFlg=           0 DoJE=T BraDBF=F KetDBF=T FulRan=T
         wScrn=  0.000000 ICntrl=     500 IOpCl=  0 I1Cent=   200000004 NGrid=           0
         NMat0=    1 NMatS0=      1 NMatT0=    0 NMatD0=    1 NMtDS0=    0 NMtDT0=    0
 Petite list used in FoFCou.
 Requested convergence on RMS density matrix=1.00D-08 within 128 cycles.
 Requested convergence on MAX density matrix=1.00D-06.
 Requested convergence on             energy=1.00D-06.
 No special actions if energy rises.
 SCF Done:  E(RCAM-B3LYP) =  -2932.58055775     A.U. after   17 cycles
            NFock= 17  Conv=0.95D-08     -V/T= 2.0090
 DoSCS=F DFT=T ScalE2(SS,OS)=  1.000000  1.000000
 ExpMin= 4.21D-02 ExpMax= 1.17D+04 ExpMxC= 1.76D+03 IAcc=3 IRadAn=         5 AccDes= 0.00D+00
 HarFok:  IExCor=  205 AccDes= 0.00D+00 IRadAn=         5 IDoV=-2 UseB2=F ITyADJ=14
 ICtDFT= 12500011 ScaDFX=  1.000000  1.000000  1.000000  1.000000
 Range of M.O.s used for correlation:    70  1339
 NBasis=  1339 NAE=   241 NBE=   241 NFC=    69 NFV=     0
 NROrb=   1270 NOA=   172 NOB=   172 NVA=  1098 NVB=  1098
 Would need an additional       2415464100000 words for in-memory AO integral storage.
 Orbital symmetries:
       Occupied  (A) (A) (A) (A) (A) (A) (A) (A) (A) (A) (A) (A)
                 (A) (A) (A) (A) (A) (A) (A) (A) (A) (A) (A) (A)
                 (A) (A) (A) (A) (A) (A) (A) (A) (A) (A) (A) (A)
                 (A) (A) (A) (A) (A) (A) (A) (A) (A) (A) (A) (A)
                 (A) (A) (A) (A) (A) (A) (A) (A) (A) (A) (A) (A)
                 (A) (A) (A) (A) (A) (A) (A) (A) (A) (A) (A) (A)
                 (A) (A) (A) (A) (A) (A) (A) (A) (A) (A) (A) (A)
                 (A) (A) (A) (A) (A) (A) (A) (A) (A) (A) (A) (A)
                 (A) (A) (A) (A) (A) (A) (A) (A) (A) (A) (A) (A)
                 (A) (A) (A) (A) (A) (A) (A) (A) (A) (A) (A) (A)
                 (A) (A) (A) (A) (A) (A) (A) (A) (A) (A) (A) (A)
                 (A) (A) (A) (A) (A) (A) (A) (A) (A) (A) (A) (A)
                 (A) (A) (A) (A) (A) (A) (A) (A) (A) (A) (A) (A)
                 (A) (A) (A) (A) (A) (A) (A) (A) (A) (A) (A) (A)
                 (A) (A) (A) (A) (A) (A) (A) (A) (A) (A) (A) (A)
                 (A) (A) (A) (A) (A) (A) (A) (A) (A) (A) (A) (A)
                 (A) (A) (A) (A) (A) (A) (A) (A) (A) (A) (A) (A)
                 (A) (A) (A) (A) (A) (A) (A) (A) (A) (A) (A) (A)
                 (A) (A) (A) (A) (A) (A) (A) (A) (A) (A) (A) (A)
                 (A) (A) (A) (A) (A) (A) (A) (A) (A) (A) (A) (A)
                 (A)
       Virtual   (A) (A) (A) (A) (A) (A) (A) (A) (A) (A) (A) (A)
                 (A) (A) (A) (A) (A) (A) (A) (A) (A) (A) (A) (A)
                 (A) (A) (A) (A) (A) (A) (A) (A) (A) (A) (A) (A)
                 (A) (A) (A) (A) (A) (A) (A) (A) (A) (A) (A) (A)
                 (A) (A) (A) (A) (A) (A) (A) (A) (A) (A) (A) (A)
                 (A) (A) (A) (A) (A) (A) (A) (A) (A) (A) (A) (A)
                 (A) (A) (A) (A) (A) (A) (A) (A) (A) (A) (A) (A)
                 (A) (A) (A) (A) (A) (A) (A) (A) (A) (A) (A) (A)
                 (A) (A) (A) (A) (A) (A) (A) (A) (A) (A) (A) (A)
                 (A) (A) (A) (A) (A) (A) (A) (A) (A) (A) (A) (A)
                 (A) (A) (A) (A) (A) (A) (A) (A) (A) (A) (A) (A)
                 (A) (A) (A) (A) (A) (A) (A) (A) (A) (A) (A) (A)
                 (A) (A) (A) (A) (A) (A) (A) (A) (A) (A) (A) (A)
                 (A) (A) (A) (A) (A) (A) (A) (A) (A) (A) (A) (A)
                 (A) (A) (A) (A) (A) (A) (A) (A) (A) (A) (A) (A)
                 (A) (A) (A) (A) (A) (A) (A) (A) (A) (A) (A) (A)
                 (A) (A) (A) (A) (A) (A) (A) (A) (A) (A) (A) (A)
                 (A) (A) (A) (A) (A) (A) (A) (A) (A) (A) (A) (A)
                 (A) (A) (A) (A) (A) (A) (A) (A) (A) (A) (A) (A)
                 (A) (A) (A) (A) (A) (A) (A) (A) (A) (A) (A) (A)
                 (A) (A) (A) (A) (A) (A) (A) (A) (A) (A) (A) (A)
                 (A) (A) (A) (A) (A) (A) (A) (A) (A) (A) (A) (A)
                 (A) (A) (A) (A) (A) (A) (A) (A) (A) (A) (A) (A)
                 (A) (A) (A) (A) (A) (A) (A) (A) (A) (A) (A) (A)
                 (A) (A) (A) (A) (A) (A) (A) (A) (A) (A) (A) (A)
                 (A) (A) (A) (A) (A) (A) (A) (A) (A) (A) (A) (A)
                 (A) (A) (A) (A) (A) (A) (A) (A) (A) (A) (A) (A)
                 (A) (A) (A) (A) (A) (A) (A) (A) (A) (A) (A) (A)
                 (A) (A) (A) (A) (A) (A) (A) (A) (A) (A) (A) (A)
                 (A) (A) (A) (A) (A) (A) (A) (A) (A) (A) (A) (A)
                 (A) (A) (A) (A) (A) (A) (A) (A) (A) (A) (A) (A)
                 (A) (A) (A) (A) (A) (A) (A) (A) (A) (A) (A) (A)
                 (A) (A) (A) (A) (A) (A) (A) (A) (A) (A) (A) (A)
                 (A) (A) (A) (A) (A) (A) (A) (A) (A) (A) (A) (A)
                 (A) (A) (A) (A) (A) (A) (A) (A) (A) (A) (A) (A)
                 (A) (A) (A) (A) (A) (A) (A) (A) (A) (A) (A) (A)
                 (A) (A) (A) (A) (A) (A) (A) (A) (A) (A) (A) (A)
                 (A) (A) (A) (A) (A) (A) (A) (A) (A) (A) (A) (A)
                 (A) (A) (A) (A) (A) (A) (A) (A) (A) (A) (A) (A)
                 (A) (A) (A) (A) (A) (A) (A) (A) (A) (A) (A) (A)
                 (A) (A) (A) (A) (A) (A) (A) (A) (A) (A) (A) (A)
                 (A) (A) (A) (A) (A) (A) (A) (A) (A) (A) (A) (A)
                 (A) (A) (A) (A) (A) (A) (A) (A) (A) (A) (A) (A)
                 (A) (A) (A) (A) (A) (A) (A) (A) (A) (A) (A) (A)
                 (A) (A) (A) (A) (A) (A) (A) (A) (A) (A) (A) (A)
                 (A) (A) (A) (A) (A) (A) (A) (A) (A) (A) (A) (A)
                 (A) (A) (A) (A) (A) (A) (A) (A) (A) (A) (A) (A)
                 (A) (A) (A) (A) (A) (A) (A) (A) (A) (A) (A) (A)
                 (A) (A) (A) (A) (A) (A) (A) (A) (A) (A) (A) (A)
                 (A) (A) (A) (A) (A) (A) (A) (A) (A) (A) (A) (A)
                 (A) (A) (A) (A) (A) (A) (A) (A) (A) (A) (A) (A)
                 (A) (A) (A) (A) (A) (A) (A) (A) (A) (A) (A) (A)
                 (A) (A) (A) (A) (A) (A) (A) (A) (A) (A) (A) (A)
                 (A) (A) (A) (A) (A) (A) (A) (A) (A) (A) (A) (A)
                 (A) (A) (A) (A) (A) (A) (A) (A) (A) (A) (A) (A)
                 (A) (A) (A) (A) (A) (A) (A) (A) (A) (A) (A) (A)
                 (A) (A) (A) (A) (A) (A) (A) (A) (A) (A) (A) (A)
                 (A) (A) (A) (A) (A) (A) (A) (A) (A) (A) (A) (A)
                 (A) (A) (A) (A) (A) (A) (A) (A) (A) (A) (A) (A)
                 (A) (A) (A) (A) (A) (A) (A) (A) (A) (A) (A) (A)
                 (A) (A) (A) (A) (A) (A) (A) (A) (A) (A) (A) (A)
                 (A) (A) (A) (A) (A) (A) (A) (A) (A) (A) (A) (A)
                 (A) (A) (A) (A) (A) (A) (A) (A) (A) (A) (A) (A)
                 (A) (A) (A) (A) (A) (A) (A) (A) (A) (A) (A) (A)
                 (A) (A) (A) (A) (A) (A) (A) (A) (A) (A) (A) (A)
                 (A) (A) (A) (A) (A) (A) (A) (A) (A) (A) (A) (A)
                 (A) (A) (A) (A) (A) (A) (A) (A) (A) (A) (A) (A)
                 (A) (A) (A) (A) (A) (A) (A) (A) (A) (A) (A) (A)
                 (A) (A) (A) (A) (A) (A) (A) (A) (A) (A) (A) (A)
                 (A) (A) (A) (A) (A) (A) (A) (A) (A) (A) (A) (A)
                 (A) (A) (A) (A) (A) (A) (A) (A) (A) (A) (A) (A)
                 (A) (A) (A) (A) (A) (A) (A) (A) (A) (A) (A) (A)
                 (A) (A) (A) (A) (A) (A) (A) (A) (A) (A) (A) (A)
                 (A) (A) (A) (A) (A) (A) (A) (A) (A) (A) (A) (A)
                 (A) (A) (A) (A) (A) (A) (A) (A) (A) (A) (A) (A)
                 (A) (A) (A) (A) (A) (A) (A) (A) (A) (A) (A) (A)
                 (A) (A) (A) (A) (A) (A) (A) (A) (A) (A) (A) (A)
                 (A) (A) (A) (A) (A) (A) (A) (A) (A) (A) (A) (A)
                 (A) (A) (A) (A) (A) (A) (A) (A) (A) (A) (A) (A)
                 (A) (A) (A) (A) (A) (A) (A) (A) (A) (A) (A) (A)
                 (A) (A) (A) (A) (A) (A) (A) (A) (A) (A) (A) (A)
                 (A) (A) (A) (A) (A) (A) (A) (A) (A) (A) (A) (A)
                 (A) (A) (A) (A) (A) (A) (A) (A) (A) (A) (A) (A)
                 (A) (A) (A) (A) (A) (A) (A) (A) (A) (A) (A) (A)
                 (A) (A) (A) (A) (A) (A) (A) (A) (A) (A) (A) (A)
                 (A) (A) (A) (A) (A) (A) (A) (A) (A) (A) (A) (A)
                 (A) (A) (A) (A) (A) (A) (A) (A) (A) (A) (A) (A)
                 (A) (A) (A) (A) (A) (A) (A) (A) (A) (A) (A) (A)
                 (A) (A) (A) (A) (A) (A) (A) (A) (A) (A) (A) (A)
                 (A) (A) (A) (A) (A) (A) (A) (A) (A) (A) (A) (A)
                 (A) (A) (A) (A) (A) (A) (A) (A) (A) (A) (A) (A)
                 (A) (A) (A) (A) (A) (A)
     8 initial guesses have been made.
 Convergence on wavefunction:    0.001000000000000
 Iteration     1 Dimension     8 NMult     0 NNew      8
 CISAX will form     8 AO SS matrices at one time.
 Iteration     2 Dimension    12 NMult     8 NNew      4
 Iteration     3 Dimension    16 NMult    12 NNew      4
 Iteration     4 Dimension    20 NMult    16 NNew      4
 Iteration     5 Dimension    24 NMult    20 NNew      4
 Iteration     6 Dimension    28 NMult    24 NNew      4
 ***********************************************************************
 Excited states from <AA,BB:AA,BB> singles matrix:
 ***********************************************************************
 
 Ground to excited state transition densities written to RWF  633
 Ground to excited state transition electric dipole moments (Au):
       state          X           Y           Z        Dip. S.      Osc.
         1        -0.3865      1.6749      0.0436      2.9566      0.1598
 Ground to excited state transition velocity dipole moments (Au):
       state          X           Y           Z        Dip. S.      Osc.
         1         0.0281     -0.1318     -0.0051      0.0182      0.1494
 Ground to excited state transition magnetic dipole moments (Au):
       state          X           Y           Z
         1        -0.7174     -0.2714      4.0449
 Ground to excited state transition velocity quadrupole moments (Au):
       state          XX          YY          ZZ          XY          XZ          YZ
         1        -0.8548      0.0691     -0.0602      1.6190     -0.0292     -0.1427
 <0|del|b> * <b|rxdel|0> + <0|del|b> * <b|delr+rdel|0>
 Rotatory Strengths (R) in cgs (10**-40 erg-esu-cm/Gauss)
       state          XX          YY          ZZ    R(velocity)    E-M Angle
         1        13.1512   -159.3809    102.2827    -14.6490       90.52
 1/2[<0|r|b>*<b|rxdel|0> + (<0|rxdel|b>*<b|r|0>)*]
 Rotatory Strengths (R) in cgs (10**-40 erg-esu-cm/Gauss)
       state          XX          YY          ZZ     R(length)
         1      -196.0772    321.5023   -124.7726      0.2175
  1/2[<0|del|b>*<b|r|0> + (<0|r|b>*<b|del|0>)*] (Au)
       state          X           Y           Z        Dip. S.   Osc.(frdel)
         1        -0.0109     -0.2207     -0.0002      0.2318      0.1545

 Excitation energies and oscillator strengths:
 
 Excited State   1:      Singlet-A      2.2064 eV  561.92 nm  f=0.1598  <S**2>=0.000
     240 -> 242       -0.14802
     240 -> 243       -0.28300
     241 -> 242        0.61016
     241 -> 243       -0.11728
 This state for optimization and/or second-order correction.
 Total Energy, E(TD-HF/TD-KS) =  -2932.49947328    
 Copying the excited state density for this state as the 1-particle RhoCI density.
 SavETr:  write IOETrn=   770 NScale= 10 NData=  16 NLR=1 NState=    1 LETran=      28.

 **********************************************************************

            Population analysis using the SCF density.

 **********************************************************************

 Orbital symmetries:
       Occupied  (A) (A) (A) (A) (A) (A) (A) (A) (A) (A) (A) (A)
                 (A) (A) (A) (A) (A) (A) (A) (A) (A) (A) (A) (A)
                 (A) (A) (A) (A) (A) (A) (A) (A) (A) (A) (A) (A)
                 (A) (A) (A) (A) (A) (A) (A) (A) (A) (A) (A) (A)
                 (A) (A) (A) (A) (A) (A) (A) (A) (A) (A) (A) (A)
                 (A) (A) (A) (A) (A) (A) (A) (A) (A) (A) (A) (A)
                 (A) (A) (A) (A) (A) (A) (A) (A) (A) (A) (A) (A)
                 (A) (A) (A) (A) (A) (A) (A) (A) (A) (A) (A) (A)
                 (A) (A) (A) (A) (A) (A) (A) (A) (A) (A) (A) (A)
                 (A) (A) (A) (A) (A) (A) (A) (A) (A) (A) (A) (A)
                 (A) (A) (A) (A) (A) (A) (A) (A) (A) (A) (A) (A)
                 (A) (A) (A) (A) (A) (A) (A) (A) (A) (A) (A) (A)
                 (A) (A) (A) (A) (A) (A) (A) (A) (A) (A) (A) (A)
                 (A) (A) (A) (A) (A) (A) (A) (A) (A) (A) (A) (A)
                 (A) (A) (A) (A) (A) (A) (A) (A) (A) (A) (A) (A)
                 (A) (A) (A) (A) (A) (A) (A) (A) (A) (A) (A) (A)
                 (A) (A) (A) (A) (A) (A) (A) (A) (A) (A) (A) (A)
                 (A) (A) (A) (A) (A) (A) (A) (A) (A) (A) (A) (A)
                 (A) (A) (A) (A) (A) (A) (A) (A) (A) (A) (A) (A)
                 (A) (A) (A) (A) (A) (A) (A) (A) (A) (A) (A) (A)
                 (A)
       Virtual   (A) (A) (A) (A) (A) (A) (A) (A) (A) (A) (A) (A)
                 (A) (A) (A) (A) (A) (A) (A) (A) (A) (A) (A) (A)
                 (A) (A) (A) (A) (A) (A) (A) (A) (A) (A) (A) (A)
                 (A) (A) (A) (A) (A) (A) (A) (A) (A) (A) (A) (A)
                 (A) (A) (A) (A) (A) (A) (A) (A) (A) (A) (A) (A)
                 (A) (A) (A) (A) (A) (A) (A) (A) (A) (A) (A) (A)
                 (A) (A) (A) (A) (A) (A) (A) (A) (A) (A) (A) (A)
                 (A) (A) (A) (A) (A) (A) (A) (A) (A) (A) (A) (A)
                 (A) (A) (A) (A) (A) (A) (A) (A) (A) (A) (A) (A)
                 (A) (A) (A) (A) (A) (A) (A) (A) (A) (A) (A) (A)
                 (A) (A) (A) (A) (A) (A) (A) (A) (A) (A) (A) (A)
                 (A) (A) (A) (A) (A) (A) (A) (A) (A) (A) (A) (A)
                 (A) (A) (A) (A) (A) (A) (A) (A) (A) (A) (A) (A)
                 (A) (A) (A) (A) (A) (A) (A) (A) (A) (A) (A) (A)
                 (A) (A) (A) (A) (A) (A) (A) (A) (A) (A) (A) (A)
                 (A) (A) (A) (A) (A) (A) (A) (A) (A) (A) (A) (A)
                 (A) (A) (A) (A) (A) (A) (A) (A) (A) (A) (A) (A)
                 (A) (A) (A) (A) (A) (A) (A) (A) (A) (A) (A) (A)
                 (A) (A) (A) (A) (A) (A) (A) (A) (A) (A) (A) (A)
                 (A) (A) (A) (A) (A) (A) (A) (A) (A) (A) (A) (A)
                 (A) (A) (A) (A) (A) (A) (A) (A) (A) (A) (A) (A)
                 (A) (A) (A) (A) (A) (A) (A) (A) (A) (A) (A) (A)
                 (A) (A) (A) (A) (A) (A) (A) (A) (A) (A) (A) (A)
                 (A) (A) (A) (A) (A) (A) (A) (A) (A) (A) (A) (A)
                 (A) (A) (A) (A) (A) (A) (A) (A) (A) (A) (A) (A)
                 (A) (A) (A) (A) (A) (A) (A) (A) (A) (A) (A) (A)
                 (A) (A) (A) (A) (A) (A) (A) (A) (A) (A) (A) (A)
                 (A) (A) (A) (A) (A) (A) (A) (A) (A) (A) (A) (A)
                 (A) (A) (A) (A) (A) (A) (A) (A) (A) (A) (A) (A)
                 (A) (A) (A) (A) (A) (A) (A) (A) (A) (A) (A) (A)
                 (A) (A) (A) (A) (A) (A) (A) (A) (A) (A) (A) (A)
                 (A) (A) (A) (A) (A) (A) (A) (A) (A) (A) (A) (A)
                 (A) (A) (A) (A) (A) (A) (A) (A) (A) (A) (A) (A)
                 (A) (A) (A) (A) (A) (A) (A) (A) (A) (A) (A) (A)
                 (A) (A) (A) (A) (A) (A) (A) (A) (A) (A) (A) (A)
                 (A) (A) (A) (A) (A) (A) (A) (A) (A) (A) (A) (A)
                 (A) (A) (A) (A) (A) (A) (A) (A) (A) (A) (A) (A)
                 (A) (A) (A) (A) (A) (A) (A) (A) (A) (A) (A) (A)
                 (A) (A) (A) (A) (A) (A) (A) (A) (A) (A) (A) (A)
                 (A) (A) (A) (A) (A) (A) (A) (A) (A) (A) (A) (A)
                 (A) (A) (A) (A) (A) (A) (A) (A) (A) (A) (A) (A)
                 (A) (A) (A) (A) (A) (A) (A) (A) (A) (A) (A) (A)
                 (A) (A) (A) (A) (A) (A) (A) (A) (A) (A) (A) (A)
                 (A) (A) (A) (A) (A) (A) (A) (A) (A) (A) (A) (A)
                 (A) (A) (A) (A) (A) (A) (A) (A) (A) (A) (A) (A)
                 (A) (A) (A) (A) (A) (A) (A) (A) (A) (A) (A) (A)
                 (A) (A) (A) (A) (A) (A) (A) (A) (A) (A) (A) (A)
                 (A) (A) (A) (A) (A) (A) (A) (A) (A) (A) (A) (A)
                 (A) (A) (A) (A) (A) (A) (A) (A) (A) (A) (A) (A)
                 (A) (A) (A) (A) (A) (A) (A) (A) (A) (A) (A) (A)
                 (A) (A) (A) (A) (A) (A) (A) (A) (A) (A) (A) (A)
                 (A) (A) (A) (A) (A) (A) (A) (A) (A) (A) (A) (A)
                 (A) (A) (A) (A) (A) (A) (A) (A) (A) (A) (A) (A)
                 (A) (A) (A) (A) (A) (A) (A) (A) (A) (A) (A) (A)
                 (A) (A) (A) (A) (A) (A) (A) (A) (A) (A) (A) (A)
                 (A) (A) (A) (A) (A) (A) (A) (A) (A) (A) (A) (A)
                 (A) (A) (A) (A) (A) (A) (A) (A) (A) (A) (A) (A)
                 (A) (A) (A) (A) (A) (A) (A) (A) (A) (A) (A) (A)
                 (A) (A) (A) (A) (A) (A) (A) (A) (A) (A) (A) (A)
                 (A) (A) (A) (A) (A) (A) (A) (A) (A) (A) (A) (A)
                 (A) (A) (A) (A) (A) (A) (A) (A) (A) (A) (A) (A)
                 (A) (A) (A) (A) (A) (A) (A) (A) (A) (A) (A) (A)
                 (A) (A) (A) (A) (A) (A) (A) (A) (A) (A) (A) (A)
                 (A) (A) (A) (A) (A) (A) (A) (A) (A) (A) (A) (A)
                 (A) (A) (A) (A) (A) (A) (A) (A) (A) (A) (A) (A)
                 (A) (A) (A) (A) (A) (A) (A) (A) (A) (A) (A) (A)
                 (A) (A) (A) (A) (A) (A) (A) (A) (A) (A) (A) (A)
                 (A) (A) (A) (A) (A) (A) (A) (A) (A) (A) (A) (A)
                 (A) (A) (A) (A) (A) (A) (A) (A) (A) (A) (A) (A)
                 (A) (A) (A) (A) (A) (A) (A) (A) (A) (A) (A) (A)
                 (A) (A) (A) (A) (A) (A) (A) (A) (A) (A) (A) (A)
                 (A) (A) (A) (A) (A) (A) (A) (A) (A) (A) (A) (A)
                 (A) (A) (A) (A) (A) (A) (A) (A) (A) (A) (A) (A)
                 (A) (A) (A) (A) (A) (A) (A) (A) (A) (A) (A) (A)
                 (A) (A) (A) (A) (A) (A) (A) (A) (A) (A) (A) (A)
                 (A) (A) (A) (A) (A) (A) (A) (A) (A) (A) (A) (A)
                 (A) (A) (A) (A) (A) (A) (A) (A) (A) (A) (A) (A)
                 (A) (A) (A) (A) (A) (A) (A) (A) (A) (A) (A) (A)
                 (A) (A) (A) (A) (A) (A) (A) (A) (A) (A) (A) (A)
                 (A) (A) (A) (A) (A) (A) (A) (A) (A) (A) (A) (A)
                 (A) (A) (A) (A) (A) (A) (A) (A) (A) (A) (A) (A)
                 (A) (A) (A) (A) (A) (A) (A) (A) (A) (A) (A) (A)
                 (A) (A) (A) (A) (A) (A) (A) (A) (A) (A) (A) (A)
                 (A) (A) (A) (A) (A) (A) (A) (A) (A) (A) (A) (A)
                 (A) (A) (A) (A) (A) (A) (A) (A) (A) (A) (A) (A)
                 (A) (A) (A) (A) (A) (A) (A) (A) (A) (A) (A) (A)
                 (A) (A) (A) (A) (A) (A) (A) (A) (A) (A) (A) (A)
                 (A) (A) (A) (A) (A) (A) (A) (A) (A) (A) (A) (A)
                 (A) (A) (A) (A) (A) (A) (A) (A) (A) (A) (A) (A)
                 (A) (A) (A) (A) (A) (A) (A) (A) (A) (A) (A) (A)
                 (A) (A) (A) (A) (A) (A) (A) (A) (A) (A) (A) (A)
                 (A) (A) (A) (A) (A) (A)
 The electronic state is 1-A.
 Alpha  occ. eigenvalues --  -46.83286 -19.27262 -19.26657 -19.21886 -19.21048
 Alpha  occ. eigenvalues --  -19.20624 -14.41207 -14.39840 -14.39064 -14.38441
 Alpha  occ. eigenvalues --  -10.40074 -10.39731 -10.35777 -10.32513 -10.31869
 Alpha  occ. eigenvalues --  -10.31461 -10.30569 -10.30407 -10.29670 -10.29586
 Alpha  occ. eigenvalues --  -10.29579 -10.29426 -10.29080 -10.28978 -10.28688
 Alpha  occ. eigenvalues --  -10.28418 -10.28284 -10.27721 -10.27618 -10.27319
 Alpha  occ. eigenvalues --  -10.27301 -10.27266 -10.27132 -10.27069 -10.26993
 Alpha  occ. eigenvalues --  -10.26834 -10.26653 -10.26451 -10.26325 -10.26277
 Alpha  occ. eigenvalues --  -10.26216 -10.26167 -10.25907 -10.25855 -10.25831
 Alpha  occ. eigenvalues --  -10.25701 -10.25654 -10.25650 -10.25350 -10.25313
 Alpha  occ. eigenvalues --  -10.25227 -10.25145 -10.25121 -10.25029 -10.25010
 Alpha  occ. eigenvalues --  -10.24983 -10.24711 -10.24645 -10.24538 -10.24522
 Alpha  occ. eigenvalues --  -10.24467 -10.24101 -10.23621 -10.23496 -10.22064
 Alpha  occ. eigenvalues --   -3.12504  -1.87198  -1.86741  -1.86700  -1.17558
 Alpha  occ. eigenvalues --   -1.17175  -1.10140  -1.09302  -1.08588  -1.03875
 Alpha  occ. eigenvalues --   -1.02971  -1.02647  -1.01558  -0.92077  -0.91636
 Alpha  occ. eigenvalues --   -0.90840  -0.89835  -0.89547  -0.89332  -0.89028
 Alpha  occ. eigenvalues --   -0.87774  -0.87553  -0.87176  -0.87067  -0.86041
 Alpha  occ. eigenvalues --   -0.85023  -0.84120  -0.83589  -0.83034  -0.82564
 Alpha  occ. eigenvalues --   -0.81510  -0.80762  -0.80464  -0.80218  -0.78588
 Alpha  occ. eigenvalues --   -0.78100  -0.77519  -0.77019  -0.76006  -0.75369
 Alpha  occ. eigenvalues --   -0.75058  -0.74509  -0.74252  -0.73406  -0.72423
 Alpha  occ. eigenvalues --   -0.71937  -0.71149  -0.70798  -0.69079  -0.68434
 Alpha  occ. eigenvalues --   -0.67006  -0.66809  -0.66046  -0.65643  -0.65007
 Alpha  occ. eigenvalues --   -0.63901  -0.63849  -0.63409  -0.62789  -0.62163
 Alpha  occ. eigenvalues --   -0.61957  -0.61074  -0.60859  -0.60220  -0.59527
 Alpha  occ. eigenvalues --   -0.58213  -0.57957  -0.57831  -0.56803  -0.56253
 Alpha  occ. eigenvalues --   -0.55936  -0.55605  -0.55178  -0.55019  -0.54915
 Alpha  occ. eigenvalues --   -0.54668  -0.54412  -0.54117  -0.53422  -0.53011
 Alpha  occ. eigenvalues --   -0.52703  -0.52572  -0.52319  -0.52087  -0.51692
 Alpha  occ. eigenvalues --   -0.51430  -0.51300  -0.51112  -0.50556  -0.50480
 Alpha  occ. eigenvalues --   -0.50184  -0.50163  -0.49929  -0.49725  -0.49558
 Alpha  occ. eigenvalues --   -0.49450  -0.49231  -0.49142  -0.48746  -0.48415
 Alpha  occ. eigenvalues --   -0.48274  -0.48146  -0.47711  -0.47436  -0.47368
 Alpha  occ. eigenvalues --   -0.47072  -0.46575  -0.46108  -0.46044  -0.45840
 Alpha  occ. eigenvalues --   -0.45597  -0.45270  -0.45179  -0.45101  -0.45031
 Alpha  occ. eigenvalues --   -0.44640  -0.44560  -0.44302  -0.44231  -0.44044
 Alpha  occ. eigenvalues --   -0.43797  -0.43504  -0.43276  -0.43110  -0.43069
 Alpha  occ. eigenvalues --   -0.42854  -0.42661  -0.42563  -0.42467  -0.42241
 Alpha  occ. eigenvalues --   -0.41816  -0.41611  -0.41366  -0.41278  -0.40914
 Alpha  occ. eigenvalues --   -0.40810  -0.40696  -0.40529  -0.40424  -0.40243
 Alpha  occ. eigenvalues --   -0.40094  -0.39836  -0.39772  -0.39524  -0.39169
 Alpha  occ. eigenvalues --   -0.39011  -0.38599  -0.38508  -0.38385  -0.38041
 Alpha  occ. eigenvalues --   -0.37498  -0.37273  -0.37150  -0.37005  -0.36730
 Alpha  occ. eigenvalues --   -0.36485  -0.36464  -0.36273  -0.35977  -0.35741
 Alpha  occ. eigenvalues --   -0.35412  -0.35290  -0.34205  -0.33990  -0.33502
 Alpha  occ. eigenvalues --   -0.33103  -0.32445  -0.32168  -0.30349  -0.30153
 Alpha  occ. eigenvalues --   -0.30049  -0.29649  -0.28171  -0.27178  -0.23249
 Alpha  occ. eigenvalues --   -0.21252
 Alpha virt. eigenvalues --   -0.05414  -0.03410   0.01206   0.03567   0.04614
 Alpha virt. eigenvalues --    0.06163   0.06456   0.06838   0.07292   0.07456
 Alpha virt. eigenvalues --    0.08614   0.10963   0.11313   0.11822   0.11973
 Alpha virt. eigenvalues --    0.12403   0.12476   0.12639   0.13273   0.13306
 Alpha virt. eigenvalues --    0.13784   0.14234   0.14421   0.14483   0.14550
 Alpha virt. eigenvalues --    0.14764   0.14939   0.15125   0.15456   0.15736
 Alpha virt. eigenvalues --    0.15932   0.16225   0.16440   0.16704   0.16871
 Alpha virt. eigenvalues --    0.17231   0.17391   0.17503   0.17685   0.17929
 Alpha virt. eigenvalues --    0.18049   0.18148   0.18563   0.18601   0.18778
 Alpha virt. eigenvalues --    0.18858   0.18950   0.19022   0.19260   0.19446
 Alpha virt. eigenvalues --    0.19485   0.19866   0.19954   0.20127   0.20368
 Alpha virt. eigenvalues --    0.20592   0.20631   0.20917   0.20995   0.21066
 Alpha virt. eigenvalues --    0.21249   0.21384   0.21445   0.21564   0.21720
 Alpha virt. eigenvalues --    0.21781   0.21935   0.22053   0.22387   0.22765
 Alpha virt. eigenvalues --    0.22849   0.22878   0.23392   0.23517   0.23625
 Alpha virt. eigenvalues --    0.23835   0.23939   0.24365   0.24506   0.24629
 Alpha virt. eigenvalues --    0.24701   0.24945   0.24993   0.25235   0.25447
 Alpha virt. eigenvalues --    0.25565   0.26054   0.26077   0.26167   0.26430
 Alpha virt. eigenvalues --    0.26536   0.26610   0.26957   0.27227   0.27293
 Alpha virt. eigenvalues --    0.27496   0.27966   0.28210   0.28301   0.28333
 Alpha virt. eigenvalues --    0.28598   0.28755   0.28886   0.28954   0.29117
 Alpha virt. eigenvalues --    0.29206   0.29671   0.29970   0.30007   0.30298
 Alpha virt. eigenvalues --    0.30520   0.30865   0.31148   0.31222   0.31729
 Alpha virt. eigenvalues --    0.31783   0.32254   0.32356   0.32548   0.32668
 Alpha virt. eigenvalues --    0.33240   0.33828   0.33896   0.34104   0.34731
 Alpha virt. eigenvalues --    0.34888   0.35128   0.35349   0.35496   0.35882
 Alpha virt. eigenvalues --    0.36515   0.37091   0.37574   0.37687   0.38026
 Alpha virt. eigenvalues --    0.39077   0.39424   0.40082   0.40917   0.41095
 Alpha virt. eigenvalues --    0.41378   0.41875   0.42489   0.42867   0.43364
 Alpha virt. eigenvalues --    0.43553   0.43852   0.44402   0.45969   0.46231
 Alpha virt. eigenvalues --    0.46859   0.47484   0.47985   0.48684   0.49687
 Alpha virt. eigenvalues --    0.51276   0.51342   0.51649   0.51996   0.52819
 Alpha virt. eigenvalues --    0.53125   0.53447   0.53648   0.53985   0.54228
 Alpha virt. eigenvalues --    0.54567   0.54955   0.55130   0.55138   0.55453
 Alpha virt. eigenvalues --    0.55865   0.56386   0.56467   0.56631   0.56763
 Alpha virt. eigenvalues --    0.56809   0.57085   0.57643   0.57711   0.57902
 Alpha virt. eigenvalues --    0.58120   0.58208   0.58694   0.58720   0.58755
 Alpha virt. eigenvalues --    0.59008   0.59107   0.59555   0.59762   0.59969
 Alpha virt. eigenvalues --    0.59996   0.60607   0.60660   0.60900   0.61040
 Alpha virt. eigenvalues --    0.61232   0.61376   0.61909   0.62290   0.62405
 Alpha virt. eigenvalues --    0.62835   0.62921   0.63188   0.63515   0.63918
 Alpha virt. eigenvalues --    0.64226   0.64503   0.64881   0.65163   0.65260
 Alpha virt. eigenvalues --    0.65480   0.65581   0.65904   0.66205   0.66363
 Alpha virt. eigenvalues --    0.66533   0.66716   0.67011   0.67417   0.67510
 Alpha virt. eigenvalues --    0.67848   0.68159   0.68380   0.68812   0.69221
 Alpha virt. eigenvalues --    0.69462   0.69725   0.69803   0.70123   0.70295
 Alpha virt. eigenvalues --    0.70465   0.71015   0.71253   0.71621   0.71718
 Alpha virt. eigenvalues --    0.71915   0.71990   0.72136   0.72573   0.72809
 Alpha virt. eigenvalues --    0.73019   0.73257   0.73463   0.73964   0.74234
 Alpha virt. eigenvalues --    0.74415   0.74580   0.74749   0.75009   0.75066
 Alpha virt. eigenvalues --    0.75445   0.75717   0.75961   0.76633   0.76743
 Alpha virt. eigenvalues --    0.77024   0.77147   0.77730   0.77810   0.78298
 Alpha virt. eigenvalues --    0.78369   0.78462   0.78707   0.78913   0.79442
 Alpha virt. eigenvalues --    0.79523   0.79838   0.80021   0.80238   0.80432
 Alpha virt. eigenvalues --    0.80582   0.80876   0.81355   0.82053   0.82282
 Alpha virt. eigenvalues --    0.82487   0.82835   0.83151   0.83271   0.83388
 Alpha virt. eigenvalues --    0.83958   0.84202   0.84234   0.84354   0.84623
 Alpha virt. eigenvalues --    0.84715   0.85091   0.85135   0.85551   0.85700
 Alpha virt. eigenvalues --    0.85893   0.85943   0.86402   0.86628   0.87016
 Alpha virt. eigenvalues --    0.87064   0.87217   0.87528   0.87612   0.88054
 Alpha virt. eigenvalues --    0.88324   0.88406   0.88735   0.88786   0.88947
 Alpha virt. eigenvalues --    0.89237   0.89394   0.89672   0.89943   0.90317
 Alpha virt. eigenvalues --    0.90360   0.90720   0.91016   0.91222   0.91345
 Alpha virt. eigenvalues --    0.91393   0.91679   0.91894   0.92077   0.92137
 Alpha virt. eigenvalues --    0.92444   0.92714   0.92879   0.93007   0.93363
 Alpha virt. eigenvalues --    0.93607   0.93760   0.93936   0.94060   0.94480
 Alpha virt. eigenvalues --    0.94545   0.94674   0.95145   0.95343   0.95498
 Alpha virt. eigenvalues --    0.95647   0.95919   0.95958   0.96088   0.96607
 Alpha virt. eigenvalues --    0.96709   0.96753   0.96858   0.97170   0.97401
 Alpha virt. eigenvalues --    0.98014   0.98130   0.98188   0.98516   0.98604
 Alpha virt. eigenvalues --    0.98926   0.99333   0.99508   0.99773   0.99891
 Alpha virt. eigenvalues --    1.00058   1.00297   1.00400   1.00604   1.01161
 Alpha virt. eigenvalues --    1.01355   1.01493   1.01618   1.01882   1.02182
 Alpha virt. eigenvalues --    1.02387   1.02770   1.02826   1.03300   1.03646
 Alpha virt. eigenvalues --    1.03864   1.04135   1.04292   1.04353   1.04544
 Alpha virt. eigenvalues --    1.04622   1.05146   1.05250   1.05543   1.05614
 Alpha virt. eigenvalues --    1.05775   1.06312   1.06380   1.06502   1.06698
 Alpha virt. eigenvalues --    1.06799   1.07093   1.07586   1.07835   1.07942
 Alpha virt. eigenvalues --    1.08383   1.08580   1.08733   1.09265   1.09864
 Alpha virt. eigenvalues --    1.09966   1.10563   1.10891   1.11093   1.11339
 Alpha virt. eigenvalues --    1.11520   1.12819   1.13116   1.13899   1.14086
 Alpha virt. eigenvalues --    1.14383   1.14675   1.15091   1.15979   1.16405
 Alpha virt. eigenvalues --    1.16839   1.17304   1.17552   1.17837   1.18020
 Alpha virt. eigenvalues --    1.18473   1.18621   1.18734   1.20272   1.20404
 Alpha virt. eigenvalues --    1.21286   1.21546   1.22288   1.23069   1.23111
 Alpha virt. eigenvalues --    1.23186   1.23629   1.24250   1.24752   1.25362
 Alpha virt. eigenvalues --    1.25989   1.26312   1.26851   1.27280   1.27594
 Alpha virt. eigenvalues --    1.27838   1.28069   1.28334   1.29554   1.30379
 Alpha virt. eigenvalues --    1.30636   1.31297   1.31637   1.32495   1.32878
 Alpha virt. eigenvalues --    1.33186   1.33639   1.34258   1.34986   1.35869
 Alpha virt. eigenvalues --    1.36112   1.36281   1.37219   1.37682   1.37864
 Alpha virt. eigenvalues --    1.38060   1.38529   1.38946   1.39427   1.39619
 Alpha virt. eigenvalues --    1.40981   1.41205   1.41687   1.42187   1.42427
 Alpha virt. eigenvalues --    1.42803   1.43167   1.43706   1.44384   1.44478
 Alpha virt. eigenvalues --    1.45159   1.45390   1.45694   1.46245   1.47031
 Alpha virt. eigenvalues --    1.47291   1.47397   1.47846   1.47910   1.49350
 Alpha virt. eigenvalues --    1.49610   1.49945   1.51570   1.51846   1.51981
 Alpha virt. eigenvalues --    1.52554   1.52601   1.53761   1.54128   1.54240
 Alpha virt. eigenvalues --    1.54765   1.55273   1.55624   1.55838   1.56815
 Alpha virt. eigenvalues --    1.57019   1.58093   1.58559   1.58658   1.58928
 Alpha virt. eigenvalues --    1.59383   1.59753   1.60398   1.60785   1.61056
 Alpha virt. eigenvalues --    1.61459   1.61743   1.62760   1.63214   1.63558
 Alpha virt. eigenvalues --    1.63694   1.64563   1.64670   1.64783   1.64854
 Alpha virt. eigenvalues --    1.65116   1.65999   1.66593   1.66963   1.67305
 Alpha virt. eigenvalues --    1.67474   1.67916   1.68214   1.68543   1.68978
 Alpha virt. eigenvalues --    1.69203   1.70211   1.71001   1.71176   1.71441
 Alpha virt. eigenvalues --    1.71706   1.72130   1.72620   1.72697   1.73125
 Alpha virt. eigenvalues --    1.73711   1.74226   1.74296   1.74857   1.75436
 Alpha virt. eigenvalues --    1.75826   1.76109   1.76142   1.76499   1.76622
 Alpha virt. eigenvalues --    1.77526   1.77863   1.78241   1.78407   1.78751
 Alpha virt. eigenvalues --    1.79595   1.80473   1.80749   1.81051   1.81603
 Alpha virt. eigenvalues --    1.81751   1.82268   1.82443   1.82972   1.83092
 Alpha virt. eigenvalues --    1.83499   1.83676   1.83760   1.84744   1.85118
 Alpha virt. eigenvalues --    1.85249   1.85889   1.85951   1.86566   1.86704
 Alpha virt. eigenvalues --    1.87043   1.87169   1.87301   1.87678   1.87982
 Alpha virt. eigenvalues --    1.88055   1.88400   1.88575   1.88854   1.89080
 Alpha virt. eigenvalues --    1.89217   1.89784   1.89886   1.90071   1.90151
 Alpha virt. eigenvalues --    1.90626   1.91138   1.91353   1.91550   1.91738
 Alpha virt. eigenvalues --    1.92171   1.92374   1.92717   1.92857   1.93086
 Alpha virt. eigenvalues --    1.93297   1.93616   1.94036   1.94170   1.94205
 Alpha virt. eigenvalues --    1.94561   1.94939   1.95368   1.95439   1.95974
 Alpha virt. eigenvalues --    1.96211   1.96377   1.96593   1.96796   1.96995
 Alpha virt. eigenvalues --    1.97454   1.97522   1.97769   1.97804   1.97961
 Alpha virt. eigenvalues --    1.98069   1.98406   1.98765   1.98791   1.99309
 Alpha virt. eigenvalues --    1.99770   2.00164   2.00291   2.00495   2.01009
 Alpha virt. eigenvalues --    2.01355   2.01812   2.02380   2.02455   2.02651
 Alpha virt. eigenvalues --    2.03712   2.03948   2.03983   2.04301   2.04524
 Alpha virt. eigenvalues --    2.04671   2.04909   2.05018   2.05594   2.05730
 Alpha virt. eigenvalues --    2.06134   2.06211   2.06722   2.07164   2.07352
 Alpha virt. eigenvalues --    2.07783   2.08236   2.08582   2.09163   2.09364
 Alpha virt. eigenvalues --    2.09659   2.09791   2.10036   2.10997   2.11230
 Alpha virt. eigenvalues --    2.11730   2.12050   2.12236   2.12292   2.12930
 Alpha virt. eigenvalues --    2.13150   2.13185   2.13390   2.13702   2.14357
 Alpha virt. eigenvalues --    2.14534   2.15348   2.15382   2.16133   2.16202
 Alpha virt. eigenvalues --    2.16284   2.16666   2.16829   2.16913   2.17369
 Alpha virt. eigenvalues --    2.17558   2.18183   2.18645   2.18978   2.19535
 Alpha virt. eigenvalues --    2.19696   2.19956   2.21068   2.21245   2.21394
 Alpha virt. eigenvalues --    2.21443   2.21686   2.21765   2.21863   2.22321
 Alpha virt. eigenvalues --    2.22392   2.22786   2.22990   2.23565   2.24121
 Alpha virt. eigenvalues --    2.24146   2.24405   2.25018   2.25527   2.25808
 Alpha virt. eigenvalues --    2.26214   2.26627   2.26819   2.27320   2.27665
 Alpha virt. eigenvalues --    2.27902   2.28244   2.29177   2.29256   2.29470
 Alpha virt. eigenvalues --    2.30224   2.30561   2.30807   2.31042   2.31377
 Alpha virt. eigenvalues --    2.31481   2.32134   2.32306   2.32516   2.32967
 Alpha virt. eigenvalues --    2.33042   2.33376   2.33537   2.33596   2.33867
 Alpha virt. eigenvalues --    2.34014   2.34199   2.34980   2.35576   2.35748
 Alpha virt. eigenvalues --    2.35779   2.36544   2.36930   2.37179   2.37388
 Alpha virt. eigenvalues --    2.37517   2.37806   2.38085   2.38406   2.38519
 Alpha virt. eigenvalues --    2.38752   2.39194   2.39884   2.40140   2.40250
 Alpha virt. eigenvalues --    2.40767   2.40850   2.41137   2.41276   2.41871
 Alpha virt. eigenvalues --    2.42212   2.42426   2.42578   2.42662   2.42845
 Alpha virt. eigenvalues --    2.43173   2.43531   2.43948   2.44415   2.44585
 Alpha virt. eigenvalues --    2.44633   2.44824   2.45260   2.45661   2.45861
 Alpha virt. eigenvalues --    2.46344   2.46623   2.46899   2.47061   2.47187
 Alpha virt. eigenvalues --    2.47502   2.48523   2.48665   2.48903   2.49044
 Alpha virt. eigenvalues --    2.49130   2.49382   2.50662   2.50879   2.51036
 Alpha virt. eigenvalues --    2.51385   2.51515   2.51925   2.52389   2.52852
 Alpha virt. eigenvalues --    2.53294   2.53539   2.53830   2.54338   2.55218
 Alpha virt. eigenvalues --    2.55404   2.56287   2.56625   2.56724   2.57054
 Alpha virt. eigenvalues --    2.57355   2.57595   2.57852   2.58065   2.58346
 Alpha virt. eigenvalues --    2.58966   2.59196   2.59744   2.60120   2.60546
 Alpha virt. eigenvalues --    2.60849   2.61596   2.61638   2.61885   2.62129
 Alpha virt. eigenvalues --    2.62372   2.62823   2.63274   2.63640   2.64344
 Alpha virt. eigenvalues --    2.64578   2.65082   2.65367   2.65701   2.65735
 Alpha virt. eigenvalues --    2.66467   2.66644   2.67038   2.67581   2.68227
 Alpha virt. eigenvalues --    2.68543   2.69295   2.69413   2.69622   2.69931
 Alpha virt. eigenvalues --    2.70277   2.70829   2.71096   2.71149   2.71846
 Alpha virt. eigenvalues --    2.72111   2.72760   2.72990   2.73119   2.73248
 Alpha virt. eigenvalues --    2.73508   2.73746   2.73878   2.74048   2.74221
 Alpha virt. eigenvalues --    2.74967   2.75833   2.75898   2.76001   2.76354
 Alpha virt. eigenvalues --    2.76453   2.76640   2.76720   2.76945   2.77413
 Alpha virt. eigenvalues --    2.77743   2.77785   2.78700   2.79007   2.79127
 Alpha virt. eigenvalues --    2.79481   2.79625   2.80027   2.80472   2.81103
 Alpha virt. eigenvalues --    2.81277   2.81434   2.82400   2.82584   2.82970
 Alpha virt. eigenvalues --    2.83317   2.83889   2.84274   2.84739   2.84941
 Alpha virt. eigenvalues --    2.85271   2.85448   2.85587   2.85916   2.86266
 Alpha virt. eigenvalues --    2.86373   2.87038   2.87175   2.87247   2.87261
 Alpha virt. eigenvalues --    2.87718   2.87948   2.88831   2.89032   2.89600
 Alpha virt. eigenvalues --    2.89909   2.90428   2.90527   2.90685   2.91329
 Alpha virt. eigenvalues --    2.91352   2.91480   2.91943   2.92703   2.92884
 Alpha virt. eigenvalues --    2.93384   2.93703   2.94471   2.94749   2.95068
 Alpha virt. eigenvalues --    2.95508   2.95656   2.96089   2.96516   2.96670
 Alpha virt. eigenvalues --    2.96890   2.98016   2.98570   2.98689   2.99220
 Alpha virt. eigenvalues --    2.99511   3.00497   3.00598   3.01244   3.01400
 Alpha virt. eigenvalues --    3.01657   3.01845   3.02485   3.03051   3.04004
 Alpha virt. eigenvalues --    3.04180   3.04647   3.05016   3.05424   3.05529
 Alpha virt. eigenvalues --    3.06436   3.06949   3.07413   3.07617   3.08460
 Alpha virt. eigenvalues --    3.08667   3.08951   3.09481   3.09691   3.10804
 Alpha virt. eigenvalues --    3.11414   3.11888   3.12580   3.13452   3.13811
 Alpha virt. eigenvalues --    3.14454   3.14857   3.15583   3.16250   3.16778
 Alpha virt. eigenvalues --    3.16979   3.17834   3.18024   3.20111   3.21237
 Alpha virt. eigenvalues --    3.22118   3.23562   3.24404   3.24944   3.25718
 Alpha virt. eigenvalues --    3.26029   3.26499   3.27249   3.27588   3.28276
 Alpha virt. eigenvalues --    3.29416   3.30305   3.30489   3.31045   3.31736
 Alpha virt. eigenvalues --    3.32491   3.32942   3.34064   3.34182   3.34525
 Alpha virt. eigenvalues --    3.34621   3.34918   3.35645   3.36019   3.37040
 Alpha virt. eigenvalues --    3.37271   3.37993   3.39342   3.39360   3.40185
 Alpha virt. eigenvalues --    3.40204   3.40335   3.40793   3.41328   3.41789
 Alpha virt. eigenvalues --    3.44777   3.44891   3.44928   3.47841   3.48466
 Alpha virt. eigenvalues --    3.49287   3.50017   3.50327   3.51172   3.52369
 Alpha virt. eigenvalues --    3.53347   3.54463   3.54565   3.54931   3.55342
 Alpha virt. eigenvalues --    3.56539   3.56892   3.59059   3.60318   3.60330
 Alpha virt. eigenvalues --    3.61713   3.62145   3.62280   3.63113   3.64251
 Alpha virt. eigenvalues --    3.66461   3.66767   3.69624   3.70336   3.71745
 Alpha virt. eigenvalues --    3.72204   3.72745   3.74667   3.75273   3.75703
 Alpha virt. eigenvalues --    3.76908   3.76952   3.80048   3.80567   3.82959
 Alpha virt. eigenvalues --    3.86226   3.86917   3.90218   3.97265   4.06153
 Alpha virt. eigenvalues --    4.08275   4.12609   4.19204   4.20913   4.23546
 Alpha virt. eigenvalues --    4.24443   4.25728   4.26534   4.27645   4.28263
 Alpha virt. eigenvalues --    4.28786   4.29587   4.31343   4.32841   4.33531
 Alpha virt. eigenvalues --    4.33950   4.35943   4.36562   4.40233   4.40530
 Alpha virt. eigenvalues --    4.41051   4.43197   4.44286   4.44430   4.45418
 Alpha virt. eigenvalues --    4.47211   4.47456   4.48627   4.49903   4.50595
 Alpha virt. eigenvalues --    4.51637   4.52179   4.54329   4.54748   4.55440
 Alpha virt. eigenvalues --    4.56289   4.57514   4.58578   4.59145   4.59625
 Alpha virt. eigenvalues --    4.61157   4.62091   4.62617   4.64054   4.67981
 Alpha virt. eigenvalues --    4.67987   4.70901   4.71939   4.72079   4.74036
 Alpha virt. eigenvalues --    4.74312   4.76838   4.77946   4.79199   4.80458
 Alpha virt. eigenvalues --    4.82361   4.84161   4.86293   4.87166   4.88799
 Alpha virt. eigenvalues --    4.90115   4.93441   4.99681
          Condensed to atoms (all electrons):
 Mulliken charges:
               1
     1  Mg   0.821610
     2  C    0.071612
     3  C   -0.217225
     4  C   -0.161432
     5  C   -0.155504
     6  N   -0.595895
     7  C    0.230703
     8  C   -0.163481
     9  C   -0.172189
    10  C    0.326711
    11  C   -0.294137
    12  C   -0.150165
    13  C   -0.279745
    14  C    0.646050
    15  O   -0.480999
    16  O   -0.487076
    17  N   -0.739386
    18  C    0.349281
    19  C    0.048189
    20  C   -0.004809
    21  C    0.335464
    22  C   -0.399070
    23  C   -0.079627
    24  C   -0.230145
    25  N   -0.723967
    26  C    0.289353
    27  C   -0.007170
    28  C    0.033320
    29  C    0.272640
    30  C   -0.379314
    31  C   -0.252296
    32  C   -0.317870
    33  N   -0.698448
    34  C    0.271485
    35  C   -0.044076
    36  C    0.045195
    37  C    0.273477
    38  C   -0.353443
    39  C    0.377939
    40  O   -0.460154
    41  C   -0.350054
    42  C    0.636108
    43  O   -0.480474
    44  O   -0.448918
    45  C   -0.091687
    46  C    0.020094
    47  C   -0.147485
    48  C    0.110650
    49  C   -0.338623
    50  C   -0.221798
    51  C   -0.186501
    52  C   -0.142844
    53  C   -0.091669
    54  C   -0.287415
    55  C   -0.212880
    56  C   -0.190707
    57  C   -0.170684
    58  C   -0.058235
    59  C   -0.307284
    60  C   -0.141002
    61  C   -0.184408
    62  C   -0.158709
    63  C   -0.078475
    64  C   -0.316097
    65  C   -0.322058
    66  H    0.074340
    67  H    0.083673
    68  H    0.105044
    69  H    0.161986
    70  H    0.134894
    71  H    0.081874
    72  H    0.116725
    73  H    0.113263
    74  H    0.120394
    75  H    0.113325
    76  H    0.124297
    77  H    0.141701
    78  H    0.119321
    79  H    0.127700
    80  H    0.128245
    81  H    0.099153
    82  H    0.091613
    83  H    0.105353
    84  H    0.112007
    85  H    0.113468
    86  H    0.114059
    87  H    0.102934
    88  H    0.110463
    89  H    0.094708
    90  H    0.111753
    91  H    0.122809
    92  H    0.123735
    93  H    0.144255
    94  H    0.122440
    95  H    0.167143
    96  H    0.126473
    97  H    0.130526
    98  H    0.137785
    99  H    0.130879
   100  H    0.124171
   101  H    0.089111
   102  H    0.120998
   103  H    0.089000
   104  H    0.130514
   105  H    0.112195
   106  H    0.075660
   107  H    0.100491
   108  H    0.087284
   109  H    0.051375
   110  H    0.095739
   111  H    0.072583
   112  H    0.105237
   113  H    0.107652
   114  H    0.108098
   115  H    0.093237
   116  H    0.087368
   117  H    0.120227
   118  H    0.089286
   119  H    0.098805
   120  H    0.078003
   121  H    0.094046
   122  H    0.074222
   123  H    0.104883
   124  H    0.090689
   125  H    0.091427
   126  H    0.059088
   127  H    0.095115
   128  H    0.095218
   129  H    0.049095
   130  H    0.099593
   131  H    0.103447
   132  H    0.105307
   133  H    0.111814
   134  H    0.080124
   135  H    0.107797
   136  H    0.088535
   137  H    0.119975
 Sum of Mulliken charges =   0.00000
 Mulliken charges with hydrogens summed into heavy atoms:
               1
     1  Mg   0.821610
     2  C    0.071612
     3  C   -0.142885
     4  C   -0.077759
     5  C   -0.050460
     6  N   -0.595895
     7  C    0.230703
     8  C   -0.001495
     9  C   -0.037295
    10  C    0.326711
    11  C    0.017724
    12  C    0.083555
    13  C   -0.013747
    14  C    0.646050
    15  O   -0.480999
    16  O   -0.487076
    17  N   -0.739386
    18  C    0.349281
    19  C    0.048189
    20  C   -0.004809
    21  C    0.335464
    22  C   -0.023805
    23  C    0.019526
    24  C   -0.033180
    25  N   -0.723967
    26  C    0.289353
    27  C   -0.007170
    28  C    0.033320
    29  C    0.272640
    30  C   -0.039780
    31  C   -0.038899
    32  C    0.011400
    33  N   -0.698448
    34  C    0.271485
    35  C   -0.044076
    36  C    0.045195
    37  C    0.273477
    38  C    0.036987
    39  C    0.377939
    40  O   -0.460154
    41  C   -0.182911
    42  C    0.636108
    43  O   -0.480474
    44  O   -0.448918
    45  C    0.303098
    46  C    0.275145
    47  C   -0.058374
    48  C    0.110650
    49  C    0.001889
    50  C   -0.033943
    51  C    0.001274
    52  C    0.004270
    53  C   -0.019085
    54  C    0.033573
    55  C   -0.032276
    56  C    0.018806
    57  C    0.006124
    58  C    0.035811
    59  C   -0.037490
    60  C    0.009513
    61  C    0.005925
    62  C   -0.010021
    63  C    0.024972
    64  C   -0.018853
    65  C   -0.005750
 Electronic spatial extent (au):  <R**2>=         179861.8853
 Charge=              0.0000 electrons
 Dipole moment (field-independent basis, Debye):
    X=              1.9041    Y=              3.9999    Z=              0.8593  Tot=              4.5125
 Quadrupole moment (field-independent basis, Debye-Ang):
   XX=           -359.3260   YY=           -385.0040   ZZ=           -396.2361
   XY=            -27.2197   XZ=              4.0794   YZ=             -0.0987
 Traceless Quadrupole moment (field-independent basis, Debye-Ang):
   XX=             20.8627   YY=             -4.8153   ZZ=            -16.0474
   XY=            -27.2197   XZ=              4.0794   YZ=             -0.0987
 Octapole moment (field-independent basis, Debye-Ang**2):
  XXX=           -635.2818  YYY=            165.6592  ZZZ=              6.7537  XYY=            -85.4529
  XXY=            -12.3102  XXZ=           -201.1804  XZZ=              4.9110  YZZ=            -33.3924
  YYZ=             67.6947  XYZ=            -32.9235
 Hexadecapole moment (field-independent basis, Debye-Ang**3):
 XXXX=        -222218.5670 YYYY=         -17185.5813 ZZZZ=          -4102.3833 XXXY=          -1256.6870
 XXXZ=            554.8316 YYYX=          -1390.7591 YYYZ=            -66.7960 ZZZX=              7.9673
 ZZZY=           -142.6150 XXYY=         -40125.5741 XXZZ=         -38930.7275 YYZZ=          -3432.8388
 XXYZ=            268.2011 YYXZ=            -48.8516 ZZXY=             -4.0923
 N-N= 8.735761128764D+03 E-N=-2.429536225265D+04  KE= 2.906533599614D+03
 1\1\GINC-PEDRO-RYZENSSD\SP\RCAM-B3LYP TD-FC\6-31G(d,p)\C55H72Mg1N4O5\P
 ADAWAN\06-Jul-2019\0\\# td=(NStates=1) CAM-B3LYP/6-31G(d,p)\\TD\\0,1\M
 g,0,-7.194400013,0.6705458027,0.083986086\C,0,-4.854030021,-1.90972215
 06,0.4717637091\C,0,-4.7297028992,2.8927777251,0.9811044753\C,0,-9.370
 2917647,3.1330988054,-0.3189047502\C,0,-9.5492752412,-1.747870298,-0.7
 902554546\N,0,-5.0674601706,0.4498748056,0.6008305014\C,0,-4.319061612
 3,-0.6933591579,0.8210001232\C,0,-2.9114801534,-0.3956089866,1.2761379
 68\C,0,-2.9445978982,1.1208747558,1.4839191226\C,0,-4.3867456695,1.503
 8711359,1.1594029702\C,0,-2.6035754396,1.4551978079,2.9837997889\C,0,-
 1.9242558866,-0.7736826297,0.034747433\C,0,-0.4583032529,-0.4454688941
 ,0.4527894082\C,0,0.4592170589,-0.6319967126,-0.6335587364\O,0,0.10240
 14802,-1.0406894765,-1.7431606478\O,0,1.732635074,-0.3094183382,-0.286
 8254714\N,0,-7.0862290708,2.6568512749,0.2810468002\C,0,-6.0253118102,
 3.3949104668,0.6794014737\C,0,-6.3660238555,4.7718814775,0.8087215594\
 C,0,-7.6834310501,4.8591165432,0.3974981411\C,0,-8.2191261842,3.494688
 6642,0.146177164\C,0,-5.3898569424,5.8107435403,1.1282275833\C,0,-8.60
 38581834,6.0262836621,0.1655935448\C,0,-8.4719510864,7.1369698156,0.83
 03492847\N,0,-9.0938216548,0.658528714,-0.5788519189\C,0,-9.8475910188
 ,1.787028656,-0.6787541995\C,0,-11.1660957062,1.4264709862,-1.06636835
 63\C,0,-11.1954619501,0.039649329,-1.2576644804\C,0,-9.9076064413,-0.4
 221841927,-0.8865936755\C,0,-12.3517740011,2.3257731483,-1.2771944942\
 C,0,-12.3620407504,-0.8101084209,-1.6874395525\C,0,-12.3323807265,-1.0
 878611973,-3.2614512637\N,0,-7.2139808664,-1.3142610397,-0.0846631433\
 C,0,-8.2689471345,-2.1737625484,-0.527877743\C,0,-7.8068668323,-3.5856
 768352,-0.4699842757\C,0,-6.4695108352,-3.6377681138,-0.0422059525\C,0
 ,-6.2066932657,-2.1562239037,0.1318859928\C,0,-8.7420316706,-4.8137242
 148,-0.6640048789\C,0,-5.2709515655,-4.4385177353,0.21247412\O,0,-5.25
 92247604,-5.6687813615,0.2806250932\C,0,-4.1989434737,-3.2992557154,0.
 5450243677\C,0,-3.5542560565,-3.7647516965,1.8935197249\O,0,-3.6335849
 591,-3.1533420704,2.9482275039\O,0,-2.8360147952,-4.8977544978,1.65288
 38693\C,0,-2.1533659245,-5.3558798171,2.8932642619\C,0,2.8225147632,-0
 .5555733519,-1.2373749379\C,0,4.0948315722,-0.38473665,-0.6043305821\C
 ,0,5.0925427387,0.3055668221,-1.0066604387\C,0,5.015579981,1.381440793
 4,-2.1175259179\C,0,6.3846227951,0.4286747177,-0.2219286781\C,0,7.5901
 765556,-0.20523087,-1.0230792584\C,0,8.9148333559,-0.1613012605,-0.183
 3801508\C,0,10.1204726718,-0.6039574674,-0.9052314936\C,0,10.172773977
 6,-2.0281037465,-1.3197354385\C,0,11.4912620031,-0.380461827,0.0644873
 173\C,0,12.8023351412,-0.4608401351,-0.8761276357\C,0,13.964885957,-0.
 0649276956,0.1574628138\C,0,15.3198581107,-0.1652802571,-0.4438326231\
 C,0,15.6388555545,-1.6507927131,-0.6739370114\C,0,16.3862027262,0.4020
 745675,0.4681413213\C,0,17.7984944388,0.5513565341,-0.0607718918\C,0,1
 8.7961599855,1.3057887959,0.793179751\C,0,20.2223309023,1.3274530788,0
 .3214569089\C,0,20.4840597598,1.9581341106,-1.2065016429\C,0,21.237864
 7173,2.1303159679,1.4292582892\H,0,-3.93975546,3.5295284742,1.34469905
 68\H,0,-10.0970700997,3.8291337484,-0.5294783393\H,0,-10.329246214,-2.
 4445137922,-1.110587711\H,0,-3.1205785148,-1.126490963,2.1276934605\H,
 0,-2.3670303082,1.7510486875,0.9837090213\H,0,-1.5251169692,0.97775822
 87,3.3612498385\H,0,-2.5074758076,2.4468687444,3.1148236478\H,0,-3.439
 4873914,0.9676814521,3.6413865515\H,0,-2.0727797629,-1.758325793,-0.16
 61205213\H,0,-2.4124229148,-0.2694496946,-0.9720472443\H,0,-0.82011552
 9,0.5814627602,1.1523656357\H,0,-0.2572135234,-1.1193964548,1.39754370
 96\H,0,-5.7577845539,6.7729559397,0.7022859378\H,0,-5.4113381232,6.213
 6147246,2.130909388\H,0,-4.3700209581,5.6172228887,0.9374769233\H,0,-9
 .5228843409,6.0921453626,-0.7159818264\H,0,-9.0797891948,8.0604167806,
 0.6178814099\H,0,-7.8050999758,7.4372801275,1.5740457901\H,0,-12.25288
 9394,2.8633866647,-2.2711901237\H,0,-13.2352631955,1.7559394851,-1.621
 3533268\H,0,-12.5608878199,2.9487035251,-0.3285340974\H,0,-12.49696447
 48,-1.7378732324,-1.1858735423\H,0,-13.2867273916,-0.4686135982,-1.447
 7503025\H,0,-13.0655229049,-1.9099456808,-3.4899988844\H,0,-12.4234359
 078,-0.2118457222,-3.8582593216\H,0,-11.3962259019,-1.3902438915,-3.46
 84654665\H,0,-9.105580161,-4.6291436573,-1.6225955237\H,0,-8.277897154
 5,-5.678127817,-0.7356331763\H,0,-9.6046803529,-5.0075757789,0.0321513
 925\H,0,-3.3369443903,-3.4737406248,-0.1811433858\H,0,-1.6844166082,-4
 .3972661663,3.3888017955\H,0,-2.943393948,-5.6770093185,3.6890717461\H
 ,0,-1.4541835299,-6.1296722404,2.7453284857\H,0,3.0588951936,-1.570488
 8848,-1.5519891639\H,0,2.5843759152,-0.0438301034,-2.2146746197\H,0,4.
 3105819638,-1.0911313283,0.1481380298\H,0,4.15866483,1.8366323736,-2.3
 664650162\H,0,5.4915145632,2.3562358825,-1.6833047987\H,0,5.4800953171
 ,1.0016612736,-2.8278015112\H,0,6.6953716001,1.4080348035,0.0605787007
 \H,0,6.1685509745,-0.2104590833,0.7706567824\H,0,7.2720345882,-1.19686
 89221,-1.3338947131\H,0,7.7618786238,0.4130445126,-1.9824711707\H,0,8.
 8982818798,0.9692248075,0.2878164138\H,0,8.9379422829,-0.6071962258,0.
 6691147752\H,0,10.2181693683,0.1869112288,-1.6934842379\H,0,9.36025101
 06,-2.1578537619,-1.8776336882\H,0,10.9690894646,-2.1361003939,-2.0233
 365776\H,0,10.267949681,-2.6009720392,-0.5198814278\H,0,11.4178794688,
 0.6525874889,0.4060320907\H,0,11.3370667601,-1.1363595973,0.9060712287
 \H,0,12.8629596149,-1.4143095922,-1.064614129\H,0,12.7207958321,0.1134
 920402,-1.8697103323\H,0,13.6665480915,0.8507876348,0.5399413371\H,0,1
 3.759528706,-0.7432839331,1.0667931958\H,0,15.1729805866,0.1334928343,
 -1.455639922\H,0,15.7837558185,-2.1599362857,0.3967782239\H,0,14.91302
 43531,-2.2476771433,-1.1444318583\H,0,16.5151311425,-1.9268182067,-1.3
 480662761\H,0,16.17989319,1.3669545292,0.808497394\H,0,16.1825827055,-
 0.2887480499,1.4726300242\H,0,18.2723481735,-0.3553720846,-0.423205661
 \H,0,17.7614532098,1.3118084997,-0.9130348793\H,0,18.1862394165,2.3496
 691246,1.0780758129\H,0,18.8552726876,0.8811622972,1.7421742177\H,0,20
 .6200269154,0.3566218104,0.3681638804\H,0,20.1378078874,3.0577693388,-
 1.123715965\H,0,21.4829825504,1.7170883616,-1.6088022435\H,0,19.602244
 1288,1.3850503158,-1.8478917582\H,0,21.0732833035,1.7189100001,2.35186
 48037\H,0,22.2628679931,2.0418454142,0.8980847748\H,0,20.9962493548,3.
 0618562689,1.4688673272\\Version=ES64L-G09RevD.01\State=1-A\HF=-2932.5
 805577\RMSD=9.498e-09\PG=C01 [X(C55H72Mg1N4O5)]\\@


 COLLEGE PROFESSOR: SOMEONE WHO TALKS IN OTHER PEOPLE'S SLEEP.
 Job cpu time:       0 days  6 hours  5 minutes 52.5 seconds.
 File lengths (MBytes):  RWF=   2106 Int=      0 D2E=      0 Chk=    163 Scr=      1
 Normal termination of Gaussian 09 at Sat Jul  6 06:00:27 2019.
