 Entering Gaussian System, Link 0=g16
 Input=Geometria-53-.com
 Output=Geometria-53-.log
 Initial command:
 /usr/local/g16/l1.exe "/home/padawan/israel-mol/chlorophyll-a/spectra/emi/Gau-9670.inp" -scrdir="/home/padawan/israel-mol/chlorophyll-a/spectra/emi/"
 Entering Link 1 = /usr/local/g16/l1.exe PID=      9672.
  
 Copyright (c) 1988,1990,1992,1993,1995,1998,2003,2009,2016,
            Gaussian, Inc.  All Rights Reserved.
  
 This is part of the Gaussian(R) 16 program.  It is based on
 the Gaussian(R) 09 system (copyright 2009, Gaussian, Inc.),
 the Gaussian(R) 03 system (copyright 2003, Gaussian, Inc.),
 the Gaussian(R) 98 system (copyright 1998, Gaussian, Inc.),
 the Gaussian(R) 94 system (copyright 1995, Gaussian, Inc.),
 the Gaussian 92(TM) system (copyright 1992, Gaussian, Inc.),
 the Gaussian 90(TM) system (copyright 1990, Gaussian, Inc.),
 the Gaussian 88(TM) system (copyright 1988, Gaussian, Inc.),
 the Gaussian 86(TM) system (copyright 1986, Carnegie Mellon
 University), and the Gaussian 82(TM) system (copyright 1983,
 Carnegie Mellon University). Gaussian is a federally registered
 trademark of Gaussian, Inc.
  
 This software contains proprietary and confidential information,
 including trade secrets, belonging to Gaussian, Inc.
  
 This software is provided under written license and may be
 used, copied, transmitted, or stored only in accord with that
 written license.
  
 The following legend is applicable only to US Government
 contracts under FAR:
  
                    RESTRICTED RIGHTS LEGEND
  
 Use, reproduction and disclosure by the US Government is
 subject to restrictions as set forth in subparagraphs (a)
 and (c) of the Commercial Computer Software - Restricted
 Rights clause in FAR 52.227-19.
  
 Gaussian, Inc.
 340 Quinnipiac St., Bldg. 40, Wallingford CT 06492
  
  
 ---------------------------------------------------------------
 Warning -- This program may not be used in any manner that
 competes with the business of Gaussian, Inc. or will provide
 assistance to any competitor of Gaussian, Inc.  The licensee
 of this program is prohibited from giving any competitor of
 Gaussian, Inc. access to this program.  By using this program,
 the user acknowledges that Gaussian, Inc. is engaged in the
 business of creating and licensing software in the field of
 computational chemistry and represents and warrants to the
 licensee that it is not a competitor of Gaussian, Inc. and that
 it will not use this program in any manner prohibited above.
 ---------------------------------------------------------------
  

 Cite this work as:
 Gaussian 16, Revision A.03,
 M. J. Frisch, G. W. Trucks, H. B. Schlegel, G. E. Scuseria, 
 M. A. Robb, J. R. Cheeseman, G. Scalmani, V. Barone, 
 G. A. Petersson, H. Nakatsuji, X. Li, M. Caricato, A. V. Marenich, 
 J. Bloino, B. G. Janesko, R. Gomperts, B. Mennucci, H. P. Hratchian, 
 J. V. Ortiz, A. F. Izmaylov, J. L. Sonnenberg, D. Williams-Young, 
 F. Ding, F. Lipparini, F. Egidi, J. Goings, B. Peng, A. Petrone, 
 T. Henderson, D. Ranasinghe, V. G. Zakrzewski, J. Gao, N. Rega, 
 G. Zheng, W. Liang, M. Hada, M. Ehara, K. Toyota, R. Fukuda, 
 J. Hasegawa, M. Ishida, T. Nakajima, Y. Honda, O. Kitao, H. Nakai, 
 T. Vreven, K. Throssell, J. A. Montgomery, Jr., J. E. Peralta, 
 F. Ogliaro, M. J. Bearpark, J. J. Heyd, E. N. Brothers, K. N. Kudin, 
 V. N. Staroverov, T. A. Keith, R. Kobayashi, J. Normand, 
 K. Raghavachari, A. P. Rendell, J. C. Burant, S. S. Iyengar, 
 J. Tomasi, M. Cossi, J. M. Millam, M. Klene, C. Adamo, R. Cammi, 
 J. W. Ochterski, R. L. Martin, K. Morokuma, O. Farkas, 
 J. B. Foresman, and D. J. Fox, Gaussian, Inc., Wallingford CT, 2016.
 
 ******************************************
 Gaussian 16:  ES64L-G16RevA.03 25-Dec-2016
                 4-Sep-2019 
 ******************************************
 %nproc=4
 Will use up to    4 processors via shared memory.
 %Mem=3GB
 ----------------------------------------------------------------------
 # td=(NStates=1) iop(3/107=0140000000,3/108=0140000000) CAM-B3LYP/6-31
 G(d,p)
 ----------------------------------------------------------------------
 1/38=1,172=1/1;
 2/12=2,17=6,18=5,40=1/2;
 3/5=1,6=6,7=101,11=9,25=1,30=1,74=-40,107=140000000,108=140000000/1,2,3,8;
 4//1;
 5/5=2,38=5/2;
 8/6=1,10=2,108=1/1;
 9/41=1,42=1,70=2/14;
 6/7=2,8=2,9=2,10=2/1;
 99/5=1,9=1/99;
 --
 TD
 --
 Symbolic Z-matrix:
 Charge =  0 Multiplicity = 1
 12                   -7.18096   0.621     0.04478 
 6                    -4.81483  -1.99268   0.50324 
 6                    -4.81463   2.82249   1.24313 
 6                    -9.38496   3.15593  -0.3947 
 6                    -9.58635  -1.67086  -0.81387 
 7                    -5.18033   0.47944   0.74802 
 6                    -4.34809  -0.6647    0.84422 
 6                    -2.93213  -0.34407   1.22579 
 6                    -2.98783   1.1335    1.5806 
 6                    -4.45971   1.59223   1.17876 
 6                    -2.66383   1.41552   3.0608 
 6                    -1.94743  -0.72146   0.09983 
 6                    -0.45546  -0.53833   0.57471 
 6                     0.49035  -0.81721  -0.52625 
 8                     0.35778  -1.21534  -1.66977 
 8                     1.79284  -0.58041  -0.04574 
 7                    -7.18014   2.70848   0.40106 
 6                    -6.14616   3.39252   0.7562 
 6                    -6.42039   4.89819   0.72177 
 6                    -7.74551   4.95249   0.31089 
 6                    -8.11498   3.52335   0.11393 
 6                    -5.57907   6.00675   1.13243 
 6                    -8.58513   5.99382   0.27216 
 6                    -8.38618   7.26054   0.69713 
 7                    -9.0948    0.70663  -0.44789 
 6                    -9.82489   1.87288  -0.60812 
 6                    -11.14449   1.48123  -1.09685 
 6                    -11.18307   0.08734  -1.35186 
 6                    -9.89235  -0.35835  -0.8613 
 6                    -12.26649   2.51678  -1.43255 
 6                    -12.43547  -0.57782  -1.67476 
 6                    -12.5546  -1.10043  -3.22368 
 7                    -7.23603  -1.37989  -0.21257 
 6                    -8.24905  -2.26575  -0.61609 
 6                    -7.83768  -3.58291  -0.54728 
 6                    -6.49118  -3.50123  -0.14172 
 6                    -6.16727  -2.16505   0.02511 
 6                    -8.56269  -4.78772  -0.9492 
 6                    -5.35895  -4.36819   0.17755 
 8                    -5.23156  -5.67341   0.24462 
 6                    -4.11297  -3.32726   0.54587 
 6                    -3.31657  -3.63796   1.84651 
 8                    -3.66518  -3.09784   2.86994 
 8                    -2.55755  -4.77533   1.63675 
 6                    -1.99934  -5.30923   2.8558 
 6                     2.77403  -0.87849  -1.03231 
 6                     4.14354  -0.64026  -0.46622 
 6                     5.06717   0.26224  -0.95461 
 6                     4.99677   1.12527  -2.22553 
 6                     6.36956   0.34231  -0.1812 
 6                     7.62662  -0.31473  -0.9491 
 6                     8.92972  -0.12656  -0.23124 
 6                     10.22397  -0.52157  -0.86838 
 6                     10.15315  -2.05145  -1.27683 
 6                     11.47484  -0.24583  -0.04395 
 6                     12.80635  -0.56876  -0.63111 
 6                     13.96948  -0.22409   0.18823 
 6                     15.28628  -0.24246  -0.54937 
 6                     15.66719  -1.64302  -1.1323 
 6                     16.31777   0.34811   0.3979 
 6                     17.85112   0.5821   -0.28251 
 6                     18.71979   1.34373   0.78752 
 6                     20.15621   1.39667   0.3415 
 6                     20.33863   2.21438  -0.93405 
 6                     20.99781   2.07911   1.3181 
 1                    -4.11084   3.51323   1.73418 
 1                    -10.27438   3.84073  -0.65277 
 1                    -10.61968  -2.18778  -1.15904 
 1                    -2.86451  -0.89748   2.26622 
 1                    -2.25002   1.68218   0.91913 
 1                    -1.57519   1.10971   3.00659 
 1                    -2.51361   2.58382   3.14348 
 1                    -3.50413   1.17235   3.82039 
 1                    -2.13558  -1.69757  -0.37461 
 1                    -2.04301   0.05022  -0.64374 
 1                    -0.27062   0.5125    1.12366 
 1                    -0.23342  -1.30836   1.47286 
 1                    -5.78689   6.8779    0.67349 
 1                    -5.70159   6.08968   2.21444 
 1                    -4.51243   5.84841   0.88805 
 1                    -9.34503   6.07814  -0.41633 
 1                    -9.07445   8.03946   0.65454 
 1                    -7.52323   7.47179   1.46108 
 1                    -11.78591   3.12241  -2.10569 
 1                    -13.22229   2.0212   -1.82993 
 1                    -12.92504   2.97026  -0.51805 
 1                    -12.5274  -1.39392  -0.89433 
 1                    -13.49155   0.15488  -1.31771 
 1                    -13.39634  -1.76792  -3.41385 
 1                    -12.70254  -0.26366  -3.97762 
 1                    -11.60196  -1.49199  -3.56418 
 1                    -8.98909  -4.73992  -1.92739 
 1                    -8.10626  -5.657    -0.80625 
 1                    -9.38584  -4.9349   -0.13086 
 1                    -3.46218  -3.57672  -0.31176 
 1                    -1.45351  -4.64238   3.42036 
 1                    -2.84583  -5.61518   3.36257 
 1                    -1.34342  -5.99397   2.47495 
 1                     2.68278  -1.97373  -1.24179 
 1                     2.68304  -0.32811  -1.88269 
 1                     4.42016  -1.09442   0.58834 
 1                     3.96507   1.3662   -2.56188 
 1                     5.48029   2.03996  -1.87482 
 1                     5.46334   0.59395  -2.92553 
 1                     6.79132   1.35896  -0.02668 
 1                     6.26909  -0.09715   0.7508 
 1                     7.27058  -1.14094  -1.05242 
 1                     7.49909   0.33656  -2.16172 
 1                     9.19031   0.99574   0.17528 
 1                     8.85328  -0.67165   0.64482 
 1                     10.39057  -0.00813  -1.85963 
 1                     9.27241  -2.02106  -1.79077 
 1                     10.98196  -2.54555  -1.91962 
 1                     10.0204  -2.65275  -0.42684 
 1                     11.28737   0.7988    0.35308 
 1                     11.3318  -0.84441   0.85842 
 1                     12.87456  -1.77037  -0.9066 
 1                     12.81226  -0.05185  -1.51286 
 1                     13.82571   0.71396   0.63698 
 1                     14.03445  -0.82695   1.12753 
 1                     15.12191   0.48283  -1.4207 
 1                     15.63532  -2.38302  -0.22463 
 1                     14.90401  -1.96568  -1.76849 
 1                     16.59242  -1.46402  -1.56296 
 1                     16.11902   1.39688   0.81555 
 1                     16.32074  -0.13723   1.3378 
 1                     18.2053  -0.34225  -0.78867 
 1                     17.70855   1.09782  -1.12252 
 1                     18.35896   2.50046   0.95831 
 1                     18.84927   0.56947   1.64182 
 1                     20.50335   0.20986   0.23686 
 1                     20.0354   3.22699  -0.75635 
 1                     21.40655   2.37808  -1.32246 
 1                     19.82464   1.84081  -1.55948 
 1                     20.96981   1.5913    2.41257 
 1                     22.12291   2.10788   1.16604 
 1                     20.57605   3.18375   1.51728 
 
 Stoichiometry    C55H72MgN4O5
 Framework group  C1[X(C55H72MgN4O5)]
 Deg. of freedom   405
 Full point group                 C1      NOp   1
 Largest Abelian subgroup         C1      NOp   1
 Largest concise Abelian subgroup C1      NOp   1
                         Standard orientation:                         
 ---------------------------------------------------------------------
 Center     Atomic      Atomic             Coordinates (Angstroms)
 Number     Number       Type             X           Y           Z
 ---------------------------------------------------------------------
      1         12           0       -7.180642    0.601799    0.044459
      2          6           0       -4.807786   -1.999442    0.537588
      3          6           0       -4.818048    2.825885    1.207964
      4          6           0       -9.391149    3.124957   -0.428768
      5          6           0       -9.581664   -1.707838   -0.778025
      6          7           0       -5.178817    0.475089    0.747155
      7          6           0       -4.343763   -0.665592    0.858800
      8          6           0       -2.928101   -0.336180    1.233923
      9          6           0       -2.986859    1.146225    1.567462
     10          6           0       -4.460302    1.595662    1.160896
     11          6           0       -2.661717    1.450328    3.043030
     12          6           0       -1.943891   -0.727459    0.112292
     13          6           0       -0.451779   -0.534002    0.582604
     14          6           0        0.493342   -0.826518   -0.515410
     15          8           0        0.360310   -1.241409   -1.652904
     16          8           0        1.795853   -0.579760   -0.040000
     17          7           0       -7.184308    2.694201    0.370595
     18          6           0       -6.151522    3.385712    0.714534
     19          6           0       -6.429340    4.890076    0.658736
     20          6           0       -7.755088    4.935338    0.248778
     21          6           0       -8.121425    3.502646    0.072916
     22          6           0       -5.590141    6.006416    1.052311
     23          6           0       -8.597210    5.974034    0.196089
     24          6           0       -8.400731    7.247210    0.602502
     25          7           0       -9.095275    0.675825   -0.446992
     26          6           0       -9.828314    1.837932   -0.623110
     27          6           0      -11.147580    1.436178   -1.104484
     28          6           0      -11.183180    0.038667   -1.339306
     29          6           0       -9.890812   -0.396867   -0.843995
     30          6           0      -12.272431    2.464146   -1.453672
     31          6           0      -12.434399   -0.634014   -1.651008
     32          6           0      -12.554188   -1.179187   -3.192085
     33          7           0       -7.231296   -1.402722   -0.183943
     34          6           0       -8.242717   -2.296675   -0.573371
     35          6           0       -7.828151   -3.611741   -0.486081
     36          6           0       -6.481354   -3.521069   -0.083434
     37          6           0       -6.160399   -2.181867    0.063702
     38          6           0       -8.550807   -4.823925   -0.869675
     39          6           0       -5.346695   -4.380675    0.246882
     40          8           0       -5.216144   -5.684493    0.332607
     41          6           0       -4.102721   -3.331623    0.598586
     42          6           0       -3.304000   -3.621664    1.902568
     43          8           0       -3.652637   -3.067651    2.918539
     44          8           0       -2.542559   -4.760154    1.708282
     45          6           0       -1.981598   -5.275104    2.934203
     46          6           0        2.776543   -0.889738   -1.023397
     47          6           0        4.146169   -0.640162   -0.462525
     48          6           0        5.067075    0.257363   -0.965039
     49          6           0        4.993085    1.101800   -2.248182
     50          6           0        6.370218    0.351634   -0.194501
     51          6           0        7.627887   -0.313472   -0.954421
     52          6           0        8.931412   -0.111918   -0.240991
     53          6           0       10.225809   -0.513043   -0.873997
     54          6           0       10.158103   -2.048817   -1.260253
     55          6           0       11.477035   -0.222505   -0.055201
     56          6           0       12.808582   -0.550748   -0.639313
     57          6           0       13.971895   -0.191571    0.173504
     58          6           0       15.287839   -0.217499   -0.565403
     59          6           0       15.671340   -1.625425   -1.128546
     60          6           0       16.319083    0.389094    0.371959
     61          6           0       17.851047    0.616838   -0.313690
     62          6           0       18.719223    1.395858    0.744159
     63          6           0       20.154964    1.445721    0.295617
     64          6           0       20.333892    2.245371   -0.991821
     65          6           0       20.996150    2.144148    1.261210
     66          1           0       -4.115295    3.525287    1.688112
     67          1           0      -10.282502    3.803870   -0.695567
     68          1           0      -10.614183   -2.232109   -1.114411
     69          1           0       -2.857907   -0.874361    2.282145
     70          1           0       -2.251152    1.687032    0.897213
     71          1           0       -1.572423    1.146315    2.991868
     72          1           0       -2.514151    2.620041    3.108664
     73          1           0       -3.500512    1.216170    3.807105
     74          1           0       -2.130314   -1.710752   -0.347784
     75          1           0       -2.042202    0.033189   -0.642214
     76          1           0       -0.268751    0.525065    1.116104
     77          1           0       -0.226824   -1.290478    1.491486
     78          1           0       -5.800581    6.870361    0.581111
     79          1           0       -5.711536    6.104660    2.133166
     80          1           0       -4.523426    5.847066    0.808897
     81          1           0       -9.358154    6.046634   -0.492591
     82          1           0       -9.090889    8.023828    0.549539
     83          1           0       -7.537352    7.471489    1.362232
     84          1           0      -11.794107    3.061132   -2.136073
     85          1           0      -13.227545    1.960651   -1.842658
     86          1           0      -12.930937    2.929233   -0.544980
     87          1           0      -12.523455   -1.438981   -0.858780
     88          1           0      -13.491773    0.101290   -1.303236
     89          1           0      -13.394589   -1.851322   -3.371550
     90          1           0      -12.705028   -0.353733   -3.957822
     91          1           0      -11.601041   -1.573385   -3.528101
     92          1           0       -8.978520   -4.791235   -1.847917
     93          1           0       -8.092148   -5.689977   -0.714779
     94          1           0       -9.372611   -4.961210   -0.048261
     95          1           0       -3.452401   -3.591907   -0.256176
     96          1           0       -1.436655   -4.598903    3.488401
     97          1           0       -2.826746   -5.575700    3.446390
     98          1           0       -1.324536   -5.963732    2.562442
     99          1           0        2.687616   -1.988105   -1.216943
    100          1           0        2.683216   -0.351906   -1.881513
    101          1           0        4.425157   -1.078412    0.598126
    102          1           0        3.960408    1.335437   -2.586676
    103          1           0        5.474874    2.022588   -1.911317
    104          1           0        5.460045    0.561533   -2.941035
    105          1           0        6.789759    1.371384   -0.055194
    106          1           0        6.271927   -0.074572    0.743865
    107          1           0        7.273668   -1.141923   -1.045372
    108          1           0        7.497336    0.319961   -2.176148
    109          1           0        9.189843    1.016741    0.148972
    110          1           0        8.857328   -0.644483    0.642934
    111          1           0       10.389990   -0.013567   -1.872756
    112          1           0        9.276664   -2.027905   -1.773464
    113          1           0       10.987289   -2.550189   -1.896884
    114          1           0       10.027817   -2.638099   -0.401509
    115          1           0       11.287583    0.827297    0.326962
    116          1           0       11.336511   -0.808336    0.855891
    117          1           0       12.879289   -1.756051   -0.897533
    118          1           0       12.812192   -0.046601   -1.528428
    119          1           0       13.826465    0.752510    0.608863
    120          1           0       14.039440   -0.780666    1.121319
    121          1           0       15.120690    0.494765   -1.446899
    122          1           0       15.642321   -2.352322   -0.210265
    123          1           0       14.908146   -1.959014   -1.759061
    124          1           0       16.595612   -1.450483   -1.562913
    125          1           0       16.118364    1.443308    0.774683
    126          1           0       16.324345   -0.082630    1.318754
    127          1           0       18.206784   -0.313888   -0.806905
    128          1           0       17.706228    1.120048   -1.160864
    129          1           0       18.355875    2.554081    0.898698
    130          1           0       18.851574    0.634306    1.609369
    131          1           0       20.504779    0.258344    0.207667
    132          1           0       20.028493    3.259730   -0.828362
    133          1           0       21.400954    2.405953   -1.383895
    134          1           0       19.820025    1.861620   -1.611158
    135          1           0       20.970636    1.672117    2.362645
    136          1           0       22.120988    2.173359    1.107345
    137          1           0       20.572020    3.250559    1.444971
 ---------------------------------------------------------------------
 Rotational constants (GHZ):           0.0638714           0.0061028           0.0057352
 Standard basis: 6-31G(d,p) (6D, 7F)
 There are  1339 symmetry adapted cartesian basis functions of A   symmetry.
 There are  1339 symmetry adapted basis functions of A   symmetry.
  1339 basis functions,  2348 primitive gaussians,  1339 cartesian basis functions
   241 alpha electrons      241 beta electrons
       nuclear repulsion energy      8729.1608994038 Hartrees.
 NAtoms=  137 NActive=  137 NUniq=  137 SFac= 1.00D+00 NAtFMM=   60 NAOKFM=T Big=T
 Integral buffers will be    131072 words long.
 Raffenetti 1 integral format.
 Two-electron integral symmetry is turned on.
 One-electron integrals computed using PRISM.
 NBasis=  1339 RedAO= T EigKep=  3.24D-04  NBF=  1339
 NBsUse=  1339 1.00D-06 EigRej= -1.00D+00 NBFU=  1339
 ExpMin= 4.21D-02 ExpMax= 1.17D+04 ExpMxC= 1.76D+03 IAcc=3 IRadAn=         5 AccDes= 0.00D+00
 Harris functional with IExCor=20419 and IRadAn=       5 diagonalized for initial guess.
 HarFok:  IExCor=20419 AccDes= 0.00D+00 IRadAn=         5 IDoV= 1 UseB2=F ITyADJ=14
 ICtDFT=  3500011 ScaDFX=  1.000000  1.000000  1.000000  1.000000
 FoFCou: FMM=F IPFlag=           0 FMFlag=      100000 FMFlg1=        2001
         NFxFlg=           0 DoJE=T BraDBF=F KetDBF=T FulRan=T
         wScrn=  0.000000 ICntrl=       500 IOpCl=  0 I1Cent=   200000004 NGrid=           0
         NMat0=    1 NMatS0=      1 NMatT0=    0 NMatD0=    1 NMtDS0=    0 NMtDT0=    0
 Petite list used in FoFCou.
 Requested convergence on RMS density matrix=1.00D-08 within 128 cycles.
 Requested convergence on MAX density matrix=1.00D-06.
 Requested convergence on             energy=1.00D-06.
 No special actions if energy rises.
 SCF Done:  E(RCAM-B3LYP) =  -2933.40737574     A.U. after   16 cycles
            NFock= 16  Conv=0.45D-08     -V/T= 2.0089
 DoSCS=F DFT=T ScalE2(SS,OS)=  1.000000  1.000000
 ExpMin= 4.21D-02 ExpMax= 1.17D+04 ExpMxC= 1.76D+03 IAcc=3 IRadAn=         5 AccDes= 0.00D+00
 HarFok:  IExCor=  205 AccDes= 0.00D+00 IRadAn=         5 IDoV=-2 UseB2=F ITyADJ=14
 ICtDFT= 12500011 ScaDFX=  1.000000  1.000000  1.000000  1.000000
 GSVD:  LWork=       -5313 too small for GESVD, short by       24840 words or       24840 for optimal perf.
 Range of M.O.s used for correlation:    70  1339
 NBasis=  1339 NAE=   241 NBE=   241 NFC=    69 NFV=     0
 NROrb=   1270 NOA=   172 NOB=   172 NVA=  1098 NVB=  1098
 Orbital symmetries:
       Occupied  (A) (A) (A) (A) (A) (A) (A) (A) (A) (A) (A) (A)
                 (A) (A) (A) (A) (A) (A) (A) (A) (A) (A) (A) (A)
                 (A) (A) (A) (A) (A) (A) (A) (A) (A) (A) (A) (A)
                 (A) (A) (A) (A) (A) (A) (A) (A) (A) (A) (A) (A)
                 (A) (A) (A) (A) (A) (A) (A) (A) (A) (A) (A) (A)
                 (A) (A) (A) (A) (A) (A) (A) (A) (A) (A) (A) (A)
                 (A) (A) (A) (A) (A) (A) (A) (A) (A) (A) (A) (A)
                 (A) (A) (A) (A) (A) (A) (A) (A) (A) (A) (A) (A)
                 (A) (A) (A) (A) (A) (A) (A) (A) (A) (A) (A) (A)
                 (A) (A) (A) (A) (A) (A) (A) (A) (A) (A) (A) (A)
                 (A) (A) (A) (A) (A) (A) (A) (A) (A) (A) (A) (A)
                 (A) (A) (A) (A) (A) (A) (A) (A) (A) (A) (A) (A)
                 (A) (A) (A) (A) (A) (A) (A) (A) (A) (A) (A) (A)
                 (A) (A) (A) (A) (A) (A) (A) (A) (A) (A) (A) (A)
                 (A) (A) (A) (A) (A) (A) (A) (A) (A) (A) (A) (A)
                 (A) (A) (A) (A) (A) (A) (A) (A) (A) (A) (A) (A)
                 (A) (A) (A) (A) (A) (A) (A) (A) (A) (A) (A) (A)
                 (A) (A) (A) (A) (A) (A) (A) (A) (A) (A) (A) (A)
                 (A) (A) (A) (A) (A) (A) (A) (A) (A) (A) (A) (A)
                 (A) (A) (A) (A) (A) (A) (A) (A) (A) (A) (A) (A)
                 (A)
       Virtual   (A) (A) (A) (A) (A) (A) (A) (A) (A) (A) (A) (A)
                 (A) (A) (A) (A) (A) (A) (A) (A) (A) (A) (A) (A)
                 (A) (A) (A) (A) (A) (A) (A) (A) (A) (A) (A) (A)
                 (A) (A) (A) (A) (A) (A) (A) (A) (A) (A) (A) (A)
                 (A) (A) (A) (A) (A) (A) (A) (A) (A) (A) (A) (A)
                 (A) (A) (A) (A) (A) (A) (A) (A) (A) (A) (A) (A)
                 (A) (A) (A) (A) (A) (A) (A) (A) (A) (A) (A) (A)
                 (A) (A) (A) (A) (A) (A) (A) (A) (A) (A) (A) (A)
                 (A) (A) (A) (A) (A) (A) (A) (A) (A) (A) (A) (A)
                 (A) (A) (A) (A) (A) (A) (A) (A) (A) (A) (A) (A)
                 (A) (A) (A) (A) (A) (A) (A) (A) (A) (A) (A) (A)
                 (A) (A) (A) (A) (A) (A) (A) (A) (A) (A) (A) (A)
                 (A) (A) (A) (A) (A) (A) (A) (A) (A) (A) (A) (A)
                 (A) (A) (A) (A) (A) (A) (A) (A) (A) (A) (A) (A)
                 (A) (A) (A) (A) (A) (A) (A) (A) (A) (A) (A) (A)
                 (A) (A) (A) (A) (A) (A) (A) (A) (A) (A) (A) (A)
                 (A) (A) (A) (A) (A) (A) (A) (A) (A) (A) (A) (A)
                 (A) (A) (A) (A) (A) (A) (A) (A) (A) (A) (A) (A)
                 (A) (A) (A) (A) (A) (A) (A) (A) (A) (A) (A) (A)
                 (A) (A) (A) (A) (A) (A) (A) (A) (A) (A) (A) (A)
                 (A) (A) (A) (A) (A) (A) (A) (A) (A) (A) (A) (A)
                 (A) (A) (A) (A) (A) (A) (A) (A) (A) (A) (A) (A)
                 (A) (A) (A) (A) (A) (A) (A) (A) (A) (A) (A) (A)
                 (A) (A) (A) (A) (A) (A) (A) (A) (A) (A) (A) (A)
                 (A) (A) (A) (A) (A) (A) (A) (A) (A) (A) (A) (A)
                 (A) (A) (A) (A) (A) (A) (A) (A) (A) (A) (A) (A)
                 (A) (A) (A) (A) (A) (A) (A) (A) (A) (A) (A) (A)
                 (A) (A) (A) (A) (A) (A) (A) (A) (A) (A) (A) (A)
                 (A) (A) (A) (A) (A) (A) (A) (A) (A) (A) (A) (A)
                 (A) (A) (A) (A) (A) (A) (A) (A) (A) (A) (A) (A)
                 (A) (A) (A) (A) (A) (A) (A) (A) (A) (A) (A) (A)
                 (A) (A) (A) (A) (A) (A) (A) (A) (A) (A) (A) (A)
                 (A) (A) (A) (A) (A) (A) (A) (A) (A) (A) (A) (A)
                 (A) (A) (A) (A) (A) (A) (A) (A) (A) (A) (A) (A)
                 (A) (A) (A) (A) (A) (A) (A) (A) (A) (A) (A) (A)
                 (A) (A) (A) (A) (A) (A) (A) (A) (A) (A) (A) (A)
                 (A) (A) (A) (A) (A) (A) (A) (A) (A) (A) (A) (A)
                 (A) (A) (A) (A) (A) (A) (A) (A) (A) (A) (A) (A)
                 (A) (A) (A) (A) (A) (A) (A) (A) (A) (A) (A) (A)
                 (A) (A) (A) (A) (A) (A) (A) (A) (A) (A) (A) (A)
                 (A) (A) (A) (A) (A) (A) (A) (A) (A) (A) (A) (A)
                 (A) (A) (A) (A) (A) (A) (A) (A) (A) (A) (A) (A)
                 (A) (A) (A) (A) (A) (A) (A) (A) (A) (A) (A) (A)
                 (A) (A) (A) (A) (A) (A) (A) (A) (A) (A) (A) (A)
                 (A) (A) (A) (A) (A) (A) (A) (A) (A) (A) (A) (A)
                 (A) (A) (A) (A) (A) (A) (A) (A) (A) (A) (A) (A)
                 (A) (A) (A) (A) (A) (A) (A) (A) (A) (A) (A) (A)
                 (A) (A) (A) (A) (A) (A) (A) (A) (A) (A) (A) (A)
                 (A) (A) (A) (A) (A) (A) (A) (A) (A) (A) (A) (A)
                 (A) (A) (A) (A) (A) (A) (A) (A) (A) (A) (A) (A)
                 (A) (A) (A) (A) (A) (A) (A) (A) (A) (A) (A) (A)
                 (A) (A) (A) (A) (A) (A) (A) (A) (A) (A) (A) (A)
                 (A) (A) (A) (A) (A) (A) (A) (A) (A) (A) (A) (A)
                 (A) (A) (A) (A) (A) (A) (A) (A) (A) (A) (A) (A)
                 (A) (A) (A) (A) (A) (A) (A) (A) (A) (A) (A) (A)
                 (A) (A) (A) (A) (A) (A) (A) (A) (A) (A) (A) (A)
                 (A) (A) (A) (A) (A) (A) (A) (A) (A) (A) (A) (A)
                 (A) (A) (A) (A) (A) (A) (A) (A) (A) (A) (A) (A)
                 (A) (A) (A) (A) (A) (A) (A) (A) (A) (A) (A) (A)
                 (A) (A) (A) (A) (A) (A) (A) (A) (A) (A) (A) (A)
                 (A) (A) (A) (A) (A) (A) (A) (A) (A) (A) (A) (A)
                 (A) (A) (A) (A) (A) (A) (A) (A) (A) (A) (A) (A)
                 (A) (A) (A) (A) (A) (A) (A) (A) (A) (A) (A) (A)
                 (A) (A) (A) (A) (A) (A) (A) (A) (A) (A) (A) (A)
                 (A) (A) (A) (A) (A) (A) (A) (A) (A) (A) (A) (A)
                 (A) (A) (A) (A) (A) (A) (A) (A) (A) (A) (A) (A)
                 (A) (A) (A) (A) (A) (A) (A) (A) (A) (A) (A) (A)
                 (A) (A) (A) (A) (A) (A) (A) (A) (A) (A) (A) (A)
                 (A) (A) (A) (A) (A) (A) (A) (A) (A) (A) (A) (A)
                 (A) (A) (A) (A) (A) (A) (A) (A) (A) (A) (A) (A)
                 (A) (A) (A) (A) (A) (A) (A) (A) (A) (A) (A) (A)
                 (A) (A) (A) (A) (A) (A) (A) (A) (A) (A) (A) (A)
                 (A) (A) (A) (A) (A) (A) (A) (A) (A) (A) (A) (A)
                 (A) (A) (A) (A) (A) (A) (A) (A) (A) (A) (A) (A)
                 (A) (A) (A) (A) (A) (A) (A) (A) (A) (A) (A) (A)
                 (A) (A) (A) (A) (A) (A) (A) (A) (A) (A) (A) (A)
                 (A) (A) (A) (A) (A) (A) (A) (A) (A) (A) (A) (A)
                 (A) (A) (A) (A) (A) (A) (A) (A) (A) (A) (A) (A)
                 (A) (A) (A) (A) (A) (A) (A) (A) (A) (A) (A) (A)
                 (A) (A) (A) (A) (A) (A) (A) (A) (A) (A) (A) (A)
                 (A) (A) (A) (A) (A) (A) (A) (A) (A) (A) (A) (A)
                 (A) (A) (A) (A) (A) (A) (A) (A) (A) (A) (A) (A)
                 (A) (A) (A) (A) (A) (A) (A) (A) (A) (A) (A) (A)
                 (A) (A) (A) (A) (A) (A) (A) (A) (A) (A) (A) (A)
                 (A) (A) (A) (A) (A) (A) (A) (A) (A) (A) (A) (A)
                 (A) (A) (A) (A) (A) (A) (A) (A) (A) (A) (A) (A)
                 (A) (A) (A) (A) (A) (A) (A) (A) (A) (A) (A) (A)
                 (A) (A) (A) (A) (A) (A) (A) (A) (A) (A) (A) (A)
                 (A) (A) (A) (A) (A) (A) (A) (A) (A) (A) (A) (A)
                 (A) (A) (A) (A) (A) (A) (A) (A) (A) (A) (A) (A)
                 (A) (A) (A) (A) (A) (A) (A) (A) (A) (A) (A) (A)
                 (A) (A) (A) (A) (A) (A)
     4 initial guesses have been made.
 Convergence on wavefunction:    0.001000000000000
 Iteration     1 Dimension     4 NMult     0 NNew      4
 CISAX will form     4 AO SS matrices at one time.
 New state      1 was old state      2
 Iteration     2 Dimension     6 NMult     4 NNew      2
 Iteration     3 Dimension     8 NMult     6 NNew      2
 Iteration     4 Dimension    10 NMult     8 NNew      2
 Iteration     5 Dimension    12 NMult    10 NNew      2
 Iteration     6 Dimension    14 NMult    12 NNew      2
 Iteration     7 Dimension    16 NMult    14 NNew      2
 Iteration     8 Dimension    18 NMult    16 NNew      2
 Iteration     9 Dimension    20 NMult    18 NNew      2
 ***********************************************************************
 Excited states from <AA,BB:AA,BB> singles matrix:
 ***********************************************************************
 
 Ground to excited state transition densities written to RWF  633
 Ground to excited state transition electric dipole moments (Au):
       state          X           Y           Z        Dip. S.      Osc.
         1         1.1035     -2.5703      0.0758      7.8300      0.3722
 Ground to excited state transition velocity dipole moments (Au):
       state          X           Y           Z        Dip. S.      Osc.
         1        -0.0738      0.1796     -0.0037      0.0377      0.3527
 Ground to excited state transition magnetic dipole moments (Au):
       state          X           Y           Z
         1         0.2878      0.0810     -3.4231
 Ground to excited state transition velocity quadrupole moments (Au):
       state          XX          YY          ZZ          XY          XZ          YZ
         1         1.7104      0.4906     -0.0071     -2.3203      0.0461      0.1665
 <0|del|b> * <b|rxdel|0> + <0|del|b> * <b|delr+rdel|0>
 Rotatory Strengths (R) in cgs (10**-40 erg-esu-cm/Gauss)
       state          XX          YY          ZZ    R(velocity)    E-M Angle
         1       135.9426   -146.1019     68.8057     19.5488       89.49
 1/2[<0|r|b>*<b|rxdel|0> + (<0|rxdel|b>*<b|r|0>)*]
 Rotatory Strengths (R) in cgs (10**-40 erg-esu-cm/Gauss)
       state          XX          YY          ZZ     R(length)
         1      -224.5924    147.2550    183.5913     35.4180
  1/2[<0|del|b>*<b|r|0> + (<0|r|b>*<b|del|0>)*] (Au)
       state          X           Y           Z        Dip. S.   Osc.(frdel)
         1        -0.0814     -0.4617     -0.0003      0.5434      0.3623

 Excitation energies and oscillator strengths:
 
 Excited State   1:      Singlet-A      1.9403 eV  638.98 nm  f=0.3722  <S**2>=0.000
     240 -> 243       -0.17133
     241 -> 242        0.68215
 This state for optimization and/or second-order correction.
 Total Energy, E(TD-HF/TD-DFT) =  -2933.33606952    
 Copying the excited state density for this state as the 1-particle RhoCI density.
 SavETr:  write IOETrn=   770 NScale= 10 NData=  16 NLR=1 NState=    1 LETran=      28.
 Hyperfine terms turned off by default for NAtoms > 100.

 **********************************************************************

            Population analysis using the SCF density.

 **********************************************************************

 Orbital symmetries:
       Occupied  (A) (A) (A) (A) (A) (A) (A) (A) (A) (A) (A) (A)
                 (A) (A) (A) (A) (A) (A) (A) (A) (A) (A) (A) (A)
                 (A) (A) (A) (A) (A) (A) (A) (A) (A) (A) (A) (A)
                 (A) (A) (A) (A) (A) (A) (A) (A) (A) (A) (A) (A)
                 (A) (A) (A) (A) (A) (A) (A) (A) (A) (A) (A) (A)
                 (A) (A) (A) (A) (A) (A) (A) (A) (A) (A) (A) (A)
                 (A) (A) (A) (A) (A) (A) (A) (A) (A) (A) (A) (A)
                 (A) (A) (A) (A) (A) (A) (A) (A) (A) (A) (A) (A)
                 (A) (A) (A) (A) (A) (A) (A) (A) (A) (A) (A) (A)
                 (A) (A) (A) (A) (A) (A) (A) (A) (A) (A) (A) (A)
                 (A) (A) (A) (A) (A) (A) (A) (A) (A) (A) (A) (A)
                 (A) (A) (A) (A) (A) (A) (A) (A) (A) (A) (A) (A)
                 (A) (A) (A) (A) (A) (A) (A) (A) (A) (A) (A) (A)
                 (A) (A) (A) (A) (A) (A) (A) (A) (A) (A) (A) (A)
                 (A) (A) (A) (A) (A) (A) (A) (A) (A) (A) (A) (A)
                 (A) (A) (A) (A) (A) (A) (A) (A) (A) (A) (A) (A)
                 (A) (A) (A) (A) (A) (A) (A) (A) (A) (A) (A) (A)
                 (A) (A) (A) (A) (A) (A) (A) (A) (A) (A) (A) (A)
                 (A) (A) (A) (A) (A) (A) (A) (A) (A) (A) (A) (A)
                 (A) (A) (A) (A) (A) (A) (A) (A) (A) (A) (A) (A)
                 (A)
       Virtual   (A) (A) (A) (A) (A) (A) (A) (A) (A) (A) (A) (A)
                 (A) (A) (A) (A) (A) (A) (A) (A) (A) (A) (A) (A)
                 (A) (A) (A) (A) (A) (A) (A) (A) (A) (A) (A) (A)
                 (A) (A) (A) (A) (A) (A) (A) (A) (A) (A) (A) (A)
                 (A) (A) (A) (A) (A) (A) (A) (A) (A) (A) (A) (A)
                 (A) (A) (A) (A) (A) (A) (A) (A) (A) (A) (A) (A)
                 (A) (A) (A) (A) (A) (A) (A) (A) (A) (A) (A) (A)
                 (A) (A) (A) (A) (A) (A) (A) (A) (A) (A) (A) (A)
                 (A) (A) (A) (A) (A) (A) (A) (A) (A) (A) (A) (A)
                 (A) (A) (A) (A) (A) (A) (A) (A) (A) (A) (A) (A)
                 (A) (A) (A) (A) (A) (A) (A) (A) (A) (A) (A) (A)
                 (A) (A) (A) (A) (A) (A) (A) (A) (A) (A) (A) (A)
                 (A) (A) (A) (A) (A) (A) (A) (A) (A) (A) (A) (A)
                 (A) (A) (A) (A) (A) (A) (A) (A) (A) (A) (A) (A)
                 (A) (A) (A) (A) (A) (A) (A) (A) (A) (A) (A) (A)
                 (A) (A) (A) (A) (A) (A) (A) (A) (A) (A) (A) (A)
                 (A) (A) (A) (A) (A) (A) (A) (A) (A) (A) (A) (A)
                 (A) (A) (A) (A) (A) (A) (A) (A) (A) (A) (A) (A)
                 (A) (A) (A) (A) (A) (A) (A) (A) (A) (A) (A) (A)
                 (A) (A) (A) (A) (A) (A) (A) (A) (A) (A) (A) (A)
                 (A) (A) (A) (A) (A) (A) (A) (A) (A) (A) (A) (A)
                 (A) (A) (A) (A) (A) (A) (A) (A) (A) (A) (A) (A)
                 (A) (A) (A) (A) (A) (A) (A) (A) (A) (A) (A) (A)
                 (A) (A) (A) (A) (A) (A) (A) (A) (A) (A) (A) (A)
                 (A) (A) (A) (A) (A) (A) (A) (A) (A) (A) (A) (A)
                 (A) (A) (A) (A) (A) (A) (A) (A) (A) (A) (A) (A)
                 (A) (A) (A) (A) (A) (A) (A) (A) (A) (A) (A) (A)
                 (A) (A) (A) (A) (A) (A) (A) (A) (A) (A) (A) (A)
                 (A) (A) (A) (A) (A) (A) (A) (A) (A) (A) (A) (A)
                 (A) (A) (A) (A) (A) (A) (A) (A) (A) (A) (A) (A)
                 (A) (A) (A) (A) (A) (A) (A) (A) (A) (A) (A) (A)
                 (A) (A) (A) (A) (A) (A) (A) (A) (A) (A) (A) (A)
                 (A) (A) (A) (A) (A) (A) (A) (A) (A) (A) (A) (A)
                 (A) (A) (A) (A) (A) (A) (A) (A) (A) (A) (A) (A)
                 (A) (A) (A) (A) (A) (A) (A) (A) (A) (A) (A) (A)
                 (A) (A) (A) (A) (A) (A) (A) (A) (A) (A) (A) (A)
                 (A) (A) (A) (A) (A) (A) (A) (A) (A) (A) (A) (A)
                 (A) (A) (A) (A) (A) (A) (A) (A) (A) (A) (A) (A)
                 (A) (A) (A) (A) (A) (A) (A) (A) (A) (A) (A) (A)
                 (A) (A) (A) (A) (A) (A) (A) (A) (A) (A) (A) (A)
                 (A) (A) (A) (A) (A) (A) (A) (A) (A) (A) (A) (A)
                 (A) (A) (A) (A) (A) (A) (A) (A) (A) (A) (A) (A)
                 (A) (A) (A) (A) (A) (A) (A) (A) (A) (A) (A) (A)
                 (A) (A) (A) (A) (A) (A) (A) (A) (A) (A) (A) (A)
                 (A) (A) (A) (A) (A) (A) (A) (A) (A) (A) (A) (A)
                 (A) (A) (A) (A) (A) (A) (A) (A) (A) (A) (A) (A)
                 (A) (A) (A) (A) (A) (A) (A) (A) (A) (A) (A) (A)
                 (A) (A) (A) (A) (A) (A) (A) (A) (A) (A) (A) (A)
                 (A) (A) (A) (A) (A) (A) (A) (A) (A) (A) (A) (A)
                 (A) (A) (A) (A) (A) (A) (A) (A) (A) (A) (A) (A)
                 (A) (A) (A) (A) (A) (A) (A) (A) (A) (A) (A) (A)
                 (A) (A) (A) (A) (A) (A) (A) (A) (A) (A) (A) (A)
                 (A) (A) (A) (A) (A) (A) (A) (A) (A) (A) (A) (A)
                 (A) (A) (A) (A) (A) (A) (A) (A) (A) (A) (A) (A)
                 (A) (A) (A) (A) (A) (A) (A) (A) (A) (A) (A) (A)
                 (A) (A) (A) (A) (A) (A) (A) (A) (A) (A) (A) (A)
                 (A) (A) (A) (A) (A) (A) (A) (A) (A) (A) (A) (A)
                 (A) (A) (A) (A) (A) (A) (A) (A) (A) (A) (A) (A)
                 (A) (A) (A) (A) (A) (A) (A) (A) (A) (A) (A) (A)
                 (A) (A) (A) (A) (A) (A) (A) (A) (A) (A) (A) (A)
                 (A) (A) (A) (A) (A) (A) (A) (A) (A) (A) (A) (A)
                 (A) (A) (A) (A) (A) (A) (A) (A) (A) (A) (A) (A)
                 (A) (A) (A) (A) (A) (A) (A) (A) (A) (A) (A) (A)
                 (A) (A) (A) (A) (A) (A) (A) (A) (A) (A) (A) (A)
                 (A) (A) (A) (A) (A) (A) (A) (A) (A) (A) (A) (A)
                 (A) (A) (A) (A) (A) (A) (A) (A) (A) (A) (A) (A)
                 (A) (A) (A) (A) (A) (A) (A) (A) (A) (A) (A) (A)
                 (A) (A) (A) (A) (A) (A) (A) (A) (A) (A) (A) (A)
                 (A) (A) (A) (A) (A) (A) (A) (A) (A) (A) (A) (A)
                 (A) (A) (A) (A) (A) (A) (A) (A) (A) (A) (A) (A)
                 (A) (A) (A) (A) (A) (A) (A) (A) (A) (A) (A) (A)
                 (A) (A) (A) (A) (A) (A) (A) (A) (A) (A) (A) (A)
                 (A) (A) (A) (A) (A) (A) (A) (A) (A) (A) (A) (A)
                 (A) (A) (A) (A) (A) (A) (A) (A) (A) (A) (A) (A)
                 (A) (A) (A) (A) (A) (A) (A) (A) (A) (A) (A) (A)
                 (A) (A) (A) (A) (A) (A) (A) (A) (A) (A) (A) (A)
                 (A) (A) (A) (A) (A) (A) (A) (A) (A) (A) (A) (A)
                 (A) (A) (A) (A) (A) (A) (A) (A) (A) (A) (A) (A)
                 (A) (A) (A) (A) (A) (A) (A) (A) (A) (A) (A) (A)
                 (A) (A) (A) (A) (A) (A) (A) (A) (A) (A) (A) (A)
                 (A) (A) (A) (A) (A) (A) (A) (A) (A) (A) (A) (A)
                 (A) (A) (A) (A) (A) (A) (A) (A) (A) (A) (A) (A)
                 (A) (A) (A) (A) (A) (A) (A) (A) (A) (A) (A) (A)
                 (A) (A) (A) (A) (A) (A) (A) (A) (A) (A) (A) (A)
                 (A) (A) (A) (A) (A) (A) (A) (A) (A) (A) (A) (A)
                 (A) (A) (A) (A) (A) (A) (A) (A) (A) (A) (A) (A)
                 (A) (A) (A) (A) (A) (A) (A) (A) (A) (A) (A) (A)
                 (A) (A) (A) (A) (A) (A) (A) (A) (A) (A) (A) (A)
                 (A) (A) (A) (A) (A) (A) (A) (A) (A) (A) (A) (A)
                 (A) (A) (A) (A) (A) (A) (A) (A) (A) (A) (A) (A)
                 (A) (A) (A) (A) (A) (A) (A) (A) (A) (A) (A) (A)
                 (A) (A) (A) (A) (A) (A)
 The electronic state is 1-A.
 Alpha  occ. eigenvalues --  -46.80134 -19.22132 -19.20695 -19.17704 -19.17334
 Alpha  occ. eigenvalues --  -19.15240 -14.37467 -14.36645 -14.35244 -14.34949
 Alpha  occ. eigenvalues --  -10.34956 -10.34727 -10.30679 -10.27059 -10.26725
 Alpha  occ. eigenvalues --  -10.26002 -10.25781 -10.25575 -10.25530 -10.25162
 Alpha  occ. eigenvalues --  -10.25034 -10.24838 -10.24780 -10.24704 -10.24293
 Alpha  occ. eigenvalues --  -10.24090 -10.23964 -10.23650 -10.23595 -10.23430
 Alpha  occ. eigenvalues --  -10.23302 -10.23243 -10.23224 -10.23061 -10.22967
 Alpha  occ. eigenvalues --  -10.22938 -10.22906 -10.22877 -10.22809 -10.22389
 Alpha  occ. eigenvalues --  -10.22377 -10.22281 -10.22036 -10.22016 -10.21935
 Alpha  occ. eigenvalues --  -10.21816 -10.21806 -10.21618 -10.21525 -10.21469
 Alpha  occ. eigenvalues --  -10.21414 -10.21336 -10.21118 -10.21090 -10.21006
 Alpha  occ. eigenvalues --  -10.20882 -10.20763 -10.20510 -10.20500 -10.20302
 Alpha  occ. eigenvalues --  -10.20222 -10.19943 -10.19242 -10.18981 -10.17926
 Alpha  occ. eigenvalues --   -3.08786  -1.83719  -1.83241  -1.83211  -1.12130
 Alpha  occ. eigenvalues --   -1.11954  -1.05142  -1.03836  -1.03236  -0.99988
 Alpha  occ. eigenvalues --   -0.98559  -0.97186  -0.96405  -0.86494  -0.86350
 Alpha  occ. eigenvalues --   -0.86156  -0.85390  -0.85059  -0.84816  -0.84200
 Alpha  occ. eigenvalues --   -0.83707  -0.82909  -0.82630  -0.82114  -0.81097
 Alpha  occ. eigenvalues --   -0.80268  -0.79834  -0.78614  -0.77848  -0.77413
 Alpha  occ. eigenvalues --   -0.76674  -0.76404  -0.75487  -0.75150  -0.74313
 Alpha  occ. eigenvalues --   -0.73482  -0.72679  -0.71862  -0.71812  -0.71296
 Alpha  occ. eigenvalues --   -0.71210  -0.71017  -0.69846  -0.69300  -0.68243
 Alpha  occ. eigenvalues --   -0.66691  -0.66449  -0.65129  -0.64788  -0.64665
 Alpha  occ. eigenvalues --   -0.63560  -0.63051  -0.61204  -0.61077  -0.59800
 Alpha  occ. eigenvalues --   -0.59217  -0.59022  -0.58437  -0.58222  -0.57975
 Alpha  occ. eigenvalues --   -0.56661  -0.56356  -0.56324  -0.55718  -0.54986
 Alpha  occ. eigenvalues --   -0.54609  -0.54455  -0.53554  -0.52767  -0.52342
 Alpha  occ. eigenvalues --   -0.52144  -0.52084  -0.51226  -0.51053  -0.50891
 Alpha  occ. eigenvalues --   -0.50623  -0.50146  -0.49894  -0.49535  -0.49324
 Alpha  occ. eigenvalues --   -0.49231  -0.48886  -0.48670  -0.48515  -0.48120
 Alpha  occ. eigenvalues --   -0.47884  -0.47817  -0.47664  -0.47266  -0.47144
 Alpha  occ. eigenvalues --   -0.47030  -0.46897  -0.46625  -0.46488  -0.45971
 Alpha  occ. eigenvalues --   -0.45839  -0.45604  -0.45324  -0.45104  -0.44926
 Alpha  occ. eigenvalues --   -0.44773  -0.44714  -0.44519  -0.44184  -0.43780
 Alpha  occ. eigenvalues --   -0.43657  -0.43425  -0.43191  -0.43047  -0.42836
 Alpha  occ. eigenvalues --   -0.42306  -0.42253  -0.41835  -0.41726  -0.41370
 Alpha  occ. eigenvalues --   -0.41209  -0.41045  -0.40976  -0.40731  -0.40550
 Alpha  occ. eigenvalues --   -0.40532  -0.40098  -0.40015  -0.39869  -0.39668
 Alpha  occ. eigenvalues --   -0.39658  -0.39512  -0.39179  -0.39127  -0.38790
 Alpha  occ. eigenvalues --   -0.38715  -0.38463  -0.38357  -0.38193  -0.37983
 Alpha  occ. eigenvalues --   -0.37823  -0.37629  -0.37490  -0.37341  -0.36903
 Alpha  occ. eigenvalues --   -0.36832  -0.36452  -0.36190  -0.36180  -0.35838
 Alpha  occ. eigenvalues --   -0.35712  -0.35322  -0.35271  -0.34950  -0.34561
 Alpha  occ. eigenvalues --   -0.34325  -0.34300  -0.33886  -0.33815  -0.33402
 Alpha  occ. eigenvalues --   -0.33244  -0.33017  -0.32950  -0.32716  -0.32680
 Alpha  occ. eigenvalues --   -0.32623  -0.32335  -0.32270  -0.31077  -0.30421
 Alpha  occ. eigenvalues --   -0.30299  -0.30283  -0.29009  -0.28861  -0.26490
 Alpha  occ. eigenvalues --   -0.26202  -0.25775  -0.25643  -0.25088  -0.21886
 Alpha  occ. eigenvalues --   -0.20061
 Alpha virt. eigenvalues --   -0.08048  -0.03346  -0.00172   0.01431   0.02258
 Alpha virt. eigenvalues --    0.02670   0.03931   0.04044   0.05059   0.05804
 Alpha virt. eigenvalues --    0.06528   0.07413   0.08604   0.09106   0.09488
 Alpha virt. eigenvalues --    0.10053   0.10178   0.10428   0.10569   0.11102
 Alpha virt. eigenvalues --    0.11120   0.11277   0.11500   0.12426   0.12802
 Alpha virt. eigenvalues --    0.12826   0.12989   0.13136   0.13187   0.13420
 Alpha virt. eigenvalues --    0.13861   0.13864   0.14503   0.14527   0.14784
 Alpha virt. eigenvalues --    0.14864   0.14975   0.15157   0.15272   0.15568
 Alpha virt. eigenvalues --    0.15781   0.15892   0.15950   0.16351   0.16615
 Alpha virt. eigenvalues --    0.16683   0.16801   0.16957   0.17134   0.17294
 Alpha virt. eigenvalues --    0.17381   0.17766   0.17880   0.18001   0.18077
 Alpha virt. eigenvalues --    0.18410   0.18574   0.18585   0.18643   0.18694
 Alpha virt. eigenvalues --    0.18798   0.18937   0.19134   0.19480   0.19592
 Alpha virt. eigenvalues --    0.19856   0.20056   0.20174   0.20470   0.20718
 Alpha virt. eigenvalues --    0.20883   0.20926   0.21264   0.21405   0.21714
 Alpha virt. eigenvalues --    0.21788   0.21867   0.22096   0.22209   0.22379
 Alpha virt. eigenvalues --    0.22530   0.22653   0.22716   0.22772   0.22968
 Alpha virt. eigenvalues --    0.23280   0.23460   0.23513   0.23647   0.23861
 Alpha virt. eigenvalues --    0.23953   0.24390   0.24421   0.24689   0.24756
 Alpha virt. eigenvalues --    0.25123   0.25333   0.25576   0.25914   0.26111
 Alpha virt. eigenvalues --    0.26295   0.26347   0.26529   0.26699   0.26941
 Alpha virt. eigenvalues --    0.27044   0.27315   0.27506   0.27599   0.28032
 Alpha virt. eigenvalues --    0.28108   0.28200   0.28250   0.28576   0.28994
 Alpha virt. eigenvalues --    0.29457   0.29635   0.29947   0.30265   0.30400
 Alpha virt. eigenvalues --    0.30638   0.30899   0.31062   0.31507   0.31790
 Alpha virt. eigenvalues --    0.32021   0.32301   0.32398   0.32515   0.32936
 Alpha virt. eigenvalues --    0.33586   0.33662   0.33945   0.34577   0.35120
 Alpha virt. eigenvalues --    0.35612   0.36342   0.36644   0.36751   0.37304
 Alpha virt. eigenvalues --    0.38557   0.38819   0.39435   0.39797   0.40118
 Alpha virt. eigenvalues --    0.40381   0.41022   0.41354   0.42096   0.42174
 Alpha virt. eigenvalues --    0.43295   0.43651   0.44521   0.44820   0.45510
 Alpha virt. eigenvalues --    0.46044   0.47591   0.48178   0.48426   0.48670
 Alpha virt. eigenvalues --    0.49577   0.50258   0.50443   0.50570   0.51068
 Alpha virt. eigenvalues --    0.51215   0.51772   0.52054   0.52380   0.53136
 Alpha virt. eigenvalues --    0.53225   0.53666   0.53729   0.53926   0.54165
 Alpha virt. eigenvalues --    0.54344   0.54525   0.54794   0.54826   0.55079
 Alpha virt. eigenvalues --    0.55441   0.55465   0.55728   0.55953   0.56253
 Alpha virt. eigenvalues --    0.56581   0.56691   0.56819   0.56976   0.57125
 Alpha virt. eigenvalues --    0.57241   0.57430   0.57953   0.58187   0.58818
 Alpha virt. eigenvalues --    0.58834   0.58856   0.59533   0.59599   0.59802
 Alpha virt. eigenvalues --    0.60051   0.60705   0.61036   0.61299   0.61338
 Alpha virt. eigenvalues --    0.61685   0.62062   0.62097   0.62336   0.62489
 Alpha virt. eigenvalues --    0.62696   0.62920   0.63043   0.63249   0.63420
 Alpha virt. eigenvalues --    0.63658   0.63903   0.64142   0.64551   0.64610
 Alpha virt. eigenvalues --    0.64750   0.65055   0.65524   0.65841   0.66018
 Alpha virt. eigenvalues --    0.66293   0.66454   0.66677   0.66954   0.67173
 Alpha virt. eigenvalues --    0.67376   0.67701   0.67933   0.68341   0.68433
 Alpha virt. eigenvalues --    0.68671   0.68855   0.69191   0.69432   0.69824
 Alpha virt. eigenvalues --    0.70029   0.70322   0.70867   0.70931   0.71041
 Alpha virt. eigenvalues --    0.71297   0.71574   0.71709   0.71736   0.72146
 Alpha virt. eigenvalues --    0.72214   0.72593   0.73110   0.73384   0.73481
 Alpha virt. eigenvalues --    0.74178   0.74439   0.74555   0.75009   0.75064
 Alpha virt. eigenvalues --    0.75507   0.75609   0.75844   0.76267   0.76324
 Alpha virt. eigenvalues --    0.76606   0.76756   0.76947   0.77283   0.77832
 Alpha virt. eigenvalues --    0.78154   0.78225   0.78482   0.78528   0.79083
 Alpha virt. eigenvalues --    0.79397   0.79646   0.79734   0.80059   0.80175
 Alpha virt. eigenvalues --    0.80487   0.80600   0.80740   0.80765   0.80856
 Alpha virt. eigenvalues --    0.81163   0.81490   0.81736   0.82025   0.82325
 Alpha virt. eigenvalues --    0.82490   0.82683   0.82797   0.82961   0.83159
 Alpha virt. eigenvalues --    0.83174   0.83652   0.84036   0.84147   0.84272
 Alpha virt. eigenvalues --    0.84451   0.84963   0.85063   0.85313   0.85430
 Alpha virt. eigenvalues --    0.85658   0.86299   0.86508   0.86666   0.86825
 Alpha virt. eigenvalues --    0.86987   0.87122   0.87367   0.87541   0.87629
 Alpha virt. eigenvalues --    0.87804   0.88064   0.88383   0.88541   0.88588
 Alpha virt. eigenvalues --    0.88751   0.89056   0.89401   0.89523   0.89753
 Alpha virt. eigenvalues --    0.89909   0.90086   0.90452   0.90578   0.90679
 Alpha virt. eigenvalues --    0.91067   0.91192   0.91339   0.91541   0.91793
 Alpha virt. eigenvalues --    0.91934   0.92369   0.92526   0.92577   0.92738
 Alpha virt. eigenvalues --    0.92948   0.93075   0.93829   0.93907   0.94150
 Alpha virt. eigenvalues --    0.94311   0.94376   0.94871   0.95001   0.95403
 Alpha virt. eigenvalues --    0.95516   0.95786   0.96030   0.96150   0.96235
 Alpha virt. eigenvalues --    0.96646   0.96751   0.97021   0.97238   0.97398
 Alpha virt. eigenvalues --    0.97766   0.97773   0.98003   0.98175   0.98339
 Alpha virt. eigenvalues --    0.98525   0.99158   0.99238   0.99269   0.99526
 Alpha virt. eigenvalues --    0.99748   0.99890   1.00084   1.00305   1.00693
 Alpha virt. eigenvalues --    1.00870   1.01034   1.01432   1.01840   1.01924
 Alpha virt. eigenvalues --    1.02335   1.02573   1.02628   1.03070   1.03199
 Alpha virt. eigenvalues --    1.03256   1.03739   1.04033   1.04125   1.04186
 Alpha virt. eigenvalues --    1.04647   1.05038   1.05064   1.05697   1.05738
 Alpha virt. eigenvalues --    1.06127   1.06257   1.06931   1.07375   1.07490
 Alpha virt. eigenvalues --    1.07842   1.08859   1.09105   1.09482   1.10119
 Alpha virt. eigenvalues --    1.10658   1.11075   1.11197   1.11320   1.12240
 Alpha virt. eigenvalues --    1.12668   1.12701   1.13156   1.13771   1.14390
 Alpha virt. eigenvalues --    1.15144   1.15332   1.15688   1.17326   1.17730
 Alpha virt. eigenvalues --    1.17944   1.18180   1.18682   1.18890   1.19665
 Alpha virt. eigenvalues --    1.20252   1.21118   1.21279   1.21498   1.21972
 Alpha virt. eigenvalues --    1.22120   1.22866   1.23329   1.24642   1.25303
 Alpha virt. eigenvalues --    1.25491   1.25752   1.26715   1.27218   1.27479
 Alpha virt. eigenvalues --    1.28228   1.28608   1.28844   1.29665   1.30182
 Alpha virt. eigenvalues --    1.30599   1.31181   1.31272   1.31875   1.32255
 Alpha virt. eigenvalues --    1.32542   1.32738   1.33152   1.33274   1.33815
 Alpha virt. eigenvalues --    1.34556   1.35236   1.35798   1.35913   1.36105
 Alpha virt. eigenvalues --    1.36582   1.36911   1.37541   1.37783   1.38089
 Alpha virt. eigenvalues --    1.38766   1.39524   1.40097   1.40857   1.41099
 Alpha virt. eigenvalues --    1.41333   1.41524   1.42387   1.43136   1.44327
 Alpha virt. eigenvalues --    1.44476   1.44794   1.45180   1.45915   1.46480
 Alpha virt. eigenvalues --    1.46658   1.47010   1.47646   1.47786   1.48207
 Alpha virt. eigenvalues --    1.48921   1.49190   1.49518   1.49880   1.50690
 Alpha virt. eigenvalues --    1.51024   1.51144   1.51692   1.51938   1.52609
 Alpha virt. eigenvalues --    1.52982   1.53834   1.54215   1.54249   1.54889
 Alpha virt. eigenvalues --    1.55019   1.55832   1.56366   1.56910   1.57630
 Alpha virt. eigenvalues --    1.58048   1.58161   1.58469   1.58882   1.59011
 Alpha virt. eigenvalues --    1.59665   1.60214   1.60475   1.60769   1.61115
 Alpha virt. eigenvalues --    1.61429   1.61822   1.62112   1.62411   1.62636
 Alpha virt. eigenvalues --    1.63324   1.63702   1.64108   1.64562   1.64970
 Alpha virt. eigenvalues --    1.65382   1.66122   1.66454   1.66780   1.67275
 Alpha virt. eigenvalues --    1.67569   1.68326   1.68734   1.69263   1.69625
 Alpha virt. eigenvalues --    1.70359   1.70584   1.71219   1.71677   1.71952
 Alpha virt. eigenvalues --    1.72252   1.72353   1.72808   1.73141   1.73333
 Alpha virt. eigenvalues --    1.74089   1.74232   1.74452   1.75091   1.75126
 Alpha virt. eigenvalues --    1.75472   1.75978   1.76866   1.77253   1.77542
 Alpha virt. eigenvalues --    1.77697   1.77995   1.78597   1.78681   1.79299
 Alpha virt. eigenvalues --    1.79417   1.79865   1.79950   1.81029   1.81473
 Alpha virt. eigenvalues --    1.81990   1.82091   1.82267   1.82470   1.82971
 Alpha virt. eigenvalues --    1.83372   1.83487   1.83571   1.84076   1.84320
 Alpha virt. eigenvalues --    1.84360   1.84680   1.85031   1.85150   1.85254
 Alpha virt. eigenvalues --    1.85540   1.85853   1.86442   1.86610   1.87066
 Alpha virt. eigenvalues --    1.87415   1.87615   1.87791   1.87889   1.88092
 Alpha virt. eigenvalues --    1.88173   1.88789   1.89204   1.89257   1.89533
 Alpha virt. eigenvalues --    1.89911   1.90418   1.90460   1.90965   1.91274
 Alpha virt. eigenvalues --    1.91400   1.91818   1.91944   1.92164   1.92433
 Alpha virt. eigenvalues --    1.92677   1.93047   1.93171   1.93510   1.94102
 Alpha virt. eigenvalues --    1.94312   1.94629   1.94892   1.95002   1.95246
 Alpha virt. eigenvalues --    1.95485   1.95995   1.96159   1.96372   1.96899
 Alpha virt. eigenvalues --    1.97134   1.97503   1.97863   1.98021   1.98721
 Alpha virt. eigenvalues --    1.98790   1.98871   1.99555   1.99774   2.00253
 Alpha virt. eigenvalues --    2.00337   2.00862   2.01067   2.01365   2.01494
 Alpha virt. eigenvalues --    2.01738   2.01832   2.02218   2.02530   2.02668
 Alpha virt. eigenvalues --    2.03077   2.03640   2.03850   2.03916   2.03970
 Alpha virt. eigenvalues --    2.04026   2.04443   2.04766   2.04889   2.05310
 Alpha virt. eigenvalues --    2.05681   2.06337   2.06583   2.06660   2.06812
 Alpha virt. eigenvalues --    2.07292   2.07580   2.07835   2.08362   2.08664
 Alpha virt. eigenvalues --    2.08725   2.08980   2.09340   2.09441   2.09500
 Alpha virt. eigenvalues --    2.10026   2.10440   2.10918   2.11065   2.11367
 Alpha virt. eigenvalues --    2.11643   2.12205   2.12503   2.12942   2.13232
 Alpha virt. eigenvalues --    2.13267   2.13396   2.13480   2.14045   2.14303
 Alpha virt. eigenvalues --    2.14570   2.14828   2.15547   2.15979   2.16532
 Alpha virt. eigenvalues --    2.16927   2.17090   2.17288   2.17478   2.18370
 Alpha virt. eigenvalues --    2.18447   2.18643   2.18685   2.19151   2.19681
 Alpha virt. eigenvalues --    2.19869   2.20316   2.20389   2.20409   2.20629
 Alpha virt. eigenvalues --    2.20956   2.21050   2.21540   2.21868   2.22039
 Alpha virt. eigenvalues --    2.22195   2.22643   2.22655   2.22813   2.23415
 Alpha virt. eigenvalues --    2.23684   2.23969   2.24150   2.24352   2.24556
 Alpha virt. eigenvalues --    2.25229   2.25569   2.25773   2.26008   2.26102
 Alpha virt. eigenvalues --    2.26706   2.27016   2.27850   2.28072   2.28637
 Alpha virt. eigenvalues --    2.28880   2.28900   2.29540   2.29978   2.30290
 Alpha virt. eigenvalues --    2.30615   2.30826   2.31196   2.31394   2.31936
 Alpha virt. eigenvalues --    2.32975   2.33128   2.33174   2.33866   2.34019
 Alpha virt. eigenvalues --    2.34213   2.34524   2.34740   2.34928   2.34975
 Alpha virt. eigenvalues --    2.35588   2.35791   2.36311   2.36597   2.36686
 Alpha virt. eigenvalues --    2.36985   2.37555   2.37973   2.38012   2.38486
 Alpha virt. eigenvalues --    2.39406   2.39619   2.39697   2.39831   2.40351
 Alpha virt. eigenvalues --    2.40651   2.40831   2.41090   2.41379   2.41850
 Alpha virt. eigenvalues --    2.42121   2.42645   2.42650   2.42903   2.43315
 Alpha virt. eigenvalues --    2.43773   2.43968   2.44245   2.44558   2.44608
 Alpha virt. eigenvalues --    2.45037   2.45677   2.45756   2.45886   2.45973
 Alpha virt. eigenvalues --    2.47346   2.47435   2.47740   2.47762   2.48142
 Alpha virt. eigenvalues --    2.48642   2.48954   2.48973   2.49779   2.50091
 Alpha virt. eigenvalues --    2.50380   2.50557   2.51644   2.51931   2.52511
 Alpha virt. eigenvalues --    2.52559   2.52739   2.53470   2.53664   2.53906
 Alpha virt. eigenvalues --    2.54348   2.55110   2.55409   2.55941   2.56262
 Alpha virt. eigenvalues --    2.56479   2.56609   2.57417   2.57699   2.58298
 Alpha virt. eigenvalues --    2.58785   2.58797   2.59157   2.59296   2.59409
 Alpha virt. eigenvalues --    2.59808   2.60357   2.60654   2.61252   2.61874
 Alpha virt. eigenvalues --    2.62240   2.62301   2.62582   2.62652   2.63270
 Alpha virt. eigenvalues --    2.63586   2.63814   2.64086   2.64717   2.64956
 Alpha virt. eigenvalues --    2.65384   2.65769   2.65866   2.66640   2.66892
 Alpha virt. eigenvalues --    2.67172   2.67477   2.67814   2.68052   2.68455
 Alpha virt. eigenvalues --    2.68595   2.69102   2.69693   2.69821   2.70010
 Alpha virt. eigenvalues --    2.70459   2.70739   2.70875   2.71143   2.71301
 Alpha virt. eigenvalues --    2.71567   2.72002   2.72278   2.72575   2.72737
 Alpha virt. eigenvalues --    2.73167   2.73566   2.73922   2.74124   2.74373
 Alpha virt. eigenvalues --    2.74400   2.74744   2.75377   2.75593   2.76122
 Alpha virt. eigenvalues --    2.76246   2.76456   2.76770   2.77078   2.77423
 Alpha virt. eigenvalues --    2.78120   2.78930   2.79225   2.79356   2.79628
 Alpha virt. eigenvalues --    2.79661   2.79727   2.80458   2.80802   2.81218
 Alpha virt. eigenvalues --    2.81574   2.81643   2.81775   2.82568   2.82762
 Alpha virt. eigenvalues --    2.83024   2.83291   2.83607   2.84018   2.84087
 Alpha virt. eigenvalues --    2.85223   2.85595   2.85798   2.86483   2.86743
 Alpha virt. eigenvalues --    2.86920   2.87696   2.88221   2.88498   2.89028
 Alpha virt. eigenvalues --    2.90139   2.90188   2.91178   2.91278   2.91459
 Alpha virt. eigenvalues --    2.91904   2.92230   2.92575   2.92649   2.92776
 Alpha virt. eigenvalues --    2.93513   2.93571   2.93843   2.94700   2.95050
 Alpha virt. eigenvalues --    2.95491   2.95670   2.96465   2.96516   2.96607
 Alpha virt. eigenvalues --    2.97438   2.97604   2.98240   2.98946   2.99045
 Alpha virt. eigenvalues --    2.99616   3.00171   3.00458   3.00677   3.01154
 Alpha virt. eigenvalues --    3.01787   3.01901   3.02837   3.03286   3.03565
 Alpha virt. eigenvalues --    3.03612   3.03821   3.04084   3.05115   3.05267
 Alpha virt. eigenvalues --    3.05408   3.05484   3.06082   3.06890   3.07049
 Alpha virt. eigenvalues --    3.07687   3.08395   3.09141   3.09486   3.11915
 Alpha virt. eigenvalues --    3.13075   3.13406   3.13918   3.15670   3.15746
 Alpha virt. eigenvalues --    3.17007   3.17348   3.18000   3.18913   3.19758
 Alpha virt. eigenvalues --    3.19950   3.20935   3.21623   3.23362   3.23943
 Alpha virt. eigenvalues --    3.24239   3.25137   3.25197   3.25637   3.26517
 Alpha virt. eigenvalues --    3.27094   3.27436   3.28494   3.29011   3.29799
 Alpha virt. eigenvalues --    3.30625   3.30711   3.31066   3.31471   3.32257
 Alpha virt. eigenvalues --    3.32773   3.32975   3.33759   3.34727   3.35788
 Alpha virt. eigenvalues --    3.36718   3.37033   3.37294   3.38196   3.38484
 Alpha virt. eigenvalues --    3.38758   3.39553   3.39872   3.42491   3.42743
 Alpha virt. eigenvalues --    3.43211   3.43451   3.44550   3.45202   3.45741
 Alpha virt. eigenvalues --    3.46508   3.46845   3.47042   3.47143   3.47741
 Alpha virt. eigenvalues --    3.48936   3.49761   3.51262   3.51891   3.53103
 Alpha virt. eigenvalues --    3.54629   3.55117   3.55590   3.55612   3.56564
 Alpha virt. eigenvalues --    3.57582   3.58351   3.58891   3.59965   3.61758
 Alpha virt. eigenvalues --    3.62489   3.63041   3.63727   3.64686   3.65622
 Alpha virt. eigenvalues --    3.66629   3.66725   3.67294   3.72125   3.74454
 Alpha virt. eigenvalues --    3.74660   3.74850   4.01099   4.06372   4.07798
 Alpha virt. eigenvalues --    4.10221   4.15199   4.16818   4.17918   4.18546
 Alpha virt. eigenvalues --    4.19137   4.19748   4.20339   4.21758   4.23116
 Alpha virt. eigenvalues --    4.24362   4.26505   4.27875   4.28062   4.29642
 Alpha virt. eigenvalues --    4.30373   4.31145   4.32295   4.33402   4.35845
 Alpha virt. eigenvalues --    4.36129   4.37393   4.39617   4.39711   4.41125
 Alpha virt. eigenvalues --    4.41388   4.43865   4.44908   4.46106   4.46562
 Alpha virt. eigenvalues --    4.48315   4.48949   4.49565   4.50560   4.51593
 Alpha virt. eigenvalues --    4.52615   4.53788   4.55097   4.56155   4.56741
 Alpha virt. eigenvalues --    4.58380   4.58973   4.59926   4.60325   4.62134
 Alpha virt. eigenvalues --    4.63834   4.64296   4.64939   4.66777   4.67777
 Alpha virt. eigenvalues --    4.68652   4.69985   4.72111   4.75303   4.75718
 Alpha virt. eigenvalues --    4.77849   4.79809   4.80850   4.84069   4.86100
 Alpha virt. eigenvalues --    4.87386   4.89216   4.94692
          Condensed to atoms (all electrons):
 Mulliken charges:
               1
     1  Mg   0.819578
     2  C    0.065887
     3  C   -0.204973
     4  C   -0.175878
     5  C   -0.172616
     6  N   -0.649475
     7  C    0.276875
     8  C   -0.143444
     9  C   -0.161438
    10  C    0.382782
    11  C   -0.302707
    12  C   -0.175697
    13  C   -0.272556
    14  C    0.626450
    15  O   -0.468755
    16  O   -0.490681
    17  N   -0.630935
    18  C    0.256673
    19  C    0.010021
    20  C    0.073546
    21  C    0.301862
    22  C   -0.389546
    23  C   -0.092017
    24  C   -0.258185
    25  N   -0.734335
    26  C    0.332159
    27  C   -0.016237
    28  C    0.065216
    29  C    0.323533
    30  C   -0.370685
    31  C   -0.248044
    32  C   -0.326887
    33  N   -0.737184
    34  C    0.230260
    35  C    0.043026
    36  C    0.025568
    37  C    0.329279
    38  C   -0.369868
    39  C    0.326614
    40  O   -0.512217
    41  C   -0.310320
    42  C    0.618903
    43  O   -0.453024
    44  O   -0.459541
    45  C   -0.085234
    46  C    0.046597
    47  C   -0.148978
    48  C    0.101313
    49  C   -0.357361
    50  C   -0.244389
    51  C   -0.124043
    52  C   -0.165598
    53  C   -0.065763
    54  C   -0.321996
    55  C   -0.168390
    56  C   -0.155225
    57  C   -0.166641
    58  C   -0.061795
    59  C   -0.298283
    60  C   -0.182397
    61  C   -0.207270
    62  C   -0.146407
    63  C   -0.052949
    64  C   -0.272356
    65  C   -0.277878
    66  H    0.079278
    67  H    0.095835
    68  H    0.085067
    69  H    0.134996
    70  H    0.097692
    71  H    0.110572
    72  H    0.087065
    73  H    0.134112
    74  H    0.132999
    75  H    0.125722
    76  H    0.131283
    77  H    0.134588
    78  H    0.137810
    79  H    0.133478
    80  H    0.108069
    81  H    0.091272
    82  H    0.104164
    83  H    0.077623
    84  H    0.136799
    85  H    0.105582
    86  H    0.102309
    87  H    0.115032
    88  H    0.065839
    89  H    0.115462
    90  H    0.109861
    91  H    0.122490
    92  H    0.129231
    93  H    0.152290
    94  H    0.106114
    95  H    0.149085
    96  H    0.127662
    97  H    0.146059
    98  H    0.131108
    99  H    0.110386
   100  H    0.112136
   101  H    0.074395
   102  H    0.111765
   103  H    0.121044
   104  H    0.146278
   105  H    0.094409
   106  H    0.101704
   107  H    0.114374
   108  H    0.022341
   109  H    0.066557
   110  H    0.106972
   111  H    0.074832
   112  H    0.112436
   113  H    0.090195
   114  H    0.100114
   115  H    0.071231
   116  H    0.081304
   117  H    0.067011
   118  H    0.098570
   119  H    0.093925
   120  H    0.077742
   121  H    0.069667
   122  H    0.086706
   123  H    0.114578
   124  H    0.108057
   125  H    0.078596
   126  H    0.094691
   127  H    0.089142
   128  H    0.112251
   129  H    0.079260
   130  H    0.099046
   131  H    0.058666
   132  H    0.095860
   133  H    0.087418
   134  H    0.096473
   135  H    0.062822
   136  H    0.099008
   137  H    0.075550
 Sum of Mulliken charges =  -0.00000
 Mulliken charges with hydrogens summed into heavy atoms:
               1
     1  Mg   0.819578
     2  C    0.065887
     3  C   -0.125695
     4  C   -0.080044
     5  C   -0.087549
     6  N   -0.649475
     7  C    0.276875
     8  C   -0.008449
     9  C   -0.063746
    10  C    0.382782
    11  C    0.029041
    12  C    0.083024
    13  C   -0.006685
    14  C    0.626450
    15  O   -0.468755
    16  O   -0.490681
    17  N   -0.630935
    18  C    0.256673
    19  C    0.010021
    20  C    0.073546
    21  C    0.301862
    22  C   -0.010190
    23  C   -0.000745
    24  C   -0.076398
    25  N   -0.734335
    26  C    0.332159
    27  C   -0.016237
    28  C    0.065216
    29  C    0.323533
    30  C   -0.025995
    31  C   -0.067173
    32  C    0.020926
    33  N   -0.737184
    34  C    0.230260
    35  C    0.043026
    36  C    0.025568
    37  C    0.329279
    38  C    0.017767
    39  C    0.326614
    40  O   -0.512217
    41  C   -0.161235
    42  C    0.618903
    43  O   -0.453024
    44  O   -0.459541
    45  C    0.319595
    46  C    0.269119
    47  C   -0.074584
    48  C    0.101313
    49  C    0.021726
    50  C   -0.048276
    51  C    0.012672
    52  C    0.007931
    53  C    0.009069
    54  C   -0.019251
    55  C   -0.015855
    56  C    0.010357
    57  C    0.005027
    58  C    0.007872
    59  C    0.011059
    60  C   -0.009111
    61  C   -0.005877
    62  C    0.031898
    63  C    0.005717
    64  C    0.007395
    65  C   -0.040498
 Electronic spatial extent (au):  <R**2>=         179652.7148
 Charge=             -0.0000 electrons
 Dipole moment (field-independent basis, Debye):
    X=             -0.3023    Y=              5.4796    Z=             -0.0335  Tot=              5.4880
 Quadrupole moment (field-independent basis, Debye-Ang):
   XX=           -351.2178   YY=           -399.2095   ZZ=           -395.6655
   XY=            -26.6929   XZ=             13.1244   YZ=             -2.9580
 Traceless Quadrupole moment (field-independent basis, Debye-Ang):
   XX=             30.8132   YY=            -17.1786   ZZ=            -13.6346
   XY=            -26.6929   XZ=             13.1244   YZ=             -2.9580
 Octapole moment (field-independent basis, Debye-Ang**2):
  XXX=          -1004.0275  YYY=            149.8878  ZZZ=              7.3453  XYY=             -7.5325
  XXY=            143.1251  XXZ=           -316.7657  XZZ=            -30.5595  YZZ=            -36.8934
  YYZ=             45.8790  XYZ=            -56.7766
 Hexadecapole moment (field-independent basis, Debye-Ang**3):
 XXXX=        -222642.9777 YYYY=         -18019.4223 ZZZZ=          -4044.1303 XXXY=           -288.6953
 XXXZ=             53.0542 YYYX=          -1194.2528 YYYZ=           -164.5634 ZZZX=            -43.3427
 ZZZY=           -138.2947 XXYY=         -40579.3899 XXZZ=         -38926.3435 YYZZ=          -3513.5963
 XXYZ=           -162.1706 YYXZ=             46.1546 ZZXY=             52.7194
 N-N= 8.729160899404D+03 E-N=-2.428280150826D+04  KE= 2.907521664422D+03

 Test job not archived.
 1\1\GINC-RYZEN-SSD3\SP\RCAM-B3LYP TD-FC\6-31G(d,p)\C55H72Mg1N4O5\PADAW
 AN\05-Sep-2019\0\\# td=(NStates=1) iop(3/107=0140000000,3/108=01400000
 00) CAM-B3LYP/6-31G(d,p)\\TD\\0,1\Mg,0,-7.180962788,0.6210004835,0.044
 7808481\C,0,-4.8148302995,-1.9926764982,0.503235726\C,0,-4.8146274933,
 2.822490967,1.2431344186\C,0,-9.38495526,3.1559331463,-0.3947019455\C,
 0,-9.5863547335,-1.6708588516,-0.8138681917\N,0,-5.1803250637,0.479444
 035,0.7480226263\C,0,-4.348087056,-0.664697613,0.8442223169\C,0,-2.932
 1294335,-0.3440728053,1.2257882479\C,0,-2.9878320101,1.1335020518,1.58
 06043397\C,0,-4.4597062053,1.5922338745,1.1787622701\C,0,-2.6638325641
 ,1.4155243717,3.0608013947\C,0,-1.9474304727,-0.721458135,0.0998337937
 \C,0,-0.4554612553,-0.5383270807,0.5747108534\C,0,0.4903509583,-0.8172
 083427,-0.5262524153\O,0,0.3577759944,-1.2153353112,-1.6697743705\O,0,
 1.7928378822,-0.5804079792,-0.0457399616\N,0,-7.180135657,2.7084840583
 ,0.4010610302\C,0,-6.1461647603,3.3925230197,0.7562014962\C,0,-6.42038
 69471,4.8981866823,0.7217704357\C,0,-7.7455093362,4.9524870539,0.31088
 72151\C,0,-8.1149810256,3.5233492737,0.1139293915\C,0,-5.5790699409,6.
 0067501487,1.1324333985\C,0,-8.5851285209,5.9938196516,0.2721578283\C,
 0,-8.3861770277,7.2605352032,0.6971337727\N,0,-9.094798521,0.706627657
 2,-0.447891363\C,0,-9.8248899753,1.8728806124,-0.6081236259\C,0,-11.14
 44884015,1.4812275673,-1.0968545452\C,0,-11.183067794,0.0873362794,-1.
 3518552138\C,0,-9.8923468383,-0.358346028,-0.8612983311\C,0,-12.266487
 5865,2.5167769191,-1.432552708\C,0,-12.4354673396,-0.5778239062,-1.674
 7568063\C,0,-12.5545973686,-1.1004302353,-3.2236830195\N,0,-7.23602656
 51,-1.379892825,-0.2125739325\C,0,-8.2490492312,-2.26574512,-0.6160931
 892\C,0,-7.8376758074,-3.5829088423,-0.5472750273\C,0,-6.4911769082,-3
 .5012331054,-0.1417162533\C,0,-6.1672704587,-2.1650544612,0.0251143468
 \C,0,-8.5626886084,-4.7877248709,-0.9491983029\C,0,-5.358951358,-4.368
 1903824,0.1775527294\O,0,-5.2315641487,-5.6734141984,0.2446204106\C,0,
 -4.1129657992,-3.3272601734,0.5458729089\C,0,-3.3165658334,-3.63796173
 89,1.8465106196\O,0,-3.6651793013,-3.0978371416,2.8699403522\O,0,-2.55
 75511079,-4.7753261511,1.6367527128\C,0,-1.9993388909,-5.3092261285,2.
 8558029807\C,0,2.7740337238,-0.8784861375,-1.0323067479\C,0,4.14353523
 87,-0.6402592938,-0.4662191847\C,0,5.0671722085,0.2622427523,-0.954608
 3378\C,0,4.9967734029,1.1252702023,-2.2255266877\C,0,6.369563235,0.342
 3148475,-0.1811986443\C,0,7.626624115,-0.314730021,-0.9490952382\C,0,8
 .9297206837,-0.1265644725,-0.2312392263\C,0,10.2239678574,-0.521573820
 6,-0.8683825583\C,0,10.1531485915,-2.0514530252,-1.2768346495\C,0,11.4
 74842148,-0.245829474,-0.0439523577\C,0,12.8063483703,-0.5687569092,-0
 .6311106162\C,0,13.9694782196,-0.2240881231,0.1882252341\C,0,15.286284
 6195,-0.2424633299,-0.5493705896\C,0,15.6671929903,-1.6430226906,-1.13
 22950558\C,0,16.3177687696,0.3481113284,0.3979045252\C,0,17.8511227,0.
 5821019398,-0.2825147785\C,0,18.7197923978,1.3437324517,0.7875220089\C
 ,0,20.1562084252,1.3966690994,0.3415008561\C,0,20.3386267085,2.2143787
 43,-0.9340481007\C,0,20.9978148485,2.0791096109,1.3180957496\H,0,-4.11
 08414476,3.5132345749,1.7341795138\H,0,-10.2743795613,3.8407263471,-0.
 6527698032\H,0,-10.6196763917,-2.1877843135,-1.1590437238\H,0,-2.86451
 37386,-0.8974799507,2.266223113\H,0,-2.2500184681,1.6821802791,0.91912
 55616\H,0,-1.5751906055,1.1097100774,3.0065909965\H,0,-2.5136084699,2.
 5838176046,3.1434823704\H,0,-3.5041332138,1.1723523895,3.8203937246\H,
 0,-2.1355786769,-1.6975704278,-0.3746054676\H,0,-2.0430106701,0.050222
 6421,-0.6437411087\H,0,-0.2706224909,0.5125008374,1.1236562286\H,0,-0.
 2334217625,-1.3083616028,1.4728607444\H,0,-5.786892867,6.8778953015,0.
 67348718\H,0,-5.7015916305,6.0896818496,2.2144434568\H,0,-4.5124260872
 ,5.8484091089,0.8880495376\H,0,-9.3450347633,6.0781411961,-0.416332986
 \H,0,-9.0744465084,8.0394636674,0.6545352292\H,0,-7.5232302551,7.47179
 40158,1.4610750678\H,0,-11.7859090639,3.1224113882,-2.1056864001\H,0,-
 13.2222895267,2.0212008625,-1.8299287211\H,0,-12.9250435371,2.97026436
 05,-0.5180522447\H,0,-12.5274047054,-1.3939203148,-0.8943329342\H,0,-1
 3.4915514542,0.1548827778,-1.3177075252\H,0,-13.3963448337,-1.76792045
 41,-3.4138523433\H,0,-12.7025406598,-0.2636648378,-3.9776167401\H,0,-1
 1.6019550349,-1.4919902262,-3.5641846967\H,0,-8.989093528,-4.739920492
 8,-1.9273888019\H,0,-8.1062550107,-5.6570016535,-0.8062505802\H,0,-9.3
 858427633,-4.9349019386,-0.1308553542\H,0,-3.4621837369,-3.576724278,-
 0.311758914\H,0,-1.4535087385,-4.642376451,3.420363754\H,0,-2.84583102
 04,-5.615181043,3.3625672944\H,0,-1.343424863,-5.9939701818,2.47495085
 62\H,0,2.6827763324,-1.9737339962,-1.2417856273\H,0,2.6830447458,-0.32
 81147267,-1.8826893264\H,0,4.420162503,-1.0944178556,0.5883402342\H,0,
 3.9650718187,1.3662021629,-2.5618766734\H,0,5.4802949617,2.0399644203,
 -1.8748249209\H,0,5.4633359021,0.593950586,-2.9255288098\H,0,6.7913173
 156,1.3589558762,-0.0266830544\H,0,6.2690947816,-0.0971470514,0.750801
 2756\H,0,7.2705791807,-1.1409447675,-1.0524199992\H,0,7.4990924677,0.3
 365627593,-2.1617169946\H,0,9.1903050748,0.9957390714,0.1752799561\H,0
 ,8.8532784486,-0.6716455173,0.6448206055\H,0,10.3905736892,-0.00813466
 57,-1.8596311211\H,0,9.2724068498,-2.0210603895,-1.7907674586\H,0,10.9
 819573363,-2.5455479541,-1.9196173198\H,0,10.0204042375,-2.6527493896,
 -0.4268400777\H,0,11.2873703786,0.798796313,0.3530830791\H,0,11.331800
 7756,-0.8444057382,0.8584221623\H,0,12.874555408,-1.7703744567,-0.9066
 029318\H,0,12.8122570556,-0.051850249,-1.5128556193\H,0,13.8257139917,
 0.713956759,0.6369785266\H,0,14.0344517558,-0.8269490738,1.1275251265\
 H,0,15.1219125927,0.4828316802,-1.4207033391\H,0,15.6353173285,-2.3830
 17643,-0.2246305986\H,0,14.9040120456,-1.9656810881,-1.7684882223\H,0,
 16.5924175214,-1.4640172987,-1.5629628096\H,0,16.119015175,1.396878021
 5,0.815547471\H,0,16.3207361514,-0.1372300078,1.3378022749\H,0,18.2052
 972674,-0.3422507391,-0.7886690625\H,0,17.7085481644,1.097818676,-1.12
 25179954\H,0,18.3589649534,2.5004613141,0.9583077776\H,0,18.8492708896
 ,0.5694717867,1.6418174272\H,0,20.5033501673,0.2098619838,0.2368595782
 \H,0,20.0354003585,3.2269934758,-0.7563478195\H,0,21.4065544562,2.3780
 7895,-1.3224602272\H,0,19.8246408617,1.8408143716,-1.5594843328\H,0,20
 .9698108346,1.5913047714,2.4125749263\H,0,22.1229101838,2.1078812588,1
 .1660432579\H,0,20.5760476833,3.1837544926,1.5172788646\\Version=ES64L
 -G16RevA.03\State=1-A\HF=-2933.4073757\RMSD=4.465e-09\PG=C01 [X(C55H72
 Mg1N4O5)]\\@


 POCKETA-POCKETA
 BARON VON RICHTOFEN
 SLAUGHTERED THE ALLIES WITH
 HARDLY A CARE.
 KILLED EIGHTY-ONE WITH HIS
 BLOOD-COLORED TRIPLANE, THEN
 UN-AEROBATICALLY
 PLUNGED FROM THE AIR.
   -- TONY HOFFMAN
 Job cpu time:       1 days  2 hours 22 minutes 56.7 seconds.
 Elapsed time:       0 days  6 hours 36 minutes 37.0 seconds.
 File lengths (MBytes):  RWF=   6809 Int=      0 D2E=      0 Chk=    181 Scr=      1
 Normal termination of Gaussian 16 at Thu Sep  5 05:57:09 2019.
