 Entering Gaussian System, Link 0=g16
 Input=Geometria-157-.com
 Output=Geometria-157-.log
 Initial command:
 /usr/local/g16/l1.exe "/home/padawan/israel-mol/chlorophyll-a/spectra/emi/Gau-6826.inp" -scrdir="/home/padawan/israel-mol/chlorophyll-a/spectra/emi/"
 Entering Link 1 = /usr/local/g16/l1.exe PID=      6828.
  
 Copyright (c) 1988,1990,1992,1993,1995,1998,2003,2009,2016,
            Gaussian, Inc.  All Rights Reserved.
  
 This is part of the Gaussian(R) 16 program.  It is based on
 the Gaussian(R) 09 system (copyright 2009, Gaussian, Inc.),
 the Gaussian(R) 03 system (copyright 2003, Gaussian, Inc.),
 the Gaussian(R) 98 system (copyright 1998, Gaussian, Inc.),
 the Gaussian(R) 94 system (copyright 1995, Gaussian, Inc.),
 the Gaussian 92(TM) system (copyright 1992, Gaussian, Inc.),
 the Gaussian 90(TM) system (copyright 1990, Gaussian, Inc.),
 the Gaussian 88(TM) system (copyright 1988, Gaussian, Inc.),
 the Gaussian 86(TM) system (copyright 1986, Carnegie Mellon
 University), and the Gaussian 82(TM) system (copyright 1983,
 Carnegie Mellon University). Gaussian is a federally registered
 trademark of Gaussian, Inc.
  
 This software contains proprietary and confidential information,
 including trade secrets, belonging to Gaussian, Inc.
  
 This software is provided under written license and may be
 used, copied, transmitted, or stored only in accord with that
 written license.
  
 The following legend is applicable only to US Government
 contracts under FAR:
  
                    RESTRICTED RIGHTS LEGEND
  
 Use, reproduction and disclosure by the US Government is
 subject to restrictions as set forth in subparagraphs (a)
 and (c) of the Commercial Computer Software - Restricted
 Rights clause in FAR 52.227-19.
  
 Gaussian, Inc.
 340 Quinnipiac St., Bldg. 40, Wallingford CT 06492
  
  
 ---------------------------------------------------------------
 Warning -- This program may not be used in any manner that
 competes with the business of Gaussian, Inc. or will provide
 assistance to any competitor of Gaussian, Inc.  The licensee
 of this program is prohibited from giving any competitor of
 Gaussian, Inc. access to this program.  By using this program,
 the user acknowledges that Gaussian, Inc. is engaged in the
 business of creating and licensing software in the field of
 computational chemistry and represents and warrants to the
 licensee that it is not a competitor of Gaussian, Inc. and that
 it will not use this program in any manner prohibited above.
 ---------------------------------------------------------------
  

 Cite this work as:
 Gaussian 16, Revision A.03,
 M. J. Frisch, G. W. Trucks, H. B. Schlegel, G. E. Scuseria, 
 M. A. Robb, J. R. Cheeseman, G. Scalmani, V. Barone, 
 G. A. Petersson, H. Nakatsuji, X. Li, M. Caricato, A. V. Marenich, 
 J. Bloino, B. G. Janesko, R. Gomperts, B. Mennucci, H. P. Hratchian, 
 J. V. Ortiz, A. F. Izmaylov, J. L. Sonnenberg, D. Williams-Young, 
 F. Ding, F. Lipparini, F. Egidi, J. Goings, B. Peng, A. Petrone, 
 T. Henderson, D. Ranasinghe, V. G. Zakrzewski, J. Gao, N. Rega, 
 G. Zheng, W. Liang, M. Hada, M. Ehara, K. Toyota, R. Fukuda, 
 J. Hasegawa, M. Ishida, T. Nakajima, Y. Honda, O. Kitao, H. Nakai, 
 T. Vreven, K. Throssell, J. A. Montgomery, Jr., J. E. Peralta, 
 F. Ogliaro, M. J. Bearpark, J. J. Heyd, E. N. Brothers, K. N. Kudin, 
 V. N. Staroverov, T. A. Keith, R. Kobayashi, J. Normand, 
 K. Raghavachari, A. P. Rendell, J. C. Burant, S. S. Iyengar, 
 J. Tomasi, M. Cossi, J. M. Millam, M. Klene, C. Adamo, R. Cammi, 
 J. W. Ochterski, R. L. Martin, K. Morokuma, O. Farkas, 
 J. B. Foresman, and D. J. Fox, Gaussian, Inc., Wallingford CT, 2016.
 
 ******************************************
 Gaussian 16:  ES64L-G16RevA.03 25-Dec-2016
                 9-Sep-2019 
 ******************************************
 %nproc=4
 Will use up to    4 processors via shared memory.
 %Mem=3GB
 ----------------------------------------------------------------------
 # td=(NStates=1) iop(3/107=0140000000,3/108=0140000000) CAM-B3LYP/6-31
 G(d,p)
 ----------------------------------------------------------------------
 1/38=1,172=1/1;
 2/12=2,17=6,18=5,40=1/2;
 3/5=1,6=6,7=101,11=9,25=1,30=1,74=-40,107=140000000,108=140000000/1,2,3,8;
 4//1;
 5/5=2,38=5/2;
 8/6=1,10=2,108=1/1;
 9/41=1,42=1,70=2/14;
 6/7=2,8=2,9=2,10=2/1;
 99/5=1,9=1/99;
 --
 TD
 --
 Symbolic Z-matrix:
 Charge =  0 Multiplicity = 1
 12                   -7.04996   0.59886   0.09525 
 6                    -4.84837  -1.95612   0.42504 
 6                    -4.68979   2.74798   1.16669 
 6                    -9.42281   3.15603  -0.31308 
 6                    -9.56674  -1.73478  -0.94563 
 7                    -5.11034   0.42945   0.78274 
 6                    -4.37048  -0.71524   0.78919 
 6                    -3.0139   -0.3851    1.29919 
 6                    -3.05492   1.02868   1.79457 
 6                    -4.31774   1.45027   1.18164 
 6                    -3.06764   1.13526   3.40926 
 6                    -1.9244   -0.62732   0.15899 
 6                    -0.49563  -0.58116   0.68058 
 6                     0.42881  -0.69054  -0.54136 
 8                     0.13403  -0.84753  -1.72614 
 8                     1.65596  -0.38267  -0.01304 
 7                    -7.11225   2.63259   0.28882 
 6                    -5.97773   3.33286   0.75593 
 6                    -6.38992   4.74385   0.6724 
 6                    -7.7077    4.85914   0.28648 
 6                    -8.14716   3.50457   0.04423 
 6                    -5.35438   5.78877   1.04968 
 6                    -8.49281   6.0697    0.16336 
 6                    -8.39434   7.18848   0.76938 
 7                    -9.15508   0.70075  -0.55144 
 6                    -9.83365   1.79404  -0.56111 
 6                    -11.12938   1.49267  -1.22155 
 6                    -11.17559   0.19054  -1.39379 
 6                    -9.89434  -0.37174  -1.0505 
 6                    -12.28686   2.32088  -1.46537 
 6                    -12.33915  -0.68362  -1.81783 
 6                    -12.25246  -1.08269  -3.25052 
 7                    -7.14823  -1.36759  -0.13025 
 6                    -8.24926  -2.15819  -0.56046 
 6                    -7.82354  -3.60984  -0.59528 
 6                    -6.39078  -3.57464  -0.24497 
 6                    -6.15713  -2.19703   0.04043 
 6                    -8.56033  -4.80323  -0.97389 
 6                    -5.33144  -4.37949   0.11889 
 8                    -5.18542  -5.60187   0.11438 
 6                    -4.16614  -3.33588   0.45076 
 6                    -3.51914  -3.65284   1.84545 
 8                    -3.78469  -3.13789   2.7697 
 8                    -2.63749  -4.61553   1.78152 
 6                    -2.18066  -4.99157   3.07822 
 6                     2.80495  -0.49004  -1.00993 
 6                     4.06407  -0.38589  -0.35147 
 6                     5.16922   0.33358  -0.75541 
 6                     5.01866   1.41501  -1.83509 
 6                     6.47797   0.29934  -0.00841 
 6                     7.66051  -0.21702  -0.82913 
 6                     8.9843   -0.1828   -0.0598 
 6                     10.1817  -0.64785  -0.83836 
 6                     9.9929   -2.093    -1.28102 
 6                     11.41614  -0.31149  -0.01243 
 6                     12.72981  -0.56072  -0.62706 
 6                     13.95367  -0.32252   0.26234 
 6                     15.32908  -0.35504  -0.42679 
 6                     15.68616  -1.76762  -0.94084 
 6                     16.45651   0.33157   0.39589 
 6                     17.78181   0.46557  -0.37901 
 6                     18.6519   1.42787   0.52188 
 6                     20.16979   1.44036   0.01942 
 6                     20.27074   2.07386  -1.31628 
 6                     20.96923   2.16096   1.20844 
 1                    -4.06257   3.45303   1.63324 
 1                    -10.07801   3.88399  -0.51082 
 1                    -10.3422  -2.53501  -1.12276 
 1                    -2.69846  -1.00095   2.09752 
 1                    -2.10859   1.60281   1.39663 
 1                    -2.17661   0.79288   3.84684 
 1                    -3.40895   2.21485   3.71281 
 1                    -3.93766   0.44847   3.67397 
 1                    -2.10793  -1.55355  -0.38656 
 1                    -1.83324   0.25472  -0.62532 
 1                    -0.02378   0.27303   1.3439 
 1                    -0.29458  -1.43233   1.33765 
 1                    -5.75353   6.88883   0.76983 
 1                    -5.47537   5.82134   2.13194 
 1                    -4.36071   5.41057   0.63608 
 1                    -9.283     6.26225  -0.64896 
 1                    -9.00233   7.99335   0.3387 
 1                    -7.66092   7.40258   1.33247 
 1                    -11.90235   3.27541  -2.14743 
 1                    -13.27959   1.89123  -1.82894 
 1                    -12.41594   3.15549  -0.48799 
 1                    -12.32701  -1.46449  -1.10786 
 1                    -13.32826  -0.1416   -1.79756 
 1                    -12.98045  -1.76094  -3.53524 
 1                    -12.16163  -0.30377  -3.90509 
 1                    -11.26697  -1.61275  -3.61559 
 1                    -8.88249  -4.77658  -1.96782 
 1                    -8.09212  -5.90168  -0.89501 
 1                    -9.53029  -4.8912   -0.40222 
 1                    -3.37117  -3.78722  -0.26289 
 1                    -1.65858  -4.30204   3.75492 
 1                    -3.11736  -5.47916   3.73239 
 1                    -1.3996   -5.94082   2.84798 
 1                     2.89258  -1.47732  -1.44082 
 1                     2.7168    0.36914  -1.83546 
 1                     4.28931  -0.76486   0.61457 
 1                     4.02609   1.70134  -2.14363 
 1                     5.38107   2.37192  -1.44534 
 1                     5.56173   1.12049  -2.78935 
 1                     6.75392   1.5031    0.20352 
 1                     6.40168  -0.25963   0.96459 
 1                     7.4636   -1.38872  -0.97234 
 1                     7.68411   0.39368  -1.73452 
 1                     9.30868   0.96694   0.145 
 1                     9.01588  -0.63136   0.83155 
 1                     10.4471  -0.01348  -1.77342 
 1                     9.1646   -2.15663  -1.72753 
 1                     10.70027  -2.45423  -2.08058 
 1                     9.93651  -2.94943  -0.57519 
 1                     11.27345   0.72081   0.2841 
 1                     11.35352  -0.99554   0.99258 
 1                     12.73771  -1.52588  -1.16293 
 1                     12.7982  -0.08219  -1.57441 
 1                     13.83225   0.74801   0.53341 
 1                     14.09262  -1.10246   1.08321 
 1                     15.25697   0.25698  -1.39017 
 1                     15.73393  -2.31352  -0.16045 
 1                     15.15715  -1.89374  -1.91821 
 1                     16.73948  -1.99556  -1.07148 
 1                     16.26244   1.38604   0.80888 
 1                     16.54246  -0.391     1.30639 
 1                     18.50821  -0.50733  -0.2416 
 1                     17.51541   0.68737  -1.41691 
 1                     18.15753   2.41828   0.42229 
 1                     18.91545   0.97722   1.66584 
 1                     20.46863   0.49124  -0.1632 
 1                     19.68851   3.14518  -1.52935 
 1                     21.46969   2.21939  -1.7378 
 1                     19.95231   1.45037  -2.01833 
 1                     20.88922   1.43084   2.00966 
 1                     21.97771   2.33145   0.78139 
 1                     20.65418   3.13738   1.46099 
 
 Stoichiometry    C55H72MgN4O5
 Framework group  C1[X(C55H72MgN4O5)]
 Deg. of freedom   405
 Full point group                 C1      NOp   1
 Largest Abelian subgroup         C1      NOp   1
 Largest concise Abelian subgroup C1      NOp   1
                         Standard orientation:                         
 ---------------------------------------------------------------------
 Center     Atomic      Atomic             Coordinates (Angstroms)
 Number     Number       Type             X           Y           Z
 ---------------------------------------------------------------------
      1         12           0       -7.051876    0.592140    0.093646
      2          6           0       -4.847711   -1.960585    0.423684
      3          6           0       -4.694312    2.743549    1.166249
      4          6           0       -9.427281    3.146893   -0.314986
      5          6           0       -9.565865   -1.743948   -0.948479
      6          7           0       -5.112301    0.424644    0.781736
      7          6           0       -4.371241   -0.719270    0.788217
      8          6           0       -3.015173   -0.387791    1.298717
      9          6           0       -3.057842    1.025852    1.794344
     10          6           0       -4.320909    1.446225    1.181088
     11          6           0       -3.071204    1.132116    3.409050
     12          6           0       -1.925049   -0.628657    0.158831
     13          6           0       -0.496495   -0.581093    0.680896
     14          6           0        0.428457   -0.689270   -0.540768
     15          8           0        0.134226   -0.846354   -1.725669
     16          8           0        1.655110   -0.380209   -0.011985
     17          7           0       -7.116368    2.625766    0.287573
     18          6           0       -5.982736    3.327143    0.755183
     19          6           0       -6.396389    4.737718    0.671772
     20          6           0       -7.714155    4.851690    0.285454
     21          6           0       -8.152120    3.496703    0.042810
     22          6           0       -5.362065    5.783655    1.049581
     23          6           0       -8.500502    6.061446    0.162293
     24          6           0       -8.403404    7.180218    0.768555
     25          7           0       -9.156897    0.691934   -0.553708
     26          6           0       -9.836610    1.784517   -0.563395
     27          6           0      -11.131803    1.481902   -1.224310
     28          6           0      -11.176588    0.179753   -1.396807
     29          6           0       -9.894859   -0.381236   -1.053201
     30          6           0      -12.290077    2.308937   -1.468353
     31          6           0      -12.339090   -0.695553   -1.821388
     32          6           0      -12.251514   -1.094262   -3.254117
     33          7           0       -7.148003   -1.374371   -0.132239
     34          6           0       -8.248062   -2.166052   -0.562955
     35          6           0       -7.820809   -3.617244   -0.597905
     36          6           0       -6.388193   -3.580600   -0.247120
     37          6           0       -6.156088   -2.202795    0.038602
     38          6           0       -8.556214   -4.811333   -0.976975
     39          6           0       -5.328127   -4.384404    0.116930
     40          8           0       -5.180821   -5.606624    0.112244
     41          6           0       -4.164036   -3.339629    0.449378
     42          6           0       -3.517152   -3.656168    1.844217
     43          8           0       -3.783549   -3.141666    2.768475
     44          8           0       -2.634472   -4.617915    1.780394
     45          6           0       -2.177666   -4.993717    3.077171
     46          6           0        2.804529   -0.486186   -1.008529
     47          6           0        4.063325   -0.380839   -0.349634
     48          6           0        5.167854    0.339871   -0.753082
     49          6           0        5.016501    1.421340   -1.832612
     50          6           0        6.476398    0.306870   -0.005666
     51          6           0        7.659741   -0.208095   -0.826098
     52          6           0        8.983242   -0.172624   -0.056330
     53          6           0       10.181391   -0.636267   -0.834583
     54          6           0        9.994254   -2.081534   -1.277566
     55          6           0       11.415201   -0.298761   -0.008190
     56          6           0       12.729337   -0.546496   -0.622439
     57          6           0       13.952652   -0.307174    0.267406
     58          6           0       15.328322   -0.338127   -0.421284
     59          6           0       15.687060   -1.750227   -0.935475
     60          6           0       16.454765    0.349521    0.401892
     61          6           0       17.780168    0.485058   -0.372561
     62          6           0       18.648953    1.448107    0.528789
     63          6           0       20.166996    1.462289    0.026828
     64          6           0       20.267714    2.096142   -1.308718
     65          6           0       20.965293    2.183505    1.216246
     66          1           0       -4.067987    3.449167    1.633136
     67          1           0      -10.083183    3.874197   -0.512797
     68          1           0      -10.340421   -2.544964   -1.126007
     69          1           0       -2.699345   -1.003460    2.097037
     70          1           0       -2.111993    1.601051    1.396825
     71          1           0       -2.179954    0.790595    3.846856
     72          1           0       -3.413743    2.211295    3.712690
     73          1           0       -3.940580    0.444366    3.673353
     74          1           0       -2.107425   -1.554976   -0.386945
     75          1           0       -1.834563    0.253625   -0.625286
     76          1           0       -0.025762    0.273469    1.344524
     77          1           0       -0.294766   -1.432175    1.337871
     78          1           0       -5.762283    6.883344    0.769805
     79          1           0       -5.483442    5.815895    2.131807
     80          1           0       -4.367866    5.406573    0.636244
     81          1           0       -9.290629    6.253316   -0.650242
     82          1           0       -9.012102    7.984528    0.337828
     83          1           0       -7.670399    7.394984    1.331924
     84          1           0      -11.906351    3.263996   -2.150117
     85          1           0      -13.282232    1.878311   -1.832328
     86          1           0      -12.420356    3.143236   -0.490865
     87          1           0      -12.326367   -1.476533   -1.111560
     88          1           0      -13.328774   -0.154570   -1.801334
     89          1           0      -12.978704   -1.773226   -3.539208
     90          1           0      -12.161290   -0.315126   -3.908518
     91          1           0      -11.265353   -1.623221   -3.618968
     92          1           0       -8.878083   -4.784847   -1.971007
     93          1           0       -8.086880   -5.909305   -0.898144
     94          1           0       -9.526266   -4.900430   -0.405639
     95          1           0       -3.368364   -3.789996   -0.264104
     96          1           0       -1.656534   -4.303761    3.754170
     97          1           0       -3.114066   -5.482406    3.730956
     98          1           0       -1.395537   -5.942103    2.847013
     99          1           0        2.893338   -1.473301   -1.439563
    100          1           0        2.715745    0.373055   -1.833930
    101          1           0        4.288651   -0.759751    0.616411
    102          1           0        4.023733    1.706679   -2.141429
    103          1           0        5.377777    2.378557   -1.442572
    104          1           0        5.560190    1.127571   -2.786747
    105          1           0        6.751012    1.510881    0.206576
    106          1           0        6.400374   -0.252363    0.967210
    107          1           0        7.464111   -1.379974   -0.969586
    108          1           0        7.682996    0.402795   -1.731369
    109          1           0        9.306347    0.977415    0.148786
    110          1           0        9.015013   -0.621316    0.834949
    111          1           0       10.446424   -0.001445   -1.769443
    112          1           0        9.166161   -2.145960   -1.724363
    113          1           0       10.702261   -2.441875   -2.076971
    114          1           0        9.938529   -2.938155   -0.571922
    115          1           0       11.271331    0.733328    0.288479
    116          1           0       11.352980   -0.983066    0.996669
    117          1           0       12.738427   -1.511552   -1.158482
    118          1           0       12.797526   -0.067727   -1.569680
    119          1           0       13.830026    0.763175    0.538628
    120          1           0       14.092156   -1.087118    1.088175
    121          1           0       15.255878    0.273998   -1.384577
    122          1           0       15.735143   -2.296226   -0.155178
    123          1           0       15.158494   -1.876732   -1.913047
    124          1           0       16.740659   -1.977040   -1.065822
    125          1           0       16.259449    1.403707    0.815005
    126          1           0       16.541175   -0.373121    1.312282
    127          1           0       18.507548   -0.487100   -0.235094
    128          1           0       17.513876    0.706766   -1.410500
    129          1           0       18.153583    2.438017    0.429229
    130          1           0       18.912606    0.997526    1.672756
    131          1           0       20.466890    0.513514   -0.155868
    132          1           0       19.684422    3.166879   -1.521779
    133          1           0       21.466648    2.243009   -1.729826
    134          1           0       19.950172    1.472437   -2.010990
    135          1           0       20.885792    1.453154    2.017306
    136          1           0       21.973726    2.355140    0.789556
    137          1           0       20.649128    3.159548    1.468872
 ---------------------------------------------------------------------
 Rotational constants (GHZ):           0.0649580           0.0061243           0.0057698
 Standard basis: 6-31G(d,p) (6D, 7F)
 There are  1339 symmetry adapted cartesian basis functions of A   symmetry.
 There are  1339 symmetry adapted basis functions of A   symmetry.
  1339 basis functions,  2348 primitive gaussians,  1339 cartesian basis functions
   241 alpha electrons      241 beta electrons
       nuclear repulsion energy      8768.4191462363 Hartrees.
 NAtoms=  137 NActive=  137 NUniq=  137 SFac= 1.00D+00 NAtFMM=   60 NAOKFM=T Big=T
 Integral buffers will be    131072 words long.
 Raffenetti 1 integral format.
 Two-electron integral symmetry is turned on.
 One-electron integrals computed using PRISM.
 NBasis=  1339 RedAO= T EigKep=  3.44D-04  NBF=  1339
 NBsUse=  1339 1.00D-06 EigRej= -1.00D+00 NBFU=  1339
 ExpMin= 4.21D-02 ExpMax= 1.17D+04 ExpMxC= 1.76D+03 IAcc=3 IRadAn=         5 AccDes= 0.00D+00
 Harris functional with IExCor=20419 and IRadAn=       5 diagonalized for initial guess.
 HarFok:  IExCor=20419 AccDes= 0.00D+00 IRadAn=         5 IDoV= 1 UseB2=F ITyADJ=14
 ICtDFT=  3500011 ScaDFX=  1.000000  1.000000  1.000000  1.000000
 FoFCou: FMM=F IPFlag=           0 FMFlag=      100000 FMFlg1=        2001
         NFxFlg=           0 DoJE=T BraDBF=F KetDBF=T FulRan=T
         wScrn=  0.000000 ICntrl=       500 IOpCl=  0 I1Cent=   200000004 NGrid=           0
         NMat0=    1 NMatS0=      1 NMatT0=    0 NMatD0=    1 NMtDS0=    0 NMtDT0=    0
 Petite list used in FoFCou.
 Requested convergence on RMS density matrix=1.00D-08 within 128 cycles.
 Requested convergence on MAX density matrix=1.00D-06.
 Requested convergence on             energy=1.00D-06.
 No special actions if energy rises.
 SCF Done:  E(RCAM-B3LYP) =  -2933.43008335     A.U. after   16 cycles
            NFock= 16  Conv=0.39D-08     -V/T= 2.0088
 DoSCS=F DFT=T ScalE2(SS,OS)=  1.000000  1.000000
 ExpMin= 4.21D-02 ExpMax= 1.17D+04 ExpMxC= 1.76D+03 IAcc=3 IRadAn=         5 AccDes= 0.00D+00
 HarFok:  IExCor=  205 AccDes= 0.00D+00 IRadAn=         5 IDoV=-2 UseB2=F ITyADJ=14
 ICtDFT= 12500011 ScaDFX=  1.000000  1.000000  1.000000  1.000000
 GSVD:  LWork=       -5313 too small for GESVD, short by       24840 words or       24840 for optimal perf.
 Range of M.O.s used for correlation:    70  1339
 NBasis=  1339 NAE=   241 NBE=   241 NFC=    69 NFV=     0
 NROrb=   1270 NOA=   172 NOB=   172 NVA=  1098 NVB=  1098
 Orbital symmetries:
       Occupied  (A) (A) (A) (A) (A) (A) (A) (A) (A) (A) (A) (A)
                 (A) (A) (A) (A) (A) (A) (A) (A) (A) (A) (A) (A)
                 (A) (A) (A) (A) (A) (A) (A) (A) (A) (A) (A) (A)
                 (A) (A) (A) (A) (A) (A) (A) (A) (A) (A) (A) (A)
                 (A) (A) (A) (A) (A) (A) (A) (A) (A) (A) (A) (A)
                 (A) (A) (A) (A) (A) (A) (A) (A) (A) (A) (A) (A)
                 (A) (A) (A) (A) (A) (A) (A) (A) (A) (A) (A) (A)
                 (A) (A) (A) (A) (A) (A) (A) (A) (A) (A) (A) (A)
                 (A) (A) (A) (A) (A) (A) (A) (A) (A) (A) (A) (A)
                 (A) (A) (A) (A) (A) (A) (A) (A) (A) (A) (A) (A)
                 (A) (A) (A) (A) (A) (A) (A) (A) (A) (A) (A) (A)
                 (A) (A) (A) (A) (A) (A) (A) (A) (A) (A) (A) (A)
                 (A) (A) (A) (A) (A) (A) (A) (A) (A) (A) (A) (A)
                 (A) (A) (A) (A) (A) (A) (A) (A) (A) (A) (A) (A)
                 (A) (A) (A) (A) (A) (A) (A) (A) (A) (A) (A) (A)
                 (A) (A) (A) (A) (A) (A) (A) (A) (A) (A) (A) (A)
                 (A) (A) (A) (A) (A) (A) (A) (A) (A) (A) (A) (A)
                 (A) (A) (A) (A) (A) (A) (A) (A) (A) (A) (A) (A)
                 (A) (A) (A) (A) (A) (A) (A) (A) (A) (A) (A) (A)
                 (A) (A) (A) (A) (A) (A) (A) (A) (A) (A) (A) (A)
                 (A)
       Virtual   (A) (A) (A) (A) (A) (A) (A) (A) (A) (A) (A) (A)
                 (A) (A) (A) (A) (A) (A) (A) (A) (A) (A) (A) (A)
                 (A) (A) (A) (A) (A) (A) (A) (A) (A) (A) (A) (A)
                 (A) (A) (A) (A) (A) (A) (A) (A) (A) (A) (A) (A)
                 (A) (A) (A) (A) (A) (A) (A) (A) (A) (A) (A) (A)
                 (A) (A) (A) (A) (A) (A) (A) (A) (A) (A) (A) (A)
                 (A) (A) (A) (A) (A) (A) (A) (A) (A) (A) (A) (A)
                 (A) (A) (A) (A) (A) (A) (A) (A) (A) (A) (A) (A)
                 (A) (A) (A) (A) (A) (A) (A) (A) (A) (A) (A) (A)
                 (A) (A) (A) (A) (A) (A) (A) (A) (A) (A) (A) (A)
                 (A) (A) (A) (A) (A) (A) (A) (A) (A) (A) (A) (A)
                 (A) (A) (A) (A) (A) (A) (A) (A) (A) (A) (A) (A)
                 (A) (A) (A) (A) (A) (A) (A) (A) (A) (A) (A) (A)
                 (A) (A) (A) (A) (A) (A) (A) (A) (A) (A) (A) (A)
                 (A) (A) (A) (A) (A) (A) (A) (A) (A) (A) (A) (A)
                 (A) (A) (A) (A) (A) (A) (A) (A) (A) (A) (A) (A)
                 (A) (A) (A) (A) (A) (A) (A) (A) (A) (A) (A) (A)
                 (A) (A) (A) (A) (A) (A) (A) (A) (A) (A) (A) (A)
                 (A) (A) (A) (A) (A) (A) (A) (A) (A) (A) (A) (A)
                 (A) (A) (A) (A) (A) (A) (A) (A) (A) (A) (A) (A)
                 (A) (A) (A) (A) (A) (A) (A) (A) (A) (A) (A) (A)
                 (A) (A) (A) (A) (A) (A) (A) (A) (A) (A) (A) (A)
                 (A) (A) (A) (A) (A) (A) (A) (A) (A) (A) (A) (A)
                 (A) (A) (A) (A) (A) (A) (A) (A) (A) (A) (A) (A)
                 (A) (A) (A) (A) (A) (A) (A) (A) (A) (A) (A) (A)
                 (A) (A) (A) (A) (A) (A) (A) (A) (A) (A) (A) (A)
                 (A) (A) (A) (A) (A) (A) (A) (A) (A) (A) (A) (A)
                 (A) (A) (A) (A) (A) (A) (A) (A) (A) (A) (A) (A)
                 (A) (A) (A) (A) (A) (A) (A) (A) (A) (A) (A) (A)
                 (A) (A) (A) (A) (A) (A) (A) (A) (A) (A) (A) (A)
                 (A) (A) (A) (A) (A) (A) (A) (A) (A) (A) (A) (A)
                 (A) (A) (A) (A) (A) (A) (A) (A) (A) (A) (A) (A)
                 (A) (A) (A) (A) (A) (A) (A) (A) (A) (A) (A) (A)
                 (A) (A) (A) (A) (A) (A) (A) (A) (A) (A) (A) (A)
                 (A) (A) (A) (A) (A) (A) (A) (A) (A) (A) (A) (A)
                 (A) (A) (A) (A) (A) (A) (A) (A) (A) (A) (A) (A)
                 (A) (A) (A) (A) (A) (A) (A) (A) (A) (A) (A) (A)
                 (A) (A) (A) (A) (A) (A) (A) (A) (A) (A) (A) (A)
                 (A) (A) (A) (A) (A) (A) (A) (A) (A) (A) (A) (A)
                 (A) (A) (A) (A) (A) (A) (A) (A) (A) (A) (A) (A)
                 (A) (A) (A) (A) (A) (A) (A) (A) (A) (A) (A) (A)
                 (A) (A) (A) (A) (A) (A) (A) (A) (A) (A) (A) (A)
                 (A) (A) (A) (A) (A) (A) (A) (A) (A) (A) (A) (A)
                 (A) (A) (A) (A) (A) (A) (A) (A) (A) (A) (A) (A)
                 (A) (A) (A) (A) (A) (A) (A) (A) (A) (A) (A) (A)
                 (A) (A) (A) (A) (A) (A) (A) (A) (A) (A) (A) (A)
                 (A) (A) (A) (A) (A) (A) (A) (A) (A) (A) (A) (A)
                 (A) (A) (A) (A) (A) (A) (A) (A) (A) (A) (A) (A)
                 (A) (A) (A) (A) (A) (A) (A) (A) (A) (A) (A) (A)
                 (A) (A) (A) (A) (A) (A) (A) (A) (A) (A) (A) (A)
                 (A) (A) (A) (A) (A) (A) (A) (A) (A) (A) (A) (A)
                 (A) (A) (A) (A) (A) (A) (A) (A) (A) (A) (A) (A)
                 (A) (A) (A) (A) (A) (A) (A) (A) (A) (A) (A) (A)
                 (A) (A) (A) (A) (A) (A) (A) (A) (A) (A) (A) (A)
                 (A) (A) (A) (A) (A) (A) (A) (A) (A) (A) (A) (A)
                 (A) (A) (A) (A) (A) (A) (A) (A) (A) (A) (A) (A)
                 (A) (A) (A) (A) (A) (A) (A) (A) (A) (A) (A) (A)
                 (A) (A) (A) (A) (A) (A) (A) (A) (A) (A) (A) (A)
                 (A) (A) (A) (A) (A) (A) (A) (A) (A) (A) (A) (A)
                 (A) (A) (A) (A) (A) (A) (A) (A) (A) (A) (A) (A)
                 (A) (A) (A) (A) (A) (A) (A) (A) (A) (A) (A) (A)
                 (A) (A) (A) (A) (A) (A) (A) (A) (A) (A) (A) (A)
                 (A) (A) (A) (A) (A) (A) (A) (A) (A) (A) (A) (A)
                 (A) (A) (A) (A) (A) (A) (A) (A) (A) (A) (A) (A)
                 (A) (A) (A) (A) (A) (A) (A) (A) (A) (A) (A) (A)
                 (A) (A) (A) (A) (A) (A) (A) (A) (A) (A) (A) (A)
                 (A) (A) (A) (A) (A) (A) (A) (A) (A) (A) (A) (A)
                 (A) (A) (A) (A) (A) (A) (A) (A) (A) (A) (A) (A)
                 (A) (A) (A) (A) (A) (A) (A) (A) (A) (A) (A) (A)
                 (A) (A) (A) (A) (A) (A) (A) (A) (A) (A) (A) (A)
                 (A) (A) (A) (A) (A) (A) (A) (A) (A) (A) (A) (A)
                 (A) (A) (A) (A) (A) (A) (A) (A) (A) (A) (A) (A)
                 (A) (A) (A) (A) (A) (A) (A) (A) (A) (A) (A) (A)
                 (A) (A) (A) (A) (A) (A) (A) (A) (A) (A) (A) (A)
                 (A) (A) (A) (A) (A) (A) (A) (A) (A) (A) (A) (A)
                 (A) (A) (A) (A) (A) (A) (A) (A) (A) (A) (A) (A)
                 (A) (A) (A) (A) (A) (A) (A) (A) (A) (A) (A) (A)
                 (A) (A) (A) (A) (A) (A) (A) (A) (A) (A) (A) (A)
                 (A) (A) (A) (A) (A) (A) (A) (A) (A) (A) (A) (A)
                 (A) (A) (A) (A) (A) (A) (A) (A) (A) (A) (A) (A)
                 (A) (A) (A) (A) (A) (A) (A) (A) (A) (A) (A) (A)
                 (A) (A) (A) (A) (A) (A) (A) (A) (A) (A) (A) (A)
                 (A) (A) (A) (A) (A) (A) (A) (A) (A) (A) (A) (A)
                 (A) (A) (A) (A) (A) (A) (A) (A) (A) (A) (A) (A)
                 (A) (A) (A) (A) (A) (A) (A) (A) (A) (A) (A) (A)
                 (A) (A) (A) (A) (A) (A) (A) (A) (A) (A) (A) (A)
                 (A) (A) (A) (A) (A) (A) (A) (A) (A) (A) (A) (A)
                 (A) (A) (A) (A) (A) (A) (A) (A) (A) (A) (A) (A)
                 (A) (A) (A) (A) (A) (A) (A) (A) (A) (A) (A) (A)
                 (A) (A) (A) (A) (A) (A) (A) (A) (A) (A) (A) (A)
                 (A) (A) (A) (A) (A) (A) (A) (A) (A) (A) (A) (A)
                 (A) (A) (A) (A) (A) (A)
     4 initial guesses have been made.
 Convergence on wavefunction:    0.001000000000000
 Iteration     1 Dimension     4 NMult     0 NNew      4
 CISAX will form     4 AO SS matrices at one time.
 New state      1 was old state      2
 Iteration     2 Dimension     6 NMult     4 NNew      2
 Iteration     3 Dimension     8 NMult     6 NNew      2
 Iteration     4 Dimension    10 NMult     8 NNew      2
 Iteration     5 Dimension    12 NMult    10 NNew      2
 Iteration     6 Dimension    14 NMult    12 NNew      2
 Iteration     7 Dimension    16 NMult    14 NNew      2
 Iteration     8 Dimension    18 NMult    16 NNew      2
 ***********************************************************************
 Excited states from <AA,BB:AA,BB> singles matrix:
 ***********************************************************************
 
 Ground to excited state transition densities written to RWF  633
 Ground to excited state transition electric dipole moments (Au):
       state          X           Y           Z        Dip. S.      Osc.
         1        -0.2273      2.2855      0.2220      5.3245      0.2647
 Ground to excited state transition velocity dipole moments (Au):
       state          X           Y           Z        Dip. S.      Osc.
         1         0.0143     -0.1666     -0.0172      0.0282      0.2525
 Ground to excited state transition magnetic dipole moments (Au):
       state          X           Y           Z
         1        -0.4305     -0.3693      3.5398
 Ground to excited state transition velocity quadrupole moments (Au):
       state          XX          YY          ZZ          XY          XZ          YZ
         1        -0.2146     -0.2388     -0.0189      2.1317      0.2285     -0.1242
 <0|del|b> * <b|rxdel|0> + <0|del|b> * <b|delr+rdel|0>
 Rotatory Strengths (R) in cgs (10**-40 erg-esu-cm/Gauss)
       state          XX          YY          ZZ    R(velocity)    E-M Angle
         1         9.1391   -152.4261     90.4877    -17.5998       90.53
 1/2[<0|r|b>*<b|rxdel|0> + (<0|rxdel|b>*<b|r|0>)*]
 Rotatory Strengths (R) in cgs (10**-40 erg-esu-cm/Gauss)
       state          XX          YY          ZZ     R(length)
         1       -69.2032    596.8301   -555.7733     -9.3822
  1/2[<0|del|b>*<b|r|0> + (<0|r|b>*<b|del|0>)*] (Au)
       state          X           Y           Z        Dip. S.   Osc.(frdel)
         1        -0.0032     -0.3807     -0.0038      0.3877      0.2585

 Excitation energies and oscillator strengths:
 
 Excited State   1:      Singlet-A      2.0292 eV  611.00 nm  f=0.2647  <S**2>=0.000
     240 -> 243       -0.22328
     241 -> 242        0.66401
 This state for optimization and/or second-order correction.
 Total Energy, E(TD-HF/TD-DFT) =  -2933.35551194    
 Copying the excited state density for this state as the 1-particle RhoCI density.
 SavETr:  write IOETrn=   770 NScale= 10 NData=  16 NLR=1 NState=    1 LETran=      28.
 Hyperfine terms turned off by default for NAtoms > 100.

 **********************************************************************

            Population analysis using the SCF density.

 **********************************************************************

 Orbital symmetries:
       Occupied  (A) (A) (A) (A) (A) (A) (A) (A) (A) (A) (A) (A)
                 (A) (A) (A) (A) (A) (A) (A) (A) (A) (A) (A) (A)
                 (A) (A) (A) (A) (A) (A) (A) (A) (A) (A) (A) (A)
                 (A) (A) (A) (A) (A) (A) (A) (A) (A) (A) (A) (A)
                 (A) (A) (A) (A) (A) (A) (A) (A) (A) (A) (A) (A)
                 (A) (A) (A) (A) (A) (A) (A) (A) (A) (A) (A) (A)
                 (A) (A) (A) (A) (A) (A) (A) (A) (A) (A) (A) (A)
                 (A) (A) (A) (A) (A) (A) (A) (A) (A) (A) (A) (A)
                 (A) (A) (A) (A) (A) (A) (A) (A) (A) (A) (A) (A)
                 (A) (A) (A) (A) (A) (A) (A) (A) (A) (A) (A) (A)
                 (A) (A) (A) (A) (A) (A) (A) (A) (A) (A) (A) (A)
                 (A) (A) (A) (A) (A) (A) (A) (A) (A) (A) (A) (A)
                 (A) (A) (A) (A) (A) (A) (A) (A) (A) (A) (A) (A)
                 (A) (A) (A) (A) (A) (A) (A) (A) (A) (A) (A) (A)
                 (A) (A) (A) (A) (A) (A) (A) (A) (A) (A) (A) (A)
                 (A) (A) (A) (A) (A) (A) (A) (A) (A) (A) (A) (A)
                 (A) (A) (A) (A) (A) (A) (A) (A) (A) (A) (A) (A)
                 (A) (A) (A) (A) (A) (A) (A) (A) (A) (A) (A) (A)
                 (A) (A) (A) (A) (A) (A) (A) (A) (A) (A) (A) (A)
                 (A) (A) (A) (A) (A) (A) (A) (A) (A) (A) (A) (A)
                 (A)
       Virtual   (A) (A) (A) (A) (A) (A) (A) (A) (A) (A) (A) (A)
                 (A) (A) (A) (A) (A) (A) (A) (A) (A) (A) (A) (A)
                 (A) (A) (A) (A) (A) (A) (A) (A) (A) (A) (A) (A)
                 (A) (A) (A) (A) (A) (A) (A) (A) (A) (A) (A) (A)
                 (A) (A) (A) (A) (A) (A) (A) (A) (A) (A) (A) (A)
                 (A) (A) (A) (A) (A) (A) (A) (A) (A) (A) (A) (A)
                 (A) (A) (A) (A) (A) (A) (A) (A) (A) (A) (A) (A)
                 (A) (A) (A) (A) (A) (A) (A) (A) (A) (A) (A) (A)
                 (A) (A) (A) (A) (A) (A) (A) (A) (A) (A) (A) (A)
                 (A) (A) (A) (A) (A) (A) (A) (A) (A) (A) (A) (A)
                 (A) (A) (A) (A) (A) (A) (A) (A) (A) (A) (A) (A)
                 (A) (A) (A) (A) (A) (A) (A) (A) (A) (A) (A) (A)
                 (A) (A) (A) (A) (A) (A) (A) (A) (A) (A) (A) (A)
                 (A) (A) (A) (A) (A) (A) (A) (A) (A) (A) (A) (A)
                 (A) (A) (A) (A) (A) (A) (A) (A) (A) (A) (A) (A)
                 (A) (A) (A) (A) (A) (A) (A) (A) (A) (A) (A) (A)
                 (A) (A) (A) (A) (A) (A) (A) (A) (A) (A) (A) (A)
                 (A) (A) (A) (A) (A) (A) (A) (A) (A) (A) (A) (A)
                 (A) (A) (A) (A) (A) (A) (A) (A) (A) (A) (A) (A)
                 (A) (A) (A) (A) (A) (A) (A) (A) (A) (A) (A) (A)
                 (A) (A) (A) (A) (A) (A) (A) (A) (A) (A) (A) (A)
                 (A) (A) (A) (A) (A) (A) (A) (A) (A) (A) (A) (A)
                 (A) (A) (A) (A) (A) (A) (A) (A) (A) (A) (A) (A)
                 (A) (A) (A) (A) (A) (A) (A) (A) (A) (A) (A) (A)
                 (A) (A) (A) (A) (A) (A) (A) (A) (A) (A) (A) (A)
                 (A) (A) (A) (A) (A) (A) (A) (A) (A) (A) (A) (A)
                 (A) (A) (A) (A) (A) (A) (A) (A) (A) (A) (A) (A)
                 (A) (A) (A) (A) (A) (A) (A) (A) (A) (A) (A) (A)
                 (A) (A) (A) (A) (A) (A) (A) (A) (A) (A) (A) (A)
                 (A) (A) (A) (A) (A) (A) (A) (A) (A) (A) (A) (A)
                 (A) (A) (A) (A) (A) (A) (A) (A) (A) (A) (A) (A)
                 (A) (A) (A) (A) (A) (A) (A) (A) (A) (A) (A) (A)
                 (A) (A) (A) (A) (A) (A) (A) (A) (A) (A) (A) (A)
                 (A) (A) (A) (A) (A) (A) (A) (A) (A) (A) (A) (A)
                 (A) (A) (A) (A) (A) (A) (A) (A) (A) (A) (A) (A)
                 (A) (A) (A) (A) (A) (A) (A) (A) (A) (A) (A) (A)
                 (A) (A) (A) (A) (A) (A) (A) (A) (A) (A) (A) (A)
                 (A) (A) (A) (A) (A) (A) (A) (A) (A) (A) (A) (A)
                 (A) (A) (A) (A) (A) (A) (A) (A) (A) (A) (A) (A)
                 (A) (A) (A) (A) (A) (A) (A) (A) (A) (A) (A) (A)
                 (A) (A) (A) (A) (A) (A) (A) (A) (A) (A) (A) (A)
                 (A) (A) (A) (A) (A) (A) (A) (A) (A) (A) (A) (A)
                 (A) (A) (A) (A) (A) (A) (A) (A) (A) (A) (A) (A)
                 (A) (A) (A) (A) (A) (A) (A) (A) (A) (A) (A) (A)
                 (A) (A) (A) (A) (A) (A) (A) (A) (A) (A) (A) (A)
                 (A) (A) (A) (A) (A) (A) (A) (A) (A) (A) (A) (A)
                 (A) (A) (A) (A) (A) (A) (A) (A) (A) (A) (A) (A)
                 (A) (A) (A) (A) (A) (A) (A) (A) (A) (A) (A) (A)
                 (A) (A) (A) (A) (A) (A) (A) (A) (A) (A) (A) (A)
                 (A) (A) (A) (A) (A) (A) (A) (A) (A) (A) (A) (A)
                 (A) (A) (A) (A) (A) (A) (A) (A) (A) (A) (A) (A)
                 (A) (A) (A) (A) (A) (A) (A) (A) (A) (A) (A) (A)
                 (A) (A) (A) (A) (A) (A) (A) (A) (A) (A) (A) (A)
                 (A) (A) (A) (A) (A) (A) (A) (A) (A) (A) (A) (A)
                 (A) (A) (A) (A) (A) (A) (A) (A) (A) (A) (A) (A)
                 (A) (A) (A) (A) (A) (A) (A) (A) (A) (A) (A) (A)
                 (A) (A) (A) (A) (A) (A) (A) (A) (A) (A) (A) (A)
                 (A) (A) (A) (A) (A) (A) (A) (A) (A) (A) (A) (A)
                 (A) (A) (A) (A) (A) (A) (A) (A) (A) (A) (A) (A)
                 (A) (A) (A) (A) (A) (A) (A) (A) (A) (A) (A) (A)
                 (A) (A) (A) (A) (A) (A) (A) (A) (A) (A) (A) (A)
                 (A) (A) (A) (A) (A) (A) (A) (A) (A) (A) (A) (A)
                 (A) (A) (A) (A) (A) (A) (A) (A) (A) (A) (A) (A)
                 (A) (A) (A) (A) (A) (A) (A) (A) (A) (A) (A) (A)
                 (A) (A) (A) (A) (A) (A) (A) (A) (A) (A) (A) (A)
                 (A) (A) (A) (A) (A) (A) (A) (A) (A) (A) (A) (A)
                 (A) (A) (A) (A) (A) (A) (A) (A) (A) (A) (A) (A)
                 (A) (A) (A) (A) (A) (A) (A) (A) (A) (A) (A) (A)
                 (A) (A) (A) (A) (A) (A) (A) (A) (A) (A) (A) (A)
                 (A) (A) (A) (A) (A) (A) (A) (A) (A) (A) (A) (A)
                 (A) (A) (A) (A) (A) (A) (A) (A) (A) (A) (A) (A)
                 (A) (A) (A) (A) (A) (A) (A) (A) (A) (A) (A) (A)
                 (A) (A) (A) (A) (A) (A) (A) (A) (A) (A) (A) (A)
                 (A) (A) (A) (A) (A) (A) (A) (A) (A) (A) (A) (A)
                 (A) (A) (A) (A) (A) (A) (A) (A) (A) (A) (A) (A)
                 (A) (A) (A) (A) (A) (A) (A) (A) (A) (A) (A) (A)
                 (A) (A) (A) (A) (A) (A) (A) (A) (A) (A) (A) (A)
                 (A) (A) (A) (A) (A) (A) (A) (A) (A) (A) (A) (A)
                 (A) (A) (A) (A) (A) (A) (A) (A) (A) (A) (A) (A)
                 (A) (A) (A) (A) (A) (A) (A) (A) (A) (A) (A) (A)
                 (A) (A) (A) (A) (A) (A) (A) (A) (A) (A) (A) (A)
                 (A) (A) (A) (A) (A) (A) (A) (A) (A) (A) (A) (A)
                 (A) (A) (A) (A) (A) (A) (A) (A) (A) (A) (A) (A)
                 (A) (A) (A) (A) (A) (A) (A) (A) (A) (A) (A) (A)
                 (A) (A) (A) (A) (A) (A) (A) (A) (A) (A) (A) (A)
                 (A) (A) (A) (A) (A) (A) (A) (A) (A) (A) (A) (A)
                 (A) (A) (A) (A) (A) (A) (A) (A) (A) (A) (A) (A)
                 (A) (A) (A) (A) (A) (A) (A) (A) (A) (A) (A) (A)
                 (A) (A) (A) (A) (A) (A) (A) (A) (A) (A) (A) (A)
                 (A) (A) (A) (A) (A) (A) (A) (A) (A) (A) (A) (A)
                 (A) (A) (A) (A) (A) (A) (A) (A) (A) (A) (A) (A)
                 (A) (A) (A) (A) (A) (A)
 The electronic state is 1-A.
 Alpha  occ. eigenvalues --  -46.80153 -19.22304 -19.21663 -19.17399 -19.16043
 Alpha  occ. eigenvalues --  -19.14334 -14.37401 -14.35828 -14.35584 -14.35268
 Alpha  occ. eigenvalues --  -10.34742 -10.32434 -10.28952 -10.28649 -10.28316
 Alpha  occ. eigenvalues --  -10.26686 -10.26086 -10.25897 -10.25850 -10.25087
 Alpha  occ. eigenvalues --  -10.24883 -10.24877 -10.24569 -10.24375 -10.24281
 Alpha  occ. eigenvalues --  -10.23991 -10.23769 -10.23634 -10.23632 -10.23547
 Alpha  occ. eigenvalues --  -10.23371 -10.23257 -10.23058 -10.22982 -10.22970
 Alpha  occ. eigenvalues --  -10.22697 -10.22653 -10.22481 -10.22422 -10.22252
 Alpha  occ. eigenvalues --  -10.22132 -10.22101 -10.22091 -10.22046 -10.21966
 Alpha  occ. eigenvalues --  -10.21929 -10.21754 -10.21714 -10.21560 -10.21398
 Alpha  occ. eigenvalues --  -10.21341 -10.21341 -10.21135 -10.20977 -10.20955
 Alpha  occ. eigenvalues --  -10.20869 -10.20524 -10.20284 -10.20077 -10.19890
 Alpha  occ. eigenvalues --  -10.19784 -10.19694 -10.19457 -10.18871 -10.18677
 Alpha  occ. eigenvalues --   -3.08751  -1.83698  -1.83207  -1.83170  -1.18012
 Alpha  occ. eigenvalues --   -1.11108  -1.08060  -1.03746  -1.03604  -1.00374
 Alpha  occ. eigenvalues --   -0.99455  -0.98443  -0.97172  -0.86998  -0.86642
 Alpha  occ. eigenvalues --   -0.85618  -0.84816  -0.84621  -0.84601  -0.84390
 Alpha  occ. eigenvalues --   -0.83629  -0.83030  -0.82528  -0.82277  -0.81249
 Alpha  occ. eigenvalues --   -0.80241  -0.79682  -0.78864  -0.78554  -0.78302
 Alpha  occ. eigenvalues --   -0.76640  -0.76364  -0.75839  -0.75554  -0.74084
 Alpha  occ. eigenvalues --   -0.72996  -0.72567  -0.72083  -0.71457  -0.71274
 Alpha  occ. eigenvalues --   -0.70526  -0.69627  -0.69548  -0.68315  -0.67791
 Alpha  occ. eigenvalues --   -0.67079  -0.66098  -0.65897  -0.64150  -0.63701
 Alpha  occ. eigenvalues --   -0.62699  -0.61417  -0.61014  -0.60902  -0.60177
 Alpha  occ. eigenvalues --   -0.60021  -0.59041  -0.58663  -0.58487  -0.58342
 Alpha  occ. eigenvalues --   -0.57592  -0.56976  -0.56096  -0.55722  -0.55524
 Alpha  occ. eigenvalues --   -0.55114  -0.54583  -0.54177  -0.52990  -0.52659
 Alpha  occ. eigenvalues --   -0.52220  -0.52127  -0.51654  -0.51302  -0.51069
 Alpha  occ. eigenvalues --   -0.50870  -0.50412  -0.50252  -0.49718  -0.49396
 Alpha  occ. eigenvalues --   -0.48852  -0.48758  -0.48632  -0.48581  -0.48256
 Alpha  occ. eigenvalues --   -0.47715  -0.47467  -0.47366  -0.47267  -0.47245
 Alpha  occ. eigenvalues --   -0.46565  -0.46494  -0.46184  -0.45912  -0.45702
 Alpha  occ. eigenvalues --   -0.45602  -0.45515  -0.45170  -0.44926  -0.44666
 Alpha  occ. eigenvalues --   -0.44621  -0.44465  -0.44458  -0.44041  -0.43938
 Alpha  occ. eigenvalues --   -0.43619  -0.43515  -0.43140  -0.42634  -0.42542
 Alpha  occ. eigenvalues --   -0.42446  -0.42246  -0.42069  -0.41706  -0.41673
 Alpha  occ. eigenvalues --   -0.41648  -0.41392  -0.41348  -0.41208  -0.40845
 Alpha  occ. eigenvalues --   -0.40584  -0.40470  -0.40244  -0.40093  -0.39825
 Alpha  occ. eigenvalues --   -0.39518  -0.38833  -0.38765  -0.38687  -0.38661
 Alpha  occ. eigenvalues --   -0.38536  -0.38433  -0.38177  -0.38163  -0.37991
 Alpha  occ. eigenvalues --   -0.37780  -0.37327  -0.37285  -0.37148  -0.36964
 Alpha  occ. eigenvalues --   -0.36858  -0.36691  -0.36646  -0.36432  -0.36275
 Alpha  occ. eigenvalues --   -0.36051  -0.35272  -0.35197  -0.35168  -0.34576
 Alpha  occ. eigenvalues --   -0.34369  -0.33926  -0.33737  -0.33496  -0.33465
 Alpha  occ. eigenvalues --   -0.33273  -0.33124  -0.33042  -0.32996  -0.32522
 Alpha  occ. eigenvalues --   -0.32385  -0.32189  -0.32082  -0.30387  -0.30304
 Alpha  occ. eigenvalues --   -0.29853  -0.29523  -0.29457  -0.28379  -0.26572
 Alpha  occ. eigenvalues --   -0.26268  -0.25718  -0.25584  -0.25314  -0.21968
 Alpha  occ. eigenvalues --   -0.20058
 Alpha virt. eigenvalues --   -0.07247  -0.03842   0.00068   0.02844   0.03134
 Alpha virt. eigenvalues --    0.03514   0.04753   0.05156   0.05422   0.06239
 Alpha virt. eigenvalues --    0.07607   0.08671   0.08929   0.09576   0.09775
 Alpha virt. eigenvalues --    0.09980   0.10135   0.10551   0.10630   0.10867
 Alpha virt. eigenvalues --    0.11295   0.11595   0.11715   0.12139   0.12172
 Alpha virt. eigenvalues --    0.12191   0.12375   0.12769   0.12816   0.13352
 Alpha virt. eigenvalues --    0.13514   0.13641   0.13673   0.13894   0.14337
 Alpha virt. eigenvalues --    0.14343   0.14484   0.14805   0.14890   0.15052
 Alpha virt. eigenvalues --    0.15253   0.15335   0.15506   0.15789   0.16120
 Alpha virt. eigenvalues --    0.16274   0.16564   0.16629   0.16854   0.16976
 Alpha virt. eigenvalues --    0.17092   0.17236   0.17592   0.17655   0.17730
 Alpha virt. eigenvalues --    0.17934   0.17991   0.18169   0.18536   0.18673
 Alpha virt. eigenvalues --    0.18818   0.19231   0.19342   0.19393   0.19623
 Alpha virt. eigenvalues --    0.19907   0.19959   0.20083   0.20279   0.20461
 Alpha virt. eigenvalues --    0.20526   0.20714   0.21123   0.21285   0.21426
 Alpha virt. eigenvalues --    0.21539   0.21931   0.22220   0.22318   0.22410
 Alpha virt. eigenvalues --    0.22455   0.22600   0.22788   0.23006   0.23068
 Alpha virt. eigenvalues --    0.23244   0.23367   0.23617   0.23844   0.24136
 Alpha virt. eigenvalues --    0.24199   0.24562   0.24585   0.24740   0.24856
 Alpha virt. eigenvalues --    0.25179   0.25320   0.25461   0.25742   0.25985
 Alpha virt. eigenvalues --    0.26206   0.26475   0.26692   0.26836   0.26931
 Alpha virt. eigenvalues --    0.27271   0.27383   0.27641   0.27863   0.27966
 Alpha virt. eigenvalues --    0.28318   0.28518   0.28930   0.29022   0.29165
 Alpha virt. eigenvalues --    0.29313   0.29756   0.29953   0.30032   0.30520
 Alpha virt. eigenvalues --    0.30987   0.31188   0.31367   0.31691   0.31788
 Alpha virt. eigenvalues --    0.32091   0.32302   0.32487   0.33135   0.33767
 Alpha virt. eigenvalues --    0.34343   0.34582   0.34986   0.35625   0.35877
 Alpha virt. eigenvalues --    0.36128   0.37140   0.37324   0.37987   0.38891
 Alpha virt. eigenvalues --    0.39199   0.39722   0.39807   0.40076   0.40159
 Alpha virt. eigenvalues --    0.40533   0.40789   0.42114   0.42385   0.42949
 Alpha virt. eigenvalues --    0.43850   0.43937   0.45231   0.45528   0.46494
 Alpha virt. eigenvalues --    0.47197   0.47546   0.48174   0.49293   0.49437
 Alpha virt. eigenvalues --    0.50203   0.50325   0.50464   0.51050   0.51547
 Alpha virt. eigenvalues --    0.51674   0.51963   0.52125   0.52402   0.52910
 Alpha virt. eigenvalues --    0.53312   0.53658   0.53817   0.53888   0.54238
 Alpha virt. eigenvalues --    0.54638   0.54897   0.55182   0.55313   0.55434
 Alpha virt. eigenvalues --    0.55489   0.55681   0.56219   0.56227   0.56327
 Alpha virt. eigenvalues --    0.56555   0.56721   0.56966   0.57038   0.57158
 Alpha virt. eigenvalues --    0.57602   0.57894   0.58110   0.58289   0.58361
 Alpha virt. eigenvalues --    0.58690   0.58914   0.59286   0.59771   0.59929
 Alpha virt. eigenvalues --    0.60422   0.60582   0.60905   0.61112   0.61239
 Alpha virt. eigenvalues --    0.61275   0.61910   0.62002   0.62361   0.62560
 Alpha virt. eigenvalues --    0.62823   0.63112   0.63160   0.63436   0.63544
 Alpha virt. eigenvalues --    0.64003   0.64206   0.64780   0.64918   0.65422
 Alpha virt. eigenvalues --    0.65620   0.65729   0.65811   0.66053   0.66367
 Alpha virt. eigenvalues --    0.66745   0.66969   0.67139   0.67569   0.67900
 Alpha virt. eigenvalues --    0.68433   0.68454   0.68763   0.68995   0.69404
 Alpha virt. eigenvalues --    0.69667   0.69776   0.70025   0.70205   0.70583
 Alpha virt. eigenvalues --    0.70794   0.70870   0.71175   0.71226   0.71366
 Alpha virt. eigenvalues --    0.71524   0.71974   0.72140   0.72516   0.72636
 Alpha virt. eigenvalues --    0.72860   0.73096   0.73283   0.73524   0.73806
 Alpha virt. eigenvalues --    0.74056   0.74274   0.74340   0.74400   0.74631
 Alpha virt. eigenvalues --    0.75038   0.75523   0.75649   0.76248   0.76297
 Alpha virt. eigenvalues --    0.76632   0.76906   0.77233   0.77385   0.77628
 Alpha virt. eigenvalues --    0.77990   0.78114   0.78374   0.78757   0.78842
 Alpha virt. eigenvalues --    0.79060   0.79134   0.79343   0.79398   0.79712
 Alpha virt. eigenvalues --    0.79964   0.79995   0.80548   0.80789   0.80955
 Alpha virt. eigenvalues --    0.81134   0.81419   0.81591   0.81797   0.82073
 Alpha virt. eigenvalues --    0.82361   0.82554   0.82616   0.82948   0.82975
 Alpha virt. eigenvalues --    0.83287   0.83324   0.83454   0.83985   0.84361
 Alpha virt. eigenvalues --    0.84439   0.84546   0.84649   0.84941   0.85267
 Alpha virt. eigenvalues --    0.85386   0.85578   0.85637   0.85663   0.85893
 Alpha virt. eigenvalues --    0.86157   0.86319   0.86605   0.86926   0.87129
 Alpha virt. eigenvalues --    0.87300   0.87584   0.87751   0.87882   0.88151
 Alpha virt. eigenvalues --    0.88293   0.88501   0.88559   0.89012   0.89201
 Alpha virt. eigenvalues --    0.89367   0.89736   0.90113   0.90178   0.90559
 Alpha virt. eigenvalues --    0.90718   0.90753   0.90973   0.91422   0.91670
 Alpha virt. eigenvalues --    0.91820   0.92025   0.92188   0.92248   0.92390
 Alpha virt. eigenvalues --    0.92511   0.92603   0.92644   0.92895   0.92998
 Alpha virt. eigenvalues --    0.93357   0.93658   0.93769   0.94220   0.94337
 Alpha virt. eigenvalues --    0.94423   0.94536   0.94646   0.95025   0.95215
 Alpha virt. eigenvalues --    0.95326   0.95515   0.95598   0.95943   0.96148
 Alpha virt. eigenvalues --    0.96345   0.96508   0.97020   0.97187   0.97552
 Alpha virt. eigenvalues --    0.97798   0.98042   0.98328   0.99091   0.99176
 Alpha virt. eigenvalues --    0.99405   0.99456   0.99800   1.00060   1.00226
 Alpha virt. eigenvalues --    1.00485   1.00576   1.00801   1.01071   1.01248
 Alpha virt. eigenvalues --    1.01354   1.01453   1.01876   1.02081   1.02424
 Alpha virt. eigenvalues --    1.02567   1.03216   1.03247   1.03754   1.04114
 Alpha virt. eigenvalues --    1.04491   1.04604   1.05128   1.05564   1.06148
 Alpha virt. eigenvalues --    1.06299   1.07003   1.07483   1.08067   1.08275
 Alpha virt. eigenvalues --    1.08578   1.08660   1.09362   1.09455   1.09592
 Alpha virt. eigenvalues --    1.10209   1.10759   1.11089   1.11191   1.11828
 Alpha virt. eigenvalues --    1.12371   1.13416   1.13512   1.14067   1.14650
 Alpha virt. eigenvalues --    1.16066   1.16570   1.17111   1.17419   1.17547
 Alpha virt. eigenvalues --    1.18160   1.18548   1.18693   1.18885   1.19484
 Alpha virt. eigenvalues --    1.19580   1.20425   1.21154   1.21423   1.21597
 Alpha virt. eigenvalues --    1.22329   1.22698   1.23371   1.24647   1.24815
 Alpha virt. eigenvalues --    1.24916   1.25403   1.25595   1.25798   1.25999
 Alpha virt. eigenvalues --    1.26211   1.28172   1.28475   1.29086   1.29661
 Alpha virt. eigenvalues --    1.29947   1.30590   1.30823   1.31810   1.32354
 Alpha virt. eigenvalues --    1.32695   1.32928   1.33627   1.34076   1.34372
 Alpha virt. eigenvalues --    1.34848   1.35235   1.35560   1.35882   1.36511
 Alpha virt. eigenvalues --    1.36712   1.37396   1.37833   1.37940   1.38206
 Alpha virt. eigenvalues --    1.39081   1.39480   1.40017   1.40777   1.41316
 Alpha virt. eigenvalues --    1.41569   1.41686   1.41943   1.42915   1.43189
 Alpha virt. eigenvalues --    1.43327   1.44080   1.44461   1.44668   1.46428
 Alpha virt. eigenvalues --    1.46488   1.47841   1.47934   1.48723   1.48964
 Alpha virt. eigenvalues --    1.49597   1.49910   1.50646   1.50785   1.51275
 Alpha virt. eigenvalues --    1.51610   1.52040   1.52470   1.52797   1.53275
 Alpha virt. eigenvalues --    1.53545   1.54427   1.54798   1.55277   1.55554
 Alpha virt. eigenvalues --    1.56162   1.56270   1.56861   1.57957   1.58193
 Alpha virt. eigenvalues --    1.58638   1.58713   1.59498   1.59589   1.59817
 Alpha virt. eigenvalues --    1.60890   1.61652   1.61787   1.62339   1.63121
 Alpha virt. eigenvalues --    1.63288   1.63379   1.63742   1.64191   1.64208
 Alpha virt. eigenvalues --    1.64859   1.65510   1.65954   1.66462   1.66617
 Alpha virt. eigenvalues --    1.66861   1.67053   1.67267   1.67548   1.67920
 Alpha virt. eigenvalues --    1.68188   1.68654   1.69103   1.69354   1.70742
 Alpha virt. eigenvalues --    1.71399   1.71764   1.72115   1.72323   1.72378
 Alpha virt. eigenvalues --    1.73001   1.73627   1.73802   1.74440   1.74764
 Alpha virt. eigenvalues --    1.75042   1.75141   1.75837   1.75908   1.76307
 Alpha virt. eigenvalues --    1.77023   1.77240   1.77941   1.78209   1.78439
 Alpha virt. eigenvalues --    1.78734   1.79054   1.79491   1.79969   1.80253
 Alpha virt. eigenvalues --    1.80791   1.81175   1.81205   1.81619   1.81793
 Alpha virt. eigenvalues --    1.81958   1.82497   1.82771   1.82816   1.83176
 Alpha virt. eigenvalues --    1.83377   1.83583   1.83878   1.84189   1.84510
 Alpha virt. eigenvalues --    1.84603   1.85169   1.85222   1.85528   1.85570
 Alpha virt. eigenvalues --    1.85822   1.86160   1.86329   1.86544   1.86842
 Alpha virt. eigenvalues --    1.87092   1.87310   1.87538   1.87793   1.87982
 Alpha virt. eigenvalues --    1.88211   1.88396   1.88811   1.89293   1.89411
 Alpha virt. eigenvalues --    1.89810   1.90137   1.90258   1.90588   1.90751
 Alpha virt. eigenvalues --    1.91248   1.91743   1.92079   1.92279   1.92443
 Alpha virt. eigenvalues --    1.92562   1.92735   1.93209   1.93371   1.93550
 Alpha virt. eigenvalues --    1.93658   1.93734   1.93919   1.94272   1.94463
 Alpha virt. eigenvalues --    1.95372   1.95439   1.95703   1.95945   1.96035
 Alpha virt. eigenvalues --    1.96217   1.96387   1.96811   1.97090   1.97175
 Alpha virt. eigenvalues --    1.97364   1.97580   1.98038   1.98246   1.98497
 Alpha virt. eigenvalues --    1.98813   1.99219   1.99354   1.99876   2.00051
 Alpha virt. eigenvalues --    2.00360   2.00678   2.01157   2.01501   2.01938
 Alpha virt. eigenvalues --    2.02248   2.03061   2.03128   2.03272   2.03696
 Alpha virt. eigenvalues --    2.04007   2.04409   2.04475   2.04843   2.05275
 Alpha virt. eigenvalues --    2.05728   2.05802   2.06011   2.06073   2.06713
 Alpha virt. eigenvalues --    2.06974   2.07270   2.07821   2.08113   2.08342
 Alpha virt. eigenvalues --    2.08724   2.09107   2.09112   2.09634   2.10024
 Alpha virt. eigenvalues --    2.10074   2.10379   2.10558   2.10701   2.11080
 Alpha virt. eigenvalues --    2.11463   2.11689   2.12095   2.12310   2.12474
 Alpha virt. eigenvalues --    2.12520   2.12798   2.13433   2.13836   2.14421
 Alpha virt. eigenvalues --    2.14422   2.14815   2.14982   2.15079   2.15631
 Alpha virt. eigenvalues --    2.15706   2.15849   2.16277   2.16382   2.16722
 Alpha virt. eigenvalues --    2.16960   2.17161   2.17521   2.17684   2.17946
 Alpha virt. eigenvalues --    2.18141   2.18371   2.18854   2.19131   2.19503
 Alpha virt. eigenvalues --    2.19721   2.19936   2.20620   2.20655   2.21283
 Alpha virt. eigenvalues --    2.21339   2.21969   2.22002   2.22327   2.22559
 Alpha virt. eigenvalues --    2.23211   2.23632   2.25222   2.25871   2.26126
 Alpha virt. eigenvalues --    2.26829   2.26979   2.27184   2.27644   2.27883
 Alpha virt. eigenvalues --    2.28358   2.28792   2.28923   2.29139   2.29301
 Alpha virt. eigenvalues --    2.29848   2.29918   2.31000   2.31070   2.31282
 Alpha virt. eigenvalues --    2.31633   2.31707   2.32068   2.32543   2.33324
 Alpha virt. eigenvalues --    2.33355   2.33612   2.34304   2.34372   2.34661
 Alpha virt. eigenvalues --    2.34938   2.34962   2.35694   2.35744   2.35865
 Alpha virt. eigenvalues --    2.36054   2.36181   2.37011   2.37092   2.37495
 Alpha virt. eigenvalues --    2.37671   2.38023   2.38285   2.38477   2.38586
 Alpha virt. eigenvalues --    2.39118   2.39468   2.39592   2.40278   2.40563
 Alpha virt. eigenvalues --    2.40862   2.41036   2.41222   2.41481   2.41614
 Alpha virt. eigenvalues --    2.41891   2.42395   2.42442   2.42794   2.43357
 Alpha virt. eigenvalues --    2.43511   2.43989   2.44126   2.44159   2.44519
 Alpha virt. eigenvalues --    2.44948   2.45608   2.45658   2.46221   2.46286
 Alpha virt. eigenvalues --    2.46835   2.47089   2.47565   2.47716   2.48413
 Alpha virt. eigenvalues --    2.48740   2.48895   2.49529   2.49751   2.49882
 Alpha virt. eigenvalues --    2.50592   2.50852   2.51065   2.51269   2.51342
 Alpha virt. eigenvalues --    2.51653   2.51793   2.52556   2.52790   2.53501
 Alpha virt. eigenvalues --    2.53882   2.54337   2.55202   2.55229   2.55350
 Alpha virt. eigenvalues --    2.56205   2.56768   2.57029   2.57265   2.57675
 Alpha virt. eigenvalues --    2.57850   2.57958   2.58091   2.58488   2.58591
 Alpha virt. eigenvalues --    2.59019   2.59489   2.59767   2.59798   2.60484
 Alpha virt. eigenvalues --    2.60518   2.60937   2.61161   2.61928   2.62171
 Alpha virt. eigenvalues --    2.62842   2.63032   2.63109   2.63279   2.63993
 Alpha virt. eigenvalues --    2.64412   2.65152   2.65321   2.66006   2.66388
 Alpha virt. eigenvalues --    2.66460   2.66807   2.66829   2.67338   2.67813
 Alpha virt. eigenvalues --    2.68468   2.68680   2.68779   2.69008   2.69543
 Alpha virt. eigenvalues --    2.69922   2.70216   2.70417   2.70779   2.71363
 Alpha virt. eigenvalues --    2.71873   2.72028   2.72108   2.72512   2.72726
 Alpha virt. eigenvalues --    2.72888   2.73318   2.73568   2.73945   2.74076
 Alpha virt. eigenvalues --    2.74795   2.75070   2.75735   2.76200   2.76834
 Alpha virt. eigenvalues --    2.77112   2.77376   2.77830   2.77977   2.78332
 Alpha virt. eigenvalues --    2.78518   2.78992   2.79039   2.79260   2.79435
 Alpha virt. eigenvalues --    2.80067   2.80175   2.80264   2.80835   2.81144
 Alpha virt. eigenvalues --    2.81396   2.81969   2.82129   2.82515   2.82931
 Alpha virt. eigenvalues --    2.83121   2.83333   2.83699   2.83822   2.84530
 Alpha virt. eigenvalues --    2.84589   2.84879   2.86236   2.86294   2.86417
 Alpha virt. eigenvalues --    2.86613   2.86963   2.87583   2.87636   2.87924
 Alpha virt. eigenvalues --    2.88314   2.88849   2.88867   2.89029   2.89486
 Alpha virt. eigenvalues --    2.90159   2.90660   2.91039   2.91192   2.91567
 Alpha virt. eigenvalues --    2.91722   2.92414   2.92541   2.93272   2.93643
 Alpha virt. eigenvalues --    2.94071   2.94204   2.94465   2.94692   2.94872
 Alpha virt. eigenvalues --    2.95943   2.95987   2.96335   2.96496   2.96652
 Alpha virt. eigenvalues --    2.96891   2.97535   2.97769   2.98673   2.98898
 Alpha virt. eigenvalues --    2.99422   3.00949   3.01269   3.01298   3.01522
 Alpha virt. eigenvalues --    3.01703   3.02499   3.03488   3.03704   3.04091
 Alpha virt. eigenvalues --    3.04208   3.05369   3.06170   3.06548   3.07950
 Alpha virt. eigenvalues --    3.08272   3.08930   3.10098   3.10594   3.11326
 Alpha virt. eigenvalues --    3.12359   3.13853   3.14272   3.14457   3.15123
 Alpha virt. eigenvalues --    3.16682   3.16914   3.17303   3.18138   3.19101
 Alpha virt. eigenvalues --    3.19457   3.20082   3.20299   3.21406   3.21899
 Alpha virt. eigenvalues --    3.22019   3.23136   3.24407   3.24748   3.25368
 Alpha virt. eigenvalues --    3.25405   3.25907   3.26845   3.27389   3.28019
 Alpha virt. eigenvalues --    3.28840   3.29195   3.29336   3.29881   3.29969
 Alpha virt. eigenvalues --    3.30616   3.30979   3.32054   3.32196   3.34795
 Alpha virt. eigenvalues --    3.34904   3.36310   3.36380   3.37299   3.37854
 Alpha virt. eigenvalues --    3.39439   3.39625   3.41078   3.41356   3.41663
 Alpha virt. eigenvalues --    3.42504   3.43034   3.43696   3.44220   3.44339
 Alpha virt. eigenvalues --    3.45440   3.45690   3.46098   3.46423   3.47136
 Alpha virt. eigenvalues --    3.47143   3.48098   3.49264   3.50053   3.51034
 Alpha virt. eigenvalues --    3.51234   3.51780   3.52277   3.52723   3.53208
 Alpha virt. eigenvalues --    3.54006   3.54291   3.54412   3.55018   3.57063
 Alpha virt. eigenvalues --    3.58336   3.58846   3.61805   3.62520   3.63518
 Alpha virt. eigenvalues --    3.65198   3.66606   3.67571   3.71912   3.73009
 Alpha virt. eigenvalues --    3.77548   3.89733   3.91071   3.92119   4.04418
 Alpha virt. eigenvalues --    4.10143   4.15409   4.16478   4.17497   4.18346
 Alpha virt. eigenvalues --    4.18916   4.19760   4.22288   4.23525   4.24979
 Alpha virt. eigenvalues --    4.26315   4.26763   4.27778   4.28302   4.29607
 Alpha virt. eigenvalues --    4.30860   4.32201   4.34439   4.35465   4.36969
 Alpha virt. eigenvalues --    4.37629   4.39070   4.39690   4.40375   4.42444
 Alpha virt. eigenvalues --    4.42840   4.43758   4.45501   4.46029   4.46629
 Alpha virt. eigenvalues --    4.48018   4.50325   4.50670   4.50875   4.51247
 Alpha virt. eigenvalues --    4.52804   4.53985   4.55818   4.56059   4.56989
 Alpha virt. eigenvalues --    4.57821   4.59937   4.60632   4.64044   4.65798
 Alpha virt. eigenvalues --    4.65943   4.67220   4.68275   4.70193   4.70679
 Alpha virt. eigenvalues --    4.71918   4.72568   4.74646   4.77036   4.78531
 Alpha virt. eigenvalues --    4.81199   4.82566   4.83916   4.85803   4.86321
 Alpha virt. eigenvalues --    4.87996   4.91026   4.98982
          Condensed to atoms (all electrons):
 Mulliken charges:
               1
     1  Mg   0.817646
     2  C    0.080258
     3  C   -0.209676
     4  C   -0.116310
     5  C   -0.154555
     6  N   -0.672922
     7  C    0.337293
     8  C   -0.164005
     9  C   -0.151398
    10  C    0.396464
    11  C   -0.309933
    12  C   -0.177104
    13  C   -0.281248
    14  C    0.631889
    15  O   -0.475167
    16  O   -0.491231
    17  N   -0.735069
    18  C    0.310835
    19  C   -0.017193
    20  C    0.039112
    21  C    0.329398
    22  C   -0.373289
    23  C   -0.086061
    24  C   -0.202637
    25  N   -0.666394
    26  C    0.323022
    27  C    0.056663
    28  C    0.019800
    29  C    0.263760
    30  C   -0.390900
    31  C   -0.222636
    32  C   -0.310568
    33  N   -0.743698
    34  C    0.252201
    35  C    0.034734
    36  C    0.053053
    37  C    0.314862
    38  C   -0.411505
    39  C    0.334060
    40  O   -0.490593
    41  C   -0.365146
    42  C    0.594383
    43  O   -0.385682
    44  O   -0.419595
    45  C   -0.093424
    46  C    0.015763
    47  C   -0.132038
    48  C    0.128112
    49  C   -0.376687
    50  C   -0.221281
    51  C   -0.160806
    52  C   -0.149091
    53  C   -0.056846
    54  C   -0.314402
    55  C   -0.142080
    56  C   -0.190509
    57  C   -0.141726
    58  C   -0.091653
    59  C   -0.298428
    60  C   -0.154870
    61  C   -0.164154
    62  C   -0.163405
    63  C   -0.055101
    64  C   -0.285012
    65  C   -0.313697
    66  H    0.075736
    67  H    0.069302
    68  H    0.108988
    69  H    0.118002
    70  H    0.096605
    71  H    0.123835
    72  H    0.102287
    73  H    0.124484
    74  H    0.134525
    75  H    0.103938
    76  H    0.132148
    77  H    0.134021
    78  H    0.100759
    79  H    0.138495
    80  H    0.122822
    81  H    0.082930
    82  H    0.089632
    83  H    0.071915
    84  H    0.089890
    85  H    0.121894
    86  H    0.077805
    87  H    0.108258
    88  H    0.091756
    89  H    0.109688
    90  H    0.123155
    91  H    0.080628
    92  H    0.142160
    93  H    0.143171
    94  H    0.116429
    95  H    0.147069
    96  H    0.133919
    97  H    0.106404
    98  H    0.095899
    99  H    0.147917
   100  H    0.114459
   101  H    0.087208
   102  H    0.115134
   103  H    0.117669
   104  H    0.112876
   105  H    0.067283
   106  H    0.093895
   107  H    0.086475
   108  H    0.104234
   109  H    0.058780
   110  H    0.106072
   111  H    0.069159
   112  H    0.117730
   113  H    0.087635
   114  H    0.095153
   115  H    0.086017
   116  H    0.054016
   117  H    0.089711
   118  H    0.085339
   119  H    0.091163
   120  H    0.083377
   121  H    0.056695
   122  H    0.105186
   123  H    0.109705
   124  H    0.092073
   125  H    0.082731
   126  H    0.071312
   127  H    0.067776
   128  H    0.106640
   129  H    0.096698
   130  H    0.068777
   131  H    0.096398
   132  H    0.070032
   133  H    0.047668
   134  H    0.123422
   135  H    0.102269
   136  H    0.094102
   137  H    0.115080
 Sum of Mulliken charges =  -0.00000
 Mulliken charges with hydrogens summed into heavy atoms:
               1
     1  Mg   0.817646
     2  C    0.080258
     3  C   -0.133940
     4  C   -0.047007
     5  C   -0.045567
     6  N   -0.672922
     7  C    0.337293
     8  C   -0.046003
     9  C   -0.054793
    10  C    0.396464
    11  C    0.040672
    12  C    0.061359
    13  C   -0.015079
    14  C    0.631889
    15  O   -0.475167
    16  O   -0.491231
    17  N   -0.735069
    18  C    0.310835
    19  C   -0.017193
    20  C    0.039112
    21  C    0.329398
    22  C   -0.011213
    23  C   -0.003131
    24  C   -0.041089
    25  N   -0.666394
    26  C    0.323022
    27  C    0.056663
    28  C    0.019800
    29  C    0.263760
    30  C   -0.101310
    31  C   -0.022621
    32  C    0.002904
    33  N   -0.743698
    34  C    0.252201
    35  C    0.034734
    36  C    0.053053
    37  C    0.314862
    38  C   -0.009744
    39  C    0.334060
    40  O   -0.490593
    41  C   -0.218077
    42  C    0.594383
    43  O   -0.385682
    44  O   -0.419595
    45  C    0.242798
    46  C    0.278140
    47  C   -0.044829
    48  C    0.128112
    49  C   -0.031009
    50  C   -0.060103
    51  C    0.029902
    52  C    0.015761
    53  C    0.012314
    54  C   -0.013883
    55  C   -0.002048
    56  C   -0.015460
    57  C    0.032815
    58  C   -0.034958
    59  C    0.008536
    60  C   -0.000827
    61  C    0.010262
    62  C    0.002069
    63  C    0.041298
    64  C   -0.043890
    65  C   -0.002247
 Electronic spatial extent (au):  <R**2>=         178759.4470
 Charge=             -0.0000 electrons
 Dipole moment (field-independent basis, Debye):
    X=              1.7227    Y=              4.2700    Z=              0.5756  Tot=              4.6402
 Quadrupole moment (field-independent basis, Debye-Ang):
   XX=           -354.2660   YY=           -401.2003   ZZ=           -394.8464
   XY=            -25.0518   XZ=              7.6726   YZ=             -1.8759
 Traceless Quadrupole moment (field-independent basis, Debye-Ang):
   XX=             29.1715   YY=            -17.7627   ZZ=            -11.4089
   XY=            -25.0518   XZ=              7.6726   YZ=             -1.8759
 Octapole moment (field-independent basis, Debye-Ang**2):
  XXX=           -716.2802  YYY=            154.8937  ZZZ=             26.6296  XYY=            -39.1462
  XXY=           -139.4662  XXZ=           -259.8193  XZZ=            -12.7458  YZZ=            -39.4884
  YYZ=             21.4999  XYZ=            -36.6719
 Hexadecapole moment (field-independent basis, Debye-Ang**3):
 XXXX=        -224463.0332 YYYY=         -17758.0806 ZZZZ=          -4198.2196 XXXY=          -2864.6036
 XXXZ=           1599.0162 YYYX=          -1095.1719 YYYZ=           -126.0185 ZZZX=           -107.4167
 ZZZY=           -129.7791 XXYY=         -40328.0015 XXZZ=         -38848.2559 YYZZ=          -3499.4969
 XXYZ=            -24.1151 YYXZ=            208.0808 ZZXY=             59.4388
 N-N= 8.768419146236D+03 E-N=-2.436154898722D+04  KE= 2.907761401955D+03

 Test job not archived.
 1\1\GINC-RYZEN-SSD3\SP\RCAM-B3LYP TD-FC\6-31G(d,p)\C55H72Mg1N4O5\PADAW
 AN\09-Sep-2019\0\\# td=(NStates=1) iop(3/107=0140000000,3/108=01400000
 00) CAM-B3LYP/6-31G(d,p)\\TD\\0,1\Mg,0,-7.0499596877,0.5988582693,0.09
 52458946\C,0,-4.8483736539,-1.9561228429,0.4250379062\C,0,-4.689785009
 1,2.7479835163,1.1666867739\C,0,-9.4228090454,3.1560331563,-0.31308378
 37\C,0,-9.5667427723,-1.7347752432,-0.945631368\N,0,-5.110338065,0.429
 4490355,0.7827360976\C,0,-4.3704792952,-0.7152426675,0.7891868134\C,0,
 -3.0138976104,-0.3850969077,1.2991855877\C,0,-3.0549187188,1.028681569
 8,1.7945657359\C,0,-4.3177420089,1.4502696781,1.1816425582\C,0,-3.0676
 429451,1.1352563449,3.4092562402\C,0,-1.9243981695,-0.6273187211,0.158
 9897093\C,0,-0.4956252717,-0.5811613641,0.6805814404\C,0,0.4288148047,
 -0.6905356755,-0.5413639265\O,0,0.1340336202,-0.8475285306,-1.72614000
 71\O,0,1.6559641948,-0.3826682052,-0.0130366913\N,0,-7.1122488683,2.63
 25864685,0.2888198061\C,0,-5.9777279166,3.3328570531,0.7559314692\C,0,
 -6.3899239008,4.7438512487,0.6723954982\C,0,-7.7076955549,4.859137719,
 0.2864847749\C,0,-8.1471642439,3.5045673955,0.0442324218\C,0,-5.354377
 4716,5.7887683505,1.0496751227\C,0,-8.4928092889,6.0696972393,0.163356
 9482\C,0,-8.3943378438,7.1884779975,0.7693809974\N,0,-9.1550845496,0.7
 007470691,-0.5514417181\C,0,-9.8336508514,1.7940427286,-0.5611089244\C
 ,0,-11.1293768904,1.4926687114,-1.2215470144\C,0,-11.1755870459,0.1905
 365995,-1.3937894072\C,0,-9.8943370373,-0.3717373671,-1.050497251\C,0,
 -12.2868596237,2.3208773291,-1.4653659893\C,0,-12.3391477077,-0.683624
 4862,-1.8178311137\C,0,-12.2524571546,-1.0826884611,-3.2505157028\N,0,
 -7.1482277852,-1.3675915949,-0.1302456997\C,0,-8.2492592522,-2.1581943
 649,-0.5604576257\C,0,-7.8235443942,-3.6098415356,-0.5952798278\C,0,-6
 .3907768682,-3.5746404461,-0.2449665784\C,0,-6.1571294446,-2.197027658
 6,0.040425878\C,0,-8.5603283723,-4.803226421,-0.9738907722\C,0,-5.3314
 386068,-4.3794915126,0.1188868628\O,0,-5.1854195343,-5.6018670437,0.11
 43773863\C,0,-4.1661411167,-3.3358810355,0.4507633979\C,0,-3.519136090
 4,-3.652843227,1.8454505136\O,0,-3.7846912525,-3.137891147,2.769700328
 2\O,0,-2.6374891017,-4.6155301715,1.7815171892\C,0,-2.1806570227,-4.99
 15743633,3.0782152219\C,0,2.8049468151,-0.4900372926,-1.0099345107\C,0
 ,4.0640672919,-0.3858938573,-0.3514677096\C,0,5.1692224135,0.333579886
 ,-0.7554084178\C,0,5.0186555912,1.4150091762,-1.8350876438\C,0,6.47797
 40761,0.2993405501,-0.0084113655\C,0,7.6605075034,-0.21702025,-0.82913
 3242\C,0,8.9842961412,-0.1828000961,-0.0598020826\C,0,10.181703631,-0.
 6478464478,-0.838359556\C,0,9.9929025669,-2.0929971796,-1.2810150675\C
 ,0,11.4161362774,-0.3114860397,-0.0124292054\C,0,12.7298107166,-0.5607
 161051,-0.6270602111\C,0,13.9536666385,-0.3225179661,0.2623426459\C,0,
 15.3290788989,-0.3550445881,-0.4267883313\C,0,15.6861648875,-1.7676151
 498,-0.9408359099\C,0,16.456512644,0.3315696743,0.3958943241\C,0,17.78
 18057683,0.4655702866,-0.3790144284\C,0,18.6518956082,1.4278708656,0.5
 218754442\C,0,20.1697897834,1.4403634688,0.0194186479\C,0,20.270739919
 8,2.0738646916,-1.3162763235\C,0,20.9692319902,2.1609577957,1.20844478
 45\H,0,-4.0625666202,3.4530285543,1.6332394197\H,0,-10.0780099243,3.88
 39906736,-0.5108156078\H,0,-10.342198644,-2.535009036,-1.1227600954\H,
 0,-2.6984571329,-1.0009502977,2.0975162423\H,0,-2.1085943257,1.6028123
 423,1.3966333123\H,0,-2.1766107475,0.7928783942,3.8468350209\H,0,-3.40
 89480039,2.2148507079,3.7128093031\H,0,-3.9376565662,0.4484700013,3.67
 39690821\H,0,-2.1079259116,-1.5535460254,-0.3865566628\H,0,-1.83323969
 3,0.2547230921,-0.6253192665\H,0,-0.0237778065,0.27302689,1.3438982528
 \H,0,-0.2945778781,-1.432334,1.337647223\H,0,-5.7535295307,6.888826394
 6,0.769826814\H,0,-5.4753690082,5.8213350149,2.131935206\H,0,-4.360710
 9157,5.4105653245,0.636084341\H,0,-9.2829985597,6.262249607,-0.6489562
 483\H,0,-9.0023292966,7.9933490559,0.3387036461\H,0,-7.6609240245,7.40
 25770941,1.3324722075\H,0,-11.9023507081,3.2754066878,-2.1474305746\H,
 0,-13.2795852562,1.8912278652,-1.8289386221\H,0,-12.415942627,3.155492
 8834,-0.4879892384\H,0,-12.3270146664,-1.4644873715,-1.1078642873\H,0,
 -13.3282551246,-0.1415968702,-1.79755551\H,0,-12.9804532445,-1.7609397
 561,-3.5352444825\H,0,-12.1616265684,-0.3037688482,-3.9050894873\H,0,-
 11.2669715366,-1.6127523024,-3.6155898372\H,0,-8.8824928679,-4.7765841
 592,-1.9678228453\H,0,-8.0921235976,-5.9016761209,-0.895009456\H,0,-9.
 5302872077,-4.8911975682,-0.4022224909\H,0,-3.371174636,-3.7872153271,
 -0.2628940275\H,0,-1.6585792455,-4.3020424176,3.7549172093\H,0,-3.1173
 581731,-5.4791574406,3.7323942771\H,0,-1.3996004805,-5.9408248673,2.84
 79781589\H,0,2.8925773125,-1.4773243552,-1.4408155303\H,0,2.7167981211
 ,0.3691449993,-1.835464604\H,0,4.2893094176,-0.7648649003,0.6145728575
 \H,0,4.0260879203,1.7013356763,-2.1436348492\H,0,5.3810650387,2.371917
 6157,-1.4453419726\H,0,5.5617257411,1.1204932402,-2.7893451914\H,0,6.7
 539235763,1.5031002906,0.2035199659\H,0,6.4016780399,-0.2596333,0.9645
 926548\H,0,7.4635984826,-1.388719545,-0.9723419914\H,0,7.6841109696,0.
 3936784708,-1.7345242753\H,0,9.308676912,0.9669361911,0.1449969278\H,0
 ,9.0158847093,-0.6313614888,0.8315492783\H,0,10.4470993417,-0.01347519
 97,-1.7734225003\H,0,9.1645960687,-2.1566339469,-1.727531135\H,0,10.70
 02691675,-2.4542288222,-2.0805834164\H,0,9.9365058477,-2.9494290576,-0
 .5751949132\H,0,11.2734489865,0.7208085143,0.2840961804\H,0,11.3535229
 478,-0.9955408517,0.9925755777\H,0,12.7377117237,-1.5258800073,-1.1629
 285644\H,0,12.7981956495,-0.0821932833,-1.5744117749\H,0,13.8322546458
 ,0.7480101643,0.5334081695\H,0,14.0926175724,-1.1024566246,1.083210695
 1\H,0,15.256966098,0.2569790949,-1.3901702858\H,0,15.7339271895,-2.313
 5206933,-0.1604541809\H,0,15.1571473591,-1.8937438944,-1.9182131948\H,
 0,16.7394822278,-1.995560453,-1.0714836617\H,0,16.2624395175,1.3860369
 374,0.808876804\H,0,16.5424583236,-0.3909953843,1.3063891336\H,0,18.50
 82075585,-0.5073272467,-0.241604356\H,0,17.5154088505,0.6873676309,-1.
 4169074343\H,0,18.1575348104,2.4182830963,0.4222941762\H,0,18.91544750
 73,0.9772225618,1.6658398295\H,0,20.468626695,0.4912401216,-0.16320042
 78\H,0,19.6885056691,3.145175294,-1.5293451192\H,0,21.4696907699,2.219
 3930814,-1.7378017614\H,0,19.952313629,1.4503653267,-2.0183302174\H,0,
 20.8892227758,1.4308387248,2.0096646353\H,0,21.9777056634,2.3314536161
 ,0.7813947931\H,0,20.654175496,3.1373798552,1.460993236\\Version=ES64L
 -G16RevA.03\State=1-A\HF=-2933.4300833\RMSD=3.891e-09\PG=C01 [X(C55H72
 Mg1N4O5)]\\@


 The best way to pay for a lovely moment is to enjoy it.
 -- Richard Bach
 Job cpu time:       0 days 23 hours 19 minutes 33.5 seconds.
 Elapsed time:       0 days  5 hours 50 minutes 36.1 seconds.
 File lengths (MBytes):  RWF=   6809 Int=      0 D2E=      0 Chk=    181 Scr=      1
 Normal termination of Gaussian 16 at Mon Sep  9 18:37:22 2019.
