 Entering Gaussian System, Link 0=g16
 Input=Geometria-43-.com
 Output=Geometria-43-.log
 Initial command:
 /usr/local/g16/l1.exe "/home/padawan/israel-mol/chlorophyll-a/spectra/emi/Gau-5779.inp" -scrdir="/home/padawan/israel-mol/chlorophyll-a/spectra/emi/"
 Entering Link 1 = /usr/local/g16/l1.exe PID=      5781.
  
 Copyright (c) 1988,1990,1992,1993,1995,1998,2003,2009,2016,
            Gaussian, Inc.  All Rights Reserved.
  
 This is part of the Gaussian(R) 16 program.  It is based on
 the Gaussian(R) 09 system (copyright 2009, Gaussian, Inc.),
 the Gaussian(R) 03 system (copyright 2003, Gaussian, Inc.),
 the Gaussian(R) 98 system (copyright 1998, Gaussian, Inc.),
 the Gaussian(R) 94 system (copyright 1995, Gaussian, Inc.),
 the Gaussian 92(TM) system (copyright 1992, Gaussian, Inc.),
 the Gaussian 90(TM) system (copyright 1990, Gaussian, Inc.),
 the Gaussian 88(TM) system (copyright 1988, Gaussian, Inc.),
 the Gaussian 86(TM) system (copyright 1986, Carnegie Mellon
 University), and the Gaussian 82(TM) system (copyright 1983,
 Carnegie Mellon University). Gaussian is a federally registered
 trademark of Gaussian, Inc.
  
 This software contains proprietary and confidential information,
 including trade secrets, belonging to Gaussian, Inc.
  
 This software is provided under written license and may be
 used, copied, transmitted, or stored only in accord with that
 written license.
  
 The following legend is applicable only to US Government
 contracts under FAR:
  
                    RESTRICTED RIGHTS LEGEND
  
 Use, reproduction and disclosure by the US Government is
 subject to restrictions as set forth in subparagraphs (a)
 and (c) of the Commercial Computer Software - Restricted
 Rights clause in FAR 52.227-19.
  
 Gaussian, Inc.
 340 Quinnipiac St., Bldg. 40, Wallingford CT 06492
  
  
 ---------------------------------------------------------------
 Warning -- This program may not be used in any manner that
 competes with the business of Gaussian, Inc. or will provide
 assistance to any competitor of Gaussian, Inc.  The licensee
 of this program is prohibited from giving any competitor of
 Gaussian, Inc. access to this program.  By using this program,
 the user acknowledges that Gaussian, Inc. is engaged in the
 business of creating and licensing software in the field of
 computational chemistry and represents and warrants to the
 licensee that it is not a competitor of Gaussian, Inc. and that
 it will not use this program in any manner prohibited above.
 ---------------------------------------------------------------
  

 Cite this work as:
 Gaussian 16, Revision A.03,
 M. J. Frisch, G. W. Trucks, H. B. Schlegel, G. E. Scuseria, 
 M. A. Robb, J. R. Cheeseman, G. Scalmani, V. Barone, 
 G. A. Petersson, H. Nakatsuji, X. Li, M. Caricato, A. V. Marenich, 
 J. Bloino, B. G. Janesko, R. Gomperts, B. Mennucci, H. P. Hratchian, 
 J. V. Ortiz, A. F. Izmaylov, J. L. Sonnenberg, D. Williams-Young, 
 F. Ding, F. Lipparini, F. Egidi, J. Goings, B. Peng, A. Petrone, 
 T. Henderson, D. Ranasinghe, V. G. Zakrzewski, J. Gao, N. Rega, 
 G. Zheng, W. Liang, M. Hada, M. Ehara, K. Toyota, R. Fukuda, 
 J. Hasegawa, M. Ishida, T. Nakajima, Y. Honda, O. Kitao, H. Nakai, 
 T. Vreven, K. Throssell, J. A. Montgomery, Jr., J. E. Peralta, 
 F. Ogliaro, M. J. Bearpark, J. J. Heyd, E. N. Brothers, K. N. Kudin, 
 V. N. Staroverov, T. A. Keith, R. Kobayashi, J. Normand, 
 K. Raghavachari, A. P. Rendell, J. C. Burant, S. S. Iyengar, 
 J. Tomasi, M. Cossi, J. M. Millam, M. Klene, C. Adamo, R. Cammi, 
 J. W. Ochterski, R. L. Martin, K. Morokuma, O. Farkas, 
 J. B. Foresman, and D. J. Fox, Gaussian, Inc., Wallingford CT, 2016.
 
 ******************************************
 Gaussian 16:  ES64L-G16RevA.03 25-Dec-2016
                 4-Sep-2019 
 ******************************************
 %nproc=4
 Will use up to    4 processors via shared memory.
 %Mem=3GB
 ----------------------------------------------------------------------
 # td=(NStates=1) iop(3/107=0140000000,3/108=0140000000) CAM-B3LYP/6-31
 G(d,p)
 ----------------------------------------------------------------------
 1/38=1,172=1/1;
 2/12=2,17=6,18=5,40=1/2;
 3/5=1,6=6,7=101,11=9,25=1,30=1,74=-40,107=140000000,108=140000000/1,2,3,8;
 4//1;
 5/5=2,38=5/2;
 8/6=1,10=2,108=1/1;
 9/41=1,42=1,70=2/14;
 6/7=2,8=2,9=2,10=2/1;
 99/5=1,9=1/99;
 --
 TD
 --
 Symbolic Z-matrix:
 Charge =  0 Multiplicity = 1
 12                   -7.12778   0.6452    0.12759 
 6                    -4.9027   -1.96759   0.54855 
 6                    -4.8399    2.76247   1.11432 
 6                    -9.36185   3.11289  -0.37309 
 6                    -9.53678  -1.71138  -0.8926 
 7                    -5.072     0.47355   0.69473 
 6                    -4.36436  -0.75665   0.83092 
 6                    -2.87062  -0.37956   1.21334 
 6                    -3.06467   1.10608   1.75413 
 6                    -4.3277    1.44484   1.15832 
 6                    -3.09092   1.03266   3.22849 
 6                    -1.86152  -0.52591   0.07744 
 6                    -0.46174  -0.37504   0.57472 
 6                     0.56799  -0.69522  -0.57263 
 8                     0.13192  -1.04445  -1.66238 
 8                     1.80367  -0.45991  -0.19275 
 7                    -7.09034   2.61292   0.33799 
 6                    -6.04095   3.38077   0.87766 
 6                    -6.33077   4.77799   0.89795 
 6                    -7.66285   4.79363   0.33677 
 6                    -8.10792   3.47672   0.07977 
 6                    -5.42209   5.85423   1.15529 
 6                    -8.4326    6.00224   0.14901 
 6                    -8.2382    7.25286   0.70097 
 7                    -9.07268   0.66948  -0.52726 
 6                    -9.85005   1.83239  -0.62375 
 6                    -11.20529   1.47551  -1.07987 
 6                    -11.17531   0.12702  -1.29634 
 6                    -9.86629  -0.34755  -0.91392 
 6                    -12.20787   2.49443  -1.34475 
 6                    -12.21202  -0.71235  -1.78352 
 6                    -12.03354  -1.14373  -3.23164 
 7                    -7.21432  -1.40386  -0.14583 
 6                    -8.22974  -2.21669  -0.52542 
 6                    -7.7653   -3.54748  -0.51162 
 6                    -6.46663  -3.53638  -0.12721 
 6                    -6.12008  -2.1448    0.02633 
 6                    -8.73893  -4.80378  -0.64314 
 6                    -5.2508   -4.29783   0.18705 
 8                    -5.16354  -5.56143   0.02731 
 6                    -4.17943  -3.22498   0.6018 
 6                    -3.59238  -3.69553   1.88803 
 8                    -3.88086  -3.174     3.01508 
 8                    -2.74494  -4.76089   1.82903 
 6                    -2.22091  -5.12908   3.10078 
 6                     2.75009  -0.49934  -1.29324 
 6                     4.11855  -0.381    -0.69035 
 6                     5.10613   0.24242  -1.15136 
 6                     5.01888   1.16031  -2.41894 
 6                     6.44953   0.36144  -0.41532 
 6                     7.62683  -0.21103  -1.13914 
 6                     8.92677  -0.17427  -0.21749 
 6                     10.14783  -0.60802  -0.91999 
 6                     10.13493  -2.08903  -1.36843 
 6                     11.35571  -0.39925   0.0177 
 6                     12.77107  -0.51753  -0.64375 
 6                     13.91314  -0.13372   0.22336 
 6                     15.27708  -0.29426  -0.50565 
 6                     15.58176  -1.76327  -0.92041 
 6                     16.37054   0.12648   0.51966 
 6                     17.74256   0.4017   -0.13412 
 6                     18.79061   1.22701   0.85528 
 6                     20.15629   1.50623   0.19138 
 6                     20.07701   2.53549  -0.93006 
 6                     21.09153   2.06164   1.30384 
 1                    -4.22324   3.63567   1.69167 
 1                    -9.85589   3.95053  -0.50941 
 1                    -10.55159  -2.19891  -1.074 
 1                    -2.65147  -0.99199   2.09621 
 1                    -2.21822   1.62999   1.33051 
 1                    -2.18914   0.64232   3.69974 
 1                    -3.36555   2.11872   3.56851 
 1                    -4.09791   0.5216    3.48823 
 1                    -2.04392  -1.49673  -0.45616 
 1                    -2.10508   0.1573   -0.60544 
 1                    -0.38886   0.70012   0.97934 
 1                    -0.37041  -1.21006   1.4584 
 1                    -5.45902   6.72424   0.46955 
 1                    -5.69269   6.35346   2.11164 
 1                    -4.37805   5.52324   0.86131 
 1                    -9.32136   5.64285  -0.39717 
 1                    -9.03939   8.0879    0.52286 
 1                    -7.40502   7.35441   1.27099 
 1                    -11.71029   3.43912  -1.69412 
 1                    -13.23517   2.35102  -1.96403 
 1                    -12.57249   2.9585   -0.15896 
 1                    -12.02975  -1.70568  -1.08123 
 1                    -13.25708  -0.35919  -1.71735 
 1                    -13.01428  -1.51189  -3.74776 
 1                    -11.9442  -0.15836  -3.9263 
 1                    -11.16864  -1.82066  -3.5206 
 1                    -9.57284  -4.77991  -1.55822 
 1                    -8.14951  -5.6747   -0.83462 
 1                    -9.37896  -4.85227   0.19054 
 1                    -3.43399  -3.51956  -0.20115 
 1                    -1.86203  -4.33411   3.73026 
 1                    -2.9517   -5.7061    3.76329 
 1                    -1.33819  -5.82101   2.69584 
 1                     2.55248  -1.45402  -1.60348 
 1                     2.52985   0.24857  -2.13344 
 1                     4.14868  -1.05127   0.17179 
 1                     3.9837    1.30855  -2.87825 
 1                     5.40479   2.17865  -2.36077 
 1                     5.60609   0.55515  -3.0659 
 1                     6.55313   1.40544  -0.19927 
 1                     6.39046   0.00788   0.60539 
 1                     7.52321  -1.16914  -1.40696 
 1                     7.63893   0.33384  -2.07167 
 1                     9.06721   0.86799  -0.09765 
 1                     8.62502  -0.69974   0.69219 
 1                     10.15653   0.05999  -1.89537 
 1                     9.27666  -2.24166  -1.97093 
 1                     11.11853  -2.15891  -1.77857 
 1                     10.21293  -2.75096  -0.40256 
 1                     11.29685   0.66417   0.44202 
 1                     11.28086  -0.88461   0.88958 
 1                     13.03101  -1.34602  -1.11931 
 1                     12.89529   0.05642  -1.47162 
 1                     13.57957   0.78442   0.53359 
 1                     13.95816  -0.75077   1.20188 
 1                     15.42841   0.39597  -1.22337 
 1                     15.58732  -2.33137   0.1218 
 1                     14.85736  -2.03058  -1.50727 
 1                     16.57518  -1.76047  -1.33057 
 1                     15.97993   0.96711   1.05438 
 1                     16.39546  -0.65566   1.14258 
 1                     17.94391  -0.62787  -0.34174 
 1                     17.7271   0.89799  -1.01199 
 1                     18.4909   2.24032   1.17093 
 1                     18.81084   0.61996   1.6535 
 1                     20.55768   0.50716  -0.16742 
 1                     19.66291   3.63118  -0.49966 
 1                     21.05829   2.77394  -1.23454 
 1                     19.39412   2.17513  -1.89067 
 1                     21.25145   1.29357   2.2463 
 1                     22.31866   2.26209   1.068 
 1                     20.72554   2.90527   1.80392 
 
 Stoichiometry    C55H72MgN4O5
 Framework group  C1[X(C55H72MgN4O5)]
 Deg. of freedom   405
 Full point group                 C1      NOp   1
 Largest Abelian subgroup         C1      NOp   1
 Largest concise Abelian subgroup C1      NOp   1
                         Standard orientation:                         
 ---------------------------------------------------------------------
 Center     Atomic      Atomic             Coordinates (Angstroms)
 Number     Number       Type             X           Y           Z
 ---------------------------------------------------------------------
      1         12           0       -7.125331    0.642479    0.124443
      2          6           0       -4.900078   -1.971548    0.536761
      3          6           0       -4.838045    2.756464    1.119558
      4          6           0       -9.359536    3.111681   -0.368118
      5          6           0       -9.533701   -1.710713   -0.905028
      6          7           0       -5.069729    0.469038    0.691657
      7          6           0       -4.361981   -0.761559    0.823667
      8          6           0       -2.868421   -0.385667    1.207943
      9          6           0       -3.062831    1.097991    1.754011
     10          6           0       -4.325703    1.438740    1.158993
     11          6           0       -3.089567    1.019264    3.228084
     12          6           0       -1.858917   -0.527812    0.071871
     13          6           0       -0.459324   -0.378565    0.570165
     14          6           0        0.570835   -0.694489   -0.577978
     15          8           0        0.135181   -1.039853   -1.669131
     16          8           0        1.806358   -0.460398   -0.196842
     17          7           0       -7.088200    2.609435    0.341935
     18          6           0       -6.039094    3.375463    0.884718
     19          6           0       -6.329084    4.772569    0.909928
     20          6           0       -7.660979    4.790064    0.348358
     21          6           0       -8.105801    3.474036    0.086469
     22          6           0       -5.420629    5.847986    1.171442
     23          6           0       -8.430814    5.999248    0.164679
     24          6           0       -8.236752    7.247902    0.721208
     25          7           0       -9.070011    0.668881   -0.530974
     26          6           0       -9.847495    1.832029   -0.623542
     27          6           0      -11.202539    1.476629   -1.081410
     28          6           0      -11.172315    0.128933   -1.302714
     29          6           0       -9.863374   -0.346857   -0.921563
     30          6           0      -12.205150    2.496382   -1.342965
     31          6           0      -12.208766   -0.708802   -1.793259
     32          6           0      -12.029733   -1.134957   -3.242866
     33          7           0       -7.211537   -1.405593   -0.156370
     34          6           0       -8.226722   -2.217180   -0.539232
     35          6           0       -7.762127   -3.547951   -0.530057
     36          6           0       -6.463594   -3.538078   -0.145172
     37          6           0       -6.117256   -2.147023    0.013498
     38          6           0       -8.735557   -4.803888   -0.666420
     39          6           0       -5.247774   -4.300514    0.166769
     40          8           0       -5.160304   -5.563521    0.002511
     41          6           0       -4.176677   -3.229030    0.585732
     42          6           0       -3.590007   -3.704129    1.870468
     43          8           0       -3.878930   -3.186698    2.999288
     44          8           0       -2.742414   -4.769176    1.807922
     45          6           0       -2.218772   -5.141867    3.078513
     46          6           0        2.753158   -0.495759   -1.297144
     47          6           0        4.121400   -0.379428   -0.693367
     48          6           0        5.109054    0.245768   -1.151793
     49          6           0        5.022122    1.168203   -2.416092
     50          6           0        6.452195    0.362298   -0.414878
     51          6           0        7.629813   -0.207420   -1.140354
     52          6           0        8.929432   -0.173818   -0.218131
     53          6           0       10.150783   -0.604896   -0.921771
     54          6           0       10.138211   -2.084279   -1.375545
     55          6           0       11.358319   -0.399356    0.017075
     56          6           0       12.773923   -0.515084   -0.644322
     57          6           0       13.915650   -0.134254    0.224551
     58          6           0       15.279857   -0.292007   -0.504564
     59          6           0       15.584857   -1.759486   -0.924508
     60          6           0       16.372919    0.125172    0.522617
     61          6           0       17.745125    0.402911   -0.129701
     62          6           0       18.792737    1.224780    0.863015
     63          6           0       20.158607    1.506549    0.200584
     64          6           0       20.079584    2.539827   -0.917168
     65          6           0       21.093408    2.058066    1.315360
     66          1           0       -4.221690    3.627648    1.700248
     67          1           0       -9.853626    3.949744   -0.501588
     68          1           0      -10.548390   -2.197702   -1.088523
     69          1           0       -2.649495   -1.001244    2.088679
     70          1           0       -2.216296    1.623519    1.332560
     71          1           0       -2.187906    0.627347    3.698236
     72          1           0       -3.364453    2.104066    3.571921
     73          1           0       -4.096590    0.507153    3.485646
     74          1           0       -2.041016   -1.496731   -0.465283
     75          1           0       -2.102323    0.157822   -0.608629
     76          1           0       -0.386714    0.695142    0.978674
     77          1           0       -0.368185   -1.216748    1.450866
     78          1           0       -5.457428    6.720447    0.488824
     79          1           0       -5.691610    6.343735    2.129497
     80          1           0       -4.376447    5.518173    0.876630
     81          1           0       -9.319345    5.641714   -0.383088
     82          1           0       -9.037984    8.083475    0.545827
     83          1           0       -7.403774    7.347500    1.291864
     84          1           0      -11.707566    3.442381   -1.688758
     85          1           0      -13.232222    2.355076   -1.963104
     86          1           0      -12.570225    2.956140   -0.155630
     87          1           0      -12.026613   -1.704633   -1.094487
     88          1           0      -13.253884   -0.356009   -1.726174
     89          1           0      -13.010255   -1.501377   -3.760631
     90          1           0      -11.940287   -0.147085   -3.933946
     91          1           0      -11.164659   -1.810738   -3.533962
     92          1           0       -9.569165   -4.776835   -1.581696
     93          1           0       -8.145970   -5.674050   -0.860836
     94          1           0       -9.375870   -4.855459    0.166857
     95          1           0       -3.430928   -3.520630   -0.218015
     96          1           0       -1.860200   -4.349120    3.710976
     97          1           0       -2.949717   -5.721355    3.738695
     98          1           0       -1.335834   -5.832235    2.671392
     99          1           0        2.555771   -1.449345   -1.610881
    100          1           0        2.533110    0.255142   -2.134725
    101          1           0        4.151312   -1.052791    0.166368
    102          1           0        3.987088    1.317962   -2.875219
    103          1           0        5.407890    2.186368   -2.354137
    104          1           0        5.609629    0.565437   -3.065031
    105          1           0        6.555598    1.405531   -0.195038
    106          1           0        6.392818    0.005070    0.604533
    107          1           0        7.526400   -1.164572   -1.411644
    108          1           0        7.642155    0.340803   -2.070909
    109          1           0        9.069707    0.868017   -0.094496
    110          1           0        8.627433   -0.702591    0.689545
    111          1           0       10.159732    0.066623   -1.894747
    112          1           0        9.280164   -2.234851   -1.978872
    113          1           0       11.121963   -2.152568   -1.785599
    114          1           0       10.215971   -2.749671   -0.412028
    115          1           0       11.299188    0.662532    0.445194
    116          1           0       11.283228   -0.887852    0.887170
    117          1           0       13.034120   -1.341827   -1.122772
    118          1           0       12.898344    0.061857   -1.470080
    119          1           0       13.581860    0.782727    0.537967
    120          1           0       13.960415   -0.754816    1.200865
    121          1           0       15.431346    0.400819   -1.219753
    122          1           0       15.590131   -2.331327    0.115662
    123          1           0       14.860681   -2.024764   -1.512569
    124          1           0       16.578407   -1.755084   -1.334314
    125          1           0       15.982023    0.963823    1.060228
    126          1           0       16.397722   -0.659201    1.142734
    127          1           0       17.946670   -0.625885   -0.340958
    128          1           0       17.729900    0.902347   -1.005782
    129          1           0       18.492796    2.236907    1.182205
    130          1           0       18.812768    0.614862    1.659054
    131          1           0       20.560237    0.508826   -0.161667
    132          1           0       19.665208    3.633915   -0.482976
    133          1           0       21.060938    2.779486   -1.220459
    134          1           0       19.397061    2.182838   -1.879299
    135          1           0       21.253097    1.286638    2.255100
    136          1           0       22.320589    2.259509    1.080658
    137          1           0       20.727145    2.899847    1.818339
 ---------------------------------------------------------------------
 Rotational constants (GHZ):           0.0642122           0.0061394           0.0057845
 Standard basis: 6-31G(d,p) (6D, 7F)
 There are  1339 symmetry adapted cartesian basis functions of A   symmetry.
 There are  1339 symmetry adapted basis functions of A   symmetry.
  1339 basis functions,  2348 primitive gaussians,  1339 cartesian basis functions
   241 alpha electrons      241 beta electrons
       nuclear repulsion energy      8781.7328443950 Hartrees.
 NAtoms=  137 NActive=  137 NUniq=  137 SFac= 1.00D+00 NAtFMM=   60 NAOKFM=T Big=T
 Integral buffers will be    131072 words long.
 Raffenetti 1 integral format.
 Two-electron integral symmetry is turned on.
 One-electron integrals computed using PRISM.
 NBasis=  1339 RedAO= T EigKep=  2.89D-04  NBF=  1339
 NBsUse=  1339 1.00D-06 EigRej= -1.00D+00 NBFU=  1339
 ExpMin= 4.21D-02 ExpMax= 1.17D+04 ExpMxC= 1.76D+03 IAcc=3 IRadAn=         5 AccDes= 0.00D+00
 Harris functional with IExCor=20419 and IRadAn=       5 diagonalized for initial guess.
 HarFok:  IExCor=20419 AccDes= 0.00D+00 IRadAn=         5 IDoV= 1 UseB2=F ITyADJ=14
 ICtDFT=  3500011 ScaDFX=  1.000000  1.000000  1.000000  1.000000
 FoFCou: FMM=F IPFlag=           0 FMFlag=      100000 FMFlg1=        2001
         NFxFlg=           0 DoJE=T BraDBF=F KetDBF=T FulRan=T
         wScrn=  0.000000 ICntrl=       500 IOpCl=  0 I1Cent=   200000004 NGrid=           0
         NMat0=    1 NMatS0=      1 NMatT0=    0 NMatD0=    1 NMtDS0=    0 NMtDT0=    0
 Petite list used in FoFCou.
 Requested convergence on RMS density matrix=1.00D-08 within 128 cycles.
 Requested convergence on MAX density matrix=1.00D-06.
 Requested convergence on             energy=1.00D-06.
 No special actions if energy rises.
 EnCoef did     1 forward-backward iterations
 SCF Done:  E(RCAM-B3LYP) =  -2933.48635986     A.U. after   16 cycles
            NFock= 16  Conv=0.53D-08     -V/T= 2.0086
 DoSCS=F DFT=T ScalE2(SS,OS)=  1.000000  1.000000
 ExpMin= 4.21D-02 ExpMax= 1.17D+04 ExpMxC= 1.76D+03 IAcc=3 IRadAn=         5 AccDes= 0.00D+00
 HarFok:  IExCor=  205 AccDes= 0.00D+00 IRadAn=         5 IDoV=-2 UseB2=F ITyADJ=14
 ICtDFT= 12500011 ScaDFX=  1.000000  1.000000  1.000000  1.000000
 GSVD:  LWork=       -5313 too small for GESVD, short by       24840 words or       24840 for optimal perf.
 Range of M.O.s used for correlation:    70  1339
 NBasis=  1339 NAE=   241 NBE=   241 NFC=    69 NFV=     0
 NROrb=   1270 NOA=   172 NOB=   172 NVA=  1098 NVB=  1098
 Orbital symmetries:
       Occupied  (A) (A) (A) (A) (A) (A) (A) (A) (A) (A) (A) (A)
                 (A) (A) (A) (A) (A) (A) (A) (A) (A) (A) (A) (A)
                 (A) (A) (A) (A) (A) (A) (A) (A) (A) (A) (A) (A)
                 (A) (A) (A) (A) (A) (A) (A) (A) (A) (A) (A) (A)
                 (A) (A) (A) (A) (A) (A) (A) (A) (A) (A) (A) (A)
                 (A) (A) (A) (A) (A) (A) (A) (A) (A) (A) (A) (A)
                 (A) (A) (A) (A) (A) (A) (A) (A) (A) (A) (A) (A)
                 (A) (A) (A) (A) (A) (A) (A) (A) (A) (A) (A) (A)
                 (A) (A) (A) (A) (A) (A) (A) (A) (A) (A) (A) (A)
                 (A) (A) (A) (A) (A) (A) (A) (A) (A) (A) (A) (A)
                 (A) (A) (A) (A) (A) (A) (A) (A) (A) (A) (A) (A)
                 (A) (A) (A) (A) (A) (A) (A) (A) (A) (A) (A) (A)
                 (A) (A) (A) (A) (A) (A) (A) (A) (A) (A) (A) (A)
                 (A) (A) (A) (A) (A) (A) (A) (A) (A) (A) (A) (A)
                 (A) (A) (A) (A) (A) (A) (A) (A) (A) (A) (A) (A)
                 (A) (A) (A) (A) (A) (A) (A) (A) (A) (A) (A) (A)
                 (A) (A) (A) (A) (A) (A) (A) (A) (A) (A) (A) (A)
                 (A) (A) (A) (A) (A) (A) (A) (A) (A) (A) (A) (A)
                 (A) (A) (A) (A) (A) (A) (A) (A) (A) (A) (A) (A)
                 (A) (A) (A) (A) (A) (A) (A) (A) (A) (A) (A) (A)
                 (A)
       Virtual   (A) (A) (A) (A) (A) (A) (A) (A) (A) (A) (A) (A)
                 (A) (A) (A) (A) (A) (A) (A) (A) (A) (A) (A) (A)
                 (A) (A) (A) (A) (A) (A) (A) (A) (A) (A) (A) (A)
                 (A) (A) (A) (A) (A) (A) (A) (A) (A) (A) (A) (A)
                 (A) (A) (A) (A) (A) (A) (A) (A) (A) (A) (A) (A)
                 (A) (A) (A) (A) (A) (A) (A) (A) (A) (A) (A) (A)
                 (A) (A) (A) (A) (A) (A) (A) (A) (A) (A) (A) (A)
                 (A) (A) (A) (A) (A) (A) (A) (A) (A) (A) (A) (A)
                 (A) (A) (A) (A) (A) (A) (A) (A) (A) (A) (A) (A)
                 (A) (A) (A) (A) (A) (A) (A) (A) (A) (A) (A) (A)
                 (A) (A) (A) (A) (A) (A) (A) (A) (A) (A) (A) (A)
                 (A) (A) (A) (A) (A) (A) (A) (A) (A) (A) (A) (A)
                 (A) (A) (A) (A) (A) (A) (A) (A) (A) (A) (A) (A)
                 (A) (A) (A) (A) (A) (A) (A) (A) (A) (A) (A) (A)
                 (A) (A) (A) (A) (A) (A) (A) (A) (A) (A) (A) (A)
                 (A) (A) (A) (A) (A) (A) (A) (A) (A) (A) (A) (A)
                 (A) (A) (A) (A) (A) (A) (A) (A) (A) (A) (A) (A)
                 (A) (A) (A) (A) (A) (A) (A) (A) (A) (A) (A) (A)
                 (A) (A) (A) (A) (A) (A) (A) (A) (A) (A) (A) (A)
                 (A) (A) (A) (A) (A) (A) (A) (A) (A) (A) (A) (A)
                 (A) (A) (A) (A) (A) (A) (A) (A) (A) (A) (A) (A)
                 (A) (A) (A) (A) (A) (A) (A) (A) (A) (A) (A) (A)
                 (A) (A) (A) (A) (A) (A) (A) (A) (A) (A) (A) (A)
                 (A) (A) (A) (A) (A) (A) (A) (A) (A) (A) (A) (A)
                 (A) (A) (A) (A) (A) (A) (A) (A) (A) (A) (A) (A)
                 (A) (A) (A) (A) (A) (A) (A) (A) (A) (A) (A) (A)
                 (A) (A) (A) (A) (A) (A) (A) (A) (A) (A) (A) (A)
                 (A) (A) (A) (A) (A) (A) (A) (A) (A) (A) (A) (A)
                 (A) (A) (A) (A) (A) (A) (A) (A) (A) (A) (A) (A)
                 (A) (A) (A) (A) (A) (A) (A) (A) (A) (A) (A) (A)
                 (A) (A) (A) (A) (A) (A) (A) (A) (A) (A) (A) (A)
                 (A) (A) (A) (A) (A) (A) (A) (A) (A) (A) (A) (A)
                 (A) (A) (A) (A) (A) (A) (A) (A) (A) (A) (A) (A)
                 (A) (A) (A) (A) (A) (A) (A) (A) (A) (A) (A) (A)
                 (A) (A) (A) (A) (A) (A) (A) (A) (A) (A) (A) (A)
                 (A) (A) (A) (A) (A) (A) (A) (A) (A) (A) (A) (A)
                 (A) (A) (A) (A) (A) (A) (A) (A) (A) (A) (A) (A)
                 (A) (A) (A) (A) (A) (A) (A) (A) (A) (A) (A) (A)
                 (A) (A) (A) (A) (A) (A) (A) (A) (A) (A) (A) (A)
                 (A) (A) (A) (A) (A) (A) (A) (A) (A) (A) (A) (A)
                 (A) (A) (A) (A) (A) (A) (A) (A) (A) (A) (A) (A)
                 (A) (A) (A) (A) (A) (A) (A) (A) (A) (A) (A) (A)
                 (A) (A) (A) (A) (A) (A) (A) (A) (A) (A) (A) (A)
                 (A) (A) (A) (A) (A) (A) (A) (A) (A) (A) (A) (A)
                 (A) (A) (A) (A) (A) (A) (A) (A) (A) (A) (A) (A)
                 (A) (A) (A) (A) (A) (A) (A) (A) (A) (A) (A) (A)
                 (A) (A) (A) (A) (A) (A) (A) (A) (A) (A) (A) (A)
                 (A) (A) (A) (A) (A) (A) (A) (A) (A) (A) (A) (A)
                 (A) (A) (A) (A) (A) (A) (A) (A) (A) (A) (A) (A)
                 (A) (A) (A) (A) (A) (A) (A) (A) (A) (A) (A) (A)
                 (A) (A) (A) (A) (A) (A) (A) (A) (A) (A) (A) (A)
                 (A) (A) (A) (A) (A) (A) (A) (A) (A) (A) (A) (A)
                 (A) (A) (A) (A) (A) (A) (A) (A) (A) (A) (A) (A)
                 (A) (A) (A) (A) (A) (A) (A) (A) (A) (A) (A) (A)
                 (A) (A) (A) (A) (A) (A) (A) (A) (A) (A) (A) (A)
                 (A) (A) (A) (A) (A) (A) (A) (A) (A) (A) (A) (A)
                 (A) (A) (A) (A) (A) (A) (A) (A) (A) (A) (A) (A)
                 (A) (A) (A) (A) (A) (A) (A) (A) (A) (A) (A) (A)
                 (A) (A) (A) (A) (A) (A) (A) (A) (A) (A) (A) (A)
                 (A) (A) (A) (A) (A) (A) (A) (A) (A) (A) (A) (A)
                 (A) (A) (A) (A) (A) (A) (A) (A) (A) (A) (A) (A)
                 (A) (A) (A) (A) (A) (A) (A) (A) (A) (A) (A) (A)
                 (A) (A) (A) (A) (A) (A) (A) (A) (A) (A) (A) (A)
                 (A) (A) (A) (A) (A) (A) (A) (A) (A) (A) (A) (A)
                 (A) (A) (A) (A) (A) (A) (A) (A) (A) (A) (A) (A)
                 (A) (A) (A) (A) (A) (A) (A) (A) (A) (A) (A) (A)
                 (A) (A) (A) (A) (A) (A) (A) (A) (A) (A) (A) (A)
                 (A) (A) (A) (A) (A) (A) (A) (A) (A) (A) (A) (A)
                 (A) (A) (A) (A) (A) (A) (A) (A) (A) (A) (A) (A)
                 (A) (A) (A) (A) (A) (A) (A) (A) (A) (A) (A) (A)
                 (A) (A) (A) (A) (A) (A) (A) (A) (A) (A) (A) (A)
                 (A) (A) (A) (A) (A) (A) (A) (A) (A) (A) (A) (A)
                 (A) (A) (A) (A) (A) (A) (A) (A) (A) (A) (A) (A)
                 (A) (A) (A) (A) (A) (A) (A) (A) (A) (A) (A) (A)
                 (A) (A) (A) (A) (A) (A) (A) (A) (A) (A) (A) (A)
                 (A) (A) (A) (A) (A) (A) (A) (A) (A) (A) (A) (A)
                 (A) (A) (A) (A) (A) (A) (A) (A) (A) (A) (A) (A)
                 (A) (A) (A) (A) (A) (A) (A) (A) (A) (A) (A) (A)
                 (A) (A) (A) (A) (A) (A) (A) (A) (A) (A) (A) (A)
                 (A) (A) (A) (A) (A) (A) (A) (A) (A) (A) (A) (A)
                 (A) (A) (A) (A) (A) (A) (A) (A) (A) (A) (A) (A)
                 (A) (A) (A) (A) (A) (A) (A) (A) (A) (A) (A) (A)
                 (A) (A) (A) (A) (A) (A) (A) (A) (A) (A) (A) (A)
                 (A) (A) (A) (A) (A) (A) (A) (A) (A) (A) (A) (A)
                 (A) (A) (A) (A) (A) (A) (A) (A) (A) (A) (A) (A)
                 (A) (A) (A) (A) (A) (A) (A) (A) (A) (A) (A) (A)
                 (A) (A) (A) (A) (A) (A) (A) (A) (A) (A) (A) (A)
                 (A) (A) (A) (A) (A) (A) (A) (A) (A) (A) (A) (A)
                 (A) (A) (A) (A) (A) (A) (A) (A) (A) (A) (A) (A)
                 (A) (A) (A) (A) (A) (A) (A) (A) (A) (A) (A) (A)
                 (A) (A) (A) (A) (A) (A) (A) (A) (A) (A) (A) (A)
                 (A) (A) (A) (A) (A) (A)
     4 initial guesses have been made.
 Convergence on wavefunction:    0.001000000000000
 Iteration     1 Dimension     4 NMult     0 NNew      4
 CISAX will form     4 AO SS matrices at one time.
 New state      1 was old state      2
 Iteration     2 Dimension     6 NMult     4 NNew      2
 Iteration     3 Dimension     8 NMult     6 NNew      2
 Iteration     4 Dimension    10 NMult     8 NNew      2
 Iteration     5 Dimension    12 NMult    10 NNew      2
 Iteration     6 Dimension    14 NMult    12 NNew      2
 Iteration     7 Dimension    16 NMult    14 NNew      2
 Iteration     8 Dimension    18 NMult    16 NNew      2
 Iteration     9 Dimension    20 NMult    18 NNew      2
 Iteration    10 Dimension    22 NMult    20 NNew      2
 ***********************************************************************
 Excited states from <AA,BB:AA,BB> singles matrix:
 ***********************************************************************
 
 Ground to excited state transition densities written to RWF  633
 Ground to excited state transition electric dipole moments (Au):
       state          X           Y           Z        Dip. S.      Osc.
         1        -0.1795     -2.2330     -0.3240      5.1235      0.2518
 Ground to excited state transition velocity dipole moments (Au):
       state          X           Y           Z        Dip. S.      Osc.
         1         0.0128      0.1587      0.0239      0.0259      0.2346
 Ground to excited state transition magnetic dipole moments (Au):
       state          X           Y           Z
         1         0.2721      0.4421     -2.9566
 Ground to excited state transition velocity quadrupole moments (Au):
       state          XX          YY          ZZ          XY          XZ          YZ
         1        -0.4282      0.3705      0.0268     -2.0019     -0.3097      0.1564
 <0|del|b> * <b|rxdel|0> + <0|del|b> * <b|delr+rdel|0>
 Rotatory Strengths (R) in cgs (10**-40 erg-esu-cm/Gauss)
       state          XX          YY          ZZ    R(velocity)    E-M Angle
         1         3.6068    -83.1383    107.9728      9.4804       89.65
 1/2[<0|r|b>*<b|rxdel|0> + (<0|rxdel|b>*<b|r|0>)*]
 Rotatory Strengths (R) in cgs (10**-40 erg-esu-cm/Gauss)
       state          XX          YY          ZZ     R(length)
         1        34.5321    698.1960   -677.4198     18.4361
  1/2[<0|del|b>*<b|r|0> + (<0|r|b>*<b|del|0>)*] (Au)
       state          X           Y           Z        Dip. S.   Osc.(frdel)
         1        -0.0023     -0.3545     -0.0077      0.3645      0.2430

 Excitation energies and oscillator strengths:
 
 Excited State   1:      Singlet-A      2.0058 eV  618.13 nm  f=0.2518  <S**2>=0.000
     240 -> 243        0.23391
     241 -> 242        0.66415
 This state for optimization and/or second-order correction.
 Total Energy, E(TD-HF/TD-DFT) =  -2933.41264878    
 Copying the excited state density for this state as the 1-particle RhoCI density.
 SavETr:  write IOETrn=   770 NScale= 10 NData=  16 NLR=1 NState=    1 LETran=      28.
 Hyperfine terms turned off by default for NAtoms > 100.

 **********************************************************************

            Population analysis using the SCF density.

 **********************************************************************

 Orbital symmetries:
       Occupied  (A) (A) (A) (A) (A) (A) (A) (A) (A) (A) (A) (A)
                 (A) (A) (A) (A) (A) (A) (A) (A) (A) (A) (A) (A)
                 (A) (A) (A) (A) (A) (A) (A) (A) (A) (A) (A) (A)
                 (A) (A) (A) (A) (A) (A) (A) (A) (A) (A) (A) (A)
                 (A) (A) (A) (A) (A) (A) (A) (A) (A) (A) (A) (A)
                 (A) (A) (A) (A) (A) (A) (A) (A) (A) (A) (A) (A)
                 (A) (A) (A) (A) (A) (A) (A) (A) (A) (A) (A) (A)
                 (A) (A) (A) (A) (A) (A) (A) (A) (A) (A) (A) (A)
                 (A) (A) (A) (A) (A) (A) (A) (A) (A) (A) (A) (A)
                 (A) (A) (A) (A) (A) (A) (A) (A) (A) (A) (A) (A)
                 (A) (A) (A) (A) (A) (A) (A) (A) (A) (A) (A) (A)
                 (A) (A) (A) (A) (A) (A) (A) (A) (A) (A) (A) (A)
                 (A) (A) (A) (A) (A) (A) (A) (A) (A) (A) (A) (A)
                 (A) (A) (A) (A) (A) (A) (A) (A) (A) (A) (A) (A)
                 (A) (A) (A) (A) (A) (A) (A) (A) (A) (A) (A) (A)
                 (A) (A) (A) (A) (A) (A) (A) (A) (A) (A) (A) (A)
                 (A) (A) (A) (A) (A) (A) (A) (A) (A) (A) (A) (A)
                 (A) (A) (A) (A) (A) (A) (A) (A) (A) (A) (A) (A)
                 (A) (A) (A) (A) (A) (A) (A) (A) (A) (A) (A) (A)
                 (A) (A) (A) (A) (A) (A) (A) (A) (A) (A) (A) (A)
                 (A)
       Virtual   (A) (A) (A) (A) (A) (A) (A) (A) (A) (A) (A) (A)
                 (A) (A) (A) (A) (A) (A) (A) (A) (A) (A) (A) (A)
                 (A) (A) (A) (A) (A) (A) (A) (A) (A) (A) (A) (A)
                 (A) (A) (A) (A) (A) (A) (A) (A) (A) (A) (A) (A)
                 (A) (A) (A) (A) (A) (A) (A) (A) (A) (A) (A) (A)
                 (A) (A) (A) (A) (A) (A) (A) (A) (A) (A) (A) (A)
                 (A) (A) (A) (A) (A) (A) (A) (A) (A) (A) (A) (A)
                 (A) (A) (A) (A) (A) (A) (A) (A) (A) (A) (A) (A)
                 (A) (A) (A) (A) (A) (A) (A) (A) (A) (A) (A) (A)
                 (A) (A) (A) (A) (A) (A) (A) (A) (A) (A) (A) (A)
                 (A) (A) (A) (A) (A) (A) (A) (A) (A) (A) (A) (A)
                 (A) (A) (A) (A) (A) (A) (A) (A) (A) (A) (A) (A)
                 (A) (A) (A) (A) (A) (A) (A) (A) (A) (A) (A) (A)
                 (A) (A) (A) (A) (A) (A) (A) (A) (A) (A) (A) (A)
                 (A) (A) (A) (A) (A) (A) (A) (A) (A) (A) (A) (A)
                 (A) (A) (A) (A) (A) (A) (A) (A) (A) (A) (A) (A)
                 (A) (A) (A) (A) (A) (A) (A) (A) (A) (A) (A) (A)
                 (A) (A) (A) (A) (A) (A) (A) (A) (A) (A) (A) (A)
                 (A) (A) (A) (A) (A) (A) (A) (A) (A) (A) (A) (A)
                 (A) (A) (A) (A) (A) (A) (A) (A) (A) (A) (A) (A)
                 (A) (A) (A) (A) (A) (A) (A) (A) (A) (A) (A) (A)
                 (A) (A) (A) (A) (A) (A) (A) (A) (A) (A) (A) (A)
                 (A) (A) (A) (A) (A) (A) (A) (A) (A) (A) (A) (A)
                 (A) (A) (A) (A) (A) (A) (A) (A) (A) (A) (A) (A)
                 (A) (A) (A) (A) (A) (A) (A) (A) (A) (A) (A) (A)
                 (A) (A) (A) (A) (A) (A) (A) (A) (A) (A) (A) (A)
                 (A) (A) (A) (A) (A) (A) (A) (A) (A) (A) (A) (A)
                 (A) (A) (A) (A) (A) (A) (A) (A) (A) (A) (A) (A)
                 (A) (A) (A) (A) (A) (A) (A) (A) (A) (A) (A) (A)
                 (A) (A) (A) (A) (A) (A) (A) (A) (A) (A) (A) (A)
                 (A) (A) (A) (A) (A) (A) (A) (A) (A) (A) (A) (A)
                 (A) (A) (A) (A) (A) (A) (A) (A) (A) (A) (A) (A)
                 (A) (A) (A) (A) (A) (A) (A) (A) (A) (A) (A) (A)
                 (A) (A) (A) (A) (A) (A) (A) (A) (A) (A) (A) (A)
                 (A) (A) (A) (A) (A) (A) (A) (A) (A) (A) (A) (A)
                 (A) (A) (A) (A) (A) (A) (A) (A) (A) (A) (A) (A)
                 (A) (A) (A) (A) (A) (A) (A) (A) (A) (A) (A) (A)
                 (A) (A) (A) (A) (A) (A) (A) (A) (A) (A) (A) (A)
                 (A) (A) (A) (A) (A) (A) (A) (A) (A) (A) (A) (A)
                 (A) (A) (A) (A) (A) (A) (A) (A) (A) (A) (A) (A)
                 (A) (A) (A) (A) (A) (A) (A) (A) (A) (A) (A) (A)
                 (A) (A) (A) (A) (A) (A) (A) (A) (A) (A) (A) (A)
                 (A) (A) (A) (A) (A) (A) (A) (A) (A) (A) (A) (A)
                 (A) (A) (A) (A) (A) (A) (A) (A) (A) (A) (A) (A)
                 (A) (A) (A) (A) (A) (A) (A) (A) (A) (A) (A) (A)
                 (A) (A) (A) (A) (A) (A) (A) (A) (A) (A) (A) (A)
                 (A) (A) (A) (A) (A) (A) (A) (A) (A) (A) (A) (A)
                 (A) (A) (A) (A) (A) (A) (A) (A) (A) (A) (A) (A)
                 (A) (A) (A) (A) (A) (A) (A) (A) (A) (A) (A) (A)
                 (A) (A) (A) (A) (A) (A) (A) (A) (A) (A) (A) (A)
                 (A) (A) (A) (A) (A) (A) (A) (A) (A) (A) (A) (A)
                 (A) (A) (A) (A) (A) (A) (A) (A) (A) (A) (A) (A)
                 (A) (A) (A) (A) (A) (A) (A) (A) (A) (A) (A) (A)
                 (A) (A) (A) (A) (A) (A) (A) (A) (A) (A) (A) (A)
                 (A) (A) (A) (A) (A) (A) (A) (A) (A) (A) (A) (A)
                 (A) (A) (A) (A) (A) (A) (A) (A) (A) (A) (A) (A)
                 (A) (A) (A) (A) (A) (A) (A) (A) (A) (A) (A) (A)
                 (A) (A) (A) (A) (A) (A) (A) (A) (A) (A) (A) (A)
                 (A) (A) (A) (A) (A) (A) (A) (A) (A) (A) (A) (A)
                 (A) (A) (A) (A) (A) (A) (A) (A) (A) (A) (A) (A)
                 (A) (A) (A) (A) (A) (A) (A) (A) (A) (A) (A) (A)
                 (A) (A) (A) (A) (A) (A) (A) (A) (A) (A) (A) (A)
                 (A) (A) (A) (A) (A) (A) (A) (A) (A) (A) (A) (A)
                 (A) (A) (A) (A) (A) (A) (A) (A) (A) (A) (A) (A)
                 (A) (A) (A) (A) (A) (A) (A) (A) (A) (A) (A) (A)
                 (A) (A) (A) (A) (A) (A) (A) (A) (A) (A) (A) (A)
                 (A) (A) (A) (A) (A) (A) (A) (A) (A) (A) (A) (A)
                 (A) (A) (A) (A) (A) (A) (A) (A) (A) (A) (A) (A)
                 (A) (A) (A) (A) (A) (A) (A) (A) (A) (A) (A) (A)
                 (A) (A) (A) (A) (A) (A) (A) (A) (A) (A) (A) (A)
                 (A) (A) (A) (A) (A) (A) (A) (A) (A) (A) (A) (A)
                 (A) (A) (A) (A) (A) (A) (A) (A) (A) (A) (A) (A)
                 (A) (A) (A) (A) (A) (A) (A) (A) (A) (A) (A) (A)
                 (A) (A) (A) (A) (A) (A) (A) (A) (A) (A) (A) (A)
                 (A) (A) (A) (A) (A) (A) (A) (A) (A) (A) (A) (A)
                 (A) (A) (A) (A) (A) (A) (A) (A) (A) (A) (A) (A)
                 (A) (A) (A) (A) (A) (A) (A) (A) (A) (A) (A) (A)
                 (A) (A) (A) (A) (A) (A) (A) (A) (A) (A) (A) (A)
                 (A) (A) (A) (A) (A) (A) (A) (A) (A) (A) (A) (A)
                 (A) (A) (A) (A) (A) (A) (A) (A) (A) (A) (A) (A)
                 (A) (A) (A) (A) (A) (A) (A) (A) (A) (A) (A) (A)
                 (A) (A) (A) (A) (A) (A) (A) (A) (A) (A) (A) (A)
                 (A) (A) (A) (A) (A) (A) (A) (A) (A) (A) (A) (A)
                 (A) (A) (A) (A) (A) (A) (A) (A) (A) (A) (A) (A)
                 (A) (A) (A) (A) (A) (A) (A) (A) (A) (A) (A) (A)
                 (A) (A) (A) (A) (A) (A) (A) (A) (A) (A) (A) (A)
                 (A) (A) (A) (A) (A) (A) (A) (A) (A) (A) (A) (A)
                 (A) (A) (A) (A) (A) (A) (A) (A) (A) (A) (A) (A)
                 (A) (A) (A) (A) (A) (A) (A) (A) (A) (A) (A) (A)
                 (A) (A) (A) (A) (A) (A) (A) (A) (A) (A) (A) (A)
                 (A) (A) (A) (A) (A) (A) (A) (A) (A) (A) (A) (A)
                 (A) (A) (A) (A) (A) (A)
 The electronic state is 1-A.
 Alpha  occ. eigenvalues --  -46.79622 -19.23274 -19.22827 -19.16866 -19.16065
 Alpha  occ. eigenvalues --  -19.15812 -14.38074 -14.35097 -14.35054 -14.34357
 Alpha  occ. eigenvalues --  -10.35028 -10.34956 -10.30856 -10.27523 -10.27331
 Alpha  occ. eigenvalues --  -10.26305 -10.26078 -10.25244 -10.25237 -10.24923
 Alpha  occ. eigenvalues --  -10.24923 -10.24900 -10.24518 -10.24368 -10.24123
 Alpha  occ. eigenvalues --  -10.23458 -10.23439 -10.23414 -10.22965 -10.22948
 Alpha  occ. eigenvalues --  -10.22891 -10.22782 -10.22757 -10.22651 -10.22647
 Alpha  occ. eigenvalues --  -10.22609 -10.22578 -10.22559 -10.22451 -10.22429
 Alpha  occ. eigenvalues --  -10.22380 -10.22334 -10.22323 -10.22314 -10.22218
 Alpha  occ. eigenvalues --  -10.22213 -10.22101 -10.21809 -10.21340 -10.21220
 Alpha  occ. eigenvalues --  -10.21217 -10.20800 -10.20765 -10.20676 -10.20448
 Alpha  occ. eigenvalues --  -10.20430 -10.20368 -10.20353 -10.20282 -10.20134
 Alpha  occ. eigenvalues --  -10.20082 -10.19918 -10.19851 -10.18527 -10.18394
 Alpha  occ. eigenvalues --   -3.08279  -1.83222  -1.82764  -1.82673  -1.14551
 Alpha  occ. eigenvalues --   -1.12544  -1.04888  -1.02713  -1.01563  -1.00230
 Alpha  occ. eigenvalues --   -0.99304  -0.98244  -0.97301  -0.89653  -0.87081
 Alpha  occ. eigenvalues --   -0.86147  -0.85491  -0.85105  -0.84849  -0.84233
 Alpha  occ. eigenvalues --   -0.84024  -0.83212  -0.82834  -0.81829  -0.81497
 Alpha  occ. eigenvalues --   -0.80940  -0.79658  -0.79187  -0.78665  -0.78027
 Alpha  occ. eigenvalues --   -0.76897  -0.76623  -0.75600  -0.75420  -0.73431
 Alpha  occ. eigenvalues --   -0.72773  -0.72560  -0.71920  -0.71547  -0.71206
 Alpha  occ. eigenvalues --   -0.70820  -0.70377  -0.69849  -0.69307  -0.68558
 Alpha  occ. eigenvalues --   -0.67556  -0.66490  -0.65623  -0.64882  -0.64402
 Alpha  occ. eigenvalues --   -0.63921  -0.63311  -0.62328  -0.61577  -0.61355
 Alpha  occ. eigenvalues --   -0.60333  -0.60139  -0.59921  -0.58539  -0.58508
 Alpha  occ. eigenvalues --   -0.58219  -0.56991  -0.56721  -0.56086  -0.55704
 Alpha  occ. eigenvalues --   -0.55164  -0.54293  -0.54088  -0.53851  -0.53517
 Alpha  occ. eigenvalues --   -0.51877  -0.51660  -0.51568  -0.51484  -0.51035
 Alpha  occ. eigenvalues --   -0.50952  -0.50510  -0.50449  -0.50052  -0.49770
 Alpha  occ. eigenvalues --   -0.49716  -0.49395  -0.49064  -0.48908  -0.48616
 Alpha  occ. eigenvalues --   -0.47929  -0.47807  -0.47646  -0.47165  -0.46991
 Alpha  occ. eigenvalues --   -0.46774  -0.46700  -0.46510  -0.46075  -0.46009
 Alpha  occ. eigenvalues --   -0.45849  -0.45535  -0.45269  -0.44844  -0.44736
 Alpha  occ. eigenvalues --   -0.44470  -0.44415  -0.44127  -0.43577  -0.43470
 Alpha  occ. eigenvalues --   -0.43272  -0.43076  -0.42812  -0.42523  -0.42326
 Alpha  occ. eigenvalues --   -0.42229  -0.42162  -0.41990  -0.41793  -0.41707
 Alpha  occ. eigenvalues --   -0.41296  -0.41204  -0.41053  -0.40655  -0.40569
 Alpha  occ. eigenvalues --   -0.40534  -0.40345  -0.40209  -0.39924  -0.39793
 Alpha  occ. eigenvalues --   -0.39649  -0.39468  -0.39326  -0.39070  -0.38992
 Alpha  occ. eigenvalues --   -0.38680  -0.38609  -0.38425  -0.38304  -0.38215
 Alpha  occ. eigenvalues --   -0.38108  -0.37785  -0.37456  -0.37378  -0.37312
 Alpha  occ. eigenvalues --   -0.37222  -0.36917  -0.36891  -0.36417  -0.36293
 Alpha  occ. eigenvalues --   -0.35554  -0.35261  -0.35240  -0.34843  -0.34661
 Alpha  occ. eigenvalues --   -0.34460  -0.34339  -0.34255  -0.33936  -0.33866
 Alpha  occ. eigenvalues --   -0.33686  -0.33637  -0.33315  -0.33092  -0.32918
 Alpha  occ. eigenvalues --   -0.32565  -0.32244  -0.32207  -0.30727  -0.30529
 Alpha  occ. eigenvalues --   -0.30341  -0.29661  -0.29423  -0.28683  -0.28595
 Alpha  occ. eigenvalues --   -0.27112  -0.26355  -0.25571  -0.24282  -0.21713
 Alpha  occ. eigenvalues --   -0.20108
 Alpha virt. eigenvalues --   -0.07355  -0.03990  -0.00868   0.01551   0.02986
 Alpha virt. eigenvalues --    0.03632   0.04672   0.04963   0.05353   0.06040
 Alpha virt. eigenvalues --    0.06175   0.08742   0.08889   0.09808   0.10054
 Alpha virt. eigenvalues --    0.10185   0.10672   0.10857   0.11146   0.11258
 Alpha virt. eigenvalues --    0.11414   0.11692   0.11975   0.12337   0.12871
 Alpha virt. eigenvalues --    0.12900   0.13181   0.13235   0.13326   0.13530
 Alpha virt. eigenvalues --    0.13546   0.13973   0.14298   0.14466   0.14513
 Alpha virt. eigenvalues --    0.14808   0.14820   0.15107   0.15358   0.15488
 Alpha virt. eigenvalues --    0.15601   0.15830   0.15885   0.16148   0.16315
 Alpha virt. eigenvalues --    0.16359   0.16489   0.16614   0.16777   0.16836
 Alpha virt. eigenvalues --    0.17097   0.17122   0.17412   0.17636   0.17990
 Alpha virt. eigenvalues --    0.18106   0.18311   0.18425   0.18935   0.19010
 Alpha virt. eigenvalues --    0.19026   0.19152   0.19352   0.19428   0.19519
 Alpha virt. eigenvalues --    0.19775   0.19940   0.20210   0.20309   0.20418
 Alpha virt. eigenvalues --    0.20696   0.20823   0.21020   0.21329   0.21483
 Alpha virt. eigenvalues --    0.21884   0.21942   0.22009   0.22183   0.22266
 Alpha virt. eigenvalues --    0.22764   0.23006   0.23352   0.23554   0.23723
 Alpha virt. eigenvalues --    0.23875   0.24018   0.24079   0.24218   0.24459
 Alpha virt. eigenvalues --    0.24571   0.24936   0.25375   0.25475   0.25600
 Alpha virt. eigenvalues --    0.25729   0.25872   0.26023   0.26360   0.26502
 Alpha virt. eigenvalues --    0.26634   0.26929   0.27021   0.27112   0.27522
 Alpha virt. eigenvalues --    0.27612   0.27742   0.27800   0.27837   0.28410
 Alpha virt. eigenvalues --    0.28466   0.28817   0.28904   0.28927   0.29302
 Alpha virt. eigenvalues --    0.29806   0.29867   0.30193   0.30770   0.31023
 Alpha virt. eigenvalues --    0.31149   0.31221   0.31538   0.31866   0.32408
 Alpha virt. eigenvalues --    0.32834   0.33097   0.33213   0.33451   0.33769
 Alpha virt. eigenvalues --    0.34128   0.34496   0.35596   0.36221   0.36644
 Alpha virt. eigenvalues --    0.36816   0.37390   0.37483   0.38049   0.38259
 Alpha virt. eigenvalues --    0.38648   0.39114   0.39940   0.40365   0.40580
 Alpha virt. eigenvalues --    0.41266   0.41544   0.42066   0.42244   0.43461
 Alpha virt. eigenvalues --    0.44245   0.45513   0.46366   0.46706   0.47082
 Alpha virt. eigenvalues --    0.47756   0.48983   0.49199   0.49548   0.50221
 Alpha virt. eigenvalues --    0.50340   0.50809   0.51220   0.51447   0.51805
 Alpha virt. eigenvalues --    0.51899   0.52234   0.52375   0.52904   0.53223
 Alpha virt. eigenvalues --    0.53276   0.53434   0.53833   0.54054   0.54083
 Alpha virt. eigenvalues --    0.54500   0.54685   0.55133   0.55312   0.55464
 Alpha virt. eigenvalues --    0.55723   0.55762   0.55905   0.55934   0.56153
 Alpha virt. eigenvalues --    0.56310   0.56366   0.56647   0.56871   0.57043
 Alpha virt. eigenvalues --    0.57144   0.57920   0.58013   0.58095   0.58269
 Alpha virt. eigenvalues --    0.58440   0.58656   0.59117   0.59689   0.59996
 Alpha virt. eigenvalues --    0.60182   0.60264   0.60510   0.60733   0.60982
 Alpha virt. eigenvalues --    0.61463   0.61653   0.62042   0.62233   0.62435
 Alpha virt. eigenvalues --    0.62500   0.62640   0.63291   0.63438   0.64019
 Alpha virt. eigenvalues --    0.64226   0.64279   0.64462   0.64608   0.64861
 Alpha virt. eigenvalues --    0.64934   0.65228   0.65586   0.65638   0.65939
 Alpha virt. eigenvalues --    0.66181   0.66445   0.66645   0.67061   0.67321
 Alpha virt. eigenvalues --    0.67348   0.67842   0.68132   0.68480   0.68653
 Alpha virt. eigenvalues --    0.68953   0.69331   0.69477   0.69595   0.69843
 Alpha virt. eigenvalues --    0.70044   0.70210   0.70569   0.70604   0.70841
 Alpha virt. eigenvalues --    0.71418   0.71516   0.71689   0.72384   0.72499
 Alpha virt. eigenvalues --    0.72669   0.72732   0.72988   0.73226   0.73474
 Alpha virt. eigenvalues --    0.73786   0.73889   0.74322   0.74534   0.75048
 Alpha virt. eigenvalues --    0.75446   0.75494   0.75687   0.75952   0.76063
 Alpha virt. eigenvalues --    0.76599   0.76782   0.76964   0.77388   0.77616
 Alpha virt. eigenvalues --    0.77825   0.77910   0.78103   0.78745   0.79041
 Alpha virt. eigenvalues --    0.79227   0.79753   0.80040   0.80181   0.80247
 Alpha virt. eigenvalues --    0.80608   0.80751   0.80920   0.81609   0.81913
 Alpha virt. eigenvalues --    0.81945   0.82099   0.82232   0.82498   0.82686
 Alpha virt. eigenvalues --    0.82820   0.82936   0.83204   0.83468   0.83687
 Alpha virt. eigenvalues --    0.83805   0.84062   0.84196   0.84319   0.84501
 Alpha virt. eigenvalues --    0.84647   0.84852   0.85035   0.85324   0.85430
 Alpha virt. eigenvalues --    0.85841   0.85993   0.86086   0.86433   0.86505
 Alpha virt. eigenvalues --    0.86675   0.87016   0.87158   0.87318   0.87461
 Alpha virt. eigenvalues --    0.87835   0.87951   0.88115   0.88783   0.88837
 Alpha virt. eigenvalues --    0.89161   0.89246   0.89510   0.89537   0.90003
 Alpha virt. eigenvalues --    0.90055   0.90307   0.90383   0.90588   0.90824
 Alpha virt. eigenvalues --    0.91096   0.91256   0.91437   0.91699   0.91907
 Alpha virt. eigenvalues --    0.92119   0.92265   0.92533   0.92770   0.93124
 Alpha virt. eigenvalues --    0.93499   0.93614   0.93776   0.93926   0.94121
 Alpha virt. eigenvalues --    0.94538   0.94754   0.95031   0.95370   0.95587
 Alpha virt. eigenvalues --    0.95650   0.95872   0.96011   0.96221   0.96293
 Alpha virt. eigenvalues --    0.96558   0.96963   0.97089   0.97303   0.97466
 Alpha virt. eigenvalues --    0.97641   0.97801   0.97914   0.98261   0.98738
 Alpha virt. eigenvalues --    0.98871   0.99112   0.99268   0.99379   0.99562
 Alpha virt. eigenvalues --    0.99922   1.00413   1.00624   1.00815   1.01172
 Alpha virt. eigenvalues --    1.01289   1.01895   1.01976   1.02146   1.02347
 Alpha virt. eigenvalues --    1.02474   1.02801   1.02987   1.03494   1.03952
 Alpha virt. eigenvalues --    1.04324   1.04379   1.04459   1.04524   1.04933
 Alpha virt. eigenvalues --    1.05418   1.05714   1.06053   1.06567   1.06953
 Alpha virt. eigenvalues --    1.07260   1.07474   1.07826   1.08227   1.08376
 Alpha virt. eigenvalues --    1.08585   1.09539   1.09683   1.09703   1.09900
 Alpha virt. eigenvalues --    1.10811   1.11168   1.11662   1.12295   1.12491
 Alpha virt. eigenvalues --    1.13554   1.13817   1.14166   1.14304   1.15338
 Alpha virt. eigenvalues --    1.15490   1.16016   1.16276   1.17394   1.17699
 Alpha virt. eigenvalues --    1.18337   1.18386   1.18790   1.19408   1.19595
 Alpha virt. eigenvalues --    1.20480   1.20996   1.21259   1.21779   1.22349
 Alpha virt. eigenvalues --    1.22672   1.23077   1.23471   1.23495   1.23929
 Alpha virt. eigenvalues --    1.24683   1.25846   1.26004   1.26253   1.26746
 Alpha virt. eigenvalues --    1.28059   1.28667   1.28872   1.29015   1.30433
 Alpha virt. eigenvalues --    1.30722   1.30983   1.31380   1.31708   1.32671
 Alpha virt. eigenvalues --    1.33639   1.33732   1.34016   1.34830   1.35212
 Alpha virt. eigenvalues --    1.35796   1.35876   1.36573   1.36878   1.37023
 Alpha virt. eigenvalues --    1.37575   1.38394   1.38893   1.39017   1.39099
 Alpha virt. eigenvalues --    1.39696   1.40021   1.40442   1.40852   1.42149
 Alpha virt. eigenvalues --    1.42423   1.42990   1.43602   1.44086   1.44530
 Alpha virt. eigenvalues --    1.44979   1.45301   1.45706   1.45844   1.46181
 Alpha virt. eigenvalues --    1.47331   1.47683   1.48204   1.49240   1.49518
 Alpha virt. eigenvalues --    1.49858   1.50004   1.50824   1.50994   1.51318
 Alpha virt. eigenvalues --    1.51694   1.52023   1.52396   1.52871   1.53466
 Alpha virt. eigenvalues --    1.53896   1.54866   1.54909   1.55587   1.56052
 Alpha virt. eigenvalues --    1.56195   1.56570   1.56950   1.57222   1.57885
 Alpha virt. eigenvalues --    1.58202   1.58653   1.59127   1.59196   1.60134
 Alpha virt. eigenvalues --    1.60423   1.60744   1.61029   1.61883   1.62447
 Alpha virt. eigenvalues --    1.63045   1.63128   1.63301   1.63537   1.64290
 Alpha virt. eigenvalues --    1.64330   1.64918   1.65129   1.65544   1.65754
 Alpha virt. eigenvalues --    1.66558   1.66700   1.66963   1.67747   1.68116
 Alpha virt. eigenvalues --    1.68467   1.68639   1.69870   1.70309   1.70766
 Alpha virt. eigenvalues --    1.70977   1.71542   1.71602   1.71976   1.72080
 Alpha virt. eigenvalues --    1.72524   1.72986   1.73456   1.74176   1.74378
 Alpha virt. eigenvalues --    1.74525   1.75266   1.75390   1.75807   1.76672
 Alpha virt. eigenvalues --    1.76806   1.77362   1.77705   1.78110   1.78521
 Alpha virt. eigenvalues --    1.79256   1.79435   1.79811   1.79950   1.80352
 Alpha virt. eigenvalues --    1.80782   1.81133   1.81291   1.81797   1.81876
 Alpha virt. eigenvalues --    1.82359   1.83005   1.83394   1.83584   1.83778
 Alpha virt. eigenvalues --    1.84366   1.84406   1.84545   1.84792   1.84848
 Alpha virt. eigenvalues --    1.85041   1.85684   1.85899   1.86079   1.86301
 Alpha virt. eigenvalues --    1.86547   1.86651   1.87007   1.87086   1.87098
 Alpha virt. eigenvalues --    1.87696   1.87741   1.87907   1.88082   1.88331
 Alpha virt. eigenvalues --    1.88481   1.89224   1.89255   1.89565   1.89621
 Alpha virt. eigenvalues --    1.89672   1.90185   1.90573   1.90732   1.90914
 Alpha virt. eigenvalues --    1.91153   1.91406   1.91507   1.92175   1.92233
 Alpha virt. eigenvalues --    1.92522   1.92791   1.93330   1.93353   1.93673
 Alpha virt. eigenvalues --    1.93970   1.94169   1.94766   1.94836   1.95316
 Alpha virt. eigenvalues --    1.95601   1.95682   1.95848   1.96380   1.96622
 Alpha virt. eigenvalues --    1.97350   1.97401   1.97680   1.98008   1.98286
 Alpha virt. eigenvalues --    1.98588   1.98996   1.99067   1.99111   1.99306
 Alpha virt. eigenvalues --    1.99798   2.00110   2.00318   2.00378   2.00790
 Alpha virt. eigenvalues --    2.00935   2.01455   2.01571   2.02032   2.02346
 Alpha virt. eigenvalues --    2.02510   2.03195   2.03600   2.03870   2.04246
 Alpha virt. eigenvalues --    2.04315   2.04482   2.04506   2.04604   2.04960
 Alpha virt. eigenvalues --    2.05067   2.05488   2.05813   2.06152   2.06286
 Alpha virt. eigenvalues --    2.06717   2.07023   2.07573   2.07613   2.07984
 Alpha virt. eigenvalues --    2.08601   2.08891   2.09005   2.09222   2.09530
 Alpha virt. eigenvalues --    2.09778   2.10185   2.10356   2.10715   2.11356
 Alpha virt. eigenvalues --    2.11648   2.12066   2.12160   2.12349   2.12642
 Alpha virt. eigenvalues --    2.13048   2.13380   2.13615   2.13974   2.14327
 Alpha virt. eigenvalues --    2.14831   2.14966   2.15317   2.15426   2.16074
 Alpha virt. eigenvalues --    2.16473   2.16699   2.17586   2.18234   2.18486
 Alpha virt. eigenvalues --    2.18616   2.18733   2.19065   2.19305   2.19503
 Alpha virt. eigenvalues --    2.19779   2.20952   2.21044   2.21423   2.21665
 Alpha virt. eigenvalues --    2.21915   2.22293   2.22558   2.22872   2.23111
 Alpha virt. eigenvalues --    2.23167   2.23771   2.23805   2.24345   2.24516
 Alpha virt. eigenvalues --    2.24800   2.25142   2.25424   2.25578   2.25786
 Alpha virt. eigenvalues --    2.25829   2.26000   2.26836   2.27053   2.28066
 Alpha virt. eigenvalues --    2.28187   2.29072   2.29306   2.29686   2.30246
 Alpha virt. eigenvalues --    2.30371   2.30689   2.31229   2.31442   2.31653
 Alpha virt. eigenvalues --    2.31796   2.32108   2.32737   2.32945   2.33411
 Alpha virt. eigenvalues --    2.33587   2.33714   2.33755   2.34537   2.34781
 Alpha virt. eigenvalues --    2.34938   2.35192   2.35445   2.35819   2.35896
 Alpha virt. eigenvalues --    2.35953   2.36648   2.36733   2.37121   2.37269
 Alpha virt. eigenvalues --    2.37701   2.37986   2.38433   2.38635   2.38932
 Alpha virt. eigenvalues --    2.39013   2.39268   2.39454   2.40128   2.40194
 Alpha virt. eigenvalues --    2.40759   2.40852   2.41324   2.41818   2.42171
 Alpha virt. eigenvalues --    2.42544   2.42601   2.42778   2.42995   2.43432
 Alpha virt. eigenvalues --    2.43780   2.43984   2.44319   2.44415   2.45154
 Alpha virt. eigenvalues --    2.45543   2.46468   2.46669   2.47219   2.47474
 Alpha virt. eigenvalues --    2.47874   2.48027   2.48128   2.49059   2.49348
 Alpha virt. eigenvalues --    2.49478   2.50124   2.50321   2.50381   2.50835
 Alpha virt. eigenvalues --    2.51599   2.51698   2.52061   2.52248   2.52912
 Alpha virt. eigenvalues --    2.53080   2.53332   2.53883   2.54125   2.54438
 Alpha virt. eigenvalues --    2.54772   2.54918   2.55439   2.55823   2.55986
 Alpha virt. eigenvalues --    2.56787   2.57076   2.57346   2.57606   2.58298
 Alpha virt. eigenvalues --    2.58975   2.59120   2.59455   2.59709   2.60233
 Alpha virt. eigenvalues --    2.60659   2.61386   2.61509   2.62243   2.62561
 Alpha virt. eigenvalues --    2.62752   2.63256   2.63296   2.63817   2.64062
 Alpha virt. eigenvalues --    2.64764   2.64986   2.65272   2.65804   2.65984
 Alpha virt. eigenvalues --    2.66067   2.66455   2.66528   2.66544   2.66859
 Alpha virt. eigenvalues --    2.67005   2.67118   2.67761   2.67947   2.68464
 Alpha virt. eigenvalues --    2.68753   2.69157   2.69419   2.70058   2.70175
 Alpha virt. eigenvalues --    2.70578   2.71001   2.71466   2.71569   2.71810
 Alpha virt. eigenvalues --    2.71835   2.72275   2.72652   2.73096   2.73559
 Alpha virt. eigenvalues --    2.73705   2.73866   2.74217   2.74402   2.74783
 Alpha virt. eigenvalues --    2.74918   2.75898   2.76195   2.76515   2.76619
 Alpha virt. eigenvalues --    2.77199   2.77492   2.77812   2.77942   2.78154
 Alpha virt. eigenvalues --    2.78513   2.78670   2.79205   2.79538   2.79763
 Alpha virt. eigenvalues --    2.79930   2.80341   2.80374   2.80746   2.81133
 Alpha virt. eigenvalues --    2.81290   2.81980   2.82264   2.82721   2.82855
 Alpha virt. eigenvalues --    2.83469   2.83491   2.83887   2.84268   2.84555
 Alpha virt. eigenvalues --    2.84903   2.85122   2.85956   2.86720   2.86867
 Alpha virt. eigenvalues --    2.87350   2.87699   2.88286   2.88474   2.88701
 Alpha virt. eigenvalues --    2.88876   2.89160   2.89882   2.90012   2.90290
 Alpha virt. eigenvalues --    2.90753   2.90922   2.91487   2.91710   2.91839
 Alpha virt. eigenvalues --    2.92684   2.93193   2.93493   2.93793   2.94257
 Alpha virt. eigenvalues --    2.95339   2.95763   2.95926   2.96985   2.97199
 Alpha virt. eigenvalues --    2.97829   2.98190   2.98575   2.98955   2.99199
 Alpha virt. eigenvalues --    2.99696   3.00350   3.00973   3.01306   3.01559
 Alpha virt. eigenvalues --    3.02220   3.02394   3.02883   3.03280   3.03326
 Alpha virt. eigenvalues --    3.03333   3.03891   3.04454   3.05126   3.05386
 Alpha virt. eigenvalues --    3.05725   3.06255   3.07209   3.07416   3.08238
 Alpha virt. eigenvalues --    3.08970   3.09353   3.09991   3.10270   3.11182
 Alpha virt. eigenvalues --    3.11818   3.11868   3.12255   3.13308   3.14078
 Alpha virt. eigenvalues --    3.14832   3.17062   3.17592   3.19411   3.19552
 Alpha virt. eigenvalues --    3.19967   3.20289   3.20757   3.20820   3.20990
 Alpha virt. eigenvalues --    3.22557   3.23059   3.23466   3.24388   3.26274
 Alpha virt. eigenvalues --    3.27374   3.27911   3.29373   3.29810   3.30321
 Alpha virt. eigenvalues --    3.31401   3.31939   3.32576   3.32778   3.33267
 Alpha virt. eigenvalues --    3.34176   3.35256   3.35718   3.36105   3.38586
 Alpha virt. eigenvalues --    3.38992   3.39446   3.39906   3.40810   3.41498
 Alpha virt. eigenvalues --    3.42131   3.43654   3.44095   3.44606   3.45208
 Alpha virt. eigenvalues --    3.45476   3.46940   3.46977   3.47676   3.49196
 Alpha virt. eigenvalues --    3.49742   3.49936   3.50652   3.51094   3.51189
 Alpha virt. eigenvalues --    3.52067   3.52618   3.52909   3.53103   3.53195
 Alpha virt. eigenvalues --    3.54213   3.54567   3.54661   3.55905   3.56854
 Alpha virt. eigenvalues --    3.57728   3.58191   3.59034   3.59666   3.59967
 Alpha virt. eigenvalues --    3.60115   3.61823   3.62375   3.63686   3.68112
 Alpha virt. eigenvalues --    3.70076   3.70864   3.72789   3.73775   3.75929
 Alpha virt. eigenvalues --    3.76919   3.81606   3.83849   3.85641   4.03775
 Alpha virt. eigenvalues --    4.07133   4.10690   4.15415   4.18842   4.20054
 Alpha virt. eigenvalues --    4.20672   4.22458   4.23152   4.23994   4.25046
 Alpha virt. eigenvalues --    4.26036   4.26711   4.28569   4.28778   4.30549
 Alpha virt. eigenvalues --    4.31694   4.33008   4.33399   4.35811   4.36510
 Alpha virt. eigenvalues --    4.36905   4.39275   4.39568   4.41208   4.41855
 Alpha virt. eigenvalues --    4.43042   4.43092   4.43701   4.46222   4.47107
 Alpha virt. eigenvalues --    4.47382   4.49157   4.49861   4.50084   4.50270
 Alpha virt. eigenvalues --    4.51785   4.51931   4.54741   4.56662   4.57761
 Alpha virt. eigenvalues --    4.58203   4.59422   4.60676   4.61014   4.63668
 Alpha virt. eigenvalues --    4.64949   4.66432   4.66836   4.68691   4.69628
 Alpha virt. eigenvalues --    4.70594   4.73117   4.73556   4.76020   4.80872
 Alpha virt. eigenvalues --    4.82238   4.82268   4.85469   4.86821   4.88242
 Alpha virt. eigenvalues --    4.88426   4.90611   5.00936
          Condensed to atoms (all electrons):
 Mulliken charges:
               1
     1  Mg   0.807030
     2  C    0.148161
     3  C   -0.218671
     4  C   -0.127318
     5  C   -0.146158
     6  N   -0.603719
     7  C    0.250099
     8  C   -0.167400
     9  C   -0.136434
    10  C    0.367762
    11  C   -0.302645
    12  C   -0.139896
    13  C   -0.267076
    14  C    0.614382
    15  O   -0.474759
    16  O   -0.450918
    17  N   -0.745315
    18  C    0.290467
    19  C    0.077255
    20  C   -0.031371
    21  C    0.355864
    22  C   -0.415378
    23  C   -0.049438
    24  C   -0.247047
    25  N   -0.706460
    26  C    0.284699
    27  C    0.105746
    28  C    0.057757
    29  C    0.329252
    30  C   -0.387226
    31  C   -0.268998
    32  C   -0.300385
    33  N   -0.710002
    34  C    0.289909
    35  C   -0.059134
    36  C    0.094949
    37  C    0.251417
    38  C   -0.364047
    39  C    0.336307
    40  O   -0.488280
    41  C   -0.344969
    42  C    0.635726
    43  O   -0.510333
    44  O   -0.433011
    45  C   -0.082248
    46  C    0.008937
    47  C   -0.132057
    48  C    0.117946
    49  C   -0.369520
    50  C   -0.230665
    51  C   -0.193358
    52  C   -0.164459
    53  C   -0.060074
    54  C   -0.300331
    55  C   -0.176128
    56  C   -0.185989
    57  C   -0.165814
    58  C   -0.089997
    59  C   -0.297378
    60  C   -0.183191
    61  C   -0.201396
    62  C   -0.155021
    63  C   -0.053059
    64  C   -0.280396
    65  C   -0.300955
    66  H    0.051812
    67  H    0.036096
    68  H    0.075472
    69  H    0.112154
    70  H    0.099460
    71  H    0.123477
    72  H    0.092369
    73  H    0.125986
    74  H    0.114830
    75  H    0.118858
    76  H    0.116760
    77  H    0.107696
    78  H    0.133407
    79  H    0.133007
    80  H    0.121689
    81  H    0.068652
    82  H    0.105136
    83  H    0.086196
    84  H    0.129351
    85  H    0.111982
    86  H    0.073153
    87  H    0.087200
    88  H    0.111440
    89  H    0.095465
    90  H    0.086608
    91  H    0.119636
    92  H    0.080565
    93  H    0.144976
    94  H    0.139696
    95  H    0.175132
    96  H    0.138634
    97  H    0.128765
    98  H    0.106213
    99  H    0.138597
   100  H    0.114288
   101  H    0.088215
   102  H    0.100575
   103  H    0.120027
   104  H    0.134506
   105  H    0.107721
   106  H    0.093558
   107  H    0.108037
   108  H    0.090091
   109  H    0.099111
   110  H    0.090903
   111  H    0.065677
   112  H    0.105917
   113  H    0.112732
   114  H    0.083923
   115  H    0.068733
   116  H    0.104415
   117  H    0.091323
   118  H    0.096296
   119  H    0.096022
   120  H    0.062588
   121  H    0.091267
   122  H    0.085830
   123  H    0.113193
   124  H    0.108329
   125  H    0.085167
   126  H    0.093705
   127  H    0.093680
   128  H    0.097022
   129  H    0.085090
   130  H    0.102948
   131  H    0.087799
   132  H    0.069473
   133  H    0.118888
   134  H    0.081095
   135  H    0.072141
   136  H    0.066999
   137  H    0.117003
 Sum of Mulliken charges =  -0.00000
 Mulliken charges with hydrogens summed into heavy atoms:
               1
     1  Mg   0.807030
     2  C    0.148161
     3  C   -0.166859
     4  C   -0.091222
     5  C   -0.070685
     6  N   -0.603719
     7  C    0.250099
     8  C   -0.055246
     9  C   -0.036974
    10  C    0.367762
    11  C    0.039186
    12  C    0.093792
    13  C   -0.042620
    14  C    0.614382
    15  O   -0.474759
    16  O   -0.450918
    17  N   -0.745315
    18  C    0.290467
    19  C    0.077255
    20  C   -0.031371
    21  C    0.355864
    22  C   -0.027276
    23  C    0.019214
    24  C   -0.055715
    25  N   -0.706460
    26  C    0.284699
    27  C    0.105746
    28  C    0.057757
    29  C    0.329252
    30  C   -0.072740
    31  C   -0.070358
    32  C    0.001323
    33  N   -0.710002
    34  C    0.289909
    35  C   -0.059134
    36  C    0.094949
    37  C    0.251417
    38  C    0.001189
    39  C    0.336307
    40  O   -0.488280
    41  C   -0.169836
    42  C    0.635726
    43  O   -0.510333
    44  O   -0.433011
    45  C    0.291364
    46  C    0.261822
    47  C   -0.043842
    48  C    0.117946
    49  C   -0.014412
    50  C   -0.029386
    51  C    0.004771
    52  C    0.025555
    53  C    0.005603
    54  C    0.002242
    55  C   -0.002980
    56  C    0.001629
    57  C   -0.007205
    58  C    0.001270
    59  C    0.009974
    60  C   -0.004319
    61  C   -0.010694
    62  C    0.033017
    63  C    0.034741
    64  C   -0.010940
    65  C   -0.044812
 Electronic spatial extent (au):  <R**2>=         178363.4978
 Charge=             -0.0000 electrons
 Dipole moment (field-independent basis, Debye):
    X=              3.1186    Y=              5.4503    Z=              0.0297  Tot=              6.2795
 Quadrupole moment (field-independent basis, Debye-Ang):
   XX=           -349.0735   YY=           -404.1182   ZZ=           -397.1338
   XY=            -26.3382   XZ=              7.2369   YZ=             -3.3240
 Traceless Quadrupole moment (field-independent basis, Debye-Ang):
   XX=             34.3684   YY=            -20.6764   ZZ=            -13.6920
   XY=            -26.3382   XZ=              7.2369   YZ=             -3.3240
 Octapole moment (field-independent basis, Debye-Ang**2):
  XXX=           -576.4776  YYY=            166.6336  ZZZ=              9.4209  XYY=             18.2400
  XXY=            114.6524  XXZ=           -240.1213  XZZ=             28.8593  YZZ=            -27.5088
  YYZ=             55.9582  XYZ=            -21.5598
 Hexadecapole moment (field-independent basis, Debye-Ang**3):
 XXXX=        -218726.2139 YYYY=         -17881.6037 ZZZZ=          -4406.2765 XXXY=           -960.3643
 XXXZ=           1401.6262 YYYX=          -1103.2502 YYYZ=           -144.5379 ZZZX=            -41.0710
 ZZZY=           -140.8319 XXYY=         -40627.8857 XXZZ=         -38461.8228 YYZZ=          -3570.5256
 XXYZ=            -34.1941 YYXZ=            -23.8911 ZZXY=             60.9478
 N-N= 8.781732844395D+03 E-N=-2.438848752381D+04  KE= 2.908547443775D+03

 Test job not archived.
 1\1\GINC-RYZEN-SSD3\SP\RCAM-B3LYP TD-FC\6-31G(d,p)\C55H72Mg1N4O5\PADAW
 AN\04-Sep-2019\0\\# td=(NStates=1) iop(3/107=0140000000,3/108=01400000
 00) CAM-B3LYP/6-31G(d,p)\\TD\\0,1\Mg,0,-7.1277774694,0.6452029038,0.12
 75891289\C,0,-4.9026990864,-1.96759399,0.5485502574\C,0,-4.8399000206,
 2.7624749654,1.1143215374\C,0,-9.3618529498,3.1128888419,-0.3730897843
 \C,0,-9.536779776,-1.711382904,-0.8925960645\N,0,-5.0720042316,0.47355
 34459,0.6947272967\C,0,-4.3643586832,-0.7566468079,0.8309209868\C,0,-2
 .8706232829,-0.3795563536,1.2133370028\C,0,-3.0646696939,1.1060793095,
 1.7541316925\C,0,-4.327703005,1.444839135,1.1583202259\C,0,-3.09091527
 23,1.0326560849,3.2284881634\C,0,-1.8615218819,-0.5259085801,0.0774415
 545\C,0,-0.4617418834,-0.3750407521,0.5747208544\C,0,0.5679887221,-0.6
 952161435,-0.5726270528\O,0,0.1319234091,-1.0444482225,-1.6623836315\O
 ,0,1.8036689653,-0.459905929,-0.1927546631\N,0,-7.0903366771,2.6129245
 024,0.3379947236\C,0,-6.0409542392,3.3807718446,0.8776636425\C,0,-6.33
 07679852,4.7779946631,0.8979480535\C,0,-7.6628510704,4.7936311683,0.33
 67698034\C,0,-8.1079203195,3.4767246113,0.0797659752\C,0,-5.4220942433
 ,5.8542348972,1.1552856838\C,0,-8.4326032683,6.0022404936,0.1490055131
 \C,0,-8.2382022302,7.2528644361,0.7009741567\N,0,-9.0726763087,0.66948
 39428,-0.5272592998\C,0,-9.8500524915,1.832386563,-0.623745188\C,0,-11
 .2052944821,1.4755069952,-1.079872847\C,0,-11.1753070179,0.1270202478,
 -1.2963396623\C,0,-9.866294233,-0.3475549489,-0.9139235937\C,0,-12.207
 8717249,2.4944346849,-1.3447539281\C,0,-12.2120249954,-0.7123473585,-1
 .7835176824\C,0,-12.0335352624,-1.1437345658,-3.2316438156\N,0,-7.2143
 243948,-1.4038552212,-0.1458272578\C,0,-8.2297373,-2.2166902145,-0.525
 4241223\C,0,-7.7652985697,-3.5474752989,-0.5116214619\C,0,-6.466634453
 9,-3.5363766198,-0.1272148032\C,0,-6.1200757393,-2.144802436,0.0263344
 688\C,0,-8.7389262321,-4.803776476,-0.6431376969\C,0,-5.250800543,-4.2
 978333467,0.1870536795\O,0,-5.163537346,-5.5614330003,0.0273086795\C,0
 ,-4.1794324458,-3.2249799454,0.6017985015\C,0,-3.5923834151,-3.6955274
 954,1.888034772\O,0,-3.8808608695,-3.1740047584,3.0150848667\O,0,-2.74
 49398468,-4.760894708,1.8290319407\C,0,-2.2209110481,-5.1290781137,3.1
 007774781\C,0,2.7500913295,-0.4993382227,-1.2932428415\C,0,4.118552740
 5,-0.3810033682,-0.690351598\C,0,5.1061261039,0.2424207701,-1.15135801
 28\C,0,5.0188756132,1.1603137067,-2.4189360286\C,0,6.4495312318,0.3614
 367597,-0.4153220566\C,0,7.626834136,-0.211029651,-1.1391442431\C,0,8.
 9267703886,-0.174269243,-0.2174878512\C,0,10.1478302436,-0.6080224654,
 -0.9199877188\C,0,10.1349267693,-2.0890267826,-1.3684338094\C,0,11.355
 7102348,-0.3992548166,0.0177038079\C,0,12.771074843,-0.5175317867,-0.6
 437518803\C,0,13.9131425861,-0.1337190862,0.2233587475\C,0,15.27708369
 94,-0.2942585095,-0.5056462171\C,0,15.5817644474,-1.7632747158,-0.9204
 138677\C,0,16.3705440471,0.1264791652,0.5196567004\C,0,17.7425618439,0
 .4017039,-0.134119939\C,0,18.7906094795,1.2270107796,0.8552787846\C,0,
 20.1562884332,1.5062300555,0.1913758436\C,0,20.0770105469,2.5354908542
 ,-0.9300577017\C,0,21.0915342204,2.0616378637,1.3038443244\H,0,-4.2232
 426878,3.6356668181,1.6916652623\H,0,-9.8558877121,3.9505273272,-0.509
 4054667\H,0,-10.5515895831,-2.1989054256,-1.0739952189\H,0,-2.65147243
 44,-0.9919894016,2.0962061113\H,0,-2.2182152878,1.6299850596,1.3305066
 997\H,0,-2.1891420006,0.6423233387,3.6997403114\H,0,-3.3655536645,2.11
 87210949,3.5685148737\H,0,-4.0979125918,0.521597314,3.4882305083\H,0,-
 2.043919511,-1.4967303438,-0.4561636235\H,0,-2.1050768767,0.1573033501
 ,-0.6054372783\H,0,-0.3888643151,0.7001195993,0.9793417972\H,0,-0.3704
 054608,-1.2100617728,1.4583992982\H,0,-5.4590200797,6.724239936,0.4695
 46786\H,0,-5.6926907404,6.3534582272,2.1116431768\H,0,-4.3780526499,5.
 5232365917,0.8613068633\H,0,-9.321362396,5.6428476668,-0.3971710698\H,
 0,-9.039393003,8.0878985109,0.5228620619\H,0,-7.4050184339,7.354412277
 6,1.2709860589\H,0,-11.7102915022,3.4391230594,-1.694115243\H,0,-13.23
 51708148,2.3510238448,-1.9640321314\H,0,-12.5724882815,2.9585031844,-0
 .1589563351\H,0,-12.0297549404,-1.7056814909,-1.0812316241\H,0,-13.257
 0780069,-0.3591886294,-1.7173474891\H,0,-13.0142766269,-1.5118948516,-
 3.7477557337\H,0,-11.9442048262,-0.1583643077,-3.9263016086\H,0,-11.16
 86417036,-1.8206630935,-3.5206003382\H,0,-9.5728419028,-4.7799144922,-
 1.5582218852\H,0,-8.1495093361,-5.6747034236,-0.8346234174\H,0,-9.3789
 620752,-4.8522736758,0.190536785\H,0,-3.4339909176,-3.5195585615,-0.20
 11478529\H,0,-1.8620295906,-4.334105624,3.7302647441\H,0,-2.9517016075
 ,-5.7061001349,3.7632873664\H,0,-1.3381943399,-5.8210128861,2.69584294
 54\H,0,2.5524833031,-1.454022025,-1.6034817969\H,0,2.5298494262,0.2485
 729421,-2.1334444019\H,0,4.1486753542,-1.0512735412,0.1717885791\H,0,3
 .9837036819,1.3085463973,-2.8782483105\H,0,5.4047874109,2.1786482887,-
 2.3607735158\H,0,5.6060901775,0.5551467056,-3.0659028472\H,0,6.5531334
 972,1.4054405247,-0.1992703131\H,0,6.3904569178,0.0078834516,0.6053867
 342\H,0,7.5232144442,-1.1691375868,-1.4069554527\H,0,7.6389264511,0.33
 38424872,-2.0716679897\H,0,9.0672127656,0.8679862961,-0.0976473366\H,0
 ,8.6250156224,-0.6997383265,0.6921853419\H,0,10.1565302848,0.059992147
 ,-1.8953746955\H,0,9.2766572748,-2.2416624497,-1.9709254744\H,0,11.118
 5309937,-2.1589092902,-1.7785732154\H,0,10.2129334904,-2.7509592106,-0
 .4025576495\H,0,11.2968513267,0.6641728507,0.442021973\H,0,11.28085568
 11,-0.8846097586,0.8895752776\H,0,13.0310110536,-1.3460220215,-1.11931
 42029\H,0,12.8952853584,0.0564205781,-1.4716214958\H,0,13.5795693772,0
 .7844238057,0.5335881875\H,0,13.958164127,-0.750771456,1.2018825623\H,
 0,15.4284132427,0.3959729943,-1.2233736062\H,0,15.5873225291,-2.331372
 4784,0.1218040449\H,0,14.8573573801,-2.0305775778,-1.5072721007\H,0,16
 .5751757972,-1.7604669437,-1.3305695703\H,0,15.9799312666,0.9671050442
 ,1.0543813544\H,0,16.3954636242,-0.655661851,1.142582753\H,0,17.943911
 1288,-0.6278693009,-0.34174437\H,0,17.7271000196,0.897988693,-1.011986
 9423\H,0,18.4908981467,2.2403152995,1.1709290397\H,0,18.8108370462,0.6
 199568352,1.6534985954\H,0,20.5576755999,0.5071617138,-0.1674208499\H,
 0,19.6629131098,3.6311838949,-0.4996621509\H,0,21.0582896298,2.7739385
 36,-1.2345414353\H,0,19.3941178094,2.175127803,-1.8906674511\H,0,21.25
 14489984,1.2935749984,2.2462982986\H,0,22.3186597588,2.2620866794,1.06
 80034539\H,0,20.7255426328,2.9052666439,1.8039175285\\Version=ES64L-G1
 6RevA.03\State=1-A\HF=-2933.4863599\RMSD=5.293e-09\PG=C01 [X(C55H72Mg1
 N4O5)]\\@


 The earth never tires,
 The earth is rude, silent, incomprehensible at first,
 Nature is rude and incomprehensible at first,
 Be not discouraged, keep on,
 There are divine things well envelop'd,
 I swear to you there are divine things more beautiful than words can tell.
                                 -- Walt Whitman
 Job cpu time:       1 days  6 hours 48 minutes  4.0 seconds.
 Elapsed time:       0 days  7 hours 42 minutes 58.5 seconds.
 File lengths (MBytes):  RWF=   6809 Int=      0 D2E=      0 Chk=    181 Scr=      1
 Normal termination of Gaussian 16 at Wed Sep  4 23:30:33 2019.
