 Entering Gaussian System, Link 0=g16
 Input=Geometria-234-.com
 Output=Geometria-234-.log
 Initial command:
<<<<<<< HEAD
 /usr/local/g16/l1.exe "/home/padawan/israel-mol/chlorophyll-a/spectra/emi/Gau-30219.inp" -scrdir="/home/padawan/israel-mol/chlorophyll-a/spectra/emi/"
 Entering Link 1 = /usr/local/g16/l1.exe PID=     30642.
  
 Copyright (c) 1988,1990,1992,1993,1995,1998,2003,2009,2016,
            Gaussian, Inc.  All Rights Reserved.
  
 This is part of the Gaussian(R) 16 program.  It is based on
 the Gaussian(R) 09 system (copyright 2009, Gaussian, Inc.),
=======
 /usr/local/g09/l1.exe "/home/padawan/israel-mol/chlorophyll-a/spectra/emi/Gau-122945.inp" -scrdir="/home/padawan/israel-mol/chlorophyll-a/spectra/emi/"
 Entering Link 1 = /usr/local/g09/l1.exe PID=    122947.
  
 Copyright (c) 1988,1990,1992,1993,1995,1998,2003,2009,2013,
            Gaussian, Inc.  All Rights Reserved.
  
 This is part of the Gaussian(R) 09 program.  It is based on
>>>>>>> 8e03b5b5abfc0030b3aa597dc0de36371bfbd096
 the Gaussian(R) 03 system (copyright 2003, Gaussian, Inc.),
 the Gaussian(R) 98 system (copyright 1998, Gaussian, Inc.),
 the Gaussian(R) 94 system (copyright 1995, Gaussian, Inc.),
 the Gaussian 92(TM) system (copyright 1992, Gaussian, Inc.),
 the Gaussian 90(TM) system (copyright 1990, Gaussian, Inc.),
 the Gaussian 88(TM) system (copyright 1988, Gaussian, Inc.),
 the Gaussian 86(TM) system (copyright 1986, Carnegie Mellon
 University), and the Gaussian 82(TM) system (copyright 1983,
 Carnegie Mellon University). Gaussian is a federally registered
 trademark of Gaussian, Inc.
  
 This software contains proprietary and confidential information,
 including trade secrets, belonging to Gaussian, Inc.
  
 This software is provided under written license and may be
 used, copied, transmitted, or stored only in accord with that
 written license.
  
 The following legend is applicable only to US Government
 contracts under FAR:
  
                    RESTRICTED RIGHTS LEGEND
  
 Use, reproduction and disclosure by the US Government is
 subject to restrictions as set forth in subparagraphs (a)
 and (c) of the Commercial Computer Software - Restricted
 Rights clause in FAR 52.227-19.
  
 Gaussian, Inc.
 340 Quinnipiac St., Bldg. 40, Wallingford CT 06492
  
  
 ---------------------------------------------------------------
 Warning -- This program may not be used in any manner that
 competes with the business of Gaussian, Inc. or will provide
 assistance to any competitor of Gaussian, Inc.  The licensee
 of this program is prohibited from giving any competitor of
 Gaussian, Inc. access to this program.  By using this program,
 the user acknowledges that Gaussian, Inc. is engaged in the
 business of creating and licensing software in the field of
 computational chemistry and represents and warrants to the
 licensee that it is not a competitor of Gaussian, Inc. and that
 it will not use this program in any manner prohibited above.
 ---------------------------------------------------------------
  

 Cite this work as:
<<<<<<< HEAD
 Gaussian 16, Revision A.03,
 M. J. Frisch, G. W. Trucks, H. B. Schlegel, G. E. Scuseria, 
 M. A. Robb, J. R. Cheeseman, G. Scalmani, V. Barone, 
 G. A. Petersson, H. Nakatsuji, X. Li, M. Caricato, A. V. Marenich, 
 J. Bloino, B. G. Janesko, R. Gomperts, B. Mennucci, H. P. Hratchian, 
 J. V. Ortiz, A. F. Izmaylov, J. L. Sonnenberg, D. Williams-Young, 
 F. Ding, F. Lipparini, F. Egidi, J. Goings, B. Peng, A. Petrone, 
 T. Henderson, D. Ranasinghe, V. G. Zakrzewski, J. Gao, N. Rega, 
 G. Zheng, W. Liang, M. Hada, M. Ehara, K. Toyota, R. Fukuda, 
 J. Hasegawa, M. Ishida, T. Nakajima, Y. Honda, O. Kitao, H. Nakai, 
 T. Vreven, K. Throssell, J. A. Montgomery, Jr., J. E. Peralta, 
 F. Ogliaro, M. J. Bearpark, J. J. Heyd, E. N. Brothers, K. N. Kudin, 
 V. N. Staroverov, T. A. Keith, R. Kobayashi, J. Normand, 
 K. Raghavachari, A. P. Rendell, J. C. Burant, S. S. Iyengar, 
 J. Tomasi, M. Cossi, J. M. Millam, M. Klene, C. Adamo, R. Cammi, 
 J. W. Ochterski, R. L. Martin, K. Morokuma, O. Farkas, 
 J. B. Foresman, and D. J. Fox, Gaussian, Inc., Wallingford CT, 2016.
 
 ******************************************
 Gaussian 16:  ES64L-G16RevA.03 25-Dec-2016
                27-Jun-2019 
=======
 Gaussian 09, Revision D.01,
 M. J. Frisch, G. W. Trucks, H. B. Schlegel, G. E. Scuseria, 
 M. A. Robb, J. R. Cheeseman, G. Scalmani, V. Barone, B. Mennucci, 
 G. A. Petersson, H. Nakatsuji, M. Caricato, X. Li, H. P. Hratchian, 
 A. F. Izmaylov, J. Bloino, G. Zheng, J. L. Sonnenberg, M. Hada, 
 M. Ehara, K. Toyota, R. Fukuda, J. Hasegawa, M. Ishida, T. Nakajima, 
 Y. Honda, O. Kitao, H. Nakai, T. Vreven, J. A. Montgomery, Jr., 
 J. E. Peralta, F. Ogliaro, M. Bearpark, J. J. Heyd, E. Brothers, 
 K. N. Kudin, V. N. Staroverov, T. Keith, R. Kobayashi, J. Normand, 
 K. Raghavachari, A. Rendell, J. C. Burant, S. S. Iyengar, J. Tomasi, 
 M. Cossi, N. Rega, J. M. Millam, M. Klene, J. E. Knox, J. B. Cross, 
 V. Bakken, C. Adamo, J. Jaramillo, R. Gomperts, R. E. Stratmann, 
 O. Yazyev, A. J. Austin, R. Cammi, C. Pomelli, J. W. Ochterski, 
 R. L. Martin, K. Morokuma, V. G. Zakrzewski, G. A. Voth, 
 P. Salvador, J. J. Dannenberg, S. Dapprich, A. D. Daniels, 
 O. Farkas, J. B. Foresman, J. V. Ortiz, J. Cioslowski, 
 and D. J. Fox, Gaussian, Inc., Wallingford CT, 2013.
 
 ******************************************
 Gaussian 09:  ES64L-G09RevD.01 24-Apr-2013
                 4-Jul-2019 
>>>>>>> 8e03b5b5abfc0030b3aa597dc0de36371bfbd096
 ******************************************
 %nproc=4
 Will use up to    4 processors via shared memory.
 %Mem=2GB
 -------------------------------------
 # td=(NStates=1) CAM-B3LYP/6-31G(d,p)
 -------------------------------------
<<<<<<< HEAD
 1/38=1,172=1/1;
 2/12=2,17=6,18=5,40=1/2;
 3/5=1,6=6,7=101,11=9,25=1,30=1,74=-40/1,2,3,8;
=======
 1/38=1/1;
 2/12=2,17=6,18=5,40=1/2;
 3/5=1,6=6,7=101,11=9,16=1,25=1,30=1,74=-40/1,2,8,3;
>>>>>>> 8e03b5b5abfc0030b3aa597dc0de36371bfbd096
 4//1;
 5/5=2,38=5/2;
 8/6=1,10=2,108=1/1;
 9/41=1,42=1,70=2/14;
 6/7=2,8=2,9=2,10=2/1;
 99/5=1,9=1/99;
 --
 TD
 --
 Symbolic Z-matrix:
 Charge =  0 Multiplicity = 1
<<<<<<< HEAD
 12                   -7.08915   0.61283   0.06119 
 6                    -4.82732  -1.9408    0.60256 
 6                    -4.79404   2.87631   1.13316 
 6                    -9.36958   3.07043  -0.39647 
 6                    -9.54093  -1.80433  -0.84817 
 7                    -5.14774   0.40813   0.73317 
 6                    -4.33968  -0.69031   0.83134 
 6                    -2.96732  -0.39286   1.17321 
 6                    -3.12016   1.12169   1.69777 
 6                    -4.35205   1.53102   1.10394 
 6                    -2.94636   1.29498   3.23072 
 6                    -1.98418  -0.57736   0.11266 
 6                    -0.49018  -0.40837   0.58423 
 6                     0.55713  -0.60283  -0.5026 
 8                     0.31006  -0.97596  -1.65481 
 8                     1.80299  -0.46993  -0.14617 
 7                    -7.10511   2.60503   0.28101 
 6                    -6.02484   3.38562   0.72443 
 6                    -6.42495   4.75559   0.722 
 6                    -7.73495   4.85041   0.32263 
 6                    -8.1545    3.52115   0.09899 
 6                    -5.50482   5.93915   1.2164 
 6                    -8.52723   6.0301    0.16049 
 6                    -8.56878   7.05781   0.93981 
 7                    -9.11584   0.69599  -0.57016 
 6                    -9.87277   1.81074  -0.73909 
 6                    -11.13599   1.44585  -1.1748 
 6                    -11.22163   0.05668  -1.27281 
 6                    -9.91449  -0.45116  -0.8655 
 6                    -12.26965   2.48088  -1.41305 
 6                    -12.35003  -0.77823  -1.93768 
 6                    -12.17655  -1.07     -3.40271 
 7                    -7.1505   -1.40131  -0.29311 
 6                    -8.21974  -2.29324  -0.46558 
 6                    -7.80558  -3.61623  -0.49035 
 6                    -6.40782  -3.55306  -0.1487 
 6                    -6.09665  -2.22399   0.13139 
 6                    -8.59851  -4.83544  -0.87114 
 6                    -5.32346  -4.32046   0.22672 
 8                    -5.07537  -5.56223   0.23604 
 6                    -4.19427  -3.35674   0.65473 
 6                    -3.56836  -3.66866   1.91596 
 8                    -3.94098  -3.15655   3.04279 
 8                    -2.6865   -4.63058   1.89564 
 6                    -2.24863  -5.21972   3.12665 
 6                     2.78822  -0.66624  -1.14752 
 6                     4.10208  -0.39289  -0.47651 
 6                     5.08672   0.32421  -0.93755 
 6                     5.09934   1.22942  -2.20482 
 6                     6.35776   0.3809   -0.14414 
 6                     7.53567  -0.27799  -0.88212 
 6                     8.89263  -0.06889  -0.15565 
 6                     10.15461  -0.5156   -0.85491 
 6                     10.10662  -1.99021  -1.36364 
 6                     11.45636  -0.27252  -0.01178 
 6                     12.74672  -0.51824  -0.8833 
 6                     13.90015  -0.14807   0.03831 
 6                     15.39472  -0.34124  -0.56066 
 6                     15.72519  -1.74582  -1.06822 
 6                     16.41044   0.21424   0.33983 
 6                     17.81134   0.52224  -0.18399 
 6                     18.75105   1.37749   0.68691 
 6                     20.20679   1.32627   0.18627 
 6                     20.40741   2.36865  -0.99722 
 6                     21.02973   1.91046   1.42726 
 1                    -4.04439   3.66362   1.33209 
 1                    -10.07749   3.99712  -0.70276 
 1                    -10.2709  -2.57529  -1.11989 
 1                    -2.66672  -0.93899   2.10885 
 1                    -2.18575   1.84971   1.2876 
 1                    -1.97954   0.97688   3.50827 
 1                    -3.22315   2.39879   3.27428 
 1                    -3.44684   0.46446   3.75401 
 1                    -2.05125  -1.56239  -0.21379 
 1                    -2.15706  -0.05976  -0.857 
 1                    -0.39175   0.71727   0.79391 
 1                    -0.15014  -1.18672   1.2231 
 1                    -5.73575   6.75563   0.70529 
 1                    -5.34367   5.87819   2.35163 
 1                    -4.51697   5.84505   0.71385 
 1                    -9.40985   5.95598  -0.56115 
 1                    -9.19267   7.91847   0.66694 
 1                    -7.88948   7.15365   1.64448 
 1                    -11.94294   3.22685  -2.09641 
 1                    -13.18168   1.95536  -1.89754 
 1                    -12.7196   3.29807  -0.57073 
 1                    -12.31304  -1.71918  -1.31043 
 1                    -13.34887  -0.25479  -1.74127 
 1                    -13.03833  -1.84419  -3.79211 
 1                    -12.32991  -0.19895  -3.90872 
 1                    -11.13787  -1.39141  -3.52588 
 1                    -8.99214  -4.79676  -1.79956 
 1                    -8.02269  -5.6558   -0.59397 
 1                    -9.43816  -5.03946  -0.31306 
 1                    -3.39594  -3.61953  -0.04317 
 1                    -1.49711  -4.59585   3.77142 
 1                    -3.02362  -5.41221   3.53765 
 1                    -1.61885  -5.96051   2.8474 
 1                     2.72642  -1.7054   -1.60906 
 1                     2.70536  -0.03108  -1.75715 
 1                     4.17992  -0.86082   0.43548 
 1                     4.08451   1.35245  -2.55116 
 1                     5.81129   2.16883  -2.16325 
 1                     5.58518   0.59238  -3.06946 
 1                     6.61946   1.36901   0.43765 
 1                     6.34237  -0.36198   0.74064 
 1                     7.36725  -1.26126  -0.97387 
 1                     7.81198   0.29915  -1.77376 
 1                     8.92404   1.0248    0.06325 
 1                     8.91931  -0.73758   0.66353 
 1                     10.53517   0.12386  -1.85041 
 1                     9.04382  -1.95375  -1.9557 
 1                     10.9517  -2.55138  -1.85052 
 1                     10.02461  -2.65173  -0.52775 
 1                     11.40347   0.72215   0.2523 
 1                     11.4511  -1.00631   0.82213 
 1                     12.93343  -1.48899  -1.35168 
 1                     12.51224  -0.06316  -1.80693 
 1                     13.86482   0.95799   0.17605 
 1                     13.81209  -0.84702   0.82559 
 1                     15.4237   0.26248  -1.56989 
 1                     15.70381  -2.31539  -0.21901 
 1                     14.90349  -2.04606  -1.76479 
 1                     16.79896  -1.81888  -1.597 
 1                     16.09523   1.13536   0.67597 
 1                     16.2872  -0.37329   1.19102 
 1                     18.21779  -0.52539  -0.37743 
 1                     17.77152   0.94155  -1.21376 
 1                     18.58938   2.45813   0.84353 
 1                     18.62885   0.8749    1.75823 
 1                     20.56991   0.32763   0.08278 
 1                     19.99363   3.29271  -0.58449 
 1                     21.43622   2.47119  -1.23566 
 1                     19.9286   2.17105  -1.91597 
 1                     20.94671   1.21895   2.29338 
 1                     22.14129   2.22237   1.25407 
 1                     20.70731   2.85894   1.68181 
 
galloc:  could not allocate memory.
=======
 12                   -7.23213   0.52238   0.16111 
 6                    -4.92874  -1.98946   0.57481 
 6                    -4.84737   2.89338   1.22622 
 6                    -9.25296   3.09303  -0.55787 
 6                    -9.51425  -1.73386  -0.95756 
 7                    -5.15353   0.39774   0.8232 
 6                    -4.33066  -0.75705   0.93488 
 6                    -2.87994  -0.37758   1.22929 
 6                    -3.02958   1.03286   1.74265 
 6                    -4.45473   1.49375   1.17588 
 6                    -2.94434   1.19076   3.26732 
 6                    -1.96453  -0.58844   0.08365 
 6                    -0.45194  -0.50298   0.5738 
 6                     0.42808  -0.84744  -0.50848 
 8                     0.11291  -1.27645  -1.52233 
 8                     1.70217  -0.56177  -0.09901 
 7                    -7.07255   2.64537   0.4076 
 6                    -6.05781   3.41518   0.87225 
 6                    -6.29413   4.8079    0.7092 
 6                    -7.58225   4.94642   0.25387 
 6                    -8.11907   3.47689   0.02593 
 6                    -5.47897   5.90201   1.21661 
 6                    -8.3789    6.0725    0.0754 
 6                    -8.41387   7.18108   0.88064 
 7                    -9.16341   0.67751  -0.43563 
 6                    -9.78402   1.809    -0.62732 
 6                    -11.10586   1.5894   -1.2573 
 6                    -11.1674   0.19124  -1.40228 
 6                    -10.02517  -0.34991  -0.83256 
 6                    -12.06416   2.53066  -1.72022 
 6                    -12.41403  -0.62482  -1.8602 
 6                    -12.25436  -1.02849  -3.35786 
 7                    -7.41421  -1.37878   0.05616 
 6                    -8.37125  -2.22512  -0.4689 
 6                    -7.96135  -3.63326  -0.51472 
 6                    -6.64742  -3.53905  -0.09583 
 6                    -6.2715   -2.17636   0.19693 
 6                    -8.77261  -4.87385  -0.87202 
 6                    -5.38708  -4.37176   0.15116 
 8                    -5.12807  -5.5693    0.14921 
 6                    -4.26791  -3.26891   0.64743 
 6                    -3.57804  -3.67856   1.85468 
 8                    -3.80049  -3.13193   2.98026 
 8                    -2.69916  -4.70431   1.74567 
 6                    -2.05612  -5.31985   2.86642 
 6                     2.71611  -0.86627  -1.04492 
 6                     4.17958  -0.43964  -0.4459 
 6                     5.1335    0.28071  -1.0542 
 6                     4.99315   0.94305  -2.47508 
 6                     6.44414   0.39041  -0.3701 
 6                     7.67933  -0.22581  -1.08331 
 6                     8.97181  -0.23231  -0.15144 
 6                     10.2607  -0.58346  -0.8936 
 6                     10.22548  -2.03761  -1.39295 
 6                     11.35668  -0.20347  -0.12063 
 6                     12.79858  -0.60033  -0.69918 
 6                     13.95431  -0.02565   0.14873 
 6                     15.40046   0.00071  -0.50853 
 6                     15.62788  -1.54298  -0.86004 
 6                     16.41034   0.61173   0.35194 
 6                     17.82921   0.59835  -0.21403 
 6                     18.73399   1.3809    0.72198 
 6                     20.24736   1.46444   0.27571 
 6                     20.47165   2.17433  -1.01747 
 6                     21.08127   2.07815   1.42444 
 1                    -4.24288   3.55376   1.61852 
 1                    -9.99898   3.95704  -0.56128 
 1                    -10.22844  -2.51605  -1.28008 
 1                    -2.62301  -1.15966   2.0847 
 1                    -2.27476   1.58296   1.29136 
 1                    -2.01344   1.02388   3.50969 
 1                    -3.2042    2.15342   3.54878 
 1                    -3.64587   0.56727   3.73441 
 1                    -1.94255  -1.65888  -0.36115 
 1                    -1.99293  -0.05958  -0.86531 
 1                    -0.11276   0.41182   1.21101 
 1                    -0.28713  -1.21491   1.45654 
 1                    -5.51459   6.8452    0.54674 
 1                    -5.69481   6.13009   2.4157 
 1                    -4.22154   5.65525   1.14553 
 1                    -8.96892   5.98038  -0.82977 
 1                    -8.86369   8.05305   0.6939 
 1                    -7.63835   7.3616    1.78321 
 1                    -11.77844   2.72595  -2.94771 
 1                    -13.14861   2.13812  -1.50578 
 1                    -12.08524   3.67769  -1.22224 
 1                    -12.29305  -1.44122  -1.05369 
 1                    -13.35464   0.05206  -1.613 
 1                    -13.31698  -1.59827  -3.69799 
 1                    -12.1953  -0.11284  -4.01395 
 1                    -11.47035  -1.98031  -3.36066 
 1                    -8.84656  -4.9114   -1.83913 
 1                    -8.07491  -5.77858  -0.47553 
 1                    -9.6204   -5.05541  -0.19412 
 1                    -3.29322  -3.36717  -0.14437 
 1                    -1.14991  -4.81568   3.22336 
 1                    -2.86584  -5.27407   3.67005 
 1                    -1.65763  -6.3019    2.46983 
 1                     2.88654  -2.04135  -1.31253 
 1                     2.51566  -0.38265  -2.10902 
 1                     4.3626   -0.92809   0.46207 
 1                     3.97275   0.83107  -2.97928 
 1                     5.4281    1.9999   -2.39999 
 1                     6.01017   0.63028  -2.99699 
 1                     6.79842   1.42237   0.05049 
 1                     6.23791  -0.10215   0.54249 
 1                     7.56511  -1.17515  -1.33539 
 1                     7.85437   0.2559   -2.11882 
 1                     9.14971   0.86077   0.36904 
 1                     8.78047  -0.89606   0.71845 
 1                     10.49115   0.01114  -1.78386 
 1                     9.25562  -2.07598  -1.6748 
 1                     10.98086  -2.43342  -2.11752 
 1                     10.26528  -2.93228  -0.50402 
 1                     11.40778   0.92535   0.09956 
 1                     11.33537  -0.60358   0.72914 
 1                     12.99155  -1.65257  -0.85545 
 1                     12.98529  -0.00661  -1.84349 
 1                     13.78192   1.01911   0.49314 
 1                     14.0667  -0.55503   1.16123 
 1                     15.30964   0.39708  -1.56838 
 1                     15.40735  -2.3142   -0.1447 
 1                     14.81554  -1.72333  -1.81049 
 1                     16.63131  -1.54515  -1.34632 
 1                     16.27125   1.74031   0.63424 
 1                     16.34096   0.03355   1.25857 
 1                     18.0932  -0.40174  -0.46132 
 1                     17.85474   0.81976  -1.50214 
 1                     18.2926   2.38545   0.57646 
 1                     18.77795   0.98597   1.54713 
 1                     20.59393   0.36382   0.35735 
 1                     20.13895   3.2885   -0.97786 
 1                     21.49542   2.24581  -1.51004 
 1                     19.65312   1.8479   -1.70797 
 1                     21.28953   1.41921   2.29691 
 1                     22.14718   2.14612   0.95101 
 1                     21.00223   3.11874   1.64508 
 
 Stoichiometry    C55H72MgN4O5
 Framework group  C1[X(C55H72MgN4O5)]
 Deg. of freedom   405
 Full point group                 C1      NOp   1
 Largest Abelian subgroup         C1      NOp   1
 Largest concise Abelian subgroup C1      NOp   1
                         Standard orientation:                         
 ---------------------------------------------------------------------
 Center     Atomic      Atomic             Coordinates (Angstroms)
 Number     Number       Type             X           Y           Z
 ---------------------------------------------------------------------
      1         12           0       -7.233023    0.541173    0.163442
      2          6           0       -4.935914   -1.975541    0.582453
      3          6           0       -4.842536    2.908366    1.224159
      4          6           0       -9.247377    3.115391   -0.560928
      5          6           0       -9.520578   -1.711625   -0.951059
      6          7           0       -5.154821    0.412697    0.826064
      7          6           0       -4.334835   -0.743899    0.940151
      8          6           0       -2.883212   -0.367442    1.234008
      9          6           0       -3.029423    1.044376    1.744543
     10          6           0       -4.453357    1.507672    1.176662
     11          6           0       -2.943997    1.205101    3.268901
     12          6           0       -1.968178   -0.582855    0.088914
     13          6           0       -0.455449   -0.500170    0.579100
     14          6           0        0.423865   -0.848955   -0.502370
     15          8           0        0.107765   -1.279203   -1.515410
     16          8           0        1.698603   -0.565634   -0.093294
     17          7           0       -7.068209    2.664246    0.405728
     18          6           0       -6.051623    3.432464    0.868987
     19          6           0       -6.284470    4.825431    0.703137
     20          6           0       -7.572187    4.966237    0.247357
     21          6           0       -8.112612    3.497593    0.022257
     22          6           0       -5.466668    5.918532    1.208477
     23          6           0       -8.366015    6.093933    0.066540
     24          6           0       -8.398343    7.204202    0.869569
     25          7           0       -9.163829    0.699901   -0.433872
     26          6           0       -9.781613    1.832542   -0.627898
     27          6           0      -11.103905    1.614962   -1.257620
     28          6           0      -11.168890    0.216681   -1.399830
     29          6           0      -10.028079   -0.326166   -0.828877
     30          6           0      -12.059803    2.557678   -1.722544
     31          6           0      -12.417475   -0.597201   -1.856295
     32          6           0      -12.258614   -1.004238   -3.353132
     33          7           0       -7.419798   -1.359734    0.062245
     34          6           0       -8.378859   -2.204742   -0.461265
     35          6           0       -7.972449   -3.613986   -0.504226
     36          6           0       -6.658342   -3.522196   -0.085346
     37          6           0       -6.279086   -2.159860    0.204759
     38          6           0       -8.786737   -4.853268   -0.859167
     39          6           0       -5.400107   -4.357537    0.163472
     40          8           0       -5.144064   -5.555717    0.163943
     41          6           0       -4.278270   -3.256481    0.657708
     42          6           0       -3.589575   -3.665438    1.865857
     43          8           0       -3.810822   -3.116017    2.990322
     44          8           0       -2.713228   -4.693569    1.759015
     45          6           0       -2.071860   -5.308472    2.881073
     46          6           0        2.711912   -0.874528   -1.038456
     47          6           0        4.176352   -0.450333   -0.440094
     48          6           0        5.132131    0.266446   -1.049684
     49          6           0        4.993613    0.926297   -2.471904
     50          6           0        6.442950    0.374255   -0.365632
     51          6           0        7.676701   -0.246445   -1.077437
     52          6           0        8.969041   -0.254291   -0.145380
     53          6           0       10.257152   -0.610106   -0.886666
     54          6           0       10.218397   -2.065164   -1.383131
     55          6           0       11.353970   -0.231305   -0.114304
     56          6           0       12.794965   -0.632887   -0.691864
     57          6           0       13.952004   -0.059387    0.155062
     58          6           0       15.398293   -0.037918   -0.502051
     59          6           0       15.621941   -1.582862   -0.850456
     60          6           0       16.409569    0.572306    0.357340
     61          6           0       17.828479    0.554290   -0.208404
     62          6           0       18.735078    1.336451    0.726172
     63          6           0       20.248709    1.415353    0.279944
     64          6           0       20.474924    2.122111   -1.014619
     65          6           0       21.083981    2.029282    1.427562
     66          1           0       -4.236455    3.568028    1.615225
     67          1           0       -9.991253    3.981231   -0.566161
     68          1           0      -10.236656   -2.492685   -1.272123
     69          1           0       -2.628336   -1.148461    2.091002
     70          1           0       -2.273187    1.591711    1.292259
     71          1           0       -2.013542    1.036399    3.511737
     72          1           0       -3.201504    2.168958    3.548409
     73          1           0       -3.647131    0.584282    3.737131
     74          1           0       -1.948789   -1.654220   -0.353756
     75          1           0       -1.995143   -0.055809   -0.861099
     76          1           0       -0.114089    0.415053    1.214536
     77          1           0       -0.292515   -1.210740    1.463275
     78          1           0       -5.499865    6.860473    0.536732
     79          1           0       -5.682101    6.149524    2.407083
     80          1           0       -4.209844    5.668509    1.138062
     81          1           0       -8.956144    6.001482   -0.838534
     82          1           0       -8.845978    8.076902    0.681028
     83          1           0       -7.622506    7.384592    1.771877
     84          1           0      -11.773444    2.749817   -2.950379
     85          1           0      -13.145260    2.168248   -1.507476
     86          1           0      -12.078111    3.705738   -1.226853
     87          1           0      -12.298634   -1.412296   -1.048150
     88          1           0      -13.356445    0.082497   -1.610571
     89          1           0      -13.322593   -1.572068   -3.692273
     90          1           0      -12.197198   -0.090045   -4.011037
     91          1           0      -11.476966   -1.958010   -3.353935
     92          1           0       -8.860651   -4.892560   -1.826212
     93          1           0       -8.091326   -5.758932   -0.460784
     94          1           0       -9.635061   -5.031379   -0.181029
     95          1           0       -3.303721   -3.358728   -0.133765
     96          1           0       -1.164457   -4.805842    3.237128
     97          1           0       -2.881570   -5.259090    3.684497
     98          1           0       -1.675760   -6.292296    2.486491
     99          1           0        2.879459   -2.050548   -1.303705
    100          1           0        2.512797   -0.392529   -2.103552
    101          1           0        4.358037   -0.937421    0.468875
    102          1           0        3.973003    0.815849   -2.976015
    103          1           0        5.431171    1.982217   -2.398851
    104          1           0        6.009924    0.609978   -2.993048
    105          1           0        6.799734    1.406163    0.052955
    106          1           0        6.235379   -0.115976    0.547915
    107          1           0        7.560170   -1.195993   -1.327654
    108          1           0        7.853074    0.232771   -2.113888
    109          1           0        9.149578    0.839381    0.372951
    110          1           0        8.775938   -0.915830    0.725799
    111          1           0       10.489193   -0.017851   -1.778078
    112          1           0        9.248484   -2.101681   -1.665038
    113          1           0       10.972891   -2.464280   -2.106802
    114          1           0       10.255862   -2.958150   -0.492416
    115          1           0       11.407838    0.897829    0.103651
    116          1           0       11.331554   -0.629663    0.736262
    117          1           0       12.985345   -1.685910   -0.846018
    118          1           0       12.983295   -0.041904   -1.837325
    119          1           0       13.782153    0.986488    0.497365
    120          1           0       14.062942   -0.587021    1.168629
    121          1           0       15.308604    0.356570   -1.562702
    122          1           0       15.399399   -2.352108   -0.133615
    123          1           0       14.809283   -1.763091   -1.800660
    124          1           0       16.625425   -1.588483   -1.336594
    125          1           0       16.273246    1.701793    0.637376
    126          1           0       16.338640   -0.003887    1.265107
    127          1           0       18.090025   -0.446939   -0.453671
    128          1           0       17.854733    0.773072   -1.496955
    129          1           0       18.296194    2.341806    0.578587
    130          1           0       18.777951    0.943061    1.552114
    131          1           0       20.592540    0.314048    0.363821
    132          1           0       20.144981    3.237185   -0.977269
    133          1           0       21.498939    2.190079   -1.507189
    134          1           0       19.655680    1.796338   -1.704576
    135          1           0       21.290497    1.371563    2.301370
    136          1           0       22.150116    2.093663    0.954146
    137          1           0       21.007492    3.070502    1.646129
 ---------------------------------------------------------------------
 Rotational constants (GHZ):      0.0633737      0.0060803      0.0057274
 Standard basis: 6-31G(d,p) (6D, 7F)
 There are  1339 symmetry adapted cartesian basis functions of A   symmetry.
 There are  1339 symmetry adapted basis functions of A   symmetry.
  1339 basis functions,  2348 primitive gaussians,  1339 cartesian basis functions
   241 alpha electrons      241 beta electrons
       nuclear repulsion energy      8732.1935573877 Hartrees.
 NAtoms=  137 NActive=  137 NUniq=  137 SFac= 1.00D+00 NAtFMM=   60 NAOKFM=T Big=T
 Integral buffers will be    131072 words long.
 Raffenetti 1 integral format.
 Two-electron integral symmetry is turned on.
 One-electron integrals computed using PRISM.
 NBasis=  1339 RedAO= T EigKep=  3.38D-04  NBF=  1339
 NBsUse=  1339 1.00D-06 EigRej= -1.00D+00 NBFU=  1339
 ExpMin= 4.21D-02 ExpMax= 1.17D+04 ExpMxC= 1.76D+03 IAcc=2 IRadAn=         4 AccDes= 0.00D+00
 Harris functional with IExCor=20419 and IRadAn=       4 diagonalized for initial guess.
 HarFok:  IExCor=20419 AccDes= 0.00D+00 IRadAn=         4 IDoV= 1 UseB2=F ITyADJ=14
 ICtDFT=  3500011 ScaDFX=  1.000000  1.000000  1.000000  1.000000
 FoFCou: FMM=F IPFlag=           0 FMFlag=      100000 FMFlg1=        2001
         NFxFlg=           0 DoJE=T BraDBF=F KetDBF=T FulRan=T
         wScrn=  0.000000 ICntrl=     500 IOpCl=  0 I1Cent=   200000004 NGrid=           0
         NMat0=    1 NMatS0=      1 NMatT0=    0 NMatD0=    1 NMtDS0=    0 NMtDT0=    0
 Petite list used in FoFCou.
 Requested convergence on RMS density matrix=1.00D-08 within 128 cycles.
 Requested convergence on MAX density matrix=1.00D-06.
 Requested convergence on             energy=1.00D-06.
 No special actions if energy rises.
 SCF Done:  E(RCAM-B3LYP) =  -2932.53234230     A.U. after   18 cycles
            NFock= 18  Conv=0.39D-08     -V/T= 2.0096
 DoSCS=F DFT=T ScalE2(SS,OS)=  1.000000  1.000000
 ExpMin= 4.21D-02 ExpMax= 1.17D+04 ExpMxC= 1.76D+03 IAcc=3 IRadAn=         5 AccDes= 0.00D+00
 HarFok:  IExCor=  205 AccDes= 0.00D+00 IRadAn=         5 IDoV=-2 UseB2=F ITyADJ=14
 ICtDFT= 12500011 ScaDFX=  1.000000  1.000000  1.000000  1.000000
 Range of M.O.s used for correlation:    70  1339
 NBasis=  1339 NAE=   241 NBE=   241 NFC=    69 NFV=     0
 NROrb=   1270 NOA=   172 NOB=   172 NVA=  1098 NVB=  1098
 Would need an additional       2415464100000 words for in-memory AO integral storage.
 Orbital symmetries:
       Occupied  (A) (A) (A) (A) (A) (A) (A) (A) (A) (A) (A) (A)
                 (A) (A) (A) (A) (A) (A) (A) (A) (A) (A) (A) (A)
                 (A) (A) (A) (A) (A) (A) (A) (A) (A) (A) (A) (A)
                 (A) (A) (A) (A) (A) (A) (A) (A) (A) (A) (A) (A)
                 (A) (A) (A) (A) (A) (A) (A) (A) (A) (A) (A) (A)
                 (A) (A) (A) (A) (A) (A) (A) (A) (A) (A) (A) (A)
                 (A) (A) (A) (A) (A) (A) (A) (A) (A) (A) (A) (A)
                 (A) (A) (A) (A) (A) (A) (A) (A) (A) (A) (A) (A)
                 (A) (A) (A) (A) (A) (A) (A) (A) (A) (A) (A) (A)
                 (A) (A) (A) (A) (A) (A) (A) (A) (A) (A) (A) (A)
                 (A) (A) (A) (A) (A) (A) (A) (A) (A) (A) (A) (A)
                 (A) (A) (A) (A) (A) (A) (A) (A) (A) (A) (A) (A)
                 (A) (A) (A) (A) (A) (A) (A) (A) (A) (A) (A) (A)
                 (A) (A) (A) (A) (A) (A) (A) (A) (A) (A) (A) (A)
                 (A) (A) (A) (A) (A) (A) (A) (A) (A) (A) (A) (A)
                 (A) (A) (A) (A) (A) (A) (A) (A) (A) (A) (A) (A)
                 (A) (A) (A) (A) (A) (A) (A) (A) (A) (A) (A) (A)
                 (A) (A) (A) (A) (A) (A) (A) (A) (A) (A) (A) (A)
                 (A) (A) (A) (A) (A) (A) (A) (A) (A) (A) (A) (A)
                 (A) (A) (A) (A) (A) (A) (A) (A) (A) (A) (A) (A)
                 (A)
       Virtual   (A) (A) (A) (A) (A) (A) (A) (A) (A) (A) (A) (A)
                 (A) (A) (A) (A) (A) (A) (A) (A) (A) (A) (A) (A)
                 (A) (A) (A) (A) (A) (A) (A) (A) (A) (A) (A) (A)
                 (A) (A) (A) (A) (A) (A) (A) (A) (A) (A) (A) (A)
                 (A) (A) (A) (A) (A) (A) (A) (A) (A) (A) (A) (A)
                 (A) (A) (A) (A) (A) (A) (A) (A) (A) (A) (A) (A)
                 (A) (A) (A) (A) (A) (A) (A) (A) (A) (A) (A) (A)
                 (A) (A) (A) (A) (A) (A) (A) (A) (A) (A) (A) (A)
                 (A) (A) (A) (A) (A) (A) (A) (A) (A) (A) (A) (A)
                 (A) (A) (A) (A) (A) (A) (A) (A) (A) (A) (A) (A)
                 (A) (A) (A) (A) (A) (A) (A) (A) (A) (A) (A) (A)
                 (A) (A) (A) (A) (A) (A) (A) (A) (A) (A) (A) (A)
                 (A) (A) (A) (A) (A) (A) (A) (A) (A) (A) (A) (A)
                 (A) (A) (A) (A) (A) (A) (A) (A) (A) (A) (A) (A)
                 (A) (A) (A) (A) (A) (A) (A) (A) (A) (A) (A) (A)
                 (A) (A) (A) (A) (A) (A) (A) (A) (A) (A) (A) (A)
                 (A) (A) (A) (A) (A) (A) (A) (A) (A) (A) (A) (A)
                 (A) (A) (A) (A) (A) (A) (A) (A) (A) (A) (A) (A)
                 (A) (A) (A) (A) (A) (A) (A) (A) (A) (A) (A) (A)
                 (A) (A) (A) (A) (A) (A) (A) (A) (A) (A) (A) (A)
                 (A) (A) (A) (A) (A) (A) (A) (A) (A) (A) (A) (A)
                 (A) (A) (A) (A) (A) (A) (A) (A) (A) (A) (A) (A)
                 (A) (A) (A) (A) (A) (A) (A) (A) (A) (A) (A) (A)
                 (A) (A) (A) (A) (A) (A) (A) (A) (A) (A) (A) (A)
                 (A) (A) (A) (A) (A) (A) (A) (A) (A) (A) (A) (A)
                 (A) (A) (A) (A) (A) (A) (A) (A) (A) (A) (A) (A)
                 (A) (A) (A) (A) (A) (A) (A) (A) (A) (A) (A) (A)
                 (A) (A) (A) (A) (A) (A) (A) (A) (A) (A) (A) (A)
                 (A) (A) (A) (A) (A) (A) (A) (A) (A) (A) (A) (A)
                 (A) (A) (A) (A) (A) (A) (A) (A) (A) (A) (A) (A)
                 (A) (A) (A) (A) (A) (A) (A) (A) (A) (A) (A) (A)
                 (A) (A) (A) (A) (A) (A) (A) (A) (A) (A) (A) (A)
                 (A) (A) (A) (A) (A) (A) (A) (A) (A) (A) (A) (A)
                 (A) (A) (A) (A) (A) (A) (A) (A) (A) (A) (A) (A)
                 (A) (A) (A) (A) (A) (A) (A) (A) (A) (A) (A) (A)
                 (A) (A) (A) (A) (A) (A) (A) (A) (A) (A) (A) (A)
                 (A) (A) (A) (A) (A) (A) (A) (A) (A) (A) (A) (A)
                 (A) (A) (A) (A) (A) (A) (A) (A) (A) (A) (A) (A)
                 (A) (A) (A) (A) (A) (A) (A) (A) (A) (A) (A) (A)
                 (A) (A) (A) (A) (A) (A) (A) (A) (A) (A) (A) (A)
                 (A) (A) (A) (A) (A) (A) (A) (A) (A) (A) (A) (A)
                 (A) (A) (A) (A) (A) (A) (A) (A) (A) (A) (A) (A)
                 (A) (A) (A) (A) (A) (A) (A) (A) (A) (A) (A) (A)
                 (A) (A) (A) (A) (A) (A) (A) (A) (A) (A) (A) (A)
                 (A) (A) (A) (A) (A) (A) (A) (A) (A) (A) (A) (A)
                 (A) (A) (A) (A) (A) (A) (A) (A) (A) (A) (A) (A)
                 (A) (A) (A) (A) (A) (A) (A) (A) (A) (A) (A) (A)
                 (A) (A) (A) (A) (A) (A) (A) (A) (A) (A) (A) (A)
                 (A) (A) (A) (A) (A) (A) (A) (A) (A) (A) (A) (A)
                 (A) (A) (A) (A) (A) (A) (A) (A) (A) (A) (A) (A)
                 (A) (A) (A) (A) (A) (A) (A) (A) (A) (A) (A) (A)
                 (A) (A) (A) (A) (A) (A) (A) (A) (A) (A) (A) (A)
                 (A) (A) (A) (A) (A) (A) (A) (A) (A) (A) (A) (A)
                 (A) (A) (A) (A) (A) (A) (A) (A) (A) (A) (A) (A)
                 (A) (A) (A) (A) (A) (A) (A) (A) (A) (A) (A) (A)
                 (A) (A) (A) (A) (A) (A) (A) (A) (A) (A) (A) (A)
                 (A) (A) (A) (A) (A) (A) (A) (A) (A) (A) (A) (A)
                 (A) (A) (A) (A) (A) (A) (A) (A) (A) (A) (A) (A)
                 (A) (A) (A) (A) (A) (A) (A) (A) (A) (A) (A) (A)
                 (A) (A) (A) (A) (A) (A) (A) (A) (A) (A) (A) (A)
                 (A) (A) (A) (A) (A) (A) (A) (A) (A) (A) (A) (A)
                 (A) (A) (A) (A) (A) (A) (A) (A) (A) (A) (A) (A)
                 (A) (A) (A) (A) (A) (A) (A) (A) (A) (A) (A) (A)
                 (A) (A) (A) (A) (A) (A) (A) (A) (A) (A) (A) (A)
                 (A) (A) (A) (A) (A) (A) (A) (A) (A) (A) (A) (A)
                 (A) (A) (A) (A) (A) (A) (A) (A) (A) (A) (A) (A)
                 (A) (A) (A) (A) (A) (A) (A) (A) (A) (A) (A) (A)
                 (A) (A) (A) (A) (A) (A) (A) (A) (A) (A) (A) (A)
                 (A) (A) (A) (A) (A) (A) (A) (A) (A) (A) (A) (A)
                 (A) (A) (A) (A) (A) (A) (A) (A) (A) (A) (A) (A)
                 (A) (A) (A) (A) (A) (A) (A) (A) (A) (A) (A) (A)
                 (A) (A) (A) (A) (A) (A) (A) (A) (A) (A) (A) (A)
                 (A) (A) (A) (A) (A) (A) (A) (A) (A) (A) (A) (A)
                 (A) (A) (A) (A) (A) (A) (A) (A) (A) (A) (A) (A)
                 (A) (A) (A) (A) (A) (A) (A) (A) (A) (A) (A) (A)
                 (A) (A) (A) (A) (A) (A) (A) (A) (A) (A) (A) (A)
                 (A) (A) (A) (A) (A) (A) (A) (A) (A) (A) (A) (A)
                 (A) (A) (A) (A) (A) (A) (A) (A) (A) (A) (A) (A)
                 (A) (A) (A) (A) (A) (A) (A) (A) (A) (A) (A) (A)
                 (A) (A) (A) (A) (A) (A) (A) (A) (A) (A) (A) (A)
                 (A) (A) (A) (A) (A) (A) (A) (A) (A) (A) (A) (A)
                 (A) (A) (A) (A) (A) (A) (A) (A) (A) (A) (A) (A)
                 (A) (A) (A) (A) (A) (A) (A) (A) (A) (A) (A) (A)
                 (A) (A) (A) (A) (A) (A) (A) (A) (A) (A) (A) (A)
                 (A) (A) (A) (A) (A) (A) (A) (A) (A) (A) (A) (A)
                 (A) (A) (A) (A) (A) (A) (A) (A) (A) (A) (A) (A)
                 (A) (A) (A) (A) (A) (A) (A) (A) (A) (A) (A) (A)
                 (A) (A) (A) (A) (A) (A) (A) (A) (A) (A) (A) (A)
                 (A) (A) (A) (A) (A) (A) (A) (A) (A) (A) (A) (A)
                 (A) (A) (A) (A) (A) (A) (A) (A) (A) (A) (A) (A)
                 (A) (A) (A) (A) (A) (A) (A) (A) (A) (A) (A) (A)
                 (A) (A) (A) (A) (A) (A)
     8 initial guesses have been made.
 Convergence on wavefunction:    0.001000000000000
 Iteration     1 Dimension     8 NMult     0 NNew      8
 CISAX will form     8 AO SS matrices at one time.
 Iteration     2 Dimension    12 NMult     8 NNew      4
 Iteration     3 Dimension    16 NMult    12 NNew      4
 Iteration     4 Dimension    20 NMult    16 NNew      4
 Iteration     5 Dimension    24 NMult    20 NNew      4
 Iteration     6 Dimension    28 NMult    24 NNew      4
 ***********************************************************************
 Excited states from <AA,BB:AA,BB> singles matrix:
 ***********************************************************************
 
 Ground to excited state transition densities written to RWF  633
 Ground to excited state transition electric dipole moments (Au):
       state          X           Y           Z        Dip. S.      Osc.
         1        -0.2980      1.6759      0.1161      2.9111      0.1506
 Ground to excited state transition velocity dipole moments (Au):
       state          X           Y           Z        Dip. S.      Osc.
         1         0.0222     -0.1266     -0.0096      0.0166      0.1426
 Ground to excited state transition magnetic dipole moments (Au):
       state          X           Y           Z
         1        -0.6318     -0.2853      3.4495
 Ground to excited state transition velocity quadrupole moments (Au):
       state          XX          YY          ZZ          XY          XZ          YZ
         1        -0.5929     -0.1088     -0.0373      1.6448      0.0755     -0.1289
 <0|del|b> * <b|rxdel|0> + <0|del|b> * <b|delr+rdel|0>
 Rotatory Strengths (R) in cgs (10**-40 erg-esu-cm/Gauss)
       state          XX          YY          ZZ    R(velocity)    E-M Angle
         1       -13.8696   -155.4493     70.2034    -33.0385       91.38
 1/2[<0|r|b>*<b|rxdel|0> + (<0|rxdel|b>*<b|r|0>)*]
 Rotatory Strengths (R) in cgs (10**-40 erg-esu-cm/Gauss)
       state          XX          YY          ZZ     R(length)
         1      -133.1488    338.1734   -283.1246    -26.0334
  1/2[<0|del|b>*<b|r|0> + (<0|r|b>*<b|del|0>)*] (Au)
       state          X           Y           Z        Dip. S.   Osc.(frdel)
         1        -0.0066     -0.2121     -0.0011      0.2198      0.1465

 Excitation energies and oscillator strengths:
 
 Excited State   1:      Singlet-A      2.1119 eV  587.08 nm  f=0.1506  <S**2>=0.000
     240 -> 243        0.31331
     241 -> 242        0.62486
 This state for optimization and/or second-order correction.
 Total Energy, E(TD-HF/TD-KS) =  -2932.45473213    
 Copying the excited state density for this state as the 1-particle RhoCI density.
 SavETr:  write IOETrn=   770 NScale= 10 NData=  16 NLR=1 NState=    1 LETran=      28.

 **********************************************************************

            Population analysis using the SCF density.

 **********************************************************************

 Orbital symmetries:
       Occupied  (A) (A) (A) (A) (A) (A) (A) (A) (A) (A) (A) (A)
                 (A) (A) (A) (A) (A) (A) (A) (A) (A) (A) (A) (A)
                 (A) (A) (A) (A) (A) (A) (A) (A) (A) (A) (A) (A)
                 (A) (A) (A) (A) (A) (A) (A) (A) (A) (A) (A) (A)
                 (A) (A) (A) (A) (A) (A) (A) (A) (A) (A) (A) (A)
                 (A) (A) (A) (A) (A) (A) (A) (A) (A) (A) (A) (A)
                 (A) (A) (A) (A) (A) (A) (A) (A) (A) (A) (A) (A)
                 (A) (A) (A) (A) (A) (A) (A) (A) (A) (A) (A) (A)
                 (A) (A) (A) (A) (A) (A) (A) (A) (A) (A) (A) (A)
                 (A) (A) (A) (A) (A) (A) (A) (A) (A) (A) (A) (A)
                 (A) (A) (A) (A) (A) (A) (A) (A) (A) (A) (A) (A)
                 (A) (A) (A) (A) (A) (A) (A) (A) (A) (A) (A) (A)
                 (A) (A) (A) (A) (A) (A) (A) (A) (A) (A) (A) (A)
                 (A) (A) (A) (A) (A) (A) (A) (A) (A) (A) (A) (A)
                 (A) (A) (A) (A) (A) (A) (A) (A) (A) (A) (A) (A)
                 (A) (A) (A) (A) (A) (A) (A) (A) (A) (A) (A) (A)
                 (A) (A) (A) (A) (A) (A) (A) (A) (A) (A) (A) (A)
                 (A) (A) (A) (A) (A) (A) (A) (A) (A) (A) (A) (A)
                 (A) (A) (A) (A) (A) (A) (A) (A) (A) (A) (A) (A)
                 (A) (A) (A) (A) (A) (A) (A) (A) (A) (A) (A) (A)
                 (A)
       Virtual   (A) (A) (A) (A) (A) (A) (A) (A) (A) (A) (A) (A)
                 (A) (A) (A) (A) (A) (A) (A) (A) (A) (A) (A) (A)
                 (A) (A) (A) (A) (A) (A) (A) (A) (A) (A) (A) (A)
                 (A) (A) (A) (A) (A) (A) (A) (A) (A) (A) (A) (A)
                 (A) (A) (A) (A) (A) (A) (A) (A) (A) (A) (A) (A)
                 (A) (A) (A) (A) (A) (A) (A) (A) (A) (A) (A) (A)
                 (A) (A) (A) (A) (A) (A) (A) (A) (A) (A) (A) (A)
                 (A) (A) (A) (A) (A) (A) (A) (A) (A) (A) (A) (A)
                 (A) (A) (A) (A) (A) (A) (A) (A) (A) (A) (A) (A)
                 (A) (A) (A) (A) (A) (A) (A) (A) (A) (A) (A) (A)
                 (A) (A) (A) (A) (A) (A) (A) (A) (A) (A) (A) (A)
                 (A) (A) (A) (A) (A) (A) (A) (A) (A) (A) (A) (A)
                 (A) (A) (A) (A) (A) (A) (A) (A) (A) (A) (A) (A)
                 (A) (A) (A) (A) (A) (A) (A) (A) (A) (A) (A) (A)
                 (A) (A) (A) (A) (A) (A) (A) (A) (A) (A) (A) (A)
                 (A) (A) (A) (A) (A) (A) (A) (A) (A) (A) (A) (A)
                 (A) (A) (A) (A) (A) (A) (A) (A) (A) (A) (A) (A)
                 (A) (A) (A) (A) (A) (A) (A) (A) (A) (A) (A) (A)
                 (A) (A) (A) (A) (A) (A) (A) (A) (A) (A) (A) (A)
                 (A) (A) (A) (A) (A) (A) (A) (A) (A) (A) (A) (A)
                 (A) (A) (A) (A) (A) (A) (A) (A) (A) (A) (A) (A)
                 (A) (A) (A) (A) (A) (A) (A) (A) (A) (A) (A) (A)
                 (A) (A) (A) (A) (A) (A) (A) (A) (A) (A) (A) (A)
                 (A) (A) (A) (A) (A) (A) (A) (A) (A) (A) (A) (A)
                 (A) (A) (A) (A) (A) (A) (A) (A) (A) (A) (A) (A)
                 (A) (A) (A) (A) (A) (A) (A) (A) (A) (A) (A) (A)
                 (A) (A) (A) (A) (A) (A) (A) (A) (A) (A) (A) (A)
                 (A) (A) (A) (A) (A) (A) (A) (A) (A) (A) (A) (A)
                 (A) (A) (A) (A) (A) (A) (A) (A) (A) (A) (A) (A)
                 (A) (A) (A) (A) (A) (A) (A) (A) (A) (A) (A) (A)
                 (A) (A) (A) (A) (A) (A) (A) (A) (A) (A) (A) (A)
                 (A) (A) (A) (A) (A) (A) (A) (A) (A) (A) (A) (A)
                 (A) (A) (A) (A) (A) (A) (A) (A) (A) (A) (A) (A)
                 (A) (A) (A) (A) (A) (A) (A) (A) (A) (A) (A) (A)
                 (A) (A) (A) (A) (A) (A) (A) (A) (A) (A) (A) (A)
                 (A) (A) (A) (A) (A) (A) (A) (A) (A) (A) (A) (A)
                 (A) (A) (A) (A) (A) (A) (A) (A) (A) (A) (A) (A)
                 (A) (A) (A) (A) (A) (A) (A) (A) (A) (A) (A) (A)
                 (A) (A) (A) (A) (A) (A) (A) (A) (A) (A) (A) (A)
                 (A) (A) (A) (A) (A) (A) (A) (A) (A) (A) (A) (A)
                 (A) (A) (A) (A) (A) (A) (A) (A) (A) (A) (A) (A)
                 (A) (A) (A) (A) (A) (A) (A) (A) (A) (A) (A) (A)
                 (A) (A) (A) (A) (A) (A) (A) (A) (A) (A) (A) (A)
                 (A) (A) (A) (A) (A) (A) (A) (A) (A) (A) (A) (A)
                 (A) (A) (A) (A) (A) (A) (A) (A) (A) (A) (A) (A)
                 (A) (A) (A) (A) (A) (A) (A) (A) (A) (A) (A) (A)
                 (A) (A) (A) (A) (A) (A) (A) (A) (A) (A) (A) (A)
                 (A) (A) (A) (A) (A) (A) (A) (A) (A) (A) (A) (A)
                 (A) (A) (A) (A) (A) (A) (A) (A) (A) (A) (A) (A)
                 (A) (A) (A) (A) (A) (A) (A) (A) (A) (A) (A) (A)
                 (A) (A) (A) (A) (A) (A) (A) (A) (A) (A) (A) (A)
                 (A) (A) (A) (A) (A) (A) (A) (A) (A) (A) (A) (A)
                 (A) (A) (A) (A) (A) (A) (A) (A) (A) (A) (A) (A)
                 (A) (A) (A) (A) (A) (A) (A) (A) (A) (A) (A) (A)
                 (A) (A) (A) (A) (A) (A) (A) (A) (A) (A) (A) (A)
                 (A) (A) (A) (A) (A) (A) (A) (A) (A) (A) (A) (A)
                 (A) (A) (A) (A) (A) (A) (A) (A) (A) (A) (A) (A)
                 (A) (A) (A) (A) (A) (A) (A) (A) (A) (A) (A) (A)
                 (A) (A) (A) (A) (A) (A) (A) (A) (A) (A) (A) (A)
                 (A) (A) (A) (A) (A) (A) (A) (A) (A) (A) (A) (A)
                 (A) (A) (A) (A) (A) (A) (A) (A) (A) (A) (A) (A)
                 (A) (A) (A) (A) (A) (A) (A) (A) (A) (A) (A) (A)
                 (A) (A) (A) (A) (A) (A) (A) (A) (A) (A) (A) (A)
                 (A) (A) (A) (A) (A) (A) (A) (A) (A) (A) (A) (A)
                 (A) (A) (A) (A) (A) (A) (A) (A) (A) (A) (A) (A)
                 (A) (A) (A) (A) (A) (A) (A) (A) (A) (A) (A) (A)
                 (A) (A) (A) (A) (A) (A) (A) (A) (A) (A) (A) (A)
                 (A) (A) (A) (A) (A) (A) (A) (A) (A) (A) (A) (A)
                 (A) (A) (A) (A) (A) (A) (A) (A) (A) (A) (A) (A)
                 (A) (A) (A) (A) (A) (A) (A) (A) (A) (A) (A) (A)
                 (A) (A) (A) (A) (A) (A) (A) (A) (A) (A) (A) (A)
                 (A) (A) (A) (A) (A) (A) (A) (A) (A) (A) (A) (A)
                 (A) (A) (A) (A) (A) (A) (A) (A) (A) (A) (A) (A)
                 (A) (A) (A) (A) (A) (A) (A) (A) (A) (A) (A) (A)
                 (A) (A) (A) (A) (A) (A) (A) (A) (A) (A) (A) (A)
                 (A) (A) (A) (A) (A) (A) (A) (A) (A) (A) (A) (A)
                 (A) (A) (A) (A) (A) (A) (A) (A) (A) (A) (A) (A)
                 (A) (A) (A) (A) (A) (A) (A) (A) (A) (A) (A) (A)
                 (A) (A) (A) (A) (A) (A) (A) (A) (A) (A) (A) (A)
                 (A) (A) (A) (A) (A) (A) (A) (A) (A) (A) (A) (A)
                 (A) (A) (A) (A) (A) (A) (A) (A) (A) (A) (A) (A)
                 (A) (A) (A) (A) (A) (A) (A) (A) (A) (A) (A) (A)
                 (A) (A) (A) (A) (A) (A) (A) (A) (A) (A) (A) (A)
                 (A) (A) (A) (A) (A) (A) (A) (A) (A) (A) (A) (A)
                 (A) (A) (A) (A) (A) (A) (A) (A) (A) (A) (A) (A)
                 (A) (A) (A) (A) (A) (A) (A) (A) (A) (A) (A) (A)
                 (A) (A) (A) (A) (A) (A) (A) (A) (A) (A) (A) (A)
                 (A) (A) (A) (A) (A) (A) (A) (A) (A) (A) (A) (A)
                 (A) (A) (A) (A) (A) (A) (A) (A) (A) (A) (A) (A)
                 (A) (A) (A) (A) (A) (A) (A) (A) (A) (A) (A) (A)
                 (A) (A) (A) (A) (A) (A) (A) (A) (A) (A) (A) (A)
                 (A) (A) (A) (A) (A) (A)
 The electronic state is 1-A.
 Alpha  occ. eigenvalues --  -46.84105 -19.26350 -19.26110 -19.22250 -19.21717
 Alpha  occ. eigenvalues --  -19.19780 -14.42173 -14.39832 -14.38962 -14.38515
 Alpha  occ. eigenvalues --  -10.39490 -10.38858 -10.36941 -10.34157 -10.32284
 Alpha  occ. eigenvalues --  -10.31936 -10.31583 -10.30217 -10.29500 -10.29483
 Alpha  occ. eigenvalues --  -10.29194 -10.29189 -10.29137 -10.28756 -10.28660
 Alpha  occ. eigenvalues --  -10.28565 -10.28416 -10.28171 -10.28124 -10.27982
 Alpha  occ. eigenvalues --  -10.27978 -10.27794 -10.27759 -10.27756 -10.27684
 Alpha  occ. eigenvalues --  -10.27396 -10.27338 -10.27319 -10.27246 -10.27112
 Alpha  occ. eigenvalues --  -10.27091 -10.27055 -10.26874 -10.26821 -10.26787
 Alpha  occ. eigenvalues --  -10.26606 -10.26321 -10.26215 -10.26208 -10.26121
 Alpha  occ. eigenvalues --  -10.26003 -10.25940 -10.25669 -10.25546 -10.25451
 Alpha  occ. eigenvalues --  -10.25442 -10.25257 -10.25255 -10.24966 -10.24893
 Alpha  occ. eigenvalues --  -10.24589 -10.24376 -10.23817 -10.23418 -10.23367
 Alpha  occ. eigenvalues --   -3.13236  -1.87929  -1.87503  -1.87401  -1.20568
 Alpha  occ. eigenvalues --   -1.16830  -1.12431  -1.11248  -1.06337  -1.04007
 Alpha  occ. eigenvalues --   -1.03114  -1.02935  -1.01944  -0.93002  -0.92119
 Alpha  occ. eigenvalues --   -0.90810  -0.90593  -0.90072  -0.89753  -0.89000
 Alpha  occ. eigenvalues --   -0.88151  -0.87604  -0.87384  -0.86889  -0.86439
 Alpha  occ. eigenvalues --   -0.84600  -0.84173  -0.83716  -0.82859  -0.82119
 Alpha  occ. eigenvalues --   -0.81604  -0.81348  -0.80153  -0.79662  -0.78072
 Alpha  occ. eigenvalues --   -0.77313  -0.76764  -0.76207  -0.75904  -0.75739
 Alpha  occ. eigenvalues --   -0.75374  -0.74758  -0.74488  -0.73556  -0.72110
 Alpha  occ. eigenvalues --   -0.71650  -0.70835  -0.69534  -0.68941  -0.67917
 Alpha  occ. eigenvalues --   -0.67344  -0.67214  -0.65193  -0.64709  -0.64693
 Alpha  occ. eigenvalues --   -0.64449  -0.63751  -0.63041  -0.62642  -0.61553
 Alpha  occ. eigenvalues --   -0.61499  -0.61080  -0.59577  -0.59267  -0.59087
 Alpha  occ. eigenvalues --   -0.58639  -0.57991  -0.57456  -0.57054  -0.56596
 Alpha  occ. eigenvalues --   -0.55923  -0.55667  -0.55550  -0.55075  -0.54846
 Alpha  occ. eigenvalues --   -0.54598  -0.54101  -0.53807  -0.53533  -0.53326
 Alpha  occ. eigenvalues --   -0.53045  -0.52924  -0.52625  -0.52468  -0.52403
 Alpha  occ. eigenvalues --   -0.51608  -0.51234  -0.51016  -0.50802  -0.50556
 Alpha  occ. eigenvalues --   -0.50357  -0.50166  -0.50005  -0.49776  -0.49251
 Alpha  occ. eigenvalues --   -0.49003  -0.48959  -0.48754  -0.48462  -0.48019
 Alpha  occ. eigenvalues --   -0.47821  -0.47703  -0.47551  -0.47444  -0.47192
 Alpha  occ. eigenvalues --   -0.46460  -0.46386  -0.46115  -0.46030  -0.45796
 Alpha  occ. eigenvalues --   -0.45744  -0.45539  -0.45210  -0.45095  -0.45025
 Alpha  occ. eigenvalues --   -0.44925  -0.44672  -0.44377  -0.44354  -0.44263
 Alpha  occ. eigenvalues --   -0.43749  -0.43543  -0.43393  -0.43284  -0.43103
 Alpha  occ. eigenvalues --   -0.42945  -0.42767  -0.42632  -0.42144  -0.42129
 Alpha  occ. eigenvalues --   -0.41992  -0.41817  -0.41401  -0.41362  -0.41015
 Alpha  occ. eigenvalues --   -0.40938  -0.40898  -0.40532  -0.40234  -0.40060
 Alpha  occ. eigenvalues --   -0.39890  -0.39456  -0.39443  -0.39025  -0.39016
 Alpha  occ. eigenvalues --   -0.38587  -0.38328  -0.38253  -0.37838  -0.37485
 Alpha  occ. eigenvalues --   -0.37347  -0.37245  -0.36984  -0.36532  -0.36266
 Alpha  occ. eigenvalues --   -0.36092  -0.35981  -0.35872  -0.35629  -0.35199
 Alpha  occ. eigenvalues --   -0.35082  -0.34918  -0.34780  -0.34714  -0.32971
 Alpha  occ. eigenvalues --   -0.32950  -0.32671  -0.32218  -0.30946  -0.30318
 Alpha  occ. eigenvalues --   -0.30171  -0.29626  -0.27579  -0.27019  -0.23241
 Alpha  occ. eigenvalues --   -0.20838
 Alpha virt. eigenvalues --   -0.05398  -0.04073   0.00740   0.03358   0.04834
 Alpha virt. eigenvalues --    0.05659   0.06248   0.06669   0.06850   0.07218
 Alpha virt. eigenvalues --    0.08005   0.09797   0.11055   0.11333   0.11463
 Alpha virt. eigenvalues --    0.11529   0.11580   0.12126   0.12351   0.12396
 Alpha virt. eigenvalues --    0.13059   0.13383   0.13624   0.13856   0.14198
 Alpha virt. eigenvalues --    0.14418   0.14621   0.14746   0.14821   0.14962
 Alpha virt. eigenvalues --    0.15229   0.15574   0.15798   0.15849   0.16232
 Alpha virt. eigenvalues --    0.16498   0.16623   0.16716   0.16946   0.17151
 Alpha virt. eigenvalues --    0.17236   0.17380   0.17471   0.17567   0.18086
 Alpha virt. eigenvalues --    0.18188   0.18299   0.18693   0.18743   0.18979
 Alpha virt. eigenvalues --    0.19135   0.19162   0.19293   0.19445   0.19656
 Alpha virt. eigenvalues --    0.19742   0.19872   0.20163   0.20259   0.20384
 Alpha virt. eigenvalues --    0.20544   0.20671   0.21090   0.21140   0.21218
 Alpha virt. eigenvalues --    0.21393   0.21655   0.21835   0.21886   0.22434
 Alpha virt. eigenvalues --    0.22633   0.22738   0.22898   0.23128   0.23351
 Alpha virt. eigenvalues --    0.23474   0.23635   0.23839   0.23904   0.24085
 Alpha virt. eigenvalues --    0.24411   0.24461   0.24898   0.24984   0.25190
 Alpha virt. eigenvalues --    0.25277   0.25313   0.25411   0.26002   0.26040
 Alpha virt. eigenvalues --    0.26245   0.26451   0.26640   0.27104   0.27183
 Alpha virt. eigenvalues --    0.27394   0.27652   0.27798   0.27941   0.28205
 Alpha virt. eigenvalues --    0.28699   0.28727   0.28898   0.29219   0.29505
 Alpha virt. eigenvalues --    0.29670   0.29778   0.29984   0.30189   0.30284
 Alpha virt. eigenvalues --    0.30477   0.30824   0.31017   0.31461   0.31805
 Alpha virt. eigenvalues --    0.31948   0.32302   0.32460   0.32701   0.33043
 Alpha virt. eigenvalues --    0.33423   0.33777   0.34161   0.34219   0.34760
 Alpha virt. eigenvalues --    0.34943   0.35625   0.35700   0.35922   0.36255
 Alpha virt. eigenvalues --    0.36428   0.36870   0.37239   0.37735   0.38622
 Alpha virt. eigenvalues --    0.38784   0.39046   0.40070   0.40779   0.41416
 Alpha virt. eigenvalues --    0.41843   0.42111   0.42636   0.43019   0.43041
 Alpha virt. eigenvalues --    0.43145   0.44095   0.44600   0.44746   0.45335
 Alpha virt. eigenvalues --    0.46106   0.46536   0.47267   0.48205   0.49320
 Alpha virt. eigenvalues --    0.50551   0.50946   0.51072   0.52045   0.52494
 Alpha virt. eigenvalues --    0.52828   0.53311   0.53695   0.54031   0.54188
 Alpha virt. eigenvalues --    0.54382   0.54843   0.55289   0.55646   0.55966
 Alpha virt. eigenvalues --    0.56188   0.56464   0.56520   0.56702   0.56962
 Alpha virt. eigenvalues --    0.57129   0.57444   0.57810   0.57927   0.58043
 Alpha virt. eigenvalues --    0.58276   0.58494   0.58525   0.58719   0.58775
 Alpha virt. eigenvalues --    0.59019   0.59482   0.59561   0.59750   0.60074
 Alpha virt. eigenvalues --    0.60327   0.60626   0.60874   0.60976   0.61204
 Alpha virt. eigenvalues --    0.61552   0.61730   0.62205   0.62395   0.62596
 Alpha virt. eigenvalues --    0.62960   0.62977   0.63572   0.63937   0.64061
 Alpha virt. eigenvalues --    0.64087   0.64711   0.64750   0.65010   0.65618
 Alpha virt. eigenvalues --    0.65776   0.65925   0.66065   0.66335   0.66595
 Alpha virt. eigenvalues --    0.66717   0.67082   0.67202   0.67625   0.67956
 Alpha virt. eigenvalues --    0.68199   0.68317   0.68735   0.68963   0.69253
 Alpha virt. eigenvalues --    0.69307   0.69835   0.69914   0.70479   0.70663
 Alpha virt. eigenvalues --    0.70951   0.70995   0.71372   0.71587   0.72131
 Alpha virt. eigenvalues --    0.72181   0.72551   0.72732   0.73052   0.73270
 Alpha virt. eigenvalues --    0.73431   0.73622   0.73771   0.74039   0.74390
 Alpha virt. eigenvalues --    0.74708   0.74893   0.75112   0.75244   0.75286
 Alpha virt. eigenvalues --    0.75476   0.75679   0.76166   0.76506   0.76563
 Alpha virt. eigenvalues --    0.76865   0.77164   0.77683   0.77959   0.78131
 Alpha virt. eigenvalues --    0.78299   0.78601   0.78642   0.78872   0.79348
 Alpha virt. eigenvalues --    0.79853   0.80092   0.80213   0.80413   0.80524
 Alpha virt. eigenvalues --    0.80772   0.80973   0.81372   0.81467   0.81633
 Alpha virt. eigenvalues --    0.81967   0.82147   0.82193   0.82419   0.82660
 Alpha virt. eigenvalues --    0.82893   0.83161   0.83236   0.83377   0.84061
 Alpha virt. eigenvalues --    0.84132   0.84249   0.84519   0.84682   0.84965
 Alpha virt. eigenvalues --    0.85041   0.85245   0.85570   0.85623   0.85897
 Alpha virt. eigenvalues --    0.85949   0.86245   0.86333   0.86624   0.86891
 Alpha virt. eigenvalues --    0.86922   0.87109   0.87367   0.87403   0.87872
 Alpha virt. eigenvalues --    0.88106   0.88527   0.88669   0.89164   0.89278
 Alpha virt. eigenvalues --    0.89326   0.89508   0.89536   0.89823   0.89953
 Alpha virt. eigenvalues --    0.90211   0.90525   0.90620   0.90688   0.91340
 Alpha virt. eigenvalues --    0.91519   0.91621   0.91723   0.91971   0.92068
 Alpha virt. eigenvalues --    0.92191   0.92455   0.92755   0.92817   0.92932
 Alpha virt. eigenvalues --    0.93296   0.93382   0.93658   0.93970   0.94337
 Alpha virt. eigenvalues --    0.94440   0.94657   0.94984   0.95045   0.95168
 Alpha virt. eigenvalues --    0.95635   0.95705   0.95900   0.96059   0.96217
 Alpha virt. eigenvalues --    0.96367   0.96691   0.97096   0.97548   0.97706
 Alpha virt. eigenvalues --    0.97764   0.97959   0.98116   0.98536   0.98602
 Alpha virt. eigenvalues --    0.98845   0.99041   0.99516   0.99762   0.99878
 Alpha virt. eigenvalues --    1.00105   1.00186   1.00372   1.00675   1.01139
 Alpha virt. eigenvalues --    1.01294   1.01484   1.01843   1.02187   1.02231
 Alpha virt. eigenvalues --    1.02578   1.02862   1.03197   1.03591   1.03603
 Alpha virt. eigenvalues --    1.04105   1.04227   1.04387   1.04704   1.04922
 Alpha virt. eigenvalues --    1.05121   1.05273   1.05414   1.05526   1.05882
 Alpha virt. eigenvalues --    1.06176   1.06627   1.06835   1.07013   1.07304
 Alpha virt. eigenvalues --    1.07801   1.08072   1.08534   1.09030   1.09170
 Alpha virt. eigenvalues --    1.09416   1.09931   1.10112   1.10317   1.10669
 Alpha virt. eigenvalues --    1.11181   1.11509   1.11834   1.12161   1.12831
 Alpha virt. eigenvalues --    1.13243   1.13631   1.14212   1.14426   1.15028
 Alpha virt. eigenvalues --    1.15077   1.15452   1.15620   1.16891   1.17277
 Alpha virt. eigenvalues --    1.17774   1.18670   1.19182   1.19582   1.20035
 Alpha virt. eigenvalues --    1.20245   1.20628   1.20733   1.21986   1.22858
 Alpha virt. eigenvalues --    1.23026   1.23409   1.23810   1.24117   1.24285
 Alpha virt. eigenvalues --    1.24645   1.25837   1.26198   1.26783   1.26893
 Alpha virt. eigenvalues --    1.27014   1.27687   1.28494   1.28802   1.29410
 Alpha virt. eigenvalues --    1.30053   1.30239   1.30881   1.31695   1.32082
 Alpha virt. eigenvalues --    1.33129   1.33675   1.33834   1.34088   1.34460
 Alpha virt. eigenvalues --    1.35205   1.36556   1.36798   1.37678   1.38264
 Alpha virt. eigenvalues --    1.38533   1.39074   1.39399   1.39504   1.40260
 Alpha virt. eigenvalues --    1.40522   1.41806   1.41888   1.42344   1.43101
 Alpha virt. eigenvalues --    1.43233   1.43320   1.43925   1.44588   1.45242
 Alpha virt. eigenvalues --    1.45410   1.45840   1.46068   1.46514   1.46781
 Alpha virt. eigenvalues --    1.47326   1.48286   1.49262   1.49475   1.49942
 Alpha virt. eigenvalues --    1.50099   1.50773   1.51420   1.51896   1.52314
 Alpha virt. eigenvalues --    1.53511   1.53586   1.53922   1.54140   1.54588
 Alpha virt. eigenvalues --    1.55395   1.55529   1.56026   1.56249   1.56805
 Alpha virt. eigenvalues --    1.57575   1.57769   1.58347   1.58662   1.58844
 Alpha virt. eigenvalues --    1.59057   1.59819   1.60353   1.60836   1.61016
 Alpha virt. eigenvalues --    1.61515   1.62538   1.62784   1.63038   1.63353
 Alpha virt. eigenvalues --    1.63498   1.63595   1.64762   1.64902   1.65099
 Alpha virt. eigenvalues --    1.65338   1.65671   1.65811   1.65930   1.66540
 Alpha virt. eigenvalues --    1.66925   1.67202   1.67871   1.68215   1.68713
 Alpha virt. eigenvalues --    1.69073   1.69866   1.70132   1.70428   1.71160
 Alpha virt. eigenvalues --    1.71335   1.71791   1.72069   1.72981   1.73170
 Alpha virt. eigenvalues --    1.73833   1.73858   1.74236   1.75168   1.76192
 Alpha virt. eigenvalues --    1.76249   1.76565   1.77606   1.78049   1.78532
 Alpha virt. eigenvalues --    1.79241   1.79397   1.79654   1.80155   1.80753
 Alpha virt. eigenvalues --    1.80895   1.81330   1.81470   1.81850   1.82365
 Alpha virt. eigenvalues --    1.82640   1.83071   1.83468   1.83696   1.84083
 Alpha virt. eigenvalues --    1.84275   1.84352   1.84688   1.84965   1.85082
 Alpha virt. eigenvalues --    1.85298   1.85499   1.85780   1.85844   1.86378
 Alpha virt. eigenvalues --    1.86635   1.86852   1.86939   1.87473   1.87544
 Alpha virt. eigenvalues --    1.87695   1.87944   1.88311   1.88921   1.89330
 Alpha virt. eigenvalues --    1.89479   1.89794   1.89868   1.89968   1.90096
 Alpha virt. eigenvalues --    1.90738   1.90827   1.91030   1.91325   1.91438
 Alpha virt. eigenvalues --    1.91712   1.91872   1.91954   1.92063   1.92482
 Alpha virt. eigenvalues --    1.92849   1.92946   1.93178   1.93596   1.93656
 Alpha virt. eigenvalues --    1.93945   1.94230   1.94397   1.94805   1.94887
 Alpha virt. eigenvalues --    1.95197   1.95576   1.95694   1.96059   1.96275
 Alpha virt. eigenvalues --    1.96416   1.96876   1.96949   1.97663   1.97875
 Alpha virt. eigenvalues --    1.98217   1.98339   1.98645   1.99085   1.99254
 Alpha virt. eigenvalues --    1.99497   1.99761   2.00030   2.00091   2.00493
 Alpha virt. eigenvalues --    2.00729   2.00955   2.01147   2.01676   2.02045
 Alpha virt. eigenvalues --    2.02329   2.02636   2.02981   2.03393   2.03610
 Alpha virt. eigenvalues --    2.03824   2.04149   2.04281   2.04577   2.05212
 Alpha virt. eigenvalues --    2.05356   2.05944   2.06005   2.06187   2.06425
 Alpha virt. eigenvalues --    2.06664   2.06765   2.06910   2.07125   2.07584
 Alpha virt. eigenvalues --    2.07886   2.07928   2.08249   2.08483   2.08604
 Alpha virt. eigenvalues --    2.08832   2.09198   2.09345   2.10150   2.10607
 Alpha virt. eigenvalues --    2.10812   2.10898   2.11033   2.11752   2.11914
 Alpha virt. eigenvalues --    2.12019   2.13056   2.13637   2.13701   2.13857
 Alpha virt. eigenvalues --    2.14155   2.14341   2.14719   2.14732   2.15223
 Alpha virt. eigenvalues --    2.15492   2.15819   2.16604   2.17028   2.17148
 Alpha virt. eigenvalues --    2.17230   2.18333   2.18540   2.18987   2.19342
 Alpha virt. eigenvalues --    2.19476   2.19911   2.20009   2.20228   2.21028
 Alpha virt. eigenvalues --    2.21195   2.21835   2.21946   2.22119   2.22663
 Alpha virt. eigenvalues --    2.23455   2.23583   2.23891   2.24584   2.24990
 Alpha virt. eigenvalues --    2.25151   2.25371   2.25697   2.25903   2.26125
 Alpha virt. eigenvalues --    2.26643   2.26878   2.27195   2.27248   2.27491
 Alpha virt. eigenvalues --    2.27901   2.27957   2.28234   2.28414   2.28574
 Alpha virt. eigenvalues --    2.28961   2.29211   2.29768   2.29877   2.30252
 Alpha virt. eigenvalues --    2.30610   2.30907   2.30983   2.31171   2.31343
 Alpha virt. eigenvalues --    2.32284   2.32546   2.32790   2.33143   2.33837
 Alpha virt. eigenvalues --    2.33947   2.34333   2.34488   2.34725   2.35370
 Alpha virt. eigenvalues --    2.35509   2.35948   2.36005   2.36111   2.36404
 Alpha virt. eigenvalues --    2.36462   2.36556   2.37521   2.37963   2.38140
 Alpha virt. eigenvalues --    2.38386   2.38862   2.39002   2.39382   2.39508
 Alpha virt. eigenvalues --    2.39701   2.40094   2.40850   2.41025   2.41233
 Alpha virt. eigenvalues --    2.42170   2.42367   2.42526   2.42800   2.42970
 Alpha virt. eigenvalues --    2.43293   2.43672   2.43766   2.44031   2.45034
 Alpha virt. eigenvalues --    2.45173   2.45735   2.45854   2.46275   2.46768
 Alpha virt. eigenvalues --    2.47417   2.47720   2.47780   2.48117   2.48494
 Alpha virt. eigenvalues --    2.48621   2.48827   2.49710   2.49797   2.49984
 Alpha virt. eigenvalues --    2.50060   2.50740   2.51217   2.51339   2.51574
 Alpha virt. eigenvalues --    2.51859   2.52023   2.52810   2.52858   2.54057
 Alpha virt. eigenvalues --    2.54237   2.54688   2.54891   2.55232   2.55528
 Alpha virt. eigenvalues --    2.55661   2.56354   2.56683   2.56953   2.57039
 Alpha virt. eigenvalues --    2.57674   2.57944   2.58468   2.58691   2.59230
 Alpha virt. eigenvalues --    2.59408   2.59459   2.59592   2.59886   2.60072
 Alpha virt. eigenvalues --    2.60350   2.60751   2.61336   2.62025   2.62665
 Alpha virt. eigenvalues --    2.62891   2.63189   2.63414   2.64045   2.64128
 Alpha virt. eigenvalues --    2.64556   2.64602   2.64912   2.65148   2.65407
 Alpha virt. eigenvalues --    2.65697   2.66074   2.66253   2.66521   2.66819
 Alpha virt. eigenvalues --    2.67179   2.67379   2.67781   2.67820   2.68534
 Alpha virt. eigenvalues --    2.68961   2.69432   2.69564   2.69959   2.70205
 Alpha virt. eigenvalues --    2.70535   2.70580   2.71078   2.71544   2.71800
 Alpha virt. eigenvalues --    2.72134   2.72234   2.72506   2.73252   2.73410
 Alpha virt. eigenvalues --    2.74053   2.74377   2.74770   2.74814   2.75149
 Alpha virt. eigenvalues --    2.75729   2.75794   2.76068   2.76336   2.76554
 Alpha virt. eigenvalues --    2.76644   2.77060   2.77220   2.77281   2.78091
 Alpha virt. eigenvalues --    2.78241   2.79027   2.79232   2.79333   2.79490
 Alpha virt. eigenvalues --    2.80018   2.80243   2.80429   2.80927   2.81048
 Alpha virt. eigenvalues --    2.81236   2.81600   2.81838   2.82002   2.82482
 Alpha virt. eigenvalues --    2.82890   2.83072   2.83506   2.83628   2.84472
 Alpha virt. eigenvalues --    2.84939   2.85110   2.85302   2.86039   2.86701
 Alpha virt. eigenvalues --    2.86906   2.87014   2.87556   2.88143   2.88391
 Alpha virt. eigenvalues --    2.88575   2.88830   2.89155   2.89792   2.90076
 Alpha virt. eigenvalues --    2.90381   2.90397   2.90917   2.91136   2.91367
 Alpha virt. eigenvalues --    2.92410   2.92780   2.93909   2.94404   2.94579
 Alpha virt. eigenvalues --    2.95064   2.95144   2.95612   2.95988   2.96118
 Alpha virt. eigenvalues --    2.96329   2.97121   2.97230   2.97386   2.97637
 Alpha virt. eigenvalues --    2.98307   2.98989   2.99417   2.99679   3.00039
 Alpha virt. eigenvalues --    3.01112   3.01210   3.02266   3.02649   3.02998
 Alpha virt. eigenvalues --    3.03226   3.03836   3.03931   3.05324   3.06077
 Alpha virt. eigenvalues --    3.06559   3.06701   3.07172   3.07449   3.08318
 Alpha virt. eigenvalues --    3.08539   3.08781   3.10236   3.10613   3.10765
 Alpha virt. eigenvalues --    3.11852   3.12412   3.13456   3.13533   3.14199
 Alpha virt. eigenvalues --    3.14946   3.15371   3.15586   3.16724   3.17278
 Alpha virt. eigenvalues --    3.17787   3.18523   3.18660   3.19246   3.20572
 Alpha virt. eigenvalues --    3.21416   3.23314   3.24667   3.25302   3.25400
 Alpha virt. eigenvalues --    3.26168   3.26908   3.27005   3.28133   3.28553
 Alpha virt. eigenvalues --    3.28933   3.29336   3.30206   3.30757   3.30802
 Alpha virt. eigenvalues --    3.30989   3.31685   3.32691   3.33643   3.33887
 Alpha virt. eigenvalues --    3.34382   3.34456   3.35310   3.35726   3.36035
 Alpha virt. eigenvalues --    3.36603   3.37078   3.38106   3.38979   3.39908
 Alpha virt. eigenvalues --    3.40344   3.41177   3.41208   3.41901   3.42972
 Alpha virt. eigenvalues --    3.43986   3.44597   3.45339   3.45863   3.46485
 Alpha virt. eigenvalues --    3.47056   3.47500   3.47795   3.48013   3.48239
 Alpha virt. eigenvalues --    3.48531   3.49248   3.50746   3.51055   3.51349
 Alpha virt. eigenvalues --    3.51719   3.52114   3.53217   3.54778   3.56537
 Alpha virt. eigenvalues --    3.58300   3.59339   3.59999   3.60081   3.61323
 Alpha virt. eigenvalues --    3.62014   3.62604   3.62607   3.65231   3.66369
 Alpha virt. eigenvalues --    3.70093   3.71595   3.79057   3.79413   3.80645
 Alpha virt. eigenvalues --    3.85253   3.87960   3.99908   4.02747   4.06139
 Alpha virt. eigenvalues --    4.11538   4.11833   4.20455   4.22266   4.22465
 Alpha virt. eigenvalues --    4.23240   4.23634   4.25737   4.27272   4.28130
 Alpha virt. eigenvalues --    4.28400   4.30830   4.31508   4.31783   4.34369
 Alpha virt. eigenvalues --    4.35406   4.36550   4.37628   4.38028   4.38904
 Alpha virt. eigenvalues --    4.40042   4.42029   4.42290   4.43696   4.44834
 Alpha virt. eigenvalues --    4.45831   4.46474   4.47918   4.48769   4.49487
 Alpha virt. eigenvalues --    4.51075   4.51335   4.51899   4.52067   4.53046
 Alpha virt. eigenvalues --    4.56419   4.57278   4.58373   4.59319   4.60830
 Alpha virt. eigenvalues --    4.61012   4.61694   4.63362   4.63736   4.66396
 Alpha virt. eigenvalues --    4.67840   4.68720   4.69742   4.70271   4.71295
 Alpha virt. eigenvalues --    4.73483   4.74373   4.75859   4.78489   4.81047
 Alpha virt. eigenvalues --    4.83478   4.84164   4.85575   4.87492   4.88513
 Alpha virt. eigenvalues --    4.88795   4.91319   4.96522
          Condensed to atoms (all electrons):
 Mulliken charges:
               1
     1  Mg   0.831870
     2  C    0.102673
     3  C   -0.179279
     4  C   -0.188741
     5  C   -0.179249
     6  N   -0.619789
     7  C    0.296117
     8  C   -0.153566
     9  C   -0.145084
    10  C    0.329554
    11  C   -0.298127
    12  C   -0.185927
    13  C   -0.299619
    14  C    0.641380
    15  O   -0.428361
    16  O   -0.480785
    17  N   -0.693182
    18  C    0.335601
    19  C    0.066783
    20  C    0.022635
    21  C    0.308813
    22  C   -0.371649
    23  C   -0.114945
    24  C   -0.232594
    25  N   -0.673981
    26  C    0.320498
    27  C    0.039243
    28  C    0.023574
    29  C    0.225838
    30  C   -0.378373
    31  C   -0.226184
    32  C   -0.278764
    33  N   -0.753285
    34  C    0.279926
    35  C    0.021558
    36  C   -0.023315
    37  C    0.291992
    38  C   -0.364900
    39  C    0.389992
    40  O   -0.446888
    41  C   -0.350299
    42  C    0.628541
    43  O   -0.517003
    44  O   -0.456574
    45  C   -0.076506
    46  C    0.012567
    47  C   -0.166088
    48  C    0.158371
    49  C   -0.361699
    50  C   -0.240037
    51  C   -0.179163
    52  C   -0.197593
    53  C   -0.038071
    54  C   -0.299026
    55  C   -0.152350
    56  C   -0.179521
    57  C   -0.170147
    58  C   -0.067371
    59  C   -0.311015
    60  C   -0.142652
    61  C   -0.189995
    62  C   -0.128615
    63  C   -0.050742
    64  C   -0.315505
    65  C   -0.322692
    66  H    0.053167
    67  H    0.084399
    68  H    0.088422
    69  H    0.130823
    70  H    0.104935
    71  H    0.115054
    72  H    0.113338
    73  H    0.133058
    74  H    0.121324
    75  H    0.133123
    76  H    0.131392
    77  H    0.138107
    78  H    0.126810
    79  H    0.111266
    80  H    0.072565
    81  H    0.106328
    82  H    0.113034
    83  H    0.091672
    84  H    0.095210
    85  H    0.107622
    86  H    0.090619
    87  H    0.105857
    88  H    0.090964
    89  H    0.069543
    90  H    0.127316
    91  H    0.100128
    92  H    0.146372
    93  H    0.131190
    94  H    0.140248
    95  H    0.135949
    96  H    0.119537
    97  H    0.140801
    98  H    0.132089
    99  H    0.101162
   100  H    0.102086
   101  H    0.093985
   102  H    0.119085
   103  H    0.115127
   104  H    0.105076
   105  H    0.092307
   106  H    0.106543
   107  H    0.122842
   108  H    0.083764
   109  H    0.067865
   110  H    0.103321
   111  H    0.094039
   112  H    0.109403
   113  H    0.112601
   114  H    0.052882
   115  H    0.080257
   116  H    0.099132
   117  H    0.109657
   118  H    0.037846
   119  H    0.080752
   120  H    0.072941
   121  H    0.083962
   122  H    0.111780
   123  H    0.070290
   124  H    0.096794
   125  H    0.078119
   126  H    0.097763
   127  H    0.101843
   128  H    0.040792
   129  H    0.097128
   130  H    0.096378
   131  H    0.078058
   132  H    0.087759
   133  H    0.105744
   134  H    0.103430
   135  H    0.099400
   136  H    0.077333
   137  H    0.110223
 Sum of Mulliken charges =   0.00000
 Mulliken charges with hydrogens summed into heavy atoms:
               1
     1  Mg   0.831870
     2  C    0.102673
     3  C   -0.126112
     4  C   -0.104342
     5  C   -0.090826
     6  N   -0.619789
     7  C    0.296117
     8  C   -0.022743
     9  C   -0.040149
    10  C    0.329554
    11  C    0.063323
    12  C    0.068520
    13  C   -0.030120
    14  C    0.641380
    15  O   -0.428361
    16  O   -0.480785
    17  N   -0.693182
    18  C    0.335601
    19  C    0.066783
    20  C    0.022635
    21  C    0.308813
    22  C   -0.061007
    23  C   -0.008618
    24  C   -0.027888
    25  N   -0.673981
    26  C    0.320498
    27  C    0.039243
    28  C    0.023574
    29  C    0.225838
    30  C   -0.084922
    31  C   -0.029363
    32  C    0.018224
    33  N   -0.753285
    34  C    0.279926
    35  C    0.021558
    36  C   -0.023315
    37  C    0.291992
    38  C    0.052910
    39  C    0.389992
    40  O   -0.446888
    41  C   -0.214350
    42  C    0.628541
    43  O   -0.517003
    44  O   -0.456574
    45  C    0.315921
    46  C    0.215815
    47  C   -0.072104
    48  C    0.158371
    49  C   -0.022412
    50  C   -0.041187
    51  C    0.027443
    52  C   -0.026408
    53  C    0.055968
    54  C   -0.024140
    55  C    0.027039
    56  C   -0.032019
    57  C   -0.016454
    58  C    0.016591
    59  C   -0.032151
    60  C    0.033230
    61  C   -0.047360
    62  C    0.064891
    63  C    0.027316
    64  C   -0.018572
    65  C   -0.035736
 Electronic spatial extent (au):  <R**2>=         180131.1152
 Charge=              0.0000 electrons
 Dipole moment (field-independent basis, Debye):
    X=              2.6042    Y=              3.1529    Z=              0.3943  Tot=              4.1083
 Quadrupole moment (field-independent basis, Debye-Ang):
   XX=           -372.9854   YY=           -387.2907   ZZ=           -398.6704
   XY=            -20.1144   XZ=             17.3330   YZ=             -1.3586
 Traceless Quadrupole moment (field-independent basis, Debye-Ang):
   XX=             13.3301   YY=             -0.9752   ZZ=            -12.3549
   XY=            -20.1144   XZ=             17.3330   YZ=             -1.3586
 Octapole moment (field-independent basis, Debye-Ang**2):
  XXX=           -243.0163  YYY=            119.5786  ZZZ=             20.7681  XYY=           -100.1555
  XXY=              1.5793  XXZ=            -58.0464  XZZ=             12.7742  YZZ=            -14.8719
  YYZ=             54.7529  XYZ=            -57.2802
 Hexadecapole moment (field-independent basis, Debye-Ang**3):
 XXXX=        -225418.0213 YYYY=         -17231.5494 ZZZZ=          -4516.1552 XXXY=            -92.8377
 XXXZ=           2581.1102 YYYX=          -1076.8087 YYYZ=           -157.5212 ZZZX=            -13.6109
 ZZZY=            -86.5640 XXYY=         -40095.8257 XXZZ=         -39295.6403 YYZZ=          -3582.7500
 XXYZ=           -318.8878 YYXZ=            -17.8911 ZZXY=            -29.9301
 N-N= 8.732193557388D+03 E-N=-2.428602946591D+04  KE= 2.904606683887D+03
 1\1\GINC-PEDRO-RYZENSSD\SP\RCAM-B3LYP TD-FC\6-31G(d,p)\C55H72Mg1N4O5\P
 ADAWAN\04-Jul-2019\0\\# td=(NStates=1) CAM-B3LYP/6-31G(d,p)\\TD\\0,1\M
 g,0,-7.2321337864,0.5223809862,0.1611137988\C,0,-4.9287374917,-1.98946
 01244,0.5748140141\C,0,-4.8473746664,2.8933777851,1.2262189868\C,0,-9.
 2529600315,3.093034799,-0.5578686466\C,0,-9.5142517389,-1.7338588969,-
 0.9575621853\N,0,-5.1535287775,0.3977395921,0.8232027386\C,0,-4.330662
 7724,-0.7570455266,0.9348815114\C,0,-2.8799369991,-0.3775771834,1.2292
 932835\C,0,-3.029576396,1.0328559539,1.7426549962\C,0,-4.4547324681,1.
 4937501238,1.1758846184\C,0,-2.9443395161,1.1907613642,3.2673181407\C,
 0,-1.964529914,-0.5884441058,0.0836523235\C,0,-0.4519426169,-0.5029846
 457,0.5738015095\C,0,0.4280839456,-0.8474382567,-0.5084762281\O,0,0.11
 29125314,-1.2764530529,-1.5223285646\O,0,1.7021720277,-0.5617735738,-0
 .0990066896\N,0,-7.0725477027,2.6453701268,0.4075994554\C,0,-6.0578050
 595,3.415182494,0.8722507587\C,0,-6.2941266658,4.8078950789,0.70920160
 74\C,0,-7.5822509321,4.946415273,0.2538737787\C,0,-8.1190661782,3.4768
 86884,0.0259251388\C,0,-5.4789658533,5.9020126672,1.2166064211\C,0,-8.
 3788956872,6.0724982835,0.0754045259\C,0,-8.4138652778,7.181084227,0.8
 806443142\N,0,-9.1634086135,0.6775106122,-0.4356275965\C,0,-9.78402466
 22,1.8090008532,-0.627319056\C,0,-11.1058596826,1.5893972788,-1.257297
 4492\C,0,-11.1673991438,0.1912444885,-1.4022789419\C,0,-10.0251681975,
 -0.349906965,-0.8325582719\C,0,-12.0641552392,2.5306636374,-1.72021879
 67\C,0,-12.4140259489,-0.6248198921,-1.8601968282\C,0,-12.2543629247,-
 1.0284852597,-3.3578609047\N,0,-7.4142108894,-1.3787774913,0.056160939
 1\C,0,-8.3712473645,-2.2251176839,-0.4689018454\C,0,-7.9613522808,-3.6
 332615937,-0.5147187492\C,0,-6.647418626,-3.5390482418,-0.095831315\C,
 0,-6.2714997464,-2.1763559169,0.1969324974\C,0,-8.7726147289,-4.873850
 2274,-0.87201568\C,0,-5.3870831786,-4.3717610596,0.1511579884\O,0,-5.1
 280716451,-5.5693014135,0.1492119519\C,0,-4.2679103704,-3.2689126811,0
 .6474346088\C,0,-3.5780384347,-3.6785630776,1.8546758405\O,0,-3.800491
 6498,-3.1319299292,2.9802607072\O,0,-2.6991611098,-4.7043051529,1.7456
 731482\C,0,-2.0561161995,-5.3198462137,2.8664215777\C,0,2.7161141231,-
 0.866274422,-1.044915692\C,0,4.179580047,-0.4396421405,-0.4459047395\C
 ,0,5.1334968341,0.2807143368,-1.0541951922\C,0,4.9931477378,0.94304695
 4,-2.4750816735\C,0,6.4441387467,0.3904108913,-0.3701034955\C,0,7.6793
 254704,-0.2258129282,-1.083305281\C,0,8.9718090535,-0.2323083612,-0.15
 14369565\C,0,10.2606966942,-0.5834554172,-0.8936003305\C,0,10.22547924
 81,-2.0376146976,-1.3929527603\C,0,11.3566785448,-0.2034741282,-0.1206
 311945\C,0,12.7985847662,-0.6003340845,-0.6991799409\C,0,13.9543148999
 ,-0.0256537682,0.1487319407\C,0,15.4004561705,0.0007063415,-0.50852909
 27\C,0,15.6278844573,-1.542981932,-0.8600356213\C,0,16.4103351394,0.61
 17255326,0.3519397012\C,0,17.8292075102,0.5983512335,-0.2140272173\C,0
 ,18.7339937689,1.3808963066,0.7219826313\C,0,20.2473634055,1.464436777
 2,0.2757123344\C,0,20.4716485187,2.1743257298,-1.01747274\C,0,21.08126
 90577,2.0781507514,1.4244378072\H,0,-4.2428757721,3.5537608975,1.61851
 64385\H,0,-9.9989802907,3.9570365387,-0.5612815197\H,0,-10.228436133,-
 2.5160509459,-1.2800846607\H,0,-2.6230087578,-1.1596642803,2.084699161
 1\H,0,-2.2747610813,1.5829618788,1.2913597864\H,0,-2.0134358011,1.0238
 828412,3.509694683\H,0,-3.2041954795,2.1534193994,3.5487770431\H,0,-3.
 6458680295,0.5672714111,3.7344058534\H,0,-1.9425467396,-1.658875848,-0
 .3611500242\H,0,-1.9929309656,-0.0595787075,-0.8653065703\H,0,-0.11276
 47939,0.4118157955,1.2110115003\H,0,-0.2871265147,-1.2149060058,1.4565
 396092\H,0,-5.5145902344,6.8452031644,0.5467403832\H,0,-5.69480647,6.1
 300863717,2.4156978669\H,0,-4.2215361096,5.6552466911,1.1455277284\H,0
 ,-8.9689189444,5.9803841865,-0.8297732055\H,0,-8.8636875847,8.05304604
 35,0.6938990117\H,0,-7.6383533011,7.3616025598,1.7832067062\H,0,-11.77
 84419493,2.7259529213,-2.9477077755\H,0,-13.1486145307,2.138117703,-1.
 5057817697\H,0,-12.0852402551,3.6776864233,-1.2222434683\H,0,-12.29305
 40838,-1.4412235675,-1.0536903239\H,0,-13.3546441833,0.052058469,-1.61
 29968272\H,0,-13.3169780504,-1.5982745137,-3.6979896835\H,0,-12.195303
 0945,-0.1128358212,-4.0139548912\H,0,-11.4703533146,-1.9803128984,-3.3
 606646865\H,0,-8.8465642594,-4.9114018831,-1.8391271768\H,0,-8.0749068
 555,-5.778577862,-0.4755271657\H,0,-9.6204019251,-5.0554105624,-0.1941
 212347\H,0,-3.2932200179,-3.3671699677,-0.1443697085\H,0,-1.1499131578
 ,-4.8156780075,3.2233552508\H,0,-2.8658361922,-5.2740690245,3.67004984
 39\H,0,-1.6576338749,-6.3018994631,2.469830936\H,0,2.8865379579,-2.041
 3459705,-1.3125252175\H,0,2.5156590435,-0.3826539858,-2.1090240546\H,0
 ,4.3625971653,-0.9280850237,0.4620694229\H,0,3.9727462381,0.8310718176
 ,-2.9792762973\H,0,5.4280982215,1.9999002489,-2.3999864668\H,0,6.01016
 83244,0.6302841359,-2.9969884298\H,0,6.7984219051,1.4223662366,0.05048
 76916\H,0,6.2379079102,-0.1021482522,0.5424939661\H,0,7.5651138961,-1.
 1751467499,-1.3353948631\H,0,7.8543678727,0.255898798,-2.1188248061\H,
 0,9.1497070223,0.8607739624,0.3690445367\H,0,8.7804665354,-0.896055111
 7,0.7184497087\H,0,10.4911466661,0.0111436521,-1.7838632758\H,0,9.2556
 205476,-2.0759755741,-1.6748034051\H,0,10.9808606418,-2.4334201259,-2.
 1175159955\H,0,10.2652794139,-2.9322751695,-0.5040198417\H,0,11.407778
 4587,0.9253547657,0.0995614436\H,0,11.3353665901,-0.6035763189,0.72914
 3536\H,0,12.9915524741,-1.6525734185,-0.8554532129\H,0,12.9852922817,-
 0.00660997,-1.8434877101\H,0,13.7819196287,1.0191144674,0.4931366567\H
 ,0,14.066699423,-0.5550251072,1.1612326398\H,0,15.3096442529,0.3970791
 929,-1.5683811961\H,0,15.4073481777,-2.3142017123,-0.1446959235\H,0,14
 .8155446052,-1.7233347091,-1.8104884639\H,0,16.6313127607,-1.545150039
 9,-1.3463161011\H,0,16.2712523259,1.7403118649,0.6342399683\H,0,16.340
 9585431,0.0335541803,1.2585686181\H,0,18.0932002587,-0.4017367211,-0.4
 613194723\H,0,17.8547425388,0.8197592948,-1.5021437902\H,0,18.29260005
 26,2.385452703,0.5764556509\H,0,18.7779549558,0.9859727783,1.547134713
 8\H,0,20.5939343061,0.3638225305,0.3573527993\H,0,20.1389480014,3.2885
 024121,-0.9778613795\H,0,21.4954237945,2.2458112339,-1.5100423675\H,0,
 19.6531192163,1.8478966005,-1.7079677658\H,0,21.2895349287,1.419210030
 1,2.2969093081\H,0,22.1471764239,2.1461158413,0.9510100673\H,0,21.0022
 299529,3.1187419575,1.645084949\\Version=ES64L-G09RevD.01\State=1-A\HF
 =-2932.5323423\RMSD=3.914e-09\PG=C01 [X(C55H72Mg1N4O5)]\\@


 THERE IS AN OLD, OLD RECIPE IN MAINE FOR STEWING COOT. PLACE THE
 BIRD IN A KETTLE OF WATER WITH A RED BUILDING BRICK FREE OF MORTAR AND
 BLEMISHES. PARBOIL THE COOT AND BRICK TOGETHER FOR THREE HOURS.
 POUR OFF THE WATER, REFILL THE KETTLE, AND AGAIN PARBOIL FOR THREE HOURS.
 ONCE AGAIN POUR OFF THE WATER, FOR THE LAST TIME ADD FRESH WATER,
 AND LET THE COOT AND BRICK SIMMER TOGETHER OVERNIGHT. IN THE MORNING,
 THROW AWAY THE COOT AND EAT THE BRICK.
 Job cpu time:       0 days  6 hours 31 minutes 13.3 seconds.
 File lengths (MBytes):  RWF=   2106 Int=      0 D2E=      0 Chk=    163 Scr=      1
 Normal termination of Gaussian 09 at Thu Jul  4 16:05:47 2019.
>>>>>>> 8e03b5b5abfc0030b3aa597dc0de36371bfbd096
