 Entering Gaussian System, Link 0=g16
 Input=Geometria-439-.com
 Output=Geometria-439-.log
 Initial command:
 /usr/local/g16/l1.exe "/home/padawan/israel-mol/chlorophyll-a/spectra/emi/Gau-86085.inp" -scrdir="/home/padawan/israel-mol/chlorophyll-a/spectra/emi/"
 Entering Link 1 = /usr/local/g16/l1.exe PID=     86087.
  
 Copyright (c) 1988,1990,1992,1993,1995,1998,2003,2009,2016,
            Gaussian, Inc.  All Rights Reserved.
  
 This is part of the Gaussian(R) 16 program.  It is based on
 the Gaussian(R) 09 system (copyright 2009, Gaussian, Inc.),
 the Gaussian(R) 03 system (copyright 2003, Gaussian, Inc.),
 the Gaussian(R) 98 system (copyright 1998, Gaussian, Inc.),
 the Gaussian(R) 94 system (copyright 1995, Gaussian, Inc.),
 the Gaussian 92(TM) system (copyright 1992, Gaussian, Inc.),
 the Gaussian 90(TM) system (copyright 1990, Gaussian, Inc.),
 the Gaussian 88(TM) system (copyright 1988, Gaussian, Inc.),
 the Gaussian 86(TM) system (copyright 1986, Carnegie Mellon
 University), and the Gaussian 82(TM) system (copyright 1983,
 Carnegie Mellon University). Gaussian is a federally registered
 trademark of Gaussian, Inc.
  
 This software contains proprietary and confidential information,
 including trade secrets, belonging to Gaussian, Inc.
  
 This software is provided under written license and may be
 used, copied, transmitted, or stored only in accord with that
 written license.
  
 The following legend is applicable only to US Government
 contracts under FAR:
  
                    RESTRICTED RIGHTS LEGEND
  
 Use, reproduction and disclosure by the US Government is
 subject to restrictions as set forth in subparagraphs (a)
 and (c) of the Commercial Computer Software - Restricted
 Rights clause in FAR 52.227-19.
  
 Gaussian, Inc.
 340 Quinnipiac St., Bldg. 40, Wallingford CT 06492
  
  
 ---------------------------------------------------------------
 Warning -- This program may not be used in any manner that
 competes with the business of Gaussian, Inc. or will provide
 assistance to any competitor of Gaussian, Inc.  The licensee
 of this program is prohibited from giving any competitor of
 Gaussian, Inc. access to this program.  By using this program,
 the user acknowledges that Gaussian, Inc. is engaged in the
 business of creating and licensing software in the field of
 computational chemistry and represents and warrants to the
 licensee that it is not a competitor of Gaussian, Inc. and that
 it will not use this program in any manner prohibited above.
 ---------------------------------------------------------------
  

 Cite this work as:
 Gaussian 16, Revision A.03,
 M. J. Frisch, G. W. Trucks, H. B. Schlegel, G. E. Scuseria, 
 M. A. Robb, J. R. Cheeseman, G. Scalmani, V. Barone, 
 G. A. Petersson, H. Nakatsuji, X. Li, M. Caricato, A. V. Marenich, 
 J. Bloino, B. G. Janesko, R. Gomperts, B. Mennucci, H. P. Hratchian, 
 J. V. Ortiz, A. F. Izmaylov, J. L. Sonnenberg, D. Williams-Young, 
 F. Ding, F. Lipparini, F. Egidi, J. Goings, B. Peng, A. Petrone, 
 T. Henderson, D. Ranasinghe, V. G. Zakrzewski, J. Gao, N. Rega, 
 G. Zheng, W. Liang, M. Hada, M. Ehara, K. Toyota, R. Fukuda, 
 J. Hasegawa, M. Ishida, T. Nakajima, Y. Honda, O. Kitao, H. Nakai, 
 T. Vreven, K. Throssell, J. A. Montgomery, Jr., J. E. Peralta, 
 F. Ogliaro, M. J. Bearpark, J. J. Heyd, E. N. Brothers, K. N. Kudin, 
 V. N. Staroverov, T. A. Keith, R. Kobayashi, J. Normand, 
 K. Raghavachari, A. P. Rendell, J. C. Burant, S. S. Iyengar, 
 J. Tomasi, M. Cossi, J. M. Millam, M. Klene, C. Adamo, R. Cammi, 
 J. W. Ochterski, R. L. Martin, K. Morokuma, O. Farkas, 
 J. B. Foresman, and D. J. Fox, Gaussian, Inc., Wallingford CT, 2016.
 
 ******************************************
 Gaussian 16:  ES64L-G16RevA.03 25-Dec-2016
                22-Sep-2019 
 ******************************************
 %nproc=4
 Will use up to    4 processors via shared memory.
 %Mem=3GB
 ----------------------------------------------------------------------
 # td=(NStates=1) iop(3/107=0140000000,3/108=0140000000) CAM-B3LYP/6-31
 G(d,p)
 ----------------------------------------------------------------------
 1/38=1,172=1/1;
 2/12=2,17=6,18=5,40=1/2;
 3/5=1,6=6,7=101,11=9,25=1,30=1,74=-40,107=140000000,108=140000000/1,2,3,8;
 4//1;
 5/5=2,38=5/2;
 8/6=1,10=2,108=1/1;
 9/41=1,42=1,70=2/14;
 6/7=2,8=2,9=2,10=2/1;
 99/5=1,9=1/99;
 --
 TD
 --
 Symbolic Z-matrix:
 Charge =  0 Multiplicity = 1
 12                   -7.10135   0.58343   0.14846 
 6                    -4.90381  -1.9687    0.56772 
 6                    -4.74241   2.84686   1.08313 
 6                    -9.41559   3.16369  -0.45118 
 6                    -9.60601  -1.77738  -0.86497 
 7                    -5.04278   0.39286   0.62827 
 6                    -4.30336  -0.73395   0.78038 
 6                    -2.94584  -0.40277   1.27473 
 6                    -3.04014   1.03249   1.71529 
 6                    -4.28155   1.54688   1.13198 
 6                    -3.0271    1.1523    3.21335 
 6                    -1.92131  -0.63638   0.11625 
 6                    -0.45559  -0.48336   0.61191 
 6                     0.53669  -0.72003  -0.49953 
 8                     0.05216  -1.03151  -1.58315 
 8                     1.81194  -0.46303  -0.06926 
 7                    -7.11539   2.57281   0.43129 
 6                    -6.01418   3.377     0.74755 
 6                    -6.31669   4.78092   0.7223 
 6                    -7.67521   4.86593   0.26673 
 6                    -8.12363   3.44743  -0.06256 
 6                    -5.42626   5.87752   1.14313 
 6                    -8.47596   6.09949  -0.00065 
 6                    -8.48789   7.26055   0.72255 
 7                    -9.1448    0.63301  -0.60614 
 6                    -9.91983   1.82593  -0.77179 
 6                    -11.22351   1.46961  -1.15995 
 6                    -11.32421   0.16007  -1.22606 
 6                    -9.94005  -0.36319  -0.93389 
 6                    -12.32638   2.49986  -1.35366 
 6                    -12.48494  -0.71731  -1.58201 
 6                    -12.32238  -1.01984  -3.12449 
 7                    -7.17719  -1.36988  -0.23758 
 6                    -8.32226  -2.16099  -0.53043 
 6                    -7.90949  -3.58842  -0.47321 
 6                    -6.56207  -3.63195  -0.18561 
 6                    -6.16124  -2.22776  -0.00381 
 6                    -8.73805  -4.75584  -0.77884 
 6                    -5.37826  -4.49322   0.13433 
 8                    -5.1803   -5.66273   0.25508 
 6                    -4.2245   -3.41806   0.54974 
 6                    -3.65291  -3.77558   1.90598 
 8                    -3.90483  -3.26075   2.97974 
 8                    -2.77118  -4.73613   1.76857 
 6                    -2.24668  -5.31006   3.03805 
 6                     2.80618  -0.65442  -1.00851 
 6                     4.13522  -0.29655  -0.36459 
 6                     5.10008   0.45208  -0.96273 
 6                     4.93803   1.11003  -2.27495 
 6                     6.47347   0.52497  -0.28429 
 6                     7.64693  -0.04232  -1.10927 
 6                     8.86759  -0.00737  -0.25376 
 6                     10.30488  -0.4411   -0.96037 
 6                     10.0987  -1.76761  -1.45051 
 6                     11.45791  -0.19746   0.02129 
 6                     12.86859  -0.3745   -0.71308 
 6                     14.03201  -0.04633   0.11166 
 6                     15.38761  -0.16561  -0.52301 
 6                     15.5996  -1.62303  -1.09707 
 6                     16.56546   0.32327   0.3454 
 6                     17.85058   0.72823  -0.32745 
 6                     18.90695   1.18354   0.74581 
 6                     20.30698   1.19818   0.3458 
 6                     20.60094   2.10927  -0.86845 
 6                     21.25711   1.63262   1.51995 
 1                    -3.97917   3.71232   1.19122 
 1                    -9.99159   4.15314  -0.84418 
 1                    -10.34733  -2.51984  -1.4457 
 1                    -2.59338  -1.13575   2.10977 
 1                    -2.148     1.81283   1.47617 
 1                    -1.99108   0.94506   3.44138 
 1                    -3.27149   2.01477   3.58603 
 1                    -3.64818   0.51749   3.75748 
 1                    -1.83415  -1.71757  -0.50879 
 1                    -2.0564   -0.02328  -0.8006 
 1                    -0.36595   0.50014   0.93618 
 1                    -0.06346  -1.10801   1.44261 
 1                    -5.53011   6.80023   0.53535 
 1                    -5.60222   6.23493   2.18404 
 1                    -4.39601   5.49607   1.1093 
 1                    -9.115     5.91641  -0.7355 
 1                    -9.1872    8.18262   0.59487 
 1                    -7.80385   7.3869    1.61472 
 1                    -11.98349   3.09154  -2.22558 
 1                    -13.3433   2.05062  -1.69635 
 1                    -12.33577   3.16862  -0.5448 
 1                    -12.37693  -1.85287  -1.17882 
 1                    -13.52543  -0.34038  -1.39857 
 1                    -13.04931  -1.84734  -3.5003 
 1                    -12.45232  -0.10752  -3.70948 
 1                    -11.36952  -1.51702  -3.39217 
 1                    -9.33227  -4.83565  -1.76539 
 1                    -8.18074  -5.61223  -0.69702 
 1                    -9.43418  -4.98249   0.08616 
 1                    -3.3847   -3.38589  -0.16384 
 1                    -1.66096  -4.55795   3.60275 
 1                    -2.99627  -5.84459   3.50394 
 1                    -1.76174  -6.27223   2.78815 
 1                     2.76572  -1.66186  -1.33681 
 1                     2.41675  -0.20448  -1.90644 
 1                     4.48624  -0.64733   0.55128 
 1                     3.82553   1.03419  -2.80293 
 1                     5.11614   2.21578  -1.77468 
 1                     5.60941   0.67386  -3.2262 
 1                     6.74483   1.59218  -0.05607 
 1                     6.27068  -0.07332   0.68221 
 1                     7.34373  -1.02233  -1.42701 
 1                     7.67211   0.49726  -2.0777 
 1                     9.01122   1.07565   0.1553 
 1                     8.67023  -0.55891   0.5841 
 1                     10.44254   0.25283  -1.78918 
 1                     9.35097  -2.10972  -2.28165 
 1                     10.93425  -2.12127  -2.15432 
 1                     9.90684  -2.54963  -0.70863 
 1                     11.35698   0.7907    0.41197 
 1                     11.42299  -0.85251   0.87585 
 1                     12.7459  -1.47621  -0.85939 
 1                     12.77615   0.05661  -1.93114 
 1                     13.7463   1.09357   0.46332 
 1                     14.11271  -0.72875   0.98725 
 1                     15.33728   0.66384  -1.26977 
 1                     15.63197  -2.23119  -0.29981 
 1                     14.72203  -1.85321  -1.71553 
 1                     16.47035  -1.89285  -1.6721 
 1                     16.22692   1.28909   0.88011 
 1                     16.76133  -0.56736   0.99546 
 1                     18.30034  -0.12133  -1.02899 
 1                     17.81389   1.49717  -1.0297 
 1                     18.79281   2.04143   1.23624 
 1                     18.67067   0.49027   1.567 
 1                     20.6238   0.26441  -0.12233 
 1                     20.15901   3.21898  -0.63075 
 1                     21.54879   2.07395  -1.32585 
 1                     19.97716   1.85111  -1.87179 
 1                     21.11035   1.09352   2.39364 
 1                     22.37002   1.59221   1.4616 
 1                     20.94788   2.76599   1.99337 
 
 Stoichiometry    C55H72MgN4O5
 Framework group  C1[X(C55H72MgN4O5)]
 Deg. of freedom   405
 Full point group                 C1      NOp   1
 Largest Abelian subgroup         C1      NOp   1
 Largest concise Abelian subgroup C1      NOp   1
                         Standard orientation:                         
 ---------------------------------------------------------------------
 Center     Atomic      Atomic             Coordinates (Angstroms)
 Number     Number       Type             X           Y           Z
 ---------------------------------------------------------------------
      1         12           0       -7.099936    0.588065    0.158982
      2          6           0       -4.904996   -1.971617    0.544501
      3          6           0       -4.738516    2.836623    1.122857
      4          6           0       -9.411556    3.178364   -0.406515
      5          6           0       -9.607174   -1.756671   -0.884908
      6          7           0       -5.041501    0.389091    0.635967
      7          6           0       -4.303237   -0.740381    0.773210
      8          6           0       -2.945308   -0.417105    1.271668
      9          6           0       -3.038054    1.012365    1.730980
     10          6           0       -4.279002    1.535632    1.154625
     11          6           0       -3.024700    1.112543    3.230476
     12          6           0       -1.921166   -0.636601    0.110078
     13          6           0       -0.455228   -0.491607    0.607502
     14          6           0        0.536661   -0.714741   -0.507084
     15          8           0        0.051669   -1.011508   -1.594615
     16          8           0        1.812236   -0.464717   -0.073669
     17          7           0       -7.111862    2.573591    0.467825
     18          6           0       -6.009777    3.372429    0.794424
     19          6           0       -6.310823    4.776877    0.787590
     20          6           0       -7.669317    4.869247    0.333365
     21          6           0       -8.119256    3.455648   -0.014398
     22          6           0       -5.419206    5.866941    1.222613
     23          6           0       -8.468811    6.107034    0.082260
     24          6           0       -8.479439    7.258538    0.820589
     25          7           0       -9.143427    0.649644   -0.594616
     26          6           0       -9.917231    1.845431   -0.744535
     27          6           0      -11.221328    1.495577   -1.137143
     28          6           0      -11.323406    0.187127   -1.220371
     29          6           0       -9.939754   -0.341351   -0.935261
     30          6           0      -12.323156    2.529419   -1.317203
     31          6           0      -12.485095   -0.684313   -1.587604
     32          6           0      -12.323047   -0.966806   -3.133939
     33          7           0       -7.177855   -1.359944   -0.252573
     34          6           0       -8.323782   -2.145966   -0.555598
     35          6           0       -7.912498   -3.574446   -0.517113
     36          6           0       -6.565088   -3.623133   -0.230300
     37          6           0       -6.162769   -2.221865   -0.030194
     38          6           0       -8.742305   -4.736906   -0.837881
     39          6           0       -5.382135   -4.489754    0.078175
     40          8           0       -5.185374   -5.660949    0.183585
     41          6           0       -4.227197   -3.421319    0.507462
     42          6           0       -3.655810   -3.797146    1.858820
     43          8           0       -3.907061   -3.296158    2.939265
     44          8           0       -2.775101   -4.756739    1.708727
     45          6           0       -2.251039   -5.347772    2.970520
     46          6           0        2.806155   -0.644841   -1.015485
     47          6           0        4.135656   -0.296812   -0.367119
     48          6           0        5.101210    0.458585   -0.955547
     49          6           0        4.939681    1.133815   -2.259024
     50          6           0        6.474770    0.521163   -0.276404
     51          6           0        7.647526   -0.036508   -1.108904
     52          6           0        8.868338   -0.014026   -0.253181
     53          6           0       10.305078   -0.439959   -0.965609
     54          6           0       10.097461   -1.759735   -1.473037
     55          6           0       11.458490   -0.210394    0.018999
     56          6           0       12.868896   -0.379269   -0.717826
     57          6           0       14.032761   -0.063133    0.110971
     58          6           0       15.388156   -0.175502   -0.525392
     59          6           0       15.598547   -1.625510   -1.118508
     60          6           0       16.566624    0.300741    0.349173
     61          6           0       17.852079    0.713133   -0.318499
     62          6           0       18.909057    1.153260    0.760476
     63          6           0       20.309053    1.171680    0.360499
     64          6           0       20.603807    2.098275   -0.841769
     65          6           0       21.259781    1.589736    1.540094
     66          1           0       -3.974359    3.699801    1.242153
     67          1           0       -9.986578    4.173464   -0.786454
     68          1           0      -10.349343   -2.490694   -1.475199
     69          1           0       -2.593502   -1.161321    2.096989
     70          1           0       -2.145133    1.794840    1.501970
     71          1           0       -1.988871    0.901265    3.455637
     72          1           0       -3.268150    1.970319    3.614445
     73          1           0       -3.646371    0.471312    3.766341
     74          1           0       -1.835212   -1.709612   -0.529063
     75          1           0       -2.055738   -0.011421   -0.798643
     76          1           0       -0.364523    0.487473    0.944594
     77          1           0       -0.063647   -1.127481    1.429894
     78          1           0       -5.522164    6.797634    0.626973
     79          1           0       -5.594658    6.210881    2.268132
     80          1           0       -4.389357    5.484902    1.183647
     81          1           0       -9.108138    5.934246   -0.654838
     82          1           0       -9.177805    8.182929    0.705088
     83          1           0       -7.795156    7.372491    1.714244
     84          1           0      -11.979756    3.132105   -2.181347
     85          1           0      -13.340585    2.085769   -1.665590
     86          1           0      -12.331748    3.187556   -0.499660
     87          1           0      -12.378214   -1.825162   -1.199327
     88          1           0      -13.525171   -0.308733   -1.399099
     89          1           0      -13.050883   -1.788557   -3.520441
     90          1           0      -12.452103   -0.046771   -3.706919
     91          1           0      -11.370737   -1.461431   -3.408231
     92          1           0       -9.336735   -4.803180   -1.825309
     93          1           0       -8.185884   -5.594868   -0.767352
     94          1           0       -9.438563   -4.974127    0.024174
     95          1           0       -3.387453   -3.380683   -0.205762
     96          1           0       -1.664460   -4.603727    3.544932
     97          1           0       -3.001119   -5.887581    3.429481
     98          1           0       -1.767127   -6.307095    2.707983
     99          1           0        2.764611   -1.647855   -1.356926
    100          1           0        2.417081   -0.182783   -1.907393
    101          1           0        4.486421   -0.659910    0.544029
    102          1           0        3.827036    1.066048   -2.787794
    103          1           0        5.119007    2.232742   -1.744355
    104          1           0        5.610489    0.709433   -3.215992
    105          1           0        6.747269    1.585009   -0.034273
    106          1           0        6.271480   -0.089520    0.682216
    107          1           0        7.343265   -1.011961   -1.439395
    108          1           0        7.673149    0.515674   -2.070191
    109          1           0        9.013141    1.063398    0.169995
    110          1           0        8.670506   -0.576279    0.577423
    111          1           0       10.443358    0.264611   -1.785289
    112          1           0        9.349271   -2.090157   -2.308472
    113          1           0       10.932552   -2.105015   -2.181531
    114          1           0        9.904880   -2.551191   -0.741423
    115          1           0       11.358636    0.772673    0.422586
    116          1           0       11.422995   -0.876527    0.864919
    117          1           0       12.745038   -1.478839   -0.878522
    118          1           0       12.776749    0.067838   -1.930126
    119          1           0       13.748275    1.072369    0.477561
    120          1           0       14.112857   -0.757035    0.977548
    121          1           0       15.338595    0.663697   -1.261227
    122          1           0       15.630385   -2.244086   -0.329276
    123          1           0       14.720666   -1.846663   -1.739805
    124          1           0       16.468941   -1.888686   -1.697144
    125          1           0       16.229150    1.259831    0.896528
    126          1           0       16.761645   -0.598524    0.987494
    127          1           0       18.300859   -0.127636   -1.031163
    128          1           0       17.816097    1.491237   -1.010621
    129          1           0       18.795870    2.004776    1.262104
    130          1           0       18.672161    0.449557    1.572559
    131          1           0       20.624840    0.243786   -0.119853
    132          1           0       20.163063    3.205243   -0.589499
    133          1           0       21.551558    2.067958   -1.299724
    134          1           0       19.979625    1.853913   -1.848308
    135          1           0       21.112575    1.039401    2.406683
    136          1           0       22.372645    1.548930    1.481071
    137          1           0       20.951796    2.717132    2.028349
 ---------------------------------------------------------------------
 Rotational constants (GHZ):           0.0640679           0.0060448           0.0056932
 Standard basis: 6-31G(d,p) (6D, 7F)
 There are  1339 symmetry adapted cartesian basis functions of A   symmetry.
 There are  1339 symmetry adapted basis functions of A   symmetry.
  1339 basis functions,  2348 primitive gaussians,  1339 cartesian basis functions
   241 alpha electrons      241 beta electrons
       nuclear repulsion energy      8714.4240611796 Hartrees.
 NAtoms=  137 NActive=  137 NUniq=  137 SFac= 1.00D+00 NAtFMM=   60 NAOKFM=T Big=T
 Integral buffers will be    131072 words long.
 Raffenetti 1 integral format.
 Two-electron integral symmetry is turned on.
 One-electron integrals computed using PRISM.
 NBasis=  1339 RedAO= T EigKep=  3.93D-04  NBF=  1339
 NBsUse=  1339 1.00D-06 EigRej= -1.00D+00 NBFU=  1339
 ExpMin= 4.21D-02 ExpMax= 1.17D+04 ExpMxC= 1.76D+03 IAcc=3 IRadAn=         5 AccDes= 0.00D+00
 Harris functional with IExCor=20419 and IRadAn=       5 diagonalized for initial guess.
 HarFok:  IExCor=20419 AccDes= 0.00D+00 IRadAn=         5 IDoV= 1 UseB2=F ITyADJ=14
 ICtDFT=  3500011 ScaDFX=  1.000000  1.000000  1.000000  1.000000
 FoFCou: FMM=F IPFlag=           0 FMFlag=      100000 FMFlg1=        2001
         NFxFlg=           0 DoJE=T BraDBF=F KetDBF=T FulRan=T
         wScrn=  0.000000 ICntrl=       500 IOpCl=  0 I1Cent=   200000004 NGrid=           0
         NMat0=    1 NMatS0=      1 NMatT0=    0 NMatD0=    1 NMtDS0=    0 NMtDT0=    0
 Petite list used in FoFCou.
 Requested convergence on RMS density matrix=1.00D-08 within 128 cycles.
 Requested convergence on MAX density matrix=1.00D-06.
 Requested convergence on             energy=1.00D-06.
 No special actions if energy rises.
 SCF Done:  E(RCAM-B3LYP) =  -2933.53587659     A.U. after   16 cycles
            NFock= 16  Conv=0.30D-08     -V/T= 2.0095
 DoSCS=F DFT=T ScalE2(SS,OS)=  1.000000  1.000000
 ExpMin= 4.21D-02 ExpMax= 1.17D+04 ExpMxC= 1.76D+03 IAcc=3 IRadAn=         5 AccDes= 0.00D+00
 HarFok:  IExCor=  205 AccDes= 0.00D+00 IRadAn=         5 IDoV=-2 UseB2=F ITyADJ=14
 ICtDFT= 12500011 ScaDFX=  1.000000  1.000000  1.000000  1.000000
 GSVD:  LWork=       -5313 too small for GESVD, short by       24840 words or       24840 for optimal perf.
 Range of M.O.s used for correlation:    70  1339
 NBasis=  1339 NAE=   241 NBE=   241 NFC=    69 NFV=     0
 NROrb=   1270 NOA=   172 NOB=   172 NVA=  1098 NVB=  1098
 Orbital symmetries:
       Occupied  (A) (A) (A) (A) (A) (A) (A) (A) (A) (A) (A) (A)
                 (A) (A) (A) (A) (A) (A) (A) (A) (A) (A) (A) (A)
                 (A) (A) (A) (A) (A) (A) (A) (A) (A) (A) (A) (A)
                 (A) (A) (A) (A) (A) (A) (A) (A) (A) (A) (A) (A)
                 (A) (A) (A) (A) (A) (A) (A) (A) (A) (A) (A) (A)
                 (A) (A) (A) (A) (A) (A) (A) (A) (A) (A) (A) (A)
                 (A) (A) (A) (A) (A) (A) (A) (A) (A) (A) (A) (A)
                 (A) (A) (A) (A) (A) (A) (A) (A) (A) (A) (A) (A)
                 (A) (A) (A) (A) (A) (A) (A) (A) (A) (A) (A) (A)
                 (A) (A) (A) (A) (A) (A) (A) (A) (A) (A) (A) (A)
                 (A) (A) (A) (A) (A) (A) (A) (A) (A) (A) (A) (A)
                 (A) (A) (A) (A) (A) (A) (A) (A) (A) (A) (A) (A)
                 (A) (A) (A) (A) (A) (A) (A) (A) (A) (A) (A) (A)
                 (A) (A) (A) (A) (A) (A) (A) (A) (A) (A) (A) (A)
                 (A) (A) (A) (A) (A) (A) (A) (A) (A) (A) (A) (A)
                 (A) (A) (A) (A) (A) (A) (A) (A) (A) (A) (A) (A)
                 (A) (A) (A) (A) (A) (A) (A) (A) (A) (A) (A) (A)
                 (A) (A) (A) (A) (A) (A) (A) (A) (A) (A) (A) (A)
                 (A) (A) (A) (A) (A) (A) (A) (A) (A) (A) (A) (A)
                 (A) (A) (A) (A) (A) (A) (A) (A) (A) (A) (A) (A)
                 (A)
       Virtual   (A) (A) (A) (A) (A) (A) (A) (A) (A) (A) (A) (A)
                 (A) (A) (A) (A) (A) (A) (A) (A) (A) (A) (A) (A)
                 (A) (A) (A) (A) (A) (A) (A) (A) (A) (A) (A) (A)
                 (A) (A) (A) (A) (A) (A) (A) (A) (A) (A) (A) (A)
                 (A) (A) (A) (A) (A) (A) (A) (A) (A) (A) (A) (A)
                 (A) (A) (A) (A) (A) (A) (A) (A) (A) (A) (A) (A)
                 (A) (A) (A) (A) (A) (A) (A) (A) (A) (A) (A) (A)
                 (A) (A) (A) (A) (A) (A) (A) (A) (A) (A) (A) (A)
                 (A) (A) (A) (A) (A) (A) (A) (A) (A) (A) (A) (A)
                 (A) (A) (A) (A) (A) (A) (A) (A) (A) (A) (A) (A)
                 (A) (A) (A) (A) (A) (A) (A) (A) (A) (A) (A) (A)
                 (A) (A) (A) (A) (A) (A) (A) (A) (A) (A) (A) (A)
                 (A) (A) (A) (A) (A) (A) (A) (A) (A) (A) (A) (A)
                 (A) (A) (A) (A) (A) (A) (A) (A) (A) (A) (A) (A)
                 (A) (A) (A) (A) (A) (A) (A) (A) (A) (A) (A) (A)
                 (A) (A) (A) (A) (A) (A) (A) (A) (A) (A) (A) (A)
                 (A) (A) (A) (A) (A) (A) (A) (A) (A) (A) (A) (A)
                 (A) (A) (A) (A) (A) (A) (A) (A) (A) (A) (A) (A)
                 (A) (A) (A) (A) (A) (A) (A) (A) (A) (A) (A) (A)
                 (A) (A) (A) (A) (A) (A) (A) (A) (A) (A) (A) (A)
                 (A) (A) (A) (A) (A) (A) (A) (A) (A) (A) (A) (A)
                 (A) (A) (A) (A) (A) (A) (A) (A) (A) (A) (A) (A)
                 (A) (A) (A) (A) (A) (A) (A) (A) (A) (A) (A) (A)
                 (A) (A) (A) (A) (A) (A) (A) (A) (A) (A) (A) (A)
                 (A) (A) (A) (A) (A) (A) (A) (A) (A) (A) (A) (A)
                 (A) (A) (A) (A) (A) (A) (A) (A) (A) (A) (A) (A)
                 (A) (A) (A) (A) (A) (A) (A) (A) (A) (A) (A) (A)
                 (A) (A) (A) (A) (A) (A) (A) (A) (A) (A) (A) (A)
                 (A) (A) (A) (A) (A) (A) (A) (A) (A) (A) (A) (A)
                 (A) (A) (A) (A) (A) (A) (A) (A) (A) (A) (A) (A)
                 (A) (A) (A) (A) (A) (A) (A) (A) (A) (A) (A) (A)
                 (A) (A) (A) (A) (A) (A) (A) (A) (A) (A) (A) (A)
                 (A) (A) (A) (A) (A) (A) (A) (A) (A) (A) (A) (A)
                 (A) (A) (A) (A) (A) (A) (A) (A) (A) (A) (A) (A)
                 (A) (A) (A) (A) (A) (A) (A) (A) (A) (A) (A) (A)
                 (A) (A) (A) (A) (A) (A) (A) (A) (A) (A) (A) (A)
                 (A) (A) (A) (A) (A) (A) (A) (A) (A) (A) (A) (A)
                 (A) (A) (A) (A) (A) (A) (A) (A) (A) (A) (A) (A)
                 (A) (A) (A) (A) (A) (A) (A) (A) (A) (A) (A) (A)
                 (A) (A) (A) (A) (A) (A) (A) (A) (A) (A) (A) (A)
                 (A) (A) (A) (A) (A) (A) (A) (A) (A) (A) (A) (A)
                 (A) (A) (A) (A) (A) (A) (A) (A) (A) (A) (A) (A)
                 (A) (A) (A) (A) (A) (A) (A) (A) (A) (A) (A) (A)
                 (A) (A) (A) (A) (A) (A) (A) (A) (A) (A) (A) (A)
                 (A) (A) (A) (A) (A) (A) (A) (A) (A) (A) (A) (A)
                 (A) (A) (A) (A) (A) (A) (A) (A) (A) (A) (A) (A)
                 (A) (A) (A) (A) (A) (A) (A) (A) (A) (A) (A) (A)
                 (A) (A) (A) (A) (A) (A) (A) (A) (A) (A) (A) (A)
                 (A) (A) (A) (A) (A) (A) (A) (A) (A) (A) (A) (A)
                 (A) (A) (A) (A) (A) (A) (A) (A) (A) (A) (A) (A)
                 (A) (A) (A) (A) (A) (A) (A) (A) (A) (A) (A) (A)
                 (A) (A) (A) (A) (A) (A) (A) (A) (A) (A) (A) (A)
                 (A) (A) (A) (A) (A) (A) (A) (A) (A) (A) (A) (A)
                 (A) (A) (A) (A) (A) (A) (A) (A) (A) (A) (A) (A)
                 (A) (A) (A) (A) (A) (A) (A) (A) (A) (A) (A) (A)
                 (A) (A) (A) (A) (A) (A) (A) (A) (A) (A) (A) (A)
                 (A) (A) (A) (A) (A) (A) (A) (A) (A) (A) (A) (A)
                 (A) (A) (A) (A) (A) (A) (A) (A) (A) (A) (A) (A)
                 (A) (A) (A) (A) (A) (A) (A) (A) (A) (A) (A) (A)
                 (A) (A) (A) (A) (A) (A) (A) (A) (A) (A) (A) (A)
                 (A) (A) (A) (A) (A) (A) (A) (A) (A) (A) (A) (A)
                 (A) (A) (A) (A) (A) (A) (A) (A) (A) (A) (A) (A)
                 (A) (A) (A) (A) (A) (A) (A) (A) (A) (A) (A) (A)
                 (A) (A) (A) (A) (A) (A) (A) (A) (A) (A) (A) (A)
                 (A) (A) (A) (A) (A) (A) (A) (A) (A) (A) (A) (A)
                 (A) (A) (A) (A) (A) (A) (A) (A) (A) (A) (A) (A)
                 (A) (A) (A) (A) (A) (A) (A) (A) (A) (A) (A) (A)
                 (A) (A) (A) (A) (A) (A) (A) (A) (A) (A) (A) (A)
                 (A) (A) (A) (A) (A) (A) (A) (A) (A) (A) (A) (A)
                 (A) (A) (A) (A) (A) (A) (A) (A) (A) (A) (A) (A)
                 (A) (A) (A) (A) (A) (A) (A) (A) (A) (A) (A) (A)
                 (A) (A) (A) (A) (A) (A) (A) (A) (A) (A) (A) (A)
                 (A) (A) (A) (A) (A) (A) (A) (A) (A) (A) (A) (A)
                 (A) (A) (A) (A) (A) (A) (A) (A) (A) (A) (A) (A)
                 (A) (A) (A) (A) (A) (A) (A) (A) (A) (A) (A) (A)
                 (A) (A) (A) (A) (A) (A) (A) (A) (A) (A) (A) (A)
                 (A) (A) (A) (A) (A) (A) (A) (A) (A) (A) (A) (A)
                 (A) (A) (A) (A) (A) (A) (A) (A) (A) (A) (A) (A)
                 (A) (A) (A) (A) (A) (A) (A) (A) (A) (A) (A) (A)
                 (A) (A) (A) (A) (A) (A) (A) (A) (A) (A) (A) (A)
                 (A) (A) (A) (A) (A) (A) (A) (A) (A) (A) (A) (A)
                 (A) (A) (A) (A) (A) (A) (A) (A) (A) (A) (A) (A)
                 (A) (A) (A) (A) (A) (A) (A) (A) (A) (A) (A) (A)
                 (A) (A) (A) (A) (A) (A) (A) (A) (A) (A) (A) (A)
                 (A) (A) (A) (A) (A) (A) (A) (A) (A) (A) (A) (A)
                 (A) (A) (A) (A) (A) (A) (A) (A) (A) (A) (A) (A)
                 (A) (A) (A) (A) (A) (A) (A) (A) (A) (A) (A) (A)
                 (A) (A) (A) (A) (A) (A) (A) (A) (A) (A) (A) (A)
                 (A) (A) (A) (A) (A) (A) (A) (A) (A) (A) (A) (A)
                 (A) (A) (A) (A) (A) (A) (A) (A) (A) (A) (A) (A)
                 (A) (A) (A) (A) (A) (A) (A) (A) (A) (A) (A) (A)
                 (A) (A) (A) (A) (A) (A)
     4 initial guesses have been made.
 Convergence on wavefunction:    0.001000000000000
 Iteration     1 Dimension     4 NMult     0 NNew      4
 CISAX will form     4 AO SS matrices at one time.
 Iteration     2 Dimension     6 NMult     4 NNew      2
 Iteration     3 Dimension     8 NMult     6 NNew      2
 Iteration     4 Dimension    10 NMult     8 NNew      2
 Iteration     5 Dimension    12 NMult    10 NNew      2
 Iteration     6 Dimension    14 NMult    12 NNew      2
 ***********************************************************************
 Excited states from <AA,BB:AA,BB> singles matrix:
 ***********************************************************************
 
 Ground to excited state transition densities written to RWF  633
 Ground to excited state transition electric dipole moments (Au):
       state          X           Y           Z        Dip. S.      Osc.
         1        -0.2177      2.0926      0.1894      4.4620      0.2144
 Ground to excited state transition velocity dipole moments (Au):
       state          X           Y           Z        Dip. S.      Osc.
         1         0.0143     -0.1458     -0.0137      0.0217      0.2003
 Ground to excited state transition magnetic dipole moments (Au):
       state          X           Y           Z
         1        -0.4307     -0.3307      3.2479
 Ground to excited state transition velocity quadrupole moments (Au):
       state          XX          YY          ZZ          XY          XZ          YZ
         1        -0.2964     -0.3460     -0.0248      1.8857      0.1628     -0.1428
 <0|del|b> * <b|rxdel|0> + <0|del|b> * <b|delr+rdel|0>
 Rotatory Strengths (R) in cgs (10**-40 erg-esu-cm/Gauss)
       state          XX          YY          ZZ    R(velocity)    E-M Angle
         1         8.6731   -131.6684     99.8766     -7.7062       90.28
 1/2[<0|r|b>*<b|rxdel|0> + (<0|rxdel|b>*<b|r|0>)*]
 Rotatory Strengths (R) in cgs (10**-40 erg-esu-cm/Gauss)
       state          XX          YY          ZZ     R(length)
         1       -66.3173    489.3602   -434.9106     -3.9559
  1/2[<0|del|b>*<b|r|0> + (<0|r|b>*<b|del|0>)*] (Au)
       state          X           Y           Z        Dip. S.   Osc.(frdel)
         1        -0.0031     -0.3051     -0.0026      0.3108      0.2072

 Excitation energies and oscillator strengths:
 
 Excited State   1:      Singlet-A      1.9610 eV  632.24 nm  f=0.2144  <S**2>=0.000
     240 -> 243        0.25695
     241 -> 242        0.65586
 This state for optimization and/or second-order correction.
 Total Energy, E(TD-HF/TD-DFT) =  -2933.46381035    
 Copying the excited state density for this state as the 1-particle RhoCI density.
 SavETr:  write IOETrn=   770 NScale= 10 NData=  16 NLR=1 NState=    1 LETran=      28.
 Hyperfine terms turned off by default for NAtoms > 100.

 **********************************************************************

            Population analysis using the SCF density.

 **********************************************************************

 Orbital symmetries:
       Occupied  (A) (A) (A) (A) (A) (A) (A) (A) (A) (A) (A) (A)
                 (A) (A) (A) (A) (A) (A) (A) (A) (A) (A) (A) (A)
                 (A) (A) (A) (A) (A) (A) (A) (A) (A) (A) (A) (A)
                 (A) (A) (A) (A) (A) (A) (A) (A) (A) (A) (A) (A)
                 (A) (A) (A) (A) (A) (A) (A) (A) (A) (A) (A) (A)
                 (A) (A) (A) (A) (A) (A) (A) (A) (A) (A) (A) (A)
                 (A) (A) (A) (A) (A) (A) (A) (A) (A) (A) (A) (A)
                 (A) (A) (A) (A) (A) (A) (A) (A) (A) (A) (A) (A)
                 (A) (A) (A) (A) (A) (A) (A) (A) (A) (A) (A) (A)
                 (A) (A) (A) (A) (A) (A) (A) (A) (A) (A) (A) (A)
                 (A) (A) (A) (A) (A) (A) (A) (A) (A) (A) (A) (A)
                 (A) (A) (A) (A) (A) (A) (A) (A) (A) (A) (A) (A)
                 (A) (A) (A) (A) (A) (A) (A) (A) (A) (A) (A) (A)
                 (A) (A) (A) (A) (A) (A) (A) (A) (A) (A) (A) (A)
                 (A) (A) (A) (A) (A) (A) (A) (A) (A) (A) (A) (A)
                 (A) (A) (A) (A) (A) (A) (A) (A) (A) (A) (A) (A)
                 (A) (A) (A) (A) (A) (A) (A) (A) (A) (A) (A) (A)
                 (A) (A) (A) (A) (A) (A) (A) (A) (A) (A) (A) (A)
                 (A) (A) (A) (A) (A) (A) (A) (A) (A) (A) (A) (A)
                 (A) (A) (A) (A) (A) (A) (A) (A) (A) (A) (A) (A)
                 (A)
       Virtual   (A) (A) (A) (A) (A) (A) (A) (A) (A) (A) (A) (A)
                 (A) (A) (A) (A) (A) (A) (A) (A) (A) (A) (A) (A)
                 (A) (A) (A) (A) (A) (A) (A) (A) (A) (A) (A) (A)
                 (A) (A) (A) (A) (A) (A) (A) (A) (A) (A) (A) (A)
                 (A) (A) (A) (A) (A) (A) (A) (A) (A) (A) (A) (A)
                 (A) (A) (A) (A) (A) (A) (A) (A) (A) (A) (A) (A)
                 (A) (A) (A) (A) (A) (A) (A) (A) (A) (A) (A) (A)
                 (A) (A) (A) (A) (A) (A) (A) (A) (A) (A) (A) (A)
                 (A) (A) (A) (A) (A) (A) (A) (A) (A) (A) (A) (A)
                 (A) (A) (A) (A) (A) (A) (A) (A) (A) (A) (A) (A)
                 (A) (A) (A) (A) (A) (A) (A) (A) (A) (A) (A) (A)
                 (A) (A) (A) (A) (A) (A) (A) (A) (A) (A) (A) (A)
                 (A) (A) (A) (A) (A) (A) (A) (A) (A) (A) (A) (A)
                 (A) (A) (A) (A) (A) (A) (A) (A) (A) (A) (A) (A)
                 (A) (A) (A) (A) (A) (A) (A) (A) (A) (A) (A) (A)
                 (A) (A) (A) (A) (A) (A) (A) (A) (A) (A) (A) (A)
                 (A) (A) (A) (A) (A) (A) (A) (A) (A) (A) (A) (A)
                 (A) (A) (A) (A) (A) (A) (A) (A) (A) (A) (A) (A)
                 (A) (A) (A) (A) (A) (A) (A) (A) (A) (A) (A) (A)
                 (A) (A) (A) (A) (A) (A) (A) (A) (A) (A) (A) (A)
                 (A) (A) (A) (A) (A) (A) (A) (A) (A) (A) (A) (A)
                 (A) (A) (A) (A) (A) (A) (A) (A) (A) (A) (A) (A)
                 (A) (A) (A) (A) (A) (A) (A) (A) (A) (A) (A) (A)
                 (A) (A) (A) (A) (A) (A) (A) (A) (A) (A) (A) (A)
                 (A) (A) (A) (A) (A) (A) (A) (A) (A) (A) (A) (A)
                 (A) (A) (A) (A) (A) (A) (A) (A) (A) (A) (A) (A)
                 (A) (A) (A) (A) (A) (A) (A) (A) (A) (A) (A) (A)
                 (A) (A) (A) (A) (A) (A) (A) (A) (A) (A) (A) (A)
                 (A) (A) (A) (A) (A) (A) (A) (A) (A) (A) (A) (A)
                 (A) (A) (A) (A) (A) (A) (A) (A) (A) (A) (A) (A)
                 (A) (A) (A) (A) (A) (A) (A) (A) (A) (A) (A) (A)
                 (A) (A) (A) (A) (A) (A) (A) (A) (A) (A) (A) (A)
                 (A) (A) (A) (A) (A) (A) (A) (A) (A) (A) (A) (A)
                 (A) (A) (A) (A) (A) (A) (A) (A) (A) (A) (A) (A)
                 (A) (A) (A) (A) (A) (A) (A) (A) (A) (A) (A) (A)
                 (A) (A) (A) (A) (A) (A) (A) (A) (A) (A) (A) (A)
                 (A) (A) (A) (A) (A) (A) (A) (A) (A) (A) (A) (A)
                 (A) (A) (A) (A) (A) (A) (A) (A) (A) (A) (A) (A)
                 (A) (A) (A) (A) (A) (A) (A) (A) (A) (A) (A) (A)
                 (A) (A) (A) (A) (A) (A) (A) (A) (A) (A) (A) (A)
                 (A) (A) (A) (A) (A) (A) (A) (A) (A) (A) (A) (A)
                 (A) (A) (A) (A) (A) (A) (A) (A) (A) (A) (A) (A)
                 (A) (A) (A) (A) (A) (A) (A) (A) (A) (A) (A) (A)
                 (A) (A) (A) (A) (A) (A) (A) (A) (A) (A) (A) (A)
                 (A) (A) (A) (A) (A) (A) (A) (A) (A) (A) (A) (A)
                 (A) (A) (A) (A) (A) (A) (A) (A) (A) (A) (A) (A)
                 (A) (A) (A) (A) (A) (A) (A) (A) (A) (A) (A) (A)
                 (A) (A) (A) (A) (A) (A) (A) (A) (A) (A) (A) (A)
                 (A) (A) (A) (A) (A) (A) (A) (A) (A) (A) (A) (A)
                 (A) (A) (A) (A) (A) (A) (A) (A) (A) (A) (A) (A)
                 (A) (A) (A) (A) (A) (A) (A) (A) (A) (A) (A) (A)
                 (A) (A) (A) (A) (A) (A) (A) (A) (A) (A) (A) (A)
                 (A) (A) (A) (A) (A) (A) (A) (A) (A) (A) (A) (A)
                 (A) (A) (A) (A) (A) (A) (A) (A) (A) (A) (A) (A)
                 (A) (A) (A) (A) (A) (A) (A) (A) (A) (A) (A) (A)
                 (A) (A) (A) (A) (A) (A) (A) (A) (A) (A) (A) (A)
                 (A) (A) (A) (A) (A) (A) (A) (A) (A) (A) (A) (A)
                 (A) (A) (A) (A) (A) (A) (A) (A) (A) (A) (A) (A)
                 (A) (A) (A) (A) (A) (A) (A) (A) (A) (A) (A) (A)
                 (A) (A) (A) (A) (A) (A) (A) (A) (A) (A) (A) (A)
                 (A) (A) (A) (A) (A) (A) (A) (A) (A) (A) (A) (A)
                 (A) (A) (A) (A) (A) (A) (A) (A) (A) (A) (A) (A)
                 (A) (A) (A) (A) (A) (A) (A) (A) (A) (A) (A) (A)
                 (A) (A) (A) (A) (A) (A) (A) (A) (A) (A) (A) (A)
                 (A) (A) (A) (A) (A) (A) (A) (A) (A) (A) (A) (A)
                 (A) (A) (A) (A) (A) (A) (A) (A) (A) (A) (A) (A)
                 (A) (A) (A) (A) (A) (A) (A) (A) (A) (A) (A) (A)
                 (A) (A) (A) (A) (A) (A) (A) (A) (A) (A) (A) (A)
                 (A) (A) (A) (A) (A) (A) (A) (A) (A) (A) (A) (A)
                 (A) (A) (A) (A) (A) (A) (A) (A) (A) (A) (A) (A)
                 (A) (A) (A) (A) (A) (A) (A) (A) (A) (A) (A) (A)
                 (A) (A) (A) (A) (A) (A) (A) (A) (A) (A) (A) (A)
                 (A) (A) (A) (A) (A) (A) (A) (A) (A) (A) (A) (A)
                 (A) (A) (A) (A) (A) (A) (A) (A) (A) (A) (A) (A)
                 (A) (A) (A) (A) (A) (A) (A) (A) (A) (A) (A) (A)
                 (A) (A) (A) (A) (A) (A) (A) (A) (A) (A) (A) (A)
                 (A) (A) (A) (A) (A) (A) (A) (A) (A) (A) (A) (A)
                 (A) (A) (A) (A) (A) (A) (A) (A) (A) (A) (A) (A)
                 (A) (A) (A) (A) (A) (A) (A) (A) (A) (A) (A) (A)
                 (A) (A) (A) (A) (A) (A) (A) (A) (A) (A) (A) (A)
                 (A) (A) (A) (A) (A) (A) (A) (A) (A) (A) (A) (A)
                 (A) (A) (A) (A) (A) (A) (A) (A) (A) (A) (A) (A)
                 (A) (A) (A) (A) (A) (A) (A) (A) (A) (A) (A) (A)
                 (A) (A) (A) (A) (A) (A) (A) (A) (A) (A) (A) (A)
                 (A) (A) (A) (A) (A) (A) (A) (A) (A) (A) (A) (A)
                 (A) (A) (A) (A) (A) (A) (A) (A) (A) (A) (A) (A)
                 (A) (A) (A) (A) (A) (A) (A) (A) (A) (A) (A) (A)
                 (A) (A) (A) (A) (A) (A) (A) (A) (A) (A) (A) (A)
                 (A) (A) (A) (A) (A) (A) (A) (A) (A) (A) (A) (A)
                 (A) (A) (A) (A) (A) (A) (A) (A) (A) (A) (A) (A)
                 (A) (A) (A) (A) (A) (A) (A) (A) (A) (A) (A) (A)
                 (A) (A) (A) (A) (A) (A)
 The electronic state is 1-A.
 Alpha  occ. eigenvalues --  -46.79662 -19.22905 -19.21587 -19.17588 -19.17184
 Alpha  occ. eigenvalues --  -19.15063 -14.37133 -14.35469 -14.35331 -14.35064
 Alpha  occ. eigenvalues --  -10.34916 -10.33148 -10.31548 -10.27087 -10.26659
 Alpha  occ. eigenvalues --  -10.26282 -10.26196 -10.25434 -10.25306 -10.25242
 Alpha  occ. eigenvalues --  -10.25194 -10.24893 -10.24362 -10.24358 -10.24316
 Alpha  occ. eigenvalues --  -10.24216 -10.24034 -10.23934 -10.23827 -10.23506
 Alpha  occ. eigenvalues --  -10.23409 -10.23364 -10.23252 -10.23234 -10.23185
 Alpha  occ. eigenvalues --  -10.22789 -10.22645 -10.22535 -10.22372 -10.22362
 Alpha  occ. eigenvalues --  -10.22242 -10.22140 -10.22030 -10.22020 -10.21969
 Alpha  occ. eigenvalues --  -10.21930 -10.21866 -10.21660 -10.21576 -10.21527
 Alpha  occ. eigenvalues --  -10.21508 -10.21441 -10.21396 -10.21380 -10.21199
 Alpha  occ. eigenvalues --  -10.21151 -10.21105 -10.21075 -10.21024 -10.21001
 Alpha  occ. eigenvalues --  -10.20737 -10.20473 -10.19493 -10.19265 -10.19003
 Alpha  occ. eigenvalues --   -3.08208  -1.83152  -1.82665  -1.82629  -1.13813
 Alpha  occ. eigenvalues --   -1.12800  -1.08023  -1.05871  -1.02674  -0.98198
 Alpha  occ. eigenvalues --   -0.97464  -0.96812  -0.95487  -0.86379  -0.85757
 Alpha  occ. eigenvalues --   -0.85721  -0.84809  -0.84512  -0.83694  -0.83277
 Alpha  occ. eigenvalues --   -0.83133  -0.82721  -0.82533  -0.82134  -0.81064
 Alpha  occ. eigenvalues --   -0.80200  -0.79146  -0.78430  -0.78220  -0.77236
 Alpha  occ. eigenvalues --   -0.76749  -0.76281  -0.75571  -0.74773  -0.73928
 Alpha  occ. eigenvalues --   -0.72288  -0.71596  -0.71444  -0.71373  -0.70845
 Alpha  occ. eigenvalues --   -0.70633  -0.70564  -0.70294  -0.69012  -0.67592
 Alpha  occ. eigenvalues --   -0.67340  -0.65975  -0.65245  -0.64194  -0.63481
 Alpha  occ. eigenvalues --   -0.62671  -0.62585  -0.61270  -0.60754  -0.60630
 Alpha  occ. eigenvalues --   -0.59707  -0.59467  -0.59095  -0.58869  -0.57430
 Alpha  occ. eigenvalues --   -0.56822  -0.56455  -0.55339  -0.54992  -0.54589
 Alpha  occ. eigenvalues --   -0.53983  -0.53728  -0.53170  -0.52875  -0.52594
 Alpha  occ. eigenvalues --   -0.52427  -0.51729  -0.51560  -0.51266  -0.50812
 Alpha  occ. eigenvalues --   -0.50584  -0.50454  -0.50111  -0.49823  -0.49651
 Alpha  occ. eigenvalues --   -0.48926  -0.48725  -0.48110  -0.47933  -0.47852
 Alpha  occ. eigenvalues --   -0.47507  -0.47356  -0.47065  -0.46895  -0.46604
 Alpha  occ. eigenvalues --   -0.46406  -0.46152  -0.46072  -0.45946  -0.45706
 Alpha  occ. eigenvalues --   -0.45521  -0.45473  -0.45146  -0.45000  -0.44752
 Alpha  occ. eigenvalues --   -0.44531  -0.44405  -0.44320  -0.44022  -0.43804
 Alpha  occ. eigenvalues --   -0.43296  -0.42956  -0.42780  -0.42307  -0.41938
 Alpha  occ. eigenvalues --   -0.41836  -0.41670  -0.41572  -0.41378  -0.41297
 Alpha  occ. eigenvalues --   -0.41178  -0.41056  -0.40961  -0.40767  -0.40646
 Alpha  occ. eigenvalues --   -0.40492  -0.40388  -0.40219  -0.39621  -0.39305
 Alpha  occ. eigenvalues --   -0.39136  -0.38954  -0.38854  -0.38795  -0.38678
 Alpha  occ. eigenvalues --   -0.38488  -0.38370  -0.38311  -0.37985  -0.37879
 Alpha  occ. eigenvalues --   -0.37714  -0.37624  -0.37207  -0.37003  -0.36675
 Alpha  occ. eigenvalues --   -0.36597  -0.36512  -0.36284  -0.36029  -0.36025
 Alpha  occ. eigenvalues --   -0.35934  -0.35856  -0.35675  -0.35347  -0.34955
 Alpha  occ. eigenvalues --   -0.34762  -0.34551  -0.34476  -0.33748  -0.33342
 Alpha  occ. eigenvalues --   -0.33120  -0.32798  -0.32583  -0.32529  -0.32359
 Alpha  occ. eigenvalues --   -0.31925  -0.31795  -0.31731  -0.30471  -0.30279
 Alpha  occ. eigenvalues --   -0.29944  -0.29616  -0.29083  -0.28082  -0.27320
 Alpha  occ. eigenvalues --   -0.27116  -0.26889  -0.25614  -0.24343  -0.21392
 Alpha  occ. eigenvalues --   -0.19403
 Alpha virt. eigenvalues --   -0.06604  -0.04211  -0.00012   0.02218   0.03408
 Alpha virt. eigenvalues --    0.04247   0.04505   0.04923   0.05327   0.06401
 Alpha virt. eigenvalues --    0.06737   0.08511   0.09065   0.09350   0.09606
 Alpha virt. eigenvalues --    0.10227   0.10491   0.10696   0.10850   0.11355
 Alpha virt. eigenvalues --    0.11561   0.11776   0.11924   0.12012   0.12215
 Alpha virt. eigenvalues --    0.12270   0.12537   0.12553   0.13133   0.13341
 Alpha virt. eigenvalues --    0.13561   0.13562   0.13728   0.14186   0.14388
 Alpha virt. eigenvalues --    0.14578   0.14812   0.15036   0.15161   0.15270
 Alpha virt. eigenvalues --    0.15763   0.15838   0.15934   0.16001   0.16221
 Alpha virt. eigenvalues --    0.16439   0.16610   0.16622   0.16846   0.17147
 Alpha virt. eigenvalues --    0.17345   0.17397   0.17765   0.17816   0.17938
 Alpha virt. eigenvalues --    0.18073   0.18165   0.18200   0.18359   0.18503
 Alpha virt. eigenvalues --    0.18794   0.18910   0.19084   0.19288   0.19599
 Alpha virt. eigenvalues --    0.19871   0.19952   0.20201   0.20424   0.20526
 Alpha virt. eigenvalues --    0.20631   0.20667   0.20954   0.21179   0.21296
 Alpha virt. eigenvalues --    0.21522   0.21643   0.21930   0.22247   0.22283
 Alpha virt. eigenvalues --    0.22344   0.22448   0.22645   0.22695   0.22983
 Alpha virt. eigenvalues --    0.23095   0.23246   0.23377   0.23656   0.23871
 Alpha virt. eigenvalues --    0.24153   0.24238   0.24312   0.24635   0.24801
 Alpha virt. eigenvalues --    0.25019   0.25178   0.25407   0.25690   0.25801
 Alpha virt. eigenvalues --    0.25997   0.26302   0.26600   0.26706   0.26774
 Alpha virt. eigenvalues --    0.26930   0.27548   0.27763   0.27852   0.28069
 Alpha virt. eigenvalues --    0.28252   0.28367   0.28624   0.28752   0.28900
 Alpha virt. eigenvalues --    0.29230   0.29346   0.29860   0.30012   0.30189
 Alpha virt. eigenvalues --    0.30402   0.30652   0.30835   0.31260   0.31630
 Alpha virt. eigenvalues --    0.32053   0.32423   0.32553   0.33117   0.33381
 Alpha virt. eigenvalues --    0.33815   0.34557   0.34812   0.35509   0.36016
 Alpha virt. eigenvalues --    0.36562   0.36715   0.37265   0.37851   0.38001
 Alpha virt. eigenvalues --    0.38546   0.38599   0.39114   0.39794   0.39939
 Alpha virt. eigenvalues --    0.40132   0.40484   0.41393   0.41497   0.43170
 Alpha virt. eigenvalues --    0.43339   0.43889   0.44386   0.45708   0.46245
 Alpha virt. eigenvalues --    0.47499   0.47693   0.47792   0.48653   0.49691
 Alpha virt. eigenvalues --    0.50155   0.50352   0.50549   0.51227   0.51317
 Alpha virt. eigenvalues --    0.51454   0.51601   0.51779   0.52224   0.52756
 Alpha virt. eigenvalues --    0.52999   0.53187   0.53253   0.53794   0.53860
 Alpha virt. eigenvalues --    0.53984   0.54650   0.54745   0.54932   0.55088
 Alpha virt. eigenvalues --    0.55270   0.55316   0.55821   0.56185   0.56294
 Alpha virt. eigenvalues --    0.56383   0.56657   0.56733   0.56787   0.56824
 Alpha virt. eigenvalues --    0.57186   0.57362   0.57711   0.57966   0.58141
 Alpha virt. eigenvalues --    0.58520   0.58585   0.58764   0.58838   0.58847
 Alpha virt. eigenvalues --    0.59270   0.59508   0.59759   0.60157   0.60326
 Alpha virt. eigenvalues --    0.60967   0.61144   0.61720   0.61838   0.62144
 Alpha virt. eigenvalues --    0.62499   0.62826   0.63016   0.63387   0.63597
 Alpha virt. eigenvalues --    0.63678   0.64067   0.64322   0.64399   0.64569
 Alpha virt. eigenvalues --    0.64953   0.65114   0.65270   0.65516   0.65566
 Alpha virt. eigenvalues --    0.65982   0.66182   0.66349   0.66379   0.67225
 Alpha virt. eigenvalues --    0.67513   0.67703   0.67997   0.68234   0.68614
 Alpha virt. eigenvalues --    0.69095   0.69231   0.69721   0.69846   0.70113
 Alpha virt. eigenvalues --    0.70278   0.70366   0.70941   0.71047   0.71296
 Alpha virt. eigenvalues --    0.71370   0.71713   0.71982   0.72276   0.72469
 Alpha virt. eigenvalues --    0.72847   0.73069   0.73216   0.73359   0.73807
 Alpha virt. eigenvalues --    0.73987   0.74168   0.74444   0.74739   0.74860
 Alpha virt. eigenvalues --    0.75136   0.75457   0.75721   0.75773   0.76170
 Alpha virt. eigenvalues --    0.76388   0.76898   0.77393   0.77531   0.77690
 Alpha virt. eigenvalues --    0.77906   0.78007   0.78340   0.78627   0.78931
 Alpha virt. eigenvalues --    0.79360   0.79612   0.79844   0.80056   0.80210
 Alpha virt. eigenvalues --    0.80280   0.80561   0.80803   0.80950   0.81245
 Alpha virt. eigenvalues --    0.81388   0.81702   0.81956   0.82008   0.82211
 Alpha virt. eigenvalues --    0.82325   0.82371   0.82630   0.82998   0.83267
 Alpha virt. eigenvalues --    0.83676   0.83814   0.84060   0.84261   0.84323
 Alpha virt. eigenvalues --    0.84425   0.84707   0.84881   0.85095   0.85153
 Alpha virt. eigenvalues --    0.85235   0.85562   0.85977   0.86097   0.86351
 Alpha virt. eigenvalues --    0.86536   0.86733   0.86943   0.87063   0.87214
 Alpha virt. eigenvalues --    0.87625   0.87680   0.87898   0.88170   0.88319
 Alpha virt. eigenvalues --    0.88387   0.88791   0.89334   0.89421   0.89505
 Alpha virt. eigenvalues --    0.89773   0.89950   0.90204   0.90373   0.90545
 Alpha virt. eigenvalues --    0.90709   0.90971   0.91154   0.91478   0.91600
 Alpha virt. eigenvalues --    0.91709   0.91806   0.92256   0.92377   0.92535
 Alpha virt. eigenvalues --    0.92650   0.93017   0.93444   0.93483   0.93705
 Alpha virt. eigenvalues --    0.94077   0.94283   0.94351   0.94391   0.94665
 Alpha virt. eigenvalues --    0.94967   0.95196   0.95674   0.95846   0.96090
 Alpha virt. eigenvalues --    0.96352   0.96435   0.96556   0.96799   0.97034
 Alpha virt. eigenvalues --    0.97350   0.97549   0.97676   0.97785   0.97892
 Alpha virt. eigenvalues --    0.98056   0.98107   0.98485   0.98668   0.98784
 Alpha virt. eigenvalues --    0.98936   0.99084   0.99460   0.99563   0.99894
 Alpha virt. eigenvalues --    1.00391   1.00848   1.01157   1.01268   1.01330
 Alpha virt. eigenvalues --    1.01446   1.01794   1.02027   1.02149   1.02264
 Alpha virt. eigenvalues --    1.02365   1.02800   1.03153   1.03560   1.03659
 Alpha virt. eigenvalues --    1.04043   1.04373   1.04585   1.04641   1.05186
 Alpha virt. eigenvalues --    1.05462   1.06039   1.06469   1.06842   1.07708
 Alpha virt. eigenvalues --    1.08055   1.08254   1.08421   1.08643   1.09491
 Alpha virt. eigenvalues --    1.09622   1.10406   1.10455   1.10845   1.11198
 Alpha virt. eigenvalues --    1.11973   1.12492   1.12782   1.13329   1.13672
 Alpha virt. eigenvalues --    1.13824   1.15222   1.16321   1.16480   1.17035
 Alpha virt. eigenvalues --    1.17865   1.18196   1.18691   1.19058   1.19512
 Alpha virt. eigenvalues --    1.19993   1.20165   1.20862   1.21306   1.21535
 Alpha virt. eigenvalues --    1.22414   1.22595   1.23135   1.23562   1.23968
 Alpha virt. eigenvalues --    1.24192   1.24645   1.24847   1.25988   1.26265
 Alpha virt. eigenvalues --    1.26577   1.27100   1.27918   1.28512   1.29444
 Alpha virt. eigenvalues --    1.30149   1.30578   1.30818   1.31211   1.31331
 Alpha virt. eigenvalues --    1.31489   1.32170   1.33048   1.34189   1.34541
 Alpha virt. eigenvalues --    1.34779   1.34974   1.35228   1.35812   1.36402
 Alpha virt. eigenvalues --    1.36637   1.37866   1.38399   1.38723   1.39166
 Alpha virt. eigenvalues --    1.40104   1.40181   1.40490   1.40688   1.40991
 Alpha virt. eigenvalues --    1.41155   1.41391   1.42170   1.43104   1.43315
 Alpha virt. eigenvalues --    1.43765   1.44189   1.44566   1.44742   1.45234
 Alpha virt. eigenvalues --    1.45647   1.46727   1.47284   1.47910   1.48267
 Alpha virt. eigenvalues --    1.48583   1.49171   1.49821   1.50313   1.50660
 Alpha virt. eigenvalues --    1.51046   1.51806   1.52045   1.52709   1.53007
 Alpha virt. eigenvalues --    1.53241   1.53343   1.53779   1.54234   1.54994
 Alpha virt. eigenvalues --    1.55913   1.56271   1.56531   1.56846   1.57479
 Alpha virt. eigenvalues --    1.57797   1.58437   1.58687   1.59224   1.59511
 Alpha virt. eigenvalues --    1.60187   1.60382   1.60475   1.60910   1.61283
 Alpha virt. eigenvalues --    1.61392   1.61578   1.61898   1.62149   1.62423
 Alpha virt. eigenvalues --    1.63280   1.63881   1.64390   1.64820   1.65597
 Alpha virt. eigenvalues --    1.65863   1.66128   1.66521   1.67302   1.67709
 Alpha virt. eigenvalues --    1.68140   1.68820   1.69303   1.69804   1.69938
 Alpha virt. eigenvalues --    1.70270   1.70507   1.71036   1.71548   1.71821
 Alpha virt. eigenvalues --    1.72074   1.72709   1.73016   1.73661   1.74067
 Alpha virt. eigenvalues --    1.74405   1.74548   1.74812   1.75110   1.75590
 Alpha virt. eigenvalues --    1.75807   1.75970   1.76330   1.76814   1.76945
 Alpha virt. eigenvalues --    1.77139   1.77557   1.77992   1.78412   1.78680
 Alpha virt. eigenvalues --    1.79006   1.79520   1.79693   1.80060   1.80792
 Alpha virt. eigenvalues --    1.81031   1.81422   1.81531   1.81770   1.82522
 Alpha virt. eigenvalues --    1.82754   1.82966   1.83624   1.83764   1.84340
 Alpha virt. eigenvalues --    1.84529   1.84687   1.85139   1.85209   1.85425
 Alpha virt. eigenvalues --    1.85632   1.85968   1.86407   1.86584   1.86718
 Alpha virt. eigenvalues --    1.86928   1.87167   1.87458   1.87930   1.88350
 Alpha virt. eigenvalues --    1.88599   1.88631   1.88882   1.89305   1.89481
 Alpha virt. eigenvalues --    1.89745   1.90190   1.90359   1.90511   1.90600
 Alpha virt. eigenvalues --    1.90712   1.91078   1.91374   1.91616   1.91971
 Alpha virt. eigenvalues --    1.92169   1.92357   1.92565   1.92795   1.92928
 Alpha virt. eigenvalues --    1.93037   1.93426   1.93830   1.93997   1.94207
 Alpha virt. eigenvalues --    1.94484   1.94634   1.94978   1.95660   1.95790
 Alpha virt. eigenvalues --    1.96260   1.96509   1.96814   1.97225   1.97390
 Alpha virt. eigenvalues --    1.97620   1.98013   1.98384   1.98814   1.98877
 Alpha virt. eigenvalues --    1.99391   1.99560   1.99731   1.99923   2.00070
 Alpha virt. eigenvalues --    2.00830   2.01200   2.01491   2.01642   2.02020
 Alpha virt. eigenvalues --    2.02236   2.02317   2.03114   2.03432   2.03458
 Alpha virt. eigenvalues --    2.03492   2.04177   2.04454   2.04951   2.05126
 Alpha virt. eigenvalues --    2.05247   2.05820   2.05976   2.06805   2.07070
 Alpha virt. eigenvalues --    2.07127   2.07163   2.07621   2.07664   2.08151
 Alpha virt. eigenvalues --    2.08707   2.08925   2.09327   2.09499   2.09747
 Alpha virt. eigenvalues --    2.10119   2.10431   2.10583   2.10711   2.10747
 Alpha virt. eigenvalues --    2.10914   2.11363   2.11715   2.12004   2.12326
 Alpha virt. eigenvalues --    2.12526   2.12839   2.13293   2.13750   2.14227
 Alpha virt. eigenvalues --    2.14486   2.14788   2.15251   2.15913   2.15976
 Alpha virt. eigenvalues --    2.16211   2.16597   2.16674   2.17227   2.17290
 Alpha virt. eigenvalues --    2.17588   2.18232   2.18308   2.18432   2.18633
 Alpha virt. eigenvalues --    2.18748   2.19436   2.19645   2.20022   2.20037
 Alpha virt. eigenvalues --    2.20210   2.20310   2.20825   2.21633   2.22119
 Alpha virt. eigenvalues --    2.22173   2.22804   2.23025   2.23197   2.23481
 Alpha virt. eigenvalues --    2.23723   2.24104   2.24551   2.24641   2.24825
 Alpha virt. eigenvalues --    2.25546   2.25921   2.26922   2.27082   2.27367
 Alpha virt. eigenvalues --    2.27675   2.28153   2.28470   2.28772   2.28993
 Alpha virt. eigenvalues --    2.29416   2.29746   2.29881   2.30037   2.30613
 Alpha virt. eigenvalues --    2.31011   2.31110   2.31261   2.31428   2.31467
 Alpha virt. eigenvalues --    2.32309   2.32318   2.32468   2.33018   2.33428
 Alpha virt. eigenvalues --    2.33793   2.34045   2.34199   2.34540   2.35196
 Alpha virt. eigenvalues --    2.35372   2.35761   2.36072   2.36235   2.36680
 Alpha virt. eigenvalues --    2.36907   2.37347   2.37403   2.37629   2.37797
 Alpha virt. eigenvalues --    2.37999   2.38449   2.38829   2.39364   2.39571
 Alpha virt. eigenvalues --    2.39771   2.39911   2.40290   2.40883   2.41021
 Alpha virt. eigenvalues --    2.41141   2.41482   2.41812   2.41954   2.42156
 Alpha virt. eigenvalues --    2.42188   2.42470   2.42724   2.43078   2.43363
 Alpha virt. eigenvalues --    2.43837   2.44075   2.44155   2.44688   2.45043
 Alpha virt. eigenvalues --    2.45610   2.45832   2.45968   2.46589   2.46854
 Alpha virt. eigenvalues --    2.47156   2.47783   2.47916   2.48387   2.48540
 Alpha virt. eigenvalues --    2.48807   2.49713   2.49740   2.50096   2.50389
 Alpha virt. eigenvalues --    2.51138   2.51454   2.51588   2.51979   2.52924
 Alpha virt. eigenvalues --    2.52995   2.53167   2.53651   2.54006   2.54662
 Alpha virt. eigenvalues --    2.54831   2.55066   2.55157   2.55343   2.56005
 Alpha virt. eigenvalues --    2.56400   2.56798   2.56849   2.57260   2.57949
 Alpha virt. eigenvalues --    2.58423   2.58549   2.58918   2.59778   2.59826
 Alpha virt. eigenvalues --    2.60670   2.60903   2.61378   2.62042   2.62094
 Alpha virt. eigenvalues --    2.62286   2.62641   2.62939   2.63301   2.63637
 Alpha virt. eigenvalues --    2.64066   2.64498   2.64749   2.65798   2.66094
 Alpha virt. eigenvalues --    2.66187   2.66573   2.66837   2.67353   2.67593
 Alpha virt. eigenvalues --    2.67967   2.68015   2.68382   2.69121   2.69222
 Alpha virt. eigenvalues --    2.69491   2.69953   2.70385   2.70575   2.71135
 Alpha virt. eigenvalues --    2.71242   2.71628   2.72657   2.72691   2.72774
 Alpha virt. eigenvalues --    2.73344   2.73598   2.73847   2.74042   2.74341
 Alpha virt. eigenvalues --    2.74736   2.74913   2.75118   2.75329   2.75702
 Alpha virt. eigenvalues --    2.76124   2.76346   2.76862   2.76945   2.77207
 Alpha virt. eigenvalues --    2.78085   2.78272   2.79303   2.79353   2.79513
 Alpha virt. eigenvalues --    2.79730   2.80422   2.80714   2.81234   2.81757
 Alpha virt. eigenvalues --    2.81998   2.82444   2.82523   2.82688   2.82928
 Alpha virt. eigenvalues --    2.83087   2.83525   2.84099   2.84196   2.84411
 Alpha virt. eigenvalues --    2.84688   2.85090   2.85129   2.86021   2.86173
 Alpha virt. eigenvalues --    2.86382   2.86790   2.87182   2.87700   2.87958
 Alpha virt. eigenvalues --    2.88096   2.88701   2.89067   2.89174   2.89660
 Alpha virt. eigenvalues --    2.90178   2.90231   2.90911   2.91382   2.91774
 Alpha virt. eigenvalues --    2.92155   2.92717   2.92937   2.93173   2.93450
 Alpha virt. eigenvalues --    2.93855   2.94204   2.94510   2.95030   2.95282
 Alpha virt. eigenvalues --    2.95606   2.95791   2.96113   2.96566   2.96799
 Alpha virt. eigenvalues --    2.96914   2.97145   2.97978   2.98588   2.99105
 Alpha virt. eigenvalues --    3.00273   3.00572   3.00949   3.01026   3.01531
 Alpha virt. eigenvalues --    3.01873   3.01966   3.02342   3.03305   3.03730
 Alpha virt. eigenvalues --    3.04096   3.04299   3.05181   3.07111   3.07703
 Alpha virt. eigenvalues --    3.08415   3.08915   3.08938   3.10352   3.11161
 Alpha virt. eigenvalues --    3.11360   3.11596   3.12358   3.12601   3.12696
 Alpha virt. eigenvalues --    3.14044   3.14918   3.15912   3.16040   3.17172
 Alpha virt. eigenvalues --    3.17659   3.18094   3.19734   3.19908   3.21060
 Alpha virt. eigenvalues --    3.21751   3.22639   3.23029   3.23673   3.24147
 Alpha virt. eigenvalues --    3.24907   3.25127   3.25881   3.28023   3.28635
 Alpha virt. eigenvalues --    3.29656   3.30239   3.31202   3.31748   3.31862
 Alpha virt. eigenvalues --    3.32759   3.33114   3.34328   3.35510   3.35595
 Alpha virt. eigenvalues --    3.36419   3.36973   3.38357   3.38705   3.38848
 Alpha virt. eigenvalues --    3.39318   3.39487   3.40018   3.40572   3.40652
 Alpha virt. eigenvalues --    3.41189   3.41595   3.41756   3.42851   3.42875
 Alpha virt. eigenvalues --    3.44226   3.45043   3.45490   3.45733   3.46522
 Alpha virt. eigenvalues --    3.47043   3.47551   3.48525   3.48864   3.49260
 Alpha virt. eigenvalues --    3.50590   3.50709   3.52249   3.53036   3.53119
 Alpha virt. eigenvalues --    3.53534   3.55131   3.55852   3.56271   3.56780
 Alpha virt. eigenvalues --    3.56883   3.59371   3.59879   3.60832   3.62372
 Alpha virt. eigenvalues --    3.63203   3.63478   3.64641   3.65006   3.67912
 Alpha virt. eigenvalues --    3.68463   3.75663   3.79955   3.80262   4.02136
 Alpha virt. eigenvalues --    4.06131   4.11978   4.13607   4.17183   4.18645
 Alpha virt. eigenvalues --    4.19066   4.20585   4.21526   4.23852   4.25128
 Alpha virt. eigenvalues --    4.25583   4.26221   4.26924   4.27913   4.29306
 Alpha virt. eigenvalues --    4.30406   4.30871   4.32994   4.33399   4.34854
 Alpha virt. eigenvalues --    4.36057   4.36615   4.36892   4.39291   4.41002
 Alpha virt. eigenvalues --    4.42158   4.42910   4.44377   4.44972   4.46202
 Alpha virt. eigenvalues --    4.46902   4.48371   4.49652   4.50256   4.51343
 Alpha virt. eigenvalues --    4.52756   4.53195   4.53545   4.55266   4.56083
 Alpha virt. eigenvalues --    4.56678   4.56942   4.58386   4.59666   4.63543
 Alpha virt. eigenvalues --    4.64933   4.65218   4.67389   4.68019   4.69077
 Alpha virt. eigenvalues --    4.69633   4.72215   4.72388   4.76258   4.76533
 Alpha virt. eigenvalues --    4.78558   4.80197   4.81200   4.81920   4.82867
 Alpha virt. eigenvalues --    4.84064   4.87837   4.96629
          Condensed to atoms (all electrons):
 Mulliken charges:
               1
     1  Mg   0.820219
     2  C    0.057621
     3  C   -0.212936
     4  C   -0.168245
     5  C   -0.167193
     6  N   -0.636554
     7  C    0.347645
     8  C   -0.164549
     9  C   -0.150650
    10  C    0.328364
    11  C   -0.296617
    12  C   -0.179985
    13  C   -0.266483
    14  C    0.609681
    15  O   -0.471371
    16  O   -0.452677
    17  N   -0.706320
    18  C    0.329379
    19  C    0.045631
    20  C   -0.027265
    21  C    0.284779
    22  C   -0.383834
    23  C   -0.047812
    24  C   -0.254820
    25  N   -0.656229
    26  C    0.235305
    27  C    0.050161
    28  C    0.044035
    29  C    0.289255
    30  C   -0.372266
    31  C   -0.256883
    32  C   -0.312337
    33  N   -0.721660
    34  C    0.295846
    35  C    0.002233
    36  C    0.047196
    37  C    0.252429
    38  C   -0.399156
    39  C    0.381594
    40  O   -0.430928
    41  C   -0.331616
    42  C    0.622744
    43  O   -0.492940
    44  O   -0.438045
    45  C   -0.090049
    46  C    0.008632
    47  C   -0.130786
    48  C    0.125861
    49  C   -0.333451
    50  C   -0.228103
    51  C   -0.167959
    52  C   -0.176378
    53  C   -0.047068
    54  C   -0.310440
    55  C   -0.181313
    56  C   -0.164141
    57  C   -0.150470
    58  C   -0.060917
    59  C   -0.332535
    60  C   -0.167771
    61  C   -0.176028
    62  C   -0.155693
    63  C   -0.044315
    64  C   -0.296015
    65  C   -0.314824
    66  H    0.071620
    67  H    0.085558
    68  H    0.100817
    69  H    0.125548
    70  H    0.090402
    71  H    0.102857
    72  H    0.116615
    73  H    0.130842
    74  H    0.100295
    75  H    0.127656
    76  H    0.133798
    77  H    0.123851
    78  H    0.126173
    79  H    0.125697
    80  H    0.107053
    81  H    0.080062
    82  H    0.105619
    83  H    0.099100
    84  H    0.118663
    85  H    0.101113
    86  H    0.132155
    87  H    0.088223
    88  H    0.106869
    89  H    0.080463
    90  H    0.112734
    91  H    0.110837
    92  H    0.119036
    93  H    0.147406
    94  H    0.124173
    95  H    0.151832
    96  H    0.138073
    97  H    0.142545
    98  H    0.117718
    99  H    0.122829
   100  H    0.119253
   101  H    0.081120
   102  H    0.092603
   103  H    0.105745
   104  H    0.106490
   105  H    0.095474
   106  H    0.084787
   107  H    0.102926
   108  H    0.094235
   109  H    0.068245
   110  H    0.102305
   111  H    0.089975
   112  H    0.093356
   113  H    0.085633
   114  H    0.104416
   115  H    0.093277
   116  H    0.095786
   117  H    0.103728
   118  H    0.051465
   119  H    0.065241
   120  H    0.087354
   121  H    0.075891
   122  H    0.112138
   123  H    0.110394
   124  H    0.107377
   125  H    0.084478
   126  H    0.082183
   127  H    0.069069
   128  H    0.108231
   129  H    0.098807
   130  H    0.086648
   131  H    0.089532
   132  H    0.072765
   133  H    0.114624
   134  H    0.067242
   135  H    0.113773
   136  H    0.104166
   137  H    0.060050
 Sum of Mulliken charges =  -0.00000
 Mulliken charges with hydrogens summed into heavy atoms:
               1
     1  Mg   0.820219
     2  C    0.057621
     3  C   -0.141316
     4  C   -0.082687
     5  C   -0.066376
     6  N   -0.636554
     7  C    0.347645
     8  C   -0.039001
     9  C   -0.060248
    10  C    0.328364
    11  C    0.053697
    12  C    0.047966
    13  C   -0.008833
    14  C    0.609681
    15  O   -0.471371
    16  O   -0.452677
    17  N   -0.706320
    18  C    0.329379
    19  C    0.045631
    20  C   -0.027265
    21  C    0.284779
    22  C   -0.024910
    23  C    0.032251
    24  C   -0.050101
    25  N   -0.656229
    26  C    0.235305
    27  C    0.050161
    28  C    0.044035
    29  C    0.289255
    30  C   -0.020335
    31  C   -0.061791
    32  C   -0.008303
    33  N   -0.721660
    34  C    0.295846
    35  C    0.002233
    36  C    0.047196
    37  C    0.252429
    38  C   -0.008541
    39  C    0.381594
    40  O   -0.430928
    41  C   -0.179784
    42  C    0.622744
    43  O   -0.492940
    44  O   -0.438045
    45  C    0.308287
    46  C    0.250714
    47  C   -0.049666
    48  C    0.125861
    49  C   -0.028614
    50  C   -0.047842
    51  C    0.029203
    52  C   -0.005827
    53  C    0.042907
    54  C   -0.027035
    55  C    0.007750
    56  C   -0.008949
    57  C    0.002125
    58  C    0.014974
    59  C   -0.002626
    60  C   -0.001110
    61  C    0.001273
    62  C    0.029762
    63  C    0.045217
    64  C   -0.041384
    65  C   -0.036835
 Electronic spatial extent (au):  <R**2>=         181026.4738
 Charge=             -0.0000 electrons
 Dipole moment (field-independent basis, Debye):
    X=              3.3129    Y=              2.1197    Z=              0.4990  Tot=              3.9645
 Quadrupole moment (field-independent basis, Debye-Ang):
   XX=           -364.2659   YY=           -387.1802   ZZ=           -395.8141
   XY=            -25.5722   XZ=             11.8322   YZ=              0.0911
 Traceless Quadrupole moment (field-independent basis, Debye-Ang):
   XX=             18.1542   YY=             -4.7601   ZZ=            -13.3940
   XY=            -25.5722   XZ=             11.8322   YZ=              0.0911
 Octapole moment (field-independent basis, Debye-Ang**2):
  XXX=           -379.2734  YYY=             46.5573  ZZZ=             20.3777  XYY=           -116.0916
  XXY=           -168.2620  XXZ=           -164.4226  XZZ=             23.6578  YZZ=            -37.5971
  YYZ=             68.7189  XYZ=            -24.8551
 Hexadecapole moment (field-independent basis, Debye-Ang**3):
 XXXX=        -223727.2962 YYYY=         -17145.0129 ZZZZ=          -4262.4044 XXXY=          -3824.4469
 XXXZ=           2058.7344 YYYX=           -996.8872 YYYZ=           -218.4923 ZZZX=           -101.0757
 ZZZY=           -103.1176 XXYY=         -40821.3458 XXZZ=         -39119.4742 YYZZ=          -3444.3634
 XXYZ=            262.0459 YYXZ=             -5.0986 ZZXY=             34.1269
 N-N= 8.714424061180D+03 E-N=-2.425277846578D+04  KE= 2.905982331315D+03

 Test job not archived.
 1\1\GINC-RYZEN-SSD3\SP\RCAM-B3LYP TD-FC\6-31G(d,p)\C55H72Mg1N4O5\PADAW
 AN\22-Sep-2019\0\\# td=(NStates=1) iop(3/107=0140000000,3/108=01400000
 00) CAM-B3LYP/6-31G(d,p)\\TD\\0,1\Mg,0,-7.1013548272,0.5834267262,0.14
 84612161\C,0,-4.9038091974,-1.968704101,0.5677221746\C,0,-4.7424102716
 ,2.8468634042,1.083128418\C,0,-9.4155883233,3.1636939224,-0.4511775931
 \C,0,-9.6060066987,-1.7773795037,-0.8649733022\N,0,-5.0427813093,0.392
 8553761,0.6282706511\C,0,-4.3033625836,-0.7339545387,0.7803759323\C,0,
 -2.9458408047,-0.4027686749,1.2747331424\C,0,-3.0401372406,1.032491950
 8,1.7152878081\C,0,-4.2815483895,1.546879339,1.1319775917\C,0,-3.02709
 88907,1.1522980491,3.2133466493\C,0,-1.9213078605,-0.6363796272,0.1162
 454348\C,0,-0.4555912683,-0.4833615842,0.6119145738\C,0,0.5366855918,-
 0.7200286248,-0.4995297431\O,0,0.0521554323,-1.0315069284,-1.583145707
 7\O,0,1.8119397924,-0.463026241,-0.0692623138\N,0,-7.1153891823,2.5728
 104909,0.4312940535\C,0,-6.014181562,3.3770014675,0.7475506312\C,0,-6.
 3166865771,4.7809249561,0.7223004887\C,0,-7.6752123065,4.865928398,0.2
 667327997\C,0,-8.1236318907,3.447431682,-0.0625582572\C,0,-5.426264660
 4,5.8775172254,1.1431344686\C,0,-8.4759576038,6.0994902186,-0.00064945
 24\C,0,-8.4878871987,7.2605452042,0.7225463139\N,0,-9.1448035215,0.633
 0102954,-0.6061371876\C,0,-9.9198294692,1.8259259169,-0.7717899925\C,0
 ,-11.2235063033,1.4696064051,-1.1599508548\C,0,-11.3242119084,0.160073
 5532,-1.2260626346\C,0,-9.9400516088,-0.3631865121,-0.9338855899\C,0,-
 12.3263835761,2.4998552269,-1.3536648192\C,0,-12.4849422871,-0.7173078
 546,-1.5820075314\C,0,-12.3223841473,-1.0198421765,-3.1244931005\N,0,-
 7.1771906815,-1.3698818239,-0.2375764327\C,0,-8.322256552,-2.160994645
 ,-0.5304346234\C,0,-7.9094929891,-3.5884193933,-0.4732076206\C,0,-6.56
 20739979,-3.6319461767,-0.1856106428\C,0,-6.1612398557,-2.2277607319,-
 0.0038085455\C,0,-8.7380461441,-4.7558416826,-0.7788412672\C,0,-5.3782
 632892,-4.4932228857,0.1343284069\O,0,-5.1802990222,-5.6627331303,0.25
 50814567\C,0,-4.2244969523,-3.4180592533,0.5497432959\C,0,-3.652909467
 7,-3.7755755003,1.9059765662\O,0,-3.9048332667,-3.2607534332,2.9797413
 323\O,0,-2.771182471,-4.7361322317,1.7685658941\C,0,-2.2466836254,-5.3
 100562115,3.0380512055\C,0,2.8061769381,-0.6544237313,-1.0085143686\C,
 0,4.1352244076,-0.2965549234,-0.3645890217\C,0,5.1000754988,0.45208173
 62,-0.9627291499\C,0,4.9380275284,1.1100286782,-2.2749516302\C,0,6.473
 4736261,0.5249731133,-0.2842889533\C,0,7.6469261452,-0.0423227803,-1.1
 092712558\C,0,8.867594471,-0.0073725534,-0.2537614785\C,0,10.304875948
 2,-0.4410957728,-0.9603717572\C,0,10.0987031469,-1.7676146414,-1.45051
 20172\C,0,11.4579104548,-0.1974646376,0.0212941669\C,0,12.868594595,-0
 .3744974832,-0.713078813\C,0,14.0320144732,-0.0463303473,0.1116575774\
 C,0,15.3876147525,-0.1656056442,-0.5230079533\C,0,15.5995962306,-1.623
 0306914,-1.0970715335\C,0,16.5654635391,0.3232688442,0.3453992746\C,0,
 17.850582646,0.7282265523,-0.3274492719\C,0,18.9069511137,1.1835364321
 ,0.7458078375\C,0,20.3069835028,1.1981792504,0.3458012861\C,0,20.60094
 29401,2.1092682319,-0.8684515411\C,0,21.2571107781,1.6326249624,1.5199
 459346\H,0,-3.9791682803,3.7123244838,1.1912152173\H,0,-9.9915912824,4
 .1531375883,-0.8441789441\H,0,-10.347329157,-2.5198375189,-1.445702389
 6\H,0,-2.5933766249,-1.1357537781,2.1097674674\H,0,-2.1479982661,1.812
 8333444,1.4761712661\H,0,-1.9910821946,0.9450636128,3.4413844758\H,0,-
 3.2714942585,2.0147706999,3.5860266249\H,0,-3.6481776183,0.517486903,3
 .7574774329\H,0,-1.8341485339,-1.717572428,-0.508788886\H,0,-2.0564020
 092,-0.0232847087,-0.8005967943\H,0,-0.3659520239,0.5001396013,0.93617
 74807\H,0,-0.0634647668,-1.1080115678,1.4426077191\H,0,-5.5301071884,6
 .8002275348,0.5353533666\H,0,-5.6022216935,6.234926374,2.1840404165\H,
 0,-4.396014446,5.4960738754,1.1093016628\H,0,-9.11500176,5.9164050225,
 -0.7355049032\H,0,-9.1871977835,8.1826179828,0.5948692626\H,0,-7.80384
 83169,7.386895526,1.6147204323\H,0,-11.9834888219,3.0915383009,-2.2255
 783893\H,0,-13.3433016279,2.0506238048,-1.6963453627\H,0,-12.335774610
 2,3.1686241965,-0.54480492\H,0,-12.3769296579,-1.8528662094,-1.1788213
 83\H,0,-13.5254348426,-0.3403767482,-1.398565611\H,0,-13.0493101302,-1
 .8473383959,-3.5003009882\H,0,-12.4523156373,-0.1075192232,-3.70947992
 64\H,0,-11.3695217916,-1.5170227295,-3.3921674949\H,0,-9.3322678454,-4
 .8356500658,-1.7653926023\H,0,-8.1807424594,-5.612227176,-0.6970196571
 \H,0,-9.4341775968,-4.9824866971,0.0861563469\H,0,-3.3846959881,-3.385
 8851941,-0.1638441225\H,0,-1.6609594835,-4.5579480082,3.6027519928\H,0
 ,-2.9962660639,-5.8445939843,3.5039414318\H,0,-1.7617366942,-6.2722280
 076,2.7881521763\H,0,2.7657246273,-1.6618628091,-1.3368051292\H,0,2.41
 67481161,-0.2044823634,-1.9064417017\H,0,4.4862391106,-0.6473331471,0.
 5512765279\H,0,3.8255278643,1.0341889616,-2.8029307788\H,0,5.116138546
 1,2.2157820021,-1.7746849069\H,0,5.6094105096,0.6738585768,-3.22619887
 68\H,0,6.7448326672,1.5921791985,-0.0560659927\H,0,6.2706849406,-0.073
 3246692,0.6822144169\H,0,7.3437264954,-1.0223329063,-1.4270074579\H,0,
 7.6721097695,0.4972588289,-2.0776985928\H,0,9.011217166,1.0756470622,0
 .1552979579\H,0,8.6702301438,-0.5589142441,0.5841045339\H,0,10.4425388
 857,0.2528314309,-1.7891840764\H,0,9.3509747066,-2.1097192554,-2.28164
 65466\H,0,10.9342525659,-2.1212655259,-2.1543207902\H,0,9.9068428814,-
 2.5496290776,-0.7086282565\H,0,11.3569773393,0.790695503,0.4119689677\
 H,0,11.4229898945,-0.8525065483,0.8758539055\H,0,12.7459025428,-1.4762
 050398,-0.8593882103\H,0,12.7761534452,0.0566105971,-1.9311374474\H,0,
 13.7462960499,1.0935747208,0.4633211608\H,0,14.1127095816,-0.728749253
 8,0.9872510991\H,0,15.3372841298,0.663839781,-1.2697682456\H,0,15.6319
 669935,-2.2311924604,-0.2998081163\H,0,14.7220338478,-1.853209841,-1.7
 155329268\H,0,16.4703453141,-1.892850182,-1.6721037237\H,0,16.22691596
 51,1.2890872424,0.8801139277\H,0,16.7613302108,-0.5673630211,0.9954580
 405\H,0,18.3003367714,-0.1213286469,-1.0289930949\H,0,17.8138886985,1.
 497168611,-1.0296987135\H,0,18.7928083377,2.0414254105,1.2362355704\H,
 0,18.6706730298,0.4902738669,1.5669999455\H,0,20.6238022125,0.26440743
 83,-0.1223263404\H,0,20.1590127198,3.2189826748,-0.6307452592\H,0,21.5
 487886797,2.073948537,-1.3258505663\H,0,19.9771561132,1.8511054007,-1.
 871785563\H,0,21.110354889,1.0935249934,2.3936430331\H,0,22.3700248953
 ,1.5922096917,1.4616028139\H,0,20.947884867,2.7659927165,1.9933664733\
 \Version=ES64L-G16RevA.03\State=1-A\HF=-2933.5358766\RMSD=3.023e-09\PG
 =C01 [X(C55H72Mg1N4O5)]\\@


 IT IS A CAPITAL MISTAKE TO THEORIZE BEFORE ONE HAS
 DATA.  INSENSIBLY ONE BEGINS TO TWIST FACTS TO SUIT
 THEORIES RATHER THAN THEORIES TO SUIT FACTS.

                                         -- SHERLOCK HOLMES
 Job cpu time:       0 days 19 hours 10 minutes  7.4 seconds.
 Elapsed time:       0 days  4 hours 48 minutes 15.7 seconds.
 File lengths (MBytes):  RWF=   6809 Int=      0 D2E=      0 Chk=    181 Scr=      1
 Normal termination of Gaussian 16 at Sun Sep 22 13:09:27 2019.
