 Entering Gaussian System, Link 0=g16
 Input=Geometria-27-.com
 Output=Geometria-27-.log
 Initial command:
 /usr/local/g16/l1.exe "/home/padawan/israel-mol/chlorophyll-a/spectra/emi/Gau-20676.inp" -scrdir="/home/padawan/israel-mol/chlorophyll-a/spectra/emi/"
 Entering Link 1 = /usr/local/g16/l1.exe PID=     20678.
  
 Copyright (c) 1988,1990,1992,1993,1995,1998,2003,2009,2016,
            Gaussian, Inc.  All Rights Reserved.
  
 This is part of the Gaussian(R) 16 program.  It is based on
 the Gaussian(R) 09 system (copyright 2009, Gaussian, Inc.),
 the Gaussian(R) 03 system (copyright 2003, Gaussian, Inc.),
 the Gaussian(R) 98 system (copyright 1998, Gaussian, Inc.),
 the Gaussian(R) 94 system (copyright 1995, Gaussian, Inc.),
 the Gaussian 92(TM) system (copyright 1992, Gaussian, Inc.),
 the Gaussian 90(TM) system (copyright 1990, Gaussian, Inc.),
 the Gaussian 88(TM) system (copyright 1988, Gaussian, Inc.),
 the Gaussian 86(TM) system (copyright 1986, Carnegie Mellon
 University), and the Gaussian 82(TM) system (copyright 1983,
 Carnegie Mellon University). Gaussian is a federally registered
 trademark of Gaussian, Inc.
  
 This software contains proprietary and confidential information,
 including trade secrets, belonging to Gaussian, Inc.
  
 This software is provided under written license and may be
 used, copied, transmitted, or stored only in accord with that
 written license.
  
 The following legend is applicable only to US Government
 contracts under FAR:
  
                    RESTRICTED RIGHTS LEGEND
  
 Use, reproduction and disclosure by the US Government is
 subject to restrictions as set forth in subparagraphs (a)
 and (c) of the Commercial Computer Software - Restricted
 Rights clause in FAR 52.227-19.
  
 Gaussian, Inc.
 340 Quinnipiac St., Bldg. 40, Wallingford CT 06492
  
  
 ---------------------------------------------------------------
 Warning -- This program may not be used in any manner that
 competes with the business of Gaussian, Inc. or will provide
 assistance to any competitor of Gaussian, Inc.  The licensee
 of this program is prohibited from giving any competitor of
 Gaussian, Inc. access to this program.  By using this program,
 the user acknowledges that Gaussian, Inc. is engaged in the
 business of creating and licensing software in the field of
 computational chemistry and represents and warrants to the
 licensee that it is not a competitor of Gaussian, Inc. and that
 it will not use this program in any manner prohibited above.
 ---------------------------------------------------------------
  

 Cite this work as:
 Gaussian 16, Revision A.03,
 M. J. Frisch, G. W. Trucks, H. B. Schlegel, G. E. Scuseria, 
 M. A. Robb, J. R. Cheeseman, G. Scalmani, V. Barone, 
 G. A. Petersson, H. Nakatsuji, X. Li, M. Caricato, A. V. Marenich, 
 J. Bloino, B. G. Janesko, R. Gomperts, B. Mennucci, H. P. Hratchian, 
 J. V. Ortiz, A. F. Izmaylov, J. L. Sonnenberg, D. Williams-Young, 
 F. Ding, F. Lipparini, F. Egidi, J. Goings, B. Peng, A. Petrone, 
 T. Henderson, D. Ranasinghe, V. G. Zakrzewski, J. Gao, N. Rega, 
 G. Zheng, W. Liang, M. Hada, M. Ehara, K. Toyota, R. Fukuda, 
 J. Hasegawa, M. Ishida, T. Nakajima, Y. Honda, O. Kitao, H. Nakai, 
 T. Vreven, K. Throssell, J. A. Montgomery, Jr., J. E. Peralta, 
 F. Ogliaro, M. J. Bearpark, J. J. Heyd, E. N. Brothers, K. N. Kudin, 
 V. N. Staroverov, T. A. Keith, R. Kobayashi, J. Normand, 
 K. Raghavachari, A. P. Rendell, J. C. Burant, S. S. Iyengar, 
 J. Tomasi, M. Cossi, J. M. Millam, M. Klene, C. Adamo, R. Cammi, 
 J. W. Ochterski, R. L. Martin, K. Morokuma, O. Farkas, 
 J. B. Foresman, and D. J. Fox, Gaussian, Inc., Wallingford CT, 2016.
 
 ******************************************
 Gaussian 16:  ES64L-G16RevA.03 25-Dec-2016
                28-Jun-2019 
 ******************************************
 %nproc=4
 Will use up to    4 processors via shared memory.
 %Mem=2GB
 -------------------------------------
 # td=(NStates=1) CAM-B3LYP/6-31G(d,p)
 -------------------------------------
 1/38=1,172=1/1;
 2/12=2,17=6,18=5,40=1/2;
 3/5=1,6=6,7=101,11=9,25=1,30=1,74=-40/1,2,3,8;
 4//1;
 5/5=2,38=5/2;
 8/6=1,10=2,108=1/1;
 9/41=1,42=1,70=2/14;
 6/7=2,8=2,9=2,10=2/1;
 99/5=1,9=1/99;
 --
 TD
 --
 Symbolic Z-matrix:
 Charge =  0 Multiplicity = 1
 12                   -7.16111   0.61575   0.13102 
 6                    -4.86154  -1.88783   0.56624 
 6                    -4.94757   2.78274   1.16402 
 6                    -9.48409   3.1508   -0.46681 
 6                    -9.50517  -1.7181   -0.93943 
 7                    -5.05375   0.4773    0.74526 
 6                    -4.29188  -0.65626   0.86718 
 6                    -2.94636  -0.31315   1.34137 
 6                    -3.02987   1.10653   1.80695 
 6                    -4.38691   1.55395   1.21335 
 6                    -3.11907   1.2292    3.39126 
 6                    -1.94434  -0.53321   0.18525 
 6                    -0.42391  -0.49853   0.66915 
 6                     0.54569  -0.74064  -0.48578 
 8                     0.26467  -1.0093   -1.6803 
 8                     1.82825  -0.56173   0.00743 
 7                    -7.16447   2.49648   0.31432 
 6                    -6.08809   3.3086    0.80867 
 6                    -6.44384   4.72473   0.80928 
 6                    -7.69922   4.79171   0.19799 
 6                    -8.13912   3.4397   -0.04835 
 6                    -5.5725    5.90271   1.12698 
 6                    -8.44217   5.99622  -0.00336 
 6                    -8.53079   7.12261   0.7681 
 7                    -9.14917   0.67252  -0.53074 
 6                    -9.97102   1.83432  -0.62634 
 6                    -11.26337   1.38351  -1.08636 
 6                    -11.27369   0.01104  -1.16171 
 6                    -9.98769  -0.41616  -0.90399 
 6                    -12.34133   2.38008  -1.53015 
 6                    -12.4465  -0.77375  -1.78752 
 6                    -12.44774  -0.88748  -3.25398 
 7                    -7.20639  -1.29906  -0.20392 
 6                    -8.20339  -2.18569  -0.5525 
 6                    -7.78591  -3.5477   -0.57749 
 6                    -6.4259   -3.43789  -0.20373 
 6                    -6.1686   -2.08796   0.09557 
 6                    -8.70728  -4.7412   -0.96901 
 6                    -5.28403  -4.29209   0.09254 
 8                    -5.19084  -5.56257   0.10758 
 6                    -4.20493  -3.26656   0.5794 
 6                    -3.58434  -3.78385   1.87533 
 8                    -3.76608  -3.21545   2.98188 
 8                    -2.50123  -4.66177   1.63436 
 6                    -2.06629  -5.14612   2.92108 
 6                     2.79486  -0.61253  -1.10969 
 6                     4.1315   -0.47978  -0.53995 
 6                     5.16107   0.25949  -0.99639 
 6                     5.05457   1.08651  -2.26369 
 6                     6.54728   0.32075  -0.21522 
 6                     7.7407   -0.26984  -0.90521 
 6                     8.96403  -0.12226  -0.14839 
 6                     10.12405  -0.5957   -0.89706 
 6                     10.06234  -2.02538  -1.32968 
 6                     11.46589  -0.36417   0.12001 
 6                     12.85171  -0.53304  -0.64891 
 6                     13.94429  -0.1498    0.26533 
 6                     15.41083  -0.37136  -0.41534 
 6                     15.64399  -1.74654  -0.64157 
 6                     16.52577   0.38163   0.43557 
 6                     17.82372   0.66535  -0.32122 
 6                     18.77568   1.32934   0.64671 
 6                     20.29834   1.51817   0.17206 
 6                     20.43209   2.16672  -1.33543 
 6                     21.15253   2.03926   1.1693 
 1                    -4.33146   3.51884   1.6172 
 1                    -10.2814   3.96678  -0.70418 
 1                    -10.29536  -2.40598  -1.34231 
 1                    -2.61174  -0.74926   2.24158 
 1                    -2.36275   1.83556   1.74959 
 1                    -2.30579   0.87807   3.89228 
 1                    -3.14436   2.2845    3.59586 
 1                    -4.02211   0.71091   3.6811 
 1                    -2.13098  -1.66734   0.04271 
 1                    -2.10476   0.31754  -0.66574 
 1                     0.01936   0.40732   1.21361 
 1                    -0.062    -1.37461   1.50013 
 1                    -6.01771   6.83821   0.74624 
 1                    -5.37819   6.14577   2.1657 
 1                    -4.50336   5.77728   0.89855 
 1                    -9.13374   6.00649  -0.88173 
 1                    -9.06901   7.96441   0.4879 
 1                    -7.89419   7.10763   1.68605 
 1                    -12.15288   2.9089   -2.62606 
 1                    -13.14538   1.96512  -1.76198 
 1                    -12.45253   3.18438  -0.58982 
 1                    -12.55514  -1.87695  -1.38136 
 1                    -13.2629  -0.21143  -1.44434 
 1                    -13.41985  -1.31134  -3.41344 
 1                    -12.38658  -0.05593  -3.90479 
 1                    -11.54414  -1.80797  -3.46629 
 1                    -9.31669  -4.78406  -1.90953 
 1                    -8.21631  -5.61684  -0.94004 
 1                    -9.60699  -5.03984  -0.32522 
 1                    -3.18648  -3.35528  -0.04718 
 1                    -1.38078  -4.29446   3.3403 
 1                    -2.80909  -5.38494   3.5189 
 1                    -1.46122  -5.834     2.61502 
 1                     2.56013  -1.64925  -1.57525 
 1                     2.54294   0.05048  -1.92991 
 1                     3.99224  -1.05713   0.30199 
 1                     3.92111   1.05745  -2.70332 
 1                     5.13178   2.17004  -2.18411 
 1                     5.69457   0.89718  -2.96164 
 1                     6.67783   1.50342  -0.12411 
 1                     6.53693  -0.23631   0.6602 
 1                     7.34153  -1.23786  -1.23973 
 1                     7.94885   0.35594  -1.9562 
 1                     8.99783   0.99796   0.03311 
 1                     8.96329  -0.71339   0.65465 
 1                     10.46678  -0.02799  -1.65028 
 1                     9.41758  -2.01683  -2.44682 
 1                     10.94369  -2.65662  -1.60809 
 1                     9.65249  -2.44464  -0.23461 
 1                     11.46606   0.52797   0.58287 
 1                     11.41994  -1.11454   0.8775 
 1                     12.88903  -1.56191  -0.98471 
 1                     12.89985   0.09039  -1.6552 
 1                     13.82194   1.16427   0.45603 
 1                     14.09525  -0.59207   1.3119 
 1                     15.49325   0.31071  -1.1954 
 1                     15.65471  -2.26422   0.25096 
 1                     14.76611  -2.04385  -1.25037 
 1                     16.49989  -1.94313  -1.39172 
 1                     16.09066   1.25885   0.93939 
 1                     16.84514  -0.45661   1.3385 
 1                     18.2561  -0.30408  -0.75989 
 1                     17.5363   1.07434  -1.12568 
 1                     18.24789   2.15513   0.95014 
 1                     18.80155   0.74019   1.6648 
 1                     20.61298   0.63182  -0.14218 
 1                     20.24985   3.35404  -1.20867 
 1                     21.48165   1.92351  -1.99709 
 1                     19.58542   1.86891  -1.97904 
 1                     21.59692   1.31861   2.07489 
 1                     22.05867   2.41479   0.57724 
 1                     20.70451   3.12252   1.54791 
 
 Stoichiometry    C55H72MgN4O5
 Framework group  C1[X(C55H72MgN4O5)]
 Deg. of freedom   405
 Full point group                 C1      NOp   1
 Largest Abelian subgroup         C1      NOp   1
 Largest concise Abelian subgroup C1      NOp   1
                         Standard orientation:                         
 ---------------------------------------------------------------------
 Center     Atomic      Atomic             Coordinates (Angstroms)
 Number     Number       Type             X           Y           Z
 ---------------------------------------------------------------------
      1         12           0       -7.159730    0.608195    0.133917
      2          6           0       -4.857707   -1.893629    0.566243
      3          6           0       -4.948164    2.776221    1.168948
      4          6           0       -9.485221    3.141637   -0.460982
      5          6           0       -9.501671   -1.726779   -0.938724
      6          7           0       -5.052169    0.471123    0.747776
      7          6           0       -4.289196   -0.661825    0.868416
      8          6           0       -2.943957   -0.317925    1.342814
      9          6           0       -3.028771    1.101187    1.809894
     10          6           0       -4.386308    1.547919    1.216916
     11          6           0       -3.117909    1.222096    3.394342
     12          6           0       -1.941852   -0.535802    0.186347
     13          6           0       -0.421403   -0.500175    0.670109
     14          6           0        0.548293   -0.740130   -0.485190
     15          8           0        0.267397   -1.007802   -1.679960
     16          8           0        1.830746   -0.560512    0.008071
     17          7           0       -7.164878    2.488722    0.319196
     18          6           0       -6.089224    3.301362    0.814282
     19          6           0       -6.446339    4.717143    0.816420
     20          6           0       -7.701854    4.783562    0.205340
     21          6           0       -8.140477    3.431393   -0.042373
     22          6           0       -5.576089    5.895632    1.135257
     23          6           0       -8.445984    5.987569    0.005341
     24          6           0       -8.535594    7.113058    0.778002
     25          7           0       -9.147920    0.663749   -0.527556
     26          6           0       -9.970904    1.824861   -0.621841
     27          6           0      -11.262864    1.373286   -1.082190
     28          6           0      -11.271877    0.000886   -1.158988
     29          6           0       -9.985442   -0.425348   -0.901854
     30          6           0      -12.341840    2.369287   -1.524808
     31          6           0      -12.444003   -0.784373   -1.785485
     32          6           0      -12.445305   -0.896558   -3.252065
     33          7           0       -7.203210   -1.306304   -0.203029
     34          6           0       -8.199397   -2.193530   -0.552434
     35          6           0       -7.780615   -3.555110   -0.578900
     36          6           0       -6.420660   -3.444380   -0.205186
     37          6           0       -6.164627   -2.094518    0.095510
     38          6           0       -8.700875   -4.749077   -0.971572
     39          6           0       -5.277941   -4.297798    0.090060
     40          8           0       -5.183523   -5.568200    0.103747
     41          6           0       -4.199773   -3.271743    0.577872
     42          6           0       -3.578533   -3.789800    1.873186
     43          8           0       -3.760692   -3.222735    2.980358
     44          8           0       -2.494609   -4.666421    1.631174
     45          6           0       -2.059052   -5.151704    2.917329
     46          6           0        2.797274   -0.609202   -1.109218
     47          6           0        4.133844   -0.475763   -0.539492
     48          6           0        5.162654    0.264975   -0.995266
     49          6           0        5.055218    1.093225   -2.261684
     50          6           0        6.548894    0.326748   -0.214188
     51          6           0        7.742805   -0.261969   -0.904934
     52          6           0        8.966075   -0.114009   -0.148097
     53          6           0       10.126469   -0.585544   -0.897401
     54          6           0       10.066085   -2.014833   -1.331514
     55          6           0       11.468199   -0.353797    0.119764
     56          6           0       12.854093   -0.520522   -0.649499
     57          6           0       13.946413   -0.137193    0.265029
     58          6           0       15.413080   -0.356630   -0.416044
     59          6           0       15.647536   -1.731348   -0.643751
     60          6           0       16.527393    0.396539    0.435530
     61          6           0       17.824983    0.682299   -0.321105
     62          6           0       18.776416    1.346189    0.647409
     63          6           0       20.298839    1.536984    0.172792
     64          6           0       20.431799    2.187251   -1.334036
     65          6           0       21.152640    2.057840    1.170483
     66          1           0       -4.332711    3.512437    1.622826
     67          1           0      -10.283338    3.957096   -0.697399
     68          1           0      -10.291247   -2.414996   -1.342239
     69          1           0       -2.608808   -0.754663    2.242527
     70          1           0       -2.362363    1.830912    1.753220
     71          1           0       -2.304232    0.871224    3.894902
     72          1           0       -3.144193    2.277162    3.600056
     73          1           0       -4.020415    0.702633    3.683738
     74          1           0       -2.127415   -1.669959    0.042633
     75          1           0       -2.103192    0.315686   -0.663728
     76          1           0        0.021056    0.405527    1.215473
     77          1           0       -0.058559   -1.376778    1.500129
     78          1           0       -6.022248    6.831103    0.755555
     79          1           0       -5.381904    6.137780    2.174216
     80          1           0       -4.506865    5.771467    0.906579
     81          1           0       -9.137658    5.998094   -0.872934
     82          1           0       -9.074657    7.954634    0.498745
     83          1           0       -7.898877    7.097723    1.695858
     84          1           0      -12.154021    2.899444   -2.620178
     85          1           0      -13.145519    1.953800   -1.756981
     86          1           0      -12.453700    3.172488   -0.583620
     87          1           0      -12.551537   -1.888097   -1.380478
     88          1           0      -13.260900   -0.223194   -1.441622
     89          1           0      -13.417021   -1.321179   -3.411862
     90          1           0      -12.385019   -0.064264   -3.902010
     91          1           0      -11.540843   -1.815949   -3.465441
     92          1           0       -9.310354   -4.791535   -1.912076
     93          1           0       -8.209062   -5.624279   -0.943587
     94          1           0       -9.600226   -5.049261   -0.328003
     95          1           0       -3.181306   -3.358820   -0.048915
     96          1           0       -1.374312   -4.299824    3.337367
     97          1           0       -2.801557   -5.391869    3.514989
     98          1           0       -1.453363   -5.838683    2.610475
     99          1           0        2.563481   -1.645654   -1.575842
    100          1           0        2.544622    0.054427   -1.928705
    101          1           0        3.995240   -1.054134    0.301863
    102          1           0        3.921734    1.063540   -2.701214
    103          1           0        5.131390    2.176740   -2.180977
    104          1           0        5.695313    0.905245   -2.959910
    105          1           0        6.678317    1.509447   -0.121850
    106          1           0        6.539178   -0.231248    0.660640
    107          1           0        7.344527   -1.230025   -1.240425
    108          1           0        7.950228    0.365113   -1.955290
    109          1           0        8.998822    1.006047    0.034576
    110          1           0        8.966002   -0.705983    0.654320
    111          1           0       10.468568   -0.016716   -1.650061
    112          1           0        9.421183   -2.005724   -2.448575
    113          1           0       10.948003   -2.644931   -1.610687
    114          1           0        9.656759   -2.435632   -0.236846
    115          1           0       11.467569    0.537850    0.583559
    116          1           0       11.423053   -1.105005    0.876464
    117          1           0       12.892366   -1.549009   -0.986377
    118          1           0       12.901522    0.104010   -1.655131
    119          1           0       13.822820    1.176553    0.457125
    120          1           0       14.097916   -0.580421    1.311110
    121          1           0       15.494761    0.326341   -1.195399
    122          1           0       15.658863   -2.249951    0.248239
    123          1           0       14.769876   -2.028856   -1.252763
    124          1           0       16.503542   -1.926323   -1.394202
    125          1           0       16.091504    1.272811    0.940324
    126          1           0       16.847674   -0.442350    1.337539
    127          1           0       18.258244   -0.286247   -0.760845
    128          1           0       17.537081    1.091866   -1.125099
    129          1           0       18.247864    2.171150    0.951775
    130          1           0       18.802968    0.755990    1.664876
    131          1           0       20.614293    0.651265   -0.142416
    132          1           0       20.248426    3.374255   -1.206006
    133          1           0       21.481515    1.945741   -1.996068
    134          1           0       19.585340    1.889298   -1.977864
    135          1           0       21.597826    1.336668    2.075258
    136          1           0       22.058352    2.434870    0.578716
    137          1           0       20.703626    3.140275    1.550277
 ---------------------------------------------------------------------
 Rotational constants (GHZ):           0.0651189           0.0060554           0.0057143
 Standard basis: 6-31G(d,p) (6D, 7F)
 There are  1339 symmetry adapted cartesian basis functions of A   symmetry.
 There are  1339 symmetry adapted basis functions of A   symmetry.
  1339 basis functions,  2348 primitive gaussians,  1339 cartesian basis functions
   241 alpha electrons      241 beta electrons
       nuclear repulsion energy      8735.1911144041 Hartrees.
 NAtoms=  137 NActive=  137 NUniq=  137 SFac= 1.00D+00 NAtFMM=   60 NAOKFM=T Big=T
 Integral buffers will be    131072 words long.
 Raffenetti 1 integral format.
 Two-electron integral symmetry is turned on.
 One-electron integrals computed using PRISM.
 NBasis=  1339 RedAO= T EigKep=  2.74D-04  NBF=  1339
 NBsUse=  1339 1.00D-06 EigRej= -1.00D+00 NBFU=  1339
 ExpMin= 4.21D-02 ExpMax= 1.17D+04 ExpMxC= 1.76D+03 IAcc=3 IRadAn=         5 AccDes= 0.00D+00
 Harris functional with IExCor=20419 and IRadAn=       5 diagonalized for initial guess.
 HarFok:  IExCor=20419 AccDes= 0.00D+00 IRadAn=         5 IDoV= 1 UseB2=F ITyADJ=14
 ICtDFT=  3500011 ScaDFX=  1.000000  1.000000  1.000000  1.000000
 FoFCou: FMM=F IPFlag=           0 FMFlag=      100000 FMFlg1=        2001
         NFxFlg=           0 DoJE=T BraDBF=F KetDBF=T FulRan=T
         wScrn=  0.000000 ICntrl=       500 IOpCl=  0 I1Cent=   200000004 NGrid=           0
         NMat0=    1 NMatS0=      1 NMatT0=    0 NMatD0=    1 NMtDS0=    0 NMtDT0=    0
 Petite list used in FoFCou.
 Requested convergence on RMS density matrix=1.00D-08 within 128 cycles.
 Requested convergence on MAX density matrix=1.00D-06.
 Requested convergence on             energy=1.00D-06.
 No special actions if energy rises.
 SCF Done:  E(RCAM-B3LYP) =  -2932.48593553     A.U. after   18 cycles
            NFock= 18  Conv=0.66D-08     -V/T= 2.0092
 DoSCS=F DFT=T ScalE2(SS,OS)=  1.000000  1.000000
 ExpMin= 4.21D-02 ExpMax= 1.17D+04 ExpMxC= 1.76D+03 IAcc=3 IRadAn=         5 AccDes= 0.00D+00
 HarFok:  IExCor=  205 AccDes= 0.00D+00 IRadAn=         5 IDoV=-2 UseB2=F ITyADJ=14
 ICtDFT= 12500011 ScaDFX=  1.000000  1.000000  1.000000  1.000000
 GSVD:  LWork=       -5313 too small for GESVD, short by       24840 words or       24840 for optimal perf.
 Range of M.O.s used for correlation:    70  1339
 NBasis=  1339 NAE=   241 NBE=   241 NFC=    69 NFV=     0
 NROrb=   1270 NOA=   172 NOB=   172 NVA=  1098 NVB=  1098
 Orbital symmetries:
       Occupied  (A) (A) (A) (A) (A) (A) (A) (A) (A) (A) (A) (A)
                 (A) (A) (A) (A) (A) (A) (A) (A) (A) (A) (A) (A)
                 (A) (A) (A) (A) (A) (A) (A) (A) (A) (A) (A) (A)
                 (A) (A) (A) (A) (A) (A) (A) (A) (A) (A) (A) (A)
                 (A) (A) (A) (A) (A) (A) (A) (A) (A) (A) (A) (A)
                 (A) (A) (A) (A) (A) (A) (A) (A) (A) (A) (A) (A)
                 (A) (A) (A) (A) (A) (A) (A) (A) (A) (A) (A) (A)
                 (A) (A) (A) (A) (A) (A) (A) (A) (A) (A) (A) (A)
                 (A) (A) (A) (A) (A) (A) (A) (A) (A) (A) (A) (A)
                 (A) (A) (A) (A) (A) (A) (A) (A) (A) (A) (A) (A)
                 (A) (A) (A) (A) (A) (A) (A) (A) (A) (A) (A) (A)
                 (A) (A) (A) (A) (A) (A) (A) (A) (A) (A) (A) (A)
                 (A) (A) (A) (A) (A) (A) (A) (A) (A) (A) (A) (A)
                 (A) (A) (A) (A) (A) (A) (A) (A) (A) (A) (A) (A)
                 (A) (A) (A) (A) (A) (A) (A) (A) (A) (A) (A) (A)
                 (A) (A) (A) (A) (A) (A) (A) (A) (A) (A) (A) (A)
                 (A) (A) (A) (A) (A) (A) (A) (A) (A) (A) (A) (A)
                 (A) (A) (A) (A) (A) (A) (A) (A) (A) (A) (A) (A)
                 (A) (A) (A) (A) (A) (A) (A) (A) (A) (A) (A) (A)
                 (A) (A) (A) (A) (A) (A) (A) (A) (A) (A) (A) (A)
                 (A)
       Virtual   (A) (A) (A) (A) (A) (A) (A) (A) (A) (A) (A) (A)
                 (A) (A) (A) (A) (A) (A) (A) (A) (A) (A) (A) (A)
                 (A) (A) (A) (A) (A) (A) (A) (A) (A) (A) (A) (A)
                 (A) (A) (A) (A) (A) (A) (A) (A) (A) (A) (A) (A)
                 (A) (A) (A) (A) (A) (A) (A) (A) (A) (A) (A) (A)
                 (A) (A) (A) (A) (A) (A) (A) (A) (A) (A) (A) (A)
                 (A) (A) (A) (A) (A) (A) (A) (A) (A) (A) (A) (A)
                 (A) (A) (A) (A) (A) (A) (A) (A) (A) (A) (A) (A)
                 (A) (A) (A) (A) (A) (A) (A) (A) (A) (A) (A) (A)
                 (A) (A) (A) (A) (A) (A) (A) (A) (A) (A) (A) (A)
                 (A) (A) (A) (A) (A) (A) (A) (A) (A) (A) (A) (A)
                 (A) (A) (A) (A) (A) (A) (A) (A) (A) (A) (A) (A)
                 (A) (A) (A) (A) (A) (A) (A) (A) (A) (A) (A) (A)
                 (A) (A) (A) (A) (A) (A) (A) (A) (A) (A) (A) (A)
                 (A) (A) (A) (A) (A) (A) (A) (A) (A) (A) (A) (A)
                 (A) (A) (A) (A) (A) (A) (A) (A) (A) (A) (A) (A)
                 (A) (A) (A) (A) (A) (A) (A) (A) (A) (A) (A) (A)
                 (A) (A) (A) (A) (A) (A) (A) (A) (A) (A) (A) (A)
                 (A) (A) (A) (A) (A) (A) (A) (A) (A) (A) (A) (A)
                 (A) (A) (A) (A) (A) (A) (A) (A) (A) (A) (A) (A)
                 (A) (A) (A) (A) (A) (A) (A) (A) (A) (A) (A) (A)
                 (A) (A) (A) (A) (A) (A) (A) (A) (A) (A) (A) (A)
                 (A) (A) (A) (A) (A) (A) (A) (A) (A) (A) (A) (A)
                 (A) (A) (A) (A) (A) (A) (A) (A) (A) (A) (A) (A)
                 (A) (A) (A) (A) (A) (A) (A) (A) (A) (A) (A) (A)
                 (A) (A) (A) (A) (A) (A) (A) (A) (A) (A) (A) (A)
                 (A) (A) (A) (A) (A) (A) (A) (A) (A) (A) (A) (A)
                 (A) (A) (A) (A) (A) (A) (A) (A) (A) (A) (A) (A)
                 (A) (A) (A) (A) (A) (A) (A) (A) (A) (A) (A) (A)
                 (A) (A) (A) (A) (A) (A) (A) (A) (A) (A) (A) (A)
                 (A) (A) (A) (A) (A) (A) (A) (A) (A) (A) (A) (A)
                 (A) (A) (A) (A) (A) (A) (A) (A) (A) (A) (A) (A)
                 (A) (A) (A) (A) (A) (A) (A) (A) (A) (A) (A) (A)
                 (A) (A) (A) (A) (A) (A) (A) (A) (A) (A) (A) (A)
                 (A) (A) (A) (A) (A) (A) (A) (A) (A) (A) (A) (A)
                 (A) (A) (A) (A) (A) (A) (A) (A) (A) (A) (A) (A)
                 (A) (A) (A) (A) (A) (A) (A) (A) (A) (A) (A) (A)
                 (A) (A) (A) (A) (A) (A) (A) (A) (A) (A) (A) (A)
                 (A) (A) (A) (A) (A) (A) (A) (A) (A) (A) (A) (A)
                 (A) (A) (A) (A) (A) (A) (A) (A) (A) (A) (A) (A)
                 (A) (A) (A) (A) (A) (A) (A) (A) (A) (A) (A) (A)
                 (A) (A) (A) (A) (A) (A) (A) (A) (A) (A) (A) (A)
                 (A) (A) (A) (A) (A) (A) (A) (A) (A) (A) (A) (A)
                 (A) (A) (A) (A) (A) (A) (A) (A) (A) (A) (A) (A)
                 (A) (A) (A) (A) (A) (A) (A) (A) (A) (A) (A) (A)
                 (A) (A) (A) (A) (A) (A) (A) (A) (A) (A) (A) (A)
                 (A) (A) (A) (A) (A) (A) (A) (A) (A) (A) (A) (A)
                 (A) (A) (A) (A) (A) (A) (A) (A) (A) (A) (A) (A)
                 (A) (A) (A) (A) (A) (A) (A) (A) (A) (A) (A) (A)
                 (A) (A) (A) (A) (A) (A) (A) (A) (A) (A) (A) (A)
                 (A) (A) (A) (A) (A) (A) (A) (A) (A) (A) (A) (A)
                 (A) (A) (A) (A) (A) (A) (A) (A) (A) (A) (A) (A)
                 (A) (A) (A) (A) (A) (A) (A) (A) (A) (A) (A) (A)
                 (A) (A) (A) (A) (A) (A) (A) (A) (A) (A) (A) (A)
                 (A) (A) (A) (A) (A) (A) (A) (A) (A) (A) (A) (A)
                 (A) (A) (A) (A) (A) (A) (A) (A) (A) (A) (A) (A)
                 (A) (A) (A) (A) (A) (A) (A) (A) (A) (A) (A) (A)
                 (A) (A) (A) (A) (A) (A) (A) (A) (A) (A) (A) (A)
                 (A) (A) (A) (A) (A) (A) (A) (A) (A) (A) (A) (A)
                 (A) (A) (A) (A) (A) (A) (A) (A) (A) (A) (A) (A)
                 (A) (A) (A) (A) (A) (A) (A) (A) (A) (A) (A) (A)
                 (A) (A) (A) (A) (A) (A) (A) (A) (A) (A) (A) (A)
                 (A) (A) (A) (A) (A) (A) (A) (A) (A) (A) (A) (A)
                 (A) (A) (A) (A) (A) (A) (A) (A) (A) (A) (A) (A)
                 (A) (A) (A) (A) (A) (A) (A) (A) (A) (A) (A) (A)
                 (A) (A) (A) (A) (A) (A) (A) (A) (A) (A) (A) (A)
                 (A) (A) (A) (A) (A) (A) (A) (A) (A) (A) (A) (A)
                 (A) (A) (A) (A) (A) (A) (A) (A) (A) (A) (A) (A)
                 (A) (A) (A) (A) (A) (A) (A) (A) (A) (A) (A) (A)
                 (A) (A) (A) (A) (A) (A) (A) (A) (A) (A) (A) (A)
                 (A) (A) (A) (A) (A) (A) (A) (A) (A) (A) (A) (A)
                 (A) (A) (A) (A) (A) (A) (A) (A) (A) (A) (A) (A)
                 (A) (A) (A) (A) (A) (A) (A) (A) (A) (A) (A) (A)
                 (A) (A) (A) (A) (A) (A) (A) (A) (A) (A) (A) (A)
                 (A) (A) (A) (A) (A) (A) (A) (A) (A) (A) (A) (A)
                 (A) (A) (A) (A) (A) (A) (A) (A) (A) (A) (A) (A)
                 (A) (A) (A) (A) (A) (A) (A) (A) (A) (A) (A) (A)
                 (A) (A) (A) (A) (A) (A) (A) (A) (A) (A) (A) (A)
                 (A) (A) (A) (A) (A) (A) (A) (A) (A) (A) (A) (A)
                 (A) (A) (A) (A) (A) (A) (A) (A) (A) (A) (A) (A)
                 (A) (A) (A) (A) (A) (A) (A) (A) (A) (A) (A) (A)
                 (A) (A) (A) (A) (A) (A) (A) (A) (A) (A) (A) (A)
                 (A) (A) (A) (A) (A) (A) (A) (A) (A) (A) (A) (A)
                 (A) (A) (A) (A) (A) (A) (A) (A) (A) (A) (A) (A)
                 (A) (A) (A) (A) (A) (A) (A) (A) (A) (A) (A) (A)
                 (A) (A) (A) (A) (A) (A) (A) (A) (A) (A) (A) (A)
                 (A) (A) (A) (A) (A) (A) (A) (A) (A) (A) (A) (A)
                 (A) (A) (A) (A) (A) (A) (A) (A) (A) (A) (A) (A)
                 (A) (A) (A) (A) (A) (A) (A) (A) (A) (A) (A) (A)
                 (A) (A) (A) (A) (A) (A) (A) (A) (A) (A) (A) (A)
                 (A) (A) (A) (A) (A) (A) (A) (A) (A) (A) (A) (A)
                 (A) (A) (A) (A) (A) (A)
     4 initial guesses have been made.
 Convergence on wavefunction:    0.001000000000000
 Iteration     1 Dimension     4 NMult     0 NNew      4
 CISAX will form     4 AO SS matrices at one time.
 Iteration     2 Dimension     6 NMult     4 NNew      2
 Iteration     3 Dimension     8 NMult     6 NNew      2
 Iteration     4 Dimension    10 NMult     8 NNew      2
 Iteration     5 Dimension    12 NMult    10 NNew      2
 Iteration     6 Dimension    14 NMult    12 NNew      2
 Iteration     7 Dimension    16 NMult    14 NNew      2
 Iteration     8 Dimension    18 NMult    16 NNew      2
 ***********************************************************************
 Excited states from <AA,BB:AA,BB> singles matrix:
 ***********************************************************************
 
 Ground to excited state transition densities written to RWF  633
 Ground to excited state transition electric dipole moments (Au):
       state          X           Y           Z        Dip. S.      Osc.
         1         0.2810      1.9692      0.3690      4.0927      0.2062
 Ground to excited state transition velocity dipole moments (Au):
       state          X           Y           Z        Dip. S.      Osc.
         1        -0.0206     -0.1441     -0.0272      0.0219      0.1935
 Ground to excited state transition magnetic dipole moments (Au):
       state          X           Y           Z
         1        -0.4181     -0.5008      3.2199
 Ground to excited state transition velocity quadrupole moments (Au):
       state          XX          YY          ZZ          XY          XZ          YZ
         1         0.6221     -0.2076     -0.0460      1.8046      0.3384     -0.1308
 <0|del|b> * <b|rxdel|0> + <0|del|b> * <b|delr+rdel|0>
 Rotatory Strengths (R) in cgs (10**-40 erg-esu-cm/Gauss)
       state          XX          YY          ZZ    R(velocity)    E-M Angle
         1       -72.7762   -126.9959    137.2755    -20.8322       90.79
 1/2[<0|r|b>*<b|rxdel|0> + (<0|rxdel|b>*<b|r|0>)*]
 Rotatory Strengths (R) in cgs (10**-40 erg-esu-cm/Gauss)
       state          XX          YY          ZZ     R(length)
         1        83.0664    697.4347   -840.2722    -19.9237
  1/2[<0|del|b>*<b|r|0> + (<0|r|b>*<b|del|0>)*] (Au)
       state          X           Y           Z        Dip. S.   Osc.(frdel)
         1        -0.0058     -0.2838     -0.0100      0.2996      0.1997

 Excitation energies and oscillator strengths:
 
 Excited State   1:      Singlet-A      2.0561 eV  603.01 nm  f=0.2062  <S**2>=0.000
     240 -> 243       -0.27201
     241 -> 242        0.64446
 This state for optimization and/or second-order correction.
 Total Energy, E(TD-HF/TD-DFT) =  -2932.41037506    
 Copying the excited state density for this state as the 1-particle RhoCI density.
 SavETr:  write IOETrn=   770 NScale= 10 NData=  16 NLR=1 NState=    1 LETran=      28.
 Hyperfine terms turned off by default for NAtoms > 100.

 **********************************************************************

            Population analysis using the SCF density.

 **********************************************************************

 Orbital symmetries:
       Occupied  (A) (A) (A) (A) (A) (A) (A) (A) (A) (A) (A) (A)
                 (A) (A) (A) (A) (A) (A) (A) (A) (A) (A) (A) (A)
                 (A) (A) (A) (A) (A) (A) (A) (A) (A) (A) (A) (A)
                 (A) (A) (A) (A) (A) (A) (A) (A) (A) (A) (A) (A)
                 (A) (A) (A) (A) (A) (A) (A) (A) (A) (A) (A) (A)
                 (A) (A) (A) (A) (A) (A) (A) (A) (A) (A) (A) (A)
                 (A) (A) (A) (A) (A) (A) (A) (A) (A) (A) (A) (A)
                 (A) (A) (A) (A) (A) (A) (A) (A) (A) (A) (A) (A)
                 (A) (A) (A) (A) (A) (A) (A) (A) (A) (A) (A) (A)
                 (A) (A) (A) (A) (A) (A) (A) (A) (A) (A) (A) (A)
                 (A) (A) (A) (A) (A) (A) (A) (A) (A) (A) (A) (A)
                 (A) (A) (A) (A) (A) (A) (A) (A) (A) (A) (A) (A)
                 (A) (A) (A) (A) (A) (A) (A) (A) (A) (A) (A) (A)
                 (A) (A) (A) (A) (A) (A) (A) (A) (A) (A) (A) (A)
                 (A) (A) (A) (A) (A) (A) (A) (A) (A) (A) (A) (A)
                 (A) (A) (A) (A) (A) (A) (A) (A) (A) (A) (A) (A)
                 (A) (A) (A) (A) (A) (A) (A) (A) (A) (A) (A) (A)
                 (A) (A) (A) (A) (A) (A) (A) (A) (A) (A) (A) (A)
                 (A) (A) (A) (A) (A) (A) (A) (A) (A) (A) (A) (A)
                 (A) (A) (A) (A) (A) (A) (A) (A) (A) (A) (A) (A)
                 (A)
       Virtual   (A) (A) (A) (A) (A) (A) (A) (A) (A) (A) (A) (A)
                 (A) (A) (A) (A) (A) (A) (A) (A) (A) (A) (A) (A)
                 (A) (A) (A) (A) (A) (A) (A) (A) (A) (A) (A) (A)
                 (A) (A) (A) (A) (A) (A) (A) (A) (A) (A) (A) (A)
                 (A) (A) (A) (A) (A) (A) (A) (A) (A) (A) (A) (A)
                 (A) (A) (A) (A) (A) (A) (A) (A) (A) (A) (A) (A)
                 (A) (A) (A) (A) (A) (A) (A) (A) (A) (A) (A) (A)
                 (A) (A) (A) (A) (A) (A) (A) (A) (A) (A) (A) (A)
                 (A) (A) (A) (A) (A) (A) (A) (A) (A) (A) (A) (A)
                 (A) (A) (A) (A) (A) (A) (A) (A) (A) (A) (A) (A)
                 (A) (A) (A) (A) (A) (A) (A) (A) (A) (A) (A) (A)
                 (A) (A) (A) (A) (A) (A) (A) (A) (A) (A) (A) (A)
                 (A) (A) (A) (A) (A) (A) (A) (A) (A) (A) (A) (A)
                 (A) (A) (A) (A) (A) (A) (A) (A) (A) (A) (A) (A)
                 (A) (A) (A) (A) (A) (A) (A) (A) (A) (A) (A) (A)
                 (A) (A) (A) (A) (A) (A) (A) (A) (A) (A) (A) (A)
                 (A) (A) (A) (A) (A) (A) (A) (A) (A) (A) (A) (A)
                 (A) (A) (A) (A) (A) (A) (A) (A) (A) (A) (A) (A)
                 (A) (A) (A) (A) (A) (A) (A) (A) (A) (A) (A) (A)
                 (A) (A) (A) (A) (A) (A) (A) (A) (A) (A) (A) (A)
                 (A) (A) (A) (A) (A) (A) (A) (A) (A) (A) (A) (A)
                 (A) (A) (A) (A) (A) (A) (A) (A) (A) (A) (A) (A)
                 (A) (A) (A) (A) (A) (A) (A) (A) (A) (A) (A) (A)
                 (A) (A) (A) (A) (A) (A) (A) (A) (A) (A) (A) (A)
                 (A) (A) (A) (A) (A) (A) (A) (A) (A) (A) (A) (A)
                 (A) (A) (A) (A) (A) (A) (A) (A) (A) (A) (A) (A)
                 (A) (A) (A) (A) (A) (A) (A) (A) (A) (A) (A) (A)
                 (A) (A) (A) (A) (A) (A) (A) (A) (A) (A) (A) (A)
                 (A) (A) (A) (A) (A) (A) (A) (A) (A) (A) (A) (A)
                 (A) (A) (A) (A) (A) (A) (A) (A) (A) (A) (A) (A)
                 (A) (A) (A) (A) (A) (A) (A) (A) (A) (A) (A) (A)
                 (A) (A) (A) (A) (A) (A) (A) (A) (A) (A) (A) (A)
                 (A) (A) (A) (A) (A) (A) (A) (A) (A) (A) (A) (A)
                 (A) (A) (A) (A) (A) (A) (A) (A) (A) (A) (A) (A)
                 (A) (A) (A) (A) (A) (A) (A) (A) (A) (A) (A) (A)
                 (A) (A) (A) (A) (A) (A) (A) (A) (A) (A) (A) (A)
                 (A) (A) (A) (A) (A) (A) (A) (A) (A) (A) (A) (A)
                 (A) (A) (A) (A) (A) (A) (A) (A) (A) (A) (A) (A)
                 (A) (A) (A) (A) (A) (A) (A) (A) (A) (A) (A) (A)
                 (A) (A) (A) (A) (A) (A) (A) (A) (A) (A) (A) (A)
                 (A) (A) (A) (A) (A) (A) (A) (A) (A) (A) (A) (A)
                 (A) (A) (A) (A) (A) (A) (A) (A) (A) (A) (A) (A)
                 (A) (A) (A) (A) (A) (A) (A) (A) (A) (A) (A) (A)
                 (A) (A) (A) (A) (A) (A) (A) (A) (A) (A) (A) (A)
                 (A) (A) (A) (A) (A) (A) (A) (A) (A) (A) (A) (A)
                 (A) (A) (A) (A) (A) (A) (A) (A) (A) (A) (A) (A)
                 (A) (A) (A) (A) (A) (A) (A) (A) (A) (A) (A) (A)
                 (A) (A) (A) (A) (A) (A) (A) (A) (A) (A) (A) (A)
                 (A) (A) (A) (A) (A) (A) (A) (A) (A) (A) (A) (A)
                 (A) (A) (A) (A) (A) (A) (A) (A) (A) (A) (A) (A)
                 (A) (A) (A) (A) (A) (A) (A) (A) (A) (A) (A) (A)
                 (A) (A) (A) (A) (A) (A) (A) (A) (A) (A) (A) (A)
                 (A) (A) (A) (A) (A) (A) (A) (A) (A) (A) (A) (A)
                 (A) (A) (A) (A) (A) (A) (A) (A) (A) (A) (A) (A)
                 (A) (A) (A) (A) (A) (A) (A) (A) (A) (A) (A) (A)
                 (A) (A) (A) (A) (A) (A) (A) (A) (A) (A) (A) (A)
                 (A) (A) (A) (A) (A) (A) (A) (A) (A) (A) (A) (A)
                 (A) (A) (A) (A) (A) (A) (A) (A) (A) (A) (A) (A)
                 (A) (A) (A) (A) (A) (A) (A) (A) (A) (A) (A) (A)
                 (A) (A) (A) (A) (A) (A) (A) (A) (A) (A) (A) (A)
                 (A) (A) (A) (A) (A) (A) (A) (A) (A) (A) (A) (A)
                 (A) (A) (A) (A) (A) (A) (A) (A) (A) (A) (A) (A)
                 (A) (A) (A) (A) (A) (A) (A) (A) (A) (A) (A) (A)
                 (A) (A) (A) (A) (A) (A) (A) (A) (A) (A) (A) (A)
                 (A) (A) (A) (A) (A) (A) (A) (A) (A) (A) (A) (A)
                 (A) (A) (A) (A) (A) (A) (A) (A) (A) (A) (A) (A)
                 (A) (A) (A) (A) (A) (A) (A) (A) (A) (A) (A) (A)
                 (A) (A) (A) (A) (A) (A) (A) (A) (A) (A) (A) (A)
                 (A) (A) (A) (A) (A) (A) (A) (A) (A) (A) (A) (A)
                 (A) (A) (A) (A) (A) (A) (A) (A) (A) (A) (A) (A)
                 (A) (A) (A) (A) (A) (A) (A) (A) (A) (A) (A) (A)
                 (A) (A) (A) (A) (A) (A) (A) (A) (A) (A) (A) (A)
                 (A) (A) (A) (A) (A) (A) (A) (A) (A) (A) (A) (A)
                 (A) (A) (A) (A) (A) (A) (A) (A) (A) (A) (A) (A)
                 (A) (A) (A) (A) (A) (A) (A) (A) (A) (A) (A) (A)
                 (A) (A) (A) (A) (A) (A) (A) (A) (A) (A) (A) (A)
                 (A) (A) (A) (A) (A) (A) (A) (A) (A) (A) (A) (A)
                 (A) (A) (A) (A) (A) (A) (A) (A) (A) (A) (A) (A)
                 (A) (A) (A) (A) (A) (A) (A) (A) (A) (A) (A) (A)
                 (A) (A) (A) (A) (A) (A) (A) (A) (A) (A) (A) (A)
                 (A) (A) (A) (A) (A) (A) (A) (A) (A) (A) (A) (A)
                 (A) (A) (A) (A) (A) (A) (A) (A) (A) (A) (A) (A)
                 (A) (A) (A) (A) (A) (A) (A) (A) (A) (A) (A) (A)
                 (A) (A) (A) (A) (A) (A) (A) (A) (A) (A) (A) (A)
                 (A) (A) (A) (A) (A) (A) (A) (A) (A) (A) (A) (A)
                 (A) (A) (A) (A) (A) (A) (A) (A) (A) (A) (A) (A)
                 (A) (A) (A) (A) (A) (A) (A) (A) (A) (A) (A) (A)
                 (A) (A) (A) (A) (A) (A) (A) (A) (A) (A) (A) (A)
                 (A) (A) (A) (A) (A) (A) (A) (A) (A) (A) (A) (A)
                 (A) (A) (A) (A) (A) (A) (A) (A) (A) (A) (A) (A)
                 (A) (A) (A) (A) (A) (A) (A) (A) (A) (A) (A) (A)
                 (A) (A) (A) (A) (A) (A)
 The electronic state is 1-A.
 Alpha  occ. eigenvalues --  -46.82824 -19.26417 -19.26224 -19.21417 -19.21387
 Alpha  occ. eigenvalues --  -19.19866 -14.41902 -14.39714 -14.39583 -14.38481
 Alpha  occ. eigenvalues --  -10.39908 -10.39846 -10.35163 -10.31131 -10.31006
 Alpha  occ. eigenvalues --  -10.30703 -10.30641 -10.30273 -10.30136 -10.29770
 Alpha  occ. eigenvalues --  -10.29691 -10.29081 -10.29032 -10.28937 -10.28848
 Alpha  occ. eigenvalues --  -10.28689 -10.28402 -10.28111 -10.28110 -10.28066
 Alpha  occ. eigenvalues --  -10.28035 -10.27943 -10.27833 -10.27686 -10.27676
 Alpha  occ. eigenvalues --  -10.27603 -10.27504 -10.27215 -10.27074 -10.27030
 Alpha  occ. eigenvalues --  -10.26964 -10.26759 -10.26736 -10.26536 -10.26485
 Alpha  occ. eigenvalues --  -10.26477 -10.26298 -10.26081 -10.25960 -10.25887
 Alpha  occ. eigenvalues --  -10.25849 -10.25724 -10.25652 -10.25378 -10.25363
 Alpha  occ. eigenvalues --  -10.25225 -10.25182 -10.25064 -10.25043 -10.24780
 Alpha  occ. eigenvalues --  -10.24689 -10.24353 -10.24280 -10.23898 -10.23789
 Alpha  occ. eigenvalues --   -3.12274  -1.86932  -1.86556  -1.86469  -1.16304
 Alpha  occ. eigenvalues --   -1.16008  -1.07582  -1.07537  -1.07356  -1.05319
 Alpha  occ. eigenvalues --   -1.04243  -1.02146  -1.00537  -0.92823  -0.92429
 Alpha  occ. eigenvalues --   -0.90784  -0.90577  -0.89885  -0.89702  -0.89396
 Alpha  occ. eigenvalues --   -0.88565  -0.88412  -0.87203  -0.86741  -0.86113
 Alpha  occ. eigenvalues --   -0.85357  -0.84522  -0.83855  -0.83194  -0.82823
 Alpha  occ. eigenvalues --   -0.82509  -0.81573  -0.81033  -0.80548  -0.78952
 Alpha  occ. eigenvalues --   -0.78714  -0.77566  -0.76884  -0.76282  -0.75731
 Alpha  occ. eigenvalues --   -0.74653  -0.73815  -0.73665  -0.73432  -0.73072
 Alpha  occ. eigenvalues --   -0.71983  -0.70503  -0.69335  -0.68937  -0.68731
 Alpha  occ. eigenvalues --   -0.67747  -0.66575  -0.65764  -0.65663  -0.64425
 Alpha  occ. eigenvalues --   -0.64112  -0.63942  -0.63705  -0.63531  -0.62030
 Alpha  occ. eigenvalues --   -0.61732  -0.61339  -0.61124  -0.60344  -0.59217
 Alpha  occ. eigenvalues --   -0.59052  -0.58156  -0.58036  -0.57184  -0.56839
 Alpha  occ. eigenvalues --   -0.56310  -0.56002  -0.55244  -0.55100  -0.54963
 Alpha  occ. eigenvalues --   -0.54403  -0.53870  -0.53563  -0.53183  -0.52932
 Alpha  occ. eigenvalues --   -0.52885  -0.52616  -0.52426  -0.52190  -0.51962
 Alpha  occ. eigenvalues --   -0.51679  -0.51097  -0.50688  -0.50565  -0.50209
 Alpha  occ. eigenvalues --   -0.49943  -0.49845  -0.49602  -0.49555  -0.49280
 Alpha  occ. eigenvalues --   -0.49190  -0.48815  -0.48763  -0.48387  -0.48174
 Alpha  occ. eigenvalues --   -0.48125  -0.47969  -0.47602  -0.47468  -0.47404
 Alpha  occ. eigenvalues --   -0.47268  -0.46913  -0.46367  -0.46311  -0.45973
 Alpha  occ. eigenvalues --   -0.45818  -0.45673  -0.45305  -0.45100  -0.44983
 Alpha  occ. eigenvalues --   -0.44853  -0.44620  -0.44552  -0.44121  -0.43978
 Alpha  occ. eigenvalues --   -0.43863  -0.43630  -0.43364  -0.43167  -0.43087
 Alpha  occ. eigenvalues --   -0.42959  -0.42725  -0.42634  -0.42587  -0.42399
 Alpha  occ. eigenvalues --   -0.42348  -0.42074  -0.41875  -0.41802  -0.41629
 Alpha  occ. eigenvalues --   -0.41378  -0.40906  -0.40840  -0.40634  -0.40632
 Alpha  occ. eigenvalues --   -0.40437  -0.40177  -0.39600  -0.39482  -0.39014
 Alpha  occ. eigenvalues --   -0.38903  -0.38706  -0.38500  -0.38099  -0.37813
 Alpha  occ. eigenvalues --   -0.37619  -0.37431  -0.37020  -0.36831  -0.36561
 Alpha  occ. eigenvalues --   -0.36351  -0.36097  -0.35979  -0.35462  -0.35270
 Alpha  occ. eigenvalues --   -0.35139  -0.34775  -0.33892  -0.33681  -0.33426
 Alpha  occ. eigenvalues --   -0.33367  -0.32266  -0.31636  -0.31228  -0.29979
 Alpha  occ. eigenvalues --   -0.29548  -0.29533  -0.28139  -0.27477  -0.23135
 Alpha  occ. eigenvalues --   -0.21566
 Alpha virt. eigenvalues --   -0.06738  -0.03598   0.00747   0.03529   0.04147
 Alpha virt. eigenvalues --    0.04808   0.05704   0.06106   0.06436   0.07224
 Alpha virt. eigenvalues --    0.07797   0.09663   0.10472   0.10748   0.11142
 Alpha virt. eigenvalues --    0.11694   0.11822   0.11858   0.11909   0.12077
 Alpha virt. eigenvalues --    0.12593   0.13394   0.13545   0.13617   0.14349
 Alpha virt. eigenvalues --    0.14509   0.14663   0.15373   0.15529   0.15664
 Alpha virt. eigenvalues --    0.15818   0.16013   0.16139   0.16299   0.16398
 Alpha virt. eigenvalues --    0.16468   0.16696   0.17019   0.17107   0.17333
 Alpha virt. eigenvalues --    0.17388   0.17772   0.18063   0.18339   0.18389
 Alpha virt. eigenvalues --    0.18467   0.18618   0.18680   0.19071   0.19129
 Alpha virt. eigenvalues --    0.19239   0.19326   0.19427   0.19816   0.20009
 Alpha virt. eigenvalues --    0.20109   0.20325   0.20478   0.20591   0.20762
 Alpha virt. eigenvalues --    0.20943   0.21012   0.21358   0.21439   0.21525
 Alpha virt. eigenvalues --    0.21668   0.21869   0.22077   0.22164   0.22435
 Alpha virt. eigenvalues --    0.22669   0.22765   0.22830   0.23101   0.23195
 Alpha virt. eigenvalues --    0.23279   0.23353   0.23686   0.24107   0.24303
 Alpha virt. eigenvalues --    0.24654   0.24792   0.25075   0.25111   0.25197
 Alpha virt. eigenvalues --    0.25446   0.25498   0.25628   0.26015   0.26185
 Alpha virt. eigenvalues --    0.26267   0.26431   0.26884   0.27088   0.27110
 Alpha virt. eigenvalues --    0.27302   0.27595   0.27889   0.28152   0.28415
 Alpha virt. eigenvalues --    0.28632   0.28728   0.28994   0.29165   0.29533
 Alpha virt. eigenvalues --    0.29675   0.30017   0.30408   0.30522   0.30762
 Alpha virt. eigenvalues --    0.30879   0.30959   0.31103   0.31389   0.32082
 Alpha virt. eigenvalues --    0.32229   0.32512   0.32787   0.32890   0.33266
 Alpha virt. eigenvalues --    0.33493   0.33635   0.34225   0.34297   0.34839
 Alpha virt. eigenvalues --    0.34977   0.35416   0.35620   0.35755   0.35984
 Alpha virt. eigenvalues --    0.36193   0.36626   0.36925   0.37053   0.37552
 Alpha virt. eigenvalues --    0.37964   0.39021   0.39501   0.39978   0.40889
 Alpha virt. eigenvalues --    0.41188   0.41776   0.42043   0.42841   0.43322
 Alpha virt. eigenvalues --    0.43894   0.44252   0.44520   0.44658   0.45293
 Alpha virt. eigenvalues --    0.46587   0.47896   0.48295   0.48863   0.49887
 Alpha virt. eigenvalues --    0.50091   0.50922   0.51517   0.51857   0.52315
 Alpha virt. eigenvalues --    0.52837   0.52980   0.53558   0.53756   0.53831
 Alpha virt. eigenvalues --    0.54106   0.54546   0.55397   0.55506   0.55621
 Alpha virt. eigenvalues --    0.55960   0.56189   0.56461   0.56537   0.56627
 Alpha virt. eigenvalues --    0.57075   0.57333   0.57582   0.57846   0.57910
 Alpha virt. eigenvalues --    0.58313   0.58350   0.58574   0.58808   0.58916
 Alpha virt. eigenvalues --    0.59271   0.59417   0.59756   0.59865   0.60135
 Alpha virt. eigenvalues --    0.60229   0.60443   0.60696   0.61451   0.61742
 Alpha virt. eigenvalues --    0.61819   0.62093   0.62187   0.62437   0.62546
 Alpha virt. eigenvalues --    0.63105   0.63411   0.63530   0.63691   0.64158
 Alpha virt. eigenvalues --    0.64253   0.64787   0.65022   0.65503   0.65722
 Alpha virt. eigenvalues --    0.65967   0.66177   0.66260   0.66392   0.66826
 Alpha virt. eigenvalues --    0.67069   0.67236   0.67596   0.67796   0.67886
 Alpha virt. eigenvalues --    0.68176   0.68301   0.68596   0.68693   0.69134
 Alpha virt. eigenvalues --    0.69429   0.69698   0.70105   0.70139   0.70297
 Alpha virt. eigenvalues --    0.70492   0.70846   0.71284   0.71473   0.71609
 Alpha virt. eigenvalues --    0.71904   0.72220   0.72800   0.72967   0.73079
 Alpha virt. eigenvalues --    0.73221   0.73693   0.73733   0.73933   0.74297
 Alpha virt. eigenvalues --    0.74328   0.74661   0.74860   0.74898   0.75046
 Alpha virt. eigenvalues --    0.75566   0.75726   0.75982   0.76479   0.76564
 Alpha virt. eigenvalues --    0.76775   0.76938   0.77178   0.77662   0.78010
 Alpha virt. eigenvalues --    0.78165   0.78464   0.78763   0.79259   0.79557
 Alpha virt. eigenvalues --    0.79948   0.80093   0.80259   0.80340   0.80731
 Alpha virt. eigenvalues --    0.80836   0.81155   0.81306   0.81354   0.81564
 Alpha virt. eigenvalues --    0.82079   0.82219   0.82548   0.82765   0.82879
 Alpha virt. eigenvalues --    0.82993   0.83124   0.83400   0.83464   0.83926
 Alpha virt. eigenvalues --    0.84080   0.84367   0.84677   0.84940   0.85147
 Alpha virt. eigenvalues --    0.85202   0.85597   0.85714   0.85787   0.86067
 Alpha virt. eigenvalues --    0.86388   0.86598   0.86607   0.87009   0.87278
 Alpha virt. eigenvalues --    0.87364   0.87787   0.87844   0.88075   0.88303
 Alpha virt. eigenvalues --    0.88607   0.88765   0.89052   0.89193   0.89316
 Alpha virt. eigenvalues --    0.89814   0.90235   0.90366   0.90511   0.90541
 Alpha virt. eigenvalues --    0.90630   0.91063   0.91305   0.91620   0.91775
 Alpha virt. eigenvalues --    0.91959   0.92193   0.92368   0.92632   0.92735
 Alpha virt. eigenvalues --    0.92838   0.92892   0.93274   0.93712   0.93839
 Alpha virt. eigenvalues --    0.93918   0.94238   0.94646   0.95103   0.95288
 Alpha virt. eigenvalues --    0.95674   0.95686   0.95952   0.96178   0.96323
 Alpha virt. eigenvalues --    0.96785   0.96986   0.97213   0.97665   0.97675
 Alpha virt. eigenvalues --    0.97884   0.97937   0.97968   0.98215   0.98415
 Alpha virt. eigenvalues --    0.98589   0.98742   0.99095   0.99168   0.99280
 Alpha virt. eigenvalues --    0.99603   1.00120   1.00294   1.00470   1.00565
 Alpha virt. eigenvalues --    1.00787   1.01052   1.01337   1.01595   1.01895
 Alpha virt. eigenvalues --    1.02200   1.02290   1.02648   1.02749   1.03220
 Alpha virt. eigenvalues --    1.03424   1.03747   1.04131   1.04239   1.04810
 Alpha virt. eigenvalues --    1.04907   1.04985   1.05259   1.05504   1.05956
 Alpha virt. eigenvalues --    1.06085   1.06417   1.06593   1.06802   1.06880
 Alpha virt. eigenvalues --    1.07085   1.07142   1.07639   1.07944   1.08411
 Alpha virt. eigenvalues --    1.08466   1.08575   1.08865   1.09221   1.09390
 Alpha virt. eigenvalues --    1.10082   1.10238   1.10642   1.10854   1.11330
 Alpha virt. eigenvalues --    1.11593   1.11995   1.12320   1.12922   1.13124
 Alpha virt. eigenvalues --    1.13801   1.13876   1.14549   1.14651   1.14972
 Alpha virt. eigenvalues --    1.15920   1.16520   1.17165   1.17279   1.18077
 Alpha virt. eigenvalues --    1.18651   1.19100   1.19167   1.19732   1.20348
 Alpha virt. eigenvalues --    1.20916   1.21687   1.21728   1.22381   1.23060
 Alpha virt. eigenvalues --    1.23446   1.23749   1.23830   1.24265   1.24891
 Alpha virt. eigenvalues --    1.25274   1.25391   1.26069   1.27154   1.27389
 Alpha virt. eigenvalues --    1.27743   1.28935   1.29418   1.29876   1.30601
 Alpha virt. eigenvalues --    1.31886   1.31981   1.32464   1.32846   1.32968
 Alpha virt. eigenvalues --    1.33343   1.34351   1.34573   1.35072   1.35734
 Alpha virt. eigenvalues --    1.36186   1.36606   1.36721   1.36941   1.37399
 Alpha virt. eigenvalues --    1.38000   1.38028   1.38462   1.39352   1.39643
 Alpha virt. eigenvalues --    1.40529   1.40864   1.41185   1.42636   1.42989
 Alpha virt. eigenvalues --    1.43284   1.43634   1.43801   1.44113   1.44350
 Alpha virt. eigenvalues --    1.44906   1.45344   1.45646   1.46133   1.46541
 Alpha virt. eigenvalues --    1.47079   1.47379   1.48359   1.48502   1.49176
 Alpha virt. eigenvalues --    1.49849   1.50689   1.51521   1.51727   1.52246
 Alpha virt. eigenvalues --    1.52934   1.53346   1.53749   1.54243   1.54406
 Alpha virt. eigenvalues --    1.54640   1.55273   1.55855   1.56650   1.56933
 Alpha virt. eigenvalues --    1.57107   1.57971   1.58087   1.58610   1.59173
 Alpha virt. eigenvalues --    1.59510   1.60152   1.60609   1.61169   1.62017
 Alpha virt. eigenvalues --    1.62150   1.62296   1.62365   1.62997   1.63185
 Alpha virt. eigenvalues --    1.63440   1.63695   1.63875   1.65071   1.66085
 Alpha virt. eigenvalues --    1.66385   1.66392   1.66605   1.66726   1.67299
 Alpha virt. eigenvalues --    1.67732   1.68271   1.68594   1.69021   1.69481
 Alpha virt. eigenvalues --    1.70128   1.70149   1.70629   1.70809   1.71043
 Alpha virt. eigenvalues --    1.71506   1.72186   1.72532   1.73328   1.73807
 Alpha virt. eigenvalues --    1.74097   1.74250   1.74319   1.74795   1.75000
 Alpha virt. eigenvalues --    1.76211   1.76442   1.76961   1.77323   1.77504
 Alpha virt. eigenvalues --    1.77787   1.77880   1.78620   1.79376   1.79619
 Alpha virt. eigenvalues --    1.79962   1.80321   1.80903   1.81300   1.81623
 Alpha virt. eigenvalues --    1.82118   1.82232   1.82961   1.83181   1.83295
 Alpha virt. eigenvalues --    1.83689   1.83756   1.84004   1.84119   1.84633
 Alpha virt. eigenvalues --    1.84765   1.85125   1.85166   1.85510   1.85652
 Alpha virt. eigenvalues --    1.85854   1.86715   1.87114   1.87191   1.87497
 Alpha virt. eigenvalues --    1.87665   1.88089   1.88336   1.88674   1.89175
 Alpha virt. eigenvalues --    1.89449   1.89768   1.89872   1.90476   1.90570
 Alpha virt. eigenvalues --    1.91008   1.91109   1.91294   1.91360   1.91920
 Alpha virt. eigenvalues --    1.92353   1.92550   1.92967   1.93016   1.93248
 Alpha virt. eigenvalues --    1.93416   1.93726   1.93948   1.94252   1.94594
 Alpha virt. eigenvalues --    1.95004   1.95262   1.95471   1.95595   1.95621
 Alpha virt. eigenvalues --    1.95961   1.96408   1.96500   1.96639   1.96689
 Alpha virt. eigenvalues --    1.96943   1.97322   1.97439   1.97965   1.98072
 Alpha virt. eigenvalues --    1.98260   1.98529   1.99118   1.99330   1.99549
 Alpha virt. eigenvalues --    1.99965   2.00231   2.00702   2.00790   2.01021
 Alpha virt. eigenvalues --    2.01550   2.01929   2.01994   2.02492   2.02604
 Alpha virt. eigenvalues --    2.02802   2.03505   2.03637   2.03787   2.03941
 Alpha virt. eigenvalues --    2.04282   2.04662   2.04832   2.04969   2.05513
 Alpha virt. eigenvalues --    2.05579   2.05948   2.06230   2.07133   2.07360
 Alpha virt. eigenvalues --    2.07554   2.08087   2.08303   2.08563   2.08811
 Alpha virt. eigenvalues --    2.09030   2.09248   2.09405   2.10167   2.10563
 Alpha virt. eigenvalues --    2.11030   2.11109   2.11327   2.11631   2.11770
 Alpha virt. eigenvalues --    2.12405   2.12878   2.13341   2.13654   2.13948
 Alpha virt. eigenvalues --    2.14250   2.14386   2.14799   2.15198   2.15371
 Alpha virt. eigenvalues --    2.15418   2.15749   2.15967   2.16091   2.16575
 Alpha virt. eigenvalues --    2.16811   2.17387   2.17779   2.17950   2.18697
 Alpha virt. eigenvalues --    2.18842   2.18874   2.19372   2.19864   2.19918
 Alpha virt. eigenvalues --    2.20163   2.20212   2.20673   2.21384   2.21578
 Alpha virt. eigenvalues --    2.21881   2.22195   2.22420   2.22551   2.22797
 Alpha virt. eigenvalues --    2.23217   2.23591   2.24100   2.24416   2.24848
 Alpha virt. eigenvalues --    2.25714   2.26155   2.26229   2.26469   2.26676
 Alpha virt. eigenvalues --    2.27180   2.27385   2.27526   2.27942   2.28213
 Alpha virt. eigenvalues --    2.28525   2.28965   2.29218   2.29440   2.30173
 Alpha virt. eigenvalues --    2.30288   2.30703   2.31230   2.31693   2.31729
 Alpha virt. eigenvalues --    2.31775   2.32057   2.32199   2.32422   2.32857
 Alpha virt. eigenvalues --    2.32928   2.33066   2.33763   2.33862   2.34205
 Alpha virt. eigenvalues --    2.34365   2.34594   2.34981   2.35258   2.35540
 Alpha virt. eigenvalues --    2.35885   2.36044   2.36637   2.37318   2.37483
 Alpha virt. eigenvalues --    2.37745   2.37998   2.38175   2.38683   2.38701
 Alpha virt. eigenvalues --    2.38771   2.39383   2.39591   2.40411   2.40707
 Alpha virt. eigenvalues --    2.41207   2.41462   2.41700   2.41919   2.42183
 Alpha virt. eigenvalues --    2.42597   2.42661   2.42863   2.43399   2.44044
 Alpha virt. eigenvalues --    2.44329   2.44542   2.45186   2.45241   2.45517
 Alpha virt. eigenvalues --    2.45627   2.46038   2.46221   2.46290   2.46440
 Alpha virt. eigenvalues --    2.46846   2.47000   2.47295   2.47532   2.47938
 Alpha virt. eigenvalues --    2.48347   2.48941   2.49594   2.49646   2.49791
 Alpha virt. eigenvalues --    2.50080   2.50123   2.51163   2.51470   2.52267
 Alpha virt. eigenvalues --    2.52361   2.52785   2.53209   2.53574   2.53932
 Alpha virt. eigenvalues --    2.54108   2.55141   2.55302   2.56031   2.56066
 Alpha virt. eigenvalues --    2.56398   2.56949   2.57233   2.57830   2.57957
 Alpha virt. eigenvalues --    2.58092   2.58354   2.58684   2.59355   2.59548
 Alpha virt. eigenvalues --    2.60098   2.60343   2.60417   2.61339   2.61514
 Alpha virt. eigenvalues --    2.61631   2.61763   2.62223   2.62793   2.62936
 Alpha virt. eigenvalues --    2.63379   2.63441   2.63754   2.64597   2.64883
 Alpha virt. eigenvalues --    2.65552   2.66012   2.66204   2.66619   2.67124
 Alpha virt. eigenvalues --    2.67286   2.67461   2.67978   2.68257   2.68521
 Alpha virt. eigenvalues --    2.68592   2.69191   2.69271   2.69364   2.70068
 Alpha virt. eigenvalues --    2.70404   2.70719   2.70940   2.71010   2.71731
 Alpha virt. eigenvalues --    2.71868   2.72105   2.72450   2.72934   2.73251
 Alpha virt. eigenvalues --    2.73492   2.74097   2.74666   2.75188   2.75485
 Alpha virt. eigenvalues --    2.75617   2.75797   2.76250   2.76517   2.76541
 Alpha virt. eigenvalues --    2.76751   2.76978   2.77641   2.77770   2.78068
 Alpha virt. eigenvalues --    2.78407   2.78605   2.79110   2.79377   2.79440
 Alpha virt. eigenvalues --    2.79554   2.80073   2.80198   2.80467   2.80564
 Alpha virt. eigenvalues --    2.80904   2.81741   2.81787   2.82171   2.82797
 Alpha virt. eigenvalues --    2.83208   2.83743   2.84022   2.84473   2.85541
 Alpha virt. eigenvalues --    2.85581   2.86062   2.86110   2.86455   2.86706
 Alpha virt. eigenvalues --    2.86930   2.87378   2.87556   2.87898   2.88615
 Alpha virt. eigenvalues --    2.89300   2.89732   2.89897   2.90587   2.90824
 Alpha virt. eigenvalues --    2.91696   2.92111   2.92646   2.93180   2.93565
 Alpha virt. eigenvalues --    2.93646   2.93840   2.93941   2.94358   2.94635
 Alpha virt. eigenvalues --    2.95329   2.95436   2.95762   2.96159   2.96390
 Alpha virt. eigenvalues --    2.96518   2.96888   2.96917   2.97968   2.98651
 Alpha virt. eigenvalues --    2.98947   2.99163   2.99599   2.99733   2.99979
 Alpha virt. eigenvalues --    3.00398   3.00820   3.01150   3.01620   3.01782
 Alpha virt. eigenvalues --    3.02208   3.02299   3.03321   3.03489   3.04775
 Alpha virt. eigenvalues --    3.05077   3.05260   3.05939   3.06660   3.07296
 Alpha virt. eigenvalues --    3.07560   3.08383   3.08485   3.09008   3.09240
 Alpha virt. eigenvalues --    3.09700   3.09961   3.10491   3.10545   3.10662
 Alpha virt. eigenvalues --    3.10995   3.11673   3.12420   3.13192   3.13613
 Alpha virt. eigenvalues --    3.14732   3.15316   3.15707   3.16297   3.17399
 Alpha virt. eigenvalues --    3.17691   3.18047   3.18855   3.19051   3.21031
 Alpha virt. eigenvalues --    3.21191   3.21351   3.21993   3.22447   3.23787
 Alpha virt. eigenvalues --    3.25275   3.25984   3.27241   3.27872   3.28039
 Alpha virt. eigenvalues --    3.28655   3.29079   3.29551   3.29716   3.30124
 Alpha virt. eigenvalues --    3.30778   3.30934   3.31705   3.32931   3.33556
 Alpha virt. eigenvalues --    3.35279   3.35674   3.35770   3.37651   3.38457
 Alpha virt. eigenvalues --    3.39081   3.39403   3.39603   3.40256   3.40706
 Alpha virt. eigenvalues --    3.43721   3.43885   3.44448   3.46607   3.48790
 Alpha virt. eigenvalues --    3.48918   3.49762   3.50019   3.50322   3.50539
 Alpha virt. eigenvalues --    3.50982   3.51638   3.52609   3.53246   3.54041
 Alpha virt. eigenvalues --    3.54179   3.55270   3.56315   3.56621   3.57197
 Alpha virt. eigenvalues --    3.59793   3.59992   3.61127   3.61622   3.62800
 Alpha virt. eigenvalues --    3.64500   3.65750   3.65971   3.67442   3.69016
 Alpha virt. eigenvalues --    3.71386   3.72403   3.73673   3.73943   3.75697
 Alpha virt. eigenvalues --    3.76871   3.76884   3.80098   3.80875   3.82974
 Alpha virt. eigenvalues --    3.83360   3.83834   3.96079   3.97416   4.06750
 Alpha virt. eigenvalues --    4.08984   4.09980   4.20313   4.20684   4.21809
 Alpha virt. eigenvalues --    4.23250   4.23708   4.23815   4.24786   4.26820
 Alpha virt. eigenvalues --    4.28624   4.29721   4.30552   4.31319   4.31499
 Alpha virt. eigenvalues --    4.33875   4.35165   4.37098   4.37284   4.37976
 Alpha virt. eigenvalues --    4.39502   4.41908   4.42714   4.43723   4.45922
 Alpha virt. eigenvalues --    4.46623   4.46852   4.48829   4.49644   4.50674
 Alpha virt. eigenvalues --    4.51332   4.51561   4.52616   4.53009   4.54501
 Alpha virt. eigenvalues --    4.55222   4.55568   4.57848   4.58099   4.58471
 Alpha virt. eigenvalues --    4.60640   4.61807   4.62129   4.63818   4.68038
 Alpha virt. eigenvalues --    4.68896   4.70894   4.71050   4.71490   4.74289
 Alpha virt. eigenvalues --    4.75246   4.75596   4.77762   4.79860   4.80980
 Alpha virt. eigenvalues --    4.83341   4.85902   4.86151   4.86755   4.91310
 Alpha virt. eigenvalues --    4.91769   4.94253   4.98861
          Condensed to atoms (all electrons):
 Mulliken charges:
               1
     1  Mg   0.821713
     2  C    0.089252
     3  C   -0.238835
     4  C   -0.195721
     5  C   -0.170593
     6  N   -0.633749
     7  C    0.302506
     8  C   -0.145163
     9  C   -0.140263
    10  C    0.364835
    11  C   -0.333208
    12  C   -0.144117
    13  C   -0.279453
    14  C    0.633014
    15  O   -0.491733
    16  O   -0.504190
    17  N   -0.757634
    18  C    0.333509
    19  C    0.066306
    20  C    0.014431
    21  C    0.330131
    22  C   -0.394887
    23  C   -0.107245
    24  C   -0.236515
    25  N   -0.694215
    26  C    0.303891
    27  C   -0.007525
    28  C    0.025306
    29  C    0.296486
    30  C   -0.327126
    31  C   -0.233402
    32  C   -0.267632
    33  N   -0.726377
    34  C    0.242453
    35  C    0.068406
    36  C   -0.038259
    37  C    0.333767
    38  C   -0.384185
    39  C    0.378686
    40  O   -0.497226
    41  C   -0.359371
    42  C    0.629974
    43  O   -0.479017
    44  O   -0.480130
    45  C   -0.050496
    46  C    0.006650
    47  C   -0.111559
    48  C    0.098212
    49  C   -0.366687
    50  C   -0.205498
    51  C   -0.170799
    52  C   -0.130223
    53  C   -0.073420
    54  C   -0.274191
    55  C   -0.199948
    56  C   -0.177787
    57  C   -0.160175
    58  C   -0.060714
    59  C   -0.288845
    60  C   -0.185663
    61  C   -0.162949
    62  C   -0.173089
    63  C   -0.025442
    64  C   -0.323576
    65  C   -0.298203
    66  H    0.060097
    67  H    0.104720
    68  H    0.091907
    69  H    0.134978
    70  H    0.103873
    71  H    0.123029
    72  H    0.105961
    73  H    0.131360
    74  H    0.119287
    75  H    0.123782
    76  H    0.137250
    77  H    0.118017
    78  H    0.128635
    79  H    0.121674
    80  H    0.118215
    81  H    0.091525
    82  H    0.113641
    83  H    0.102816
    84  H    0.093173
    85  H    0.114386
    86  H    0.097032
    87  H    0.093808
    88  H    0.112915
    89  H    0.112592
    90  H    0.118748
    91  H    0.064863
    92  H    0.119211
    93  H    0.152275
    94  H    0.113756
    95  H    0.168248
    96  H    0.098789
    97  H    0.145152
    98  H    0.126066
    99  H    0.124302
   100  H    0.122264
   101  H    0.099048
   102  H    0.087298
   103  H    0.116543
   104  H    0.137549
   105  H    0.079453
   106  H    0.106649
   107  H    0.110359
   108  H    0.047365
   109  H    0.097594
   110  H    0.095486
   111  H    0.094436
   112  H    0.074846
   113  H    0.112720
   114  H    0.070339
   115  H    0.099412
   116  H    0.088870
   117  H    0.103735
   118  H    0.081736
   119  H    0.033148
   120  H    0.095049
   121  H    0.086722
   122  H    0.112548
   123  H    0.096384
   124  H    0.093331
   125  H    0.091621
   126  H    0.033474
   127  H    0.077361
   128  H    0.103793
   129  H    0.099901
   130  H    0.081649
   131  H    0.113091
   132  H    0.078732
   133  H    0.079800
   134  H    0.112290
   135  H    0.091194
   136  H    0.099583
   137  H    0.076051
 Sum of Mulliken charges =  -0.00000
 Mulliken charges with hydrogens summed into heavy atoms:
               1
     1  Mg   0.821713
     2  C    0.089252
     3  C   -0.178739
     4  C   -0.091001
     5  C   -0.078686
     6  N   -0.633749
     7  C    0.302506
     8  C   -0.010184
     9  C   -0.036390
    10  C    0.364835
    11  C    0.027141
    12  C    0.098951
    13  C   -0.024186
    14  C    0.633014
    15  O   -0.491733
    16  O   -0.504190
    17  N   -0.757634
    18  C    0.333509
    19  C    0.066306
    20  C    0.014431
    21  C    0.330131
    22  C   -0.026362
    23  C   -0.015720
    24  C   -0.020058
    25  N   -0.694215
    26  C    0.303891
    27  C   -0.007525
    28  C    0.025306
    29  C    0.296486
    30  C   -0.022535
    31  C   -0.026679
    32  C    0.028571
    33  N   -0.726377
    34  C    0.242453
    35  C    0.068406
    36  C   -0.038259
    37  C    0.333767
    38  C    0.001057
    39  C    0.378686
    40  O   -0.497226
    41  C   -0.191122
    42  C    0.629974
    43  O   -0.479017
    44  O   -0.480130
    45  C    0.319512
    46  C    0.253216
    47  C   -0.012511
    48  C    0.098212
    49  C   -0.025297
    50  C   -0.019396
    51  C   -0.013075
    52  C    0.062857
    53  C    0.021016
    54  C   -0.016286
    55  C   -0.011666
    56  C    0.007684
    57  C   -0.031978
    58  C    0.026008
    59  C    0.013418
    60  C   -0.060568
    61  C    0.018206
    62  C    0.008462
    63  C    0.087649
    64  C   -0.052754
    65  C   -0.031375
 Electronic spatial extent (au):  <R**2>=         180475.1848
 Charge=             -0.0000 electrons
 Dipole moment (field-independent basis, Debye):
    X=              0.8250    Y=              5.7715    Z=              0.5567  Tot=              5.8567
 Quadrupole moment (field-independent basis, Debye-Ang):
   XX=           -346.5190   YY=           -394.7203   ZZ=           -396.5824
   XY=            -33.3004   XZ=              5.2369   YZ=             -1.7775
 Traceless Quadrupole moment (field-independent basis, Debye-Ang):
   XX=             32.7549   YY=            -15.4464   ZZ=            -17.3085
   XY=            -33.3004   XZ=              5.2369   YZ=             -1.7775
 Octapole moment (field-independent basis, Debye-Ang**2):
  XXX=          -1029.4447  YYY=            174.5728  ZZZ=             13.5908  XYY=           -108.5072
  XXY=            -32.3618  XXZ=           -417.4772  XZZ=             -1.3955  YZZ=            -14.6425
  YYZ=             53.2264  XYZ=            -42.2139
 Hexadecapole moment (field-independent basis, Debye-Ang**3):
 XXXX=        -224149.4550 YYYY=         -17081.5850 ZZZZ=          -4366.8212 XXXY=          -3532.5940
 XXXZ=             71.6636 YYYX=          -1437.0501 YYYZ=           -128.8065 ZZZX=            -78.3677
 ZZZY=           -129.0423 XXYY=         -40819.7068 XXZZ=         -39015.3366 YYZZ=          -3471.0550
 XXYZ=           -164.4054 YYXZ=             42.6223 ZZXY=            -91.1003
 N-N= 8.735191114404D+03 E-N=-2.429290042900D+04  KE= 2.905690248739D+03
 1\1\GINC-RYZEN-SSD3\SP\RCAM-B3LYP TD-FC\6-31G(d,p)\C55H72Mg1N4O5\PADAW
 AN\28-Jun-2019\0\\# td=(NStates=1) CAM-B3LYP/6-31G(d,p)\\TD\\0,1\Mg,0,
 -7.1611066837,0.6157503231,0.1310207895\C,0,-4.8615407721,-1.887829961
 4,0.566243157\C,0,-4.9475746864,2.782736721,1.1640227672\C,0,-9.484093
 1448,3.1508005756,-0.4668095407\C,0,-9.5051708308,-1.7180973207,-0.939
 4303721\N,0,-5.0537487995,0.4772975479,0.7452649448\C,0,-4.291878894,-
 0.6562554475,0.8671847417\C,0,-2.9463636418,-0.3131507408,1.3413744916
 \C,0,-3.029866425,1.1065333216,1.8069514258\C,0,-4.3869056855,1.553946
 1434,1.2133483647\C,0,-3.1190669888,1.2291952076,3.391260535\C,0,-1.94
 43378948,-0.5332085823,0.1852524835\C,0,-0.4239098136,-0.4985342006,0.
 6691510444\C,0,0.5456857058,-0.7406375767,-0.4857839589\O,0,0.26466770
 69,-1.0092963372,-1.6803043621\O,0,1.828254636,-0.5617335698,0.0074339
 545\N,0,-7.1644668946,2.4964752373,0.3143201275\C,0,-6.0880880878,3.30
 8601836,0.808674401\C,0,-6.4438416373,4.7247267621,0.8092816154\C,0,-7
 .6992226293,4.7917098025,0.1979881901\C,0,-8.1391181834,3.4397031656,-
 0.0483522889\C,0,-5.5724952062,5.9027127372,1.1269774582\C,0,-8.442172
 0148,5.9962206558,-0.0033633509\C,0,-8.53078697,7.1226083794,0.7681030
 601\N,0,-9.1491671893,0.6725201131,-0.5307371074\C,0,-9.971023362,1.83
 43233854,-0.626338958\C,0,-11.2633654331,1.3835066898,-1.0863603555\C,
 0,-11.2736897729,0.0110364677,-1.1617148855\C,0,-9.9876944501,-0.41616
 35907,-0.9039854146\C,0,-12.341332957,2.3800785789,-1.5301497898\C,0,-
 12.4464991962,-0.7737547856,-1.7875195605\C,0,-12.4477422626,-0.887481
 1593,-3.2539805167\N,0,-7.2063901073,-1.2990595196,-0.2039150685\C,0,-
 8.2033905789,-2.1856937415,-0.5525002052\C,0,-7.7859147371,-3.54770303
 78,-0.5774850258\C,0,-6.4258964737,-3.4378881258,-0.2037321051\C,0,-6.
 1685994563,-2.087957077,0.0955723614\C,0,-8.7072781952,-4.7411969621,-
 0.9690053789\C,0,-5.2840328736,-4.2920930928,0.0925421268\O,0,-5.19083
 79217,-5.5625707405,0.1075777885\C,0,-4.2049340728,-3.266562446,0.5793
 978051\C,0,-3.5843390648,-3.7838536067,1.8753279057\O,0,-3.7660782084,
 -3.215448281,2.9818808692\O,0,-2.5012313168,-4.6617708995,1.6343620171
 \C,0,-2.0662872166,-5.146118841,2.9210770432\C,0,2.7948619979,-0.61252
 90475,-1.1096921696\C,0,4.1314952385,-0.4797761539,-0.5399541444\C,0,5
 .1610695914,0.2594922146,-0.9963894116\C,0,5.0545738804,1.0865113004,-
 2.2636905344\C,0,6.5472790607,0.3207539256,-0.215218007\C,0,7.74070160
 81,-0.2698373306,-0.9052074712\C,0,8.9640282754,-0.1222573561,-0.14838
 66515\C,0,10.1240530298,-0.5956966414,-0.8970606766\C,0,10.0623429345,
 -2.0253834744,-1.3296764326\C,0,11.4658894658,-0.3641701978,0.12001286
 99\C,0,12.8517100787,-0.5330373548,-0.6489149144\C,0,13.9442938978,-0.
 1497961824,0.2653336009\C,0,15.4108272076,-0.3713608652,-0.4153397738\
 C,0,15.6439860675,-1.746542288,-0.6415737751\C,0,16.5257666826,0.38163
 25233,0.435568064\C,0,17.8237169611,0.6653479332,-0.3212179364\C,0,18.
 7756779373,1.3293411511,0.6467051035\C,0,20.2983385031,1.5181721507,0.
 1720619694\C,0,20.4320945633,2.1667249697,-1.3354345362\C,0,21.1525261
 834,2.039256862,1.1693022936\H,0,-4.331464631,3.5188374051,1.617196306
 5\H,0,-10.2813985326,3.9667775128,-0.7041758091\H,0,-10.2953628257,-2.
 4059799388,-1.3423108833\H,0,-2.6117376307,-0.7492632402,2.2415848497\
 H,0,-2.3627498802,1.8355571383,1.749585609\H,0,-2.305785036,0.87806825
 97,3.8922829418\H,0,-3.1443594959,2.2845025078,3.5958617516\H,0,-4.022
 1056533,0.7109057746,3.6811005229\H,0,-2.1309755825,-1.6673366941,0.04
 27103618\H,0,-2.1047621487,0.3175390043,-0.6657366133\H,0,0.0193584184
 ,0.4073153454,1.2136117603\H,0,-0.0620040024,-1.3746119764,1.500133968
 6\H,0,-6.0177105465,6.8382124653,0.7462403332\H,0,-5.3781948089,6.1457
 679399,2.1657028674\H,0,-4.5033642924,5.7772788943,0.8985530309\H,0,-9
 .133735426,6.0064867968,-0.881728401\H,0,-9.0690081167,7.9644071796,0.
 4878984116\H,0,-7.8941888847,7.1076271622,1.6860469902\H,0,-12.1528793
 93,2.9089012161,-2.6260556103\H,0,-13.1453842076,1.9651204032,-1.76197
 73892\H,0,-12.4525269838,3.1843770924,-0.589820226\H,0,-12.5551402924,
 -1.8769471398,-1.3813630912\H,0,-13.2628950084,-0.2114278796,-1.444339
 9615\H,0,-13.4198483374,-1.3113358198,-3.4134412286\H,0,-12.3865822224
 ,-0.0559301306,-3.9047939751\H,0,-11.5441406934,-1.8079656637,-3.46628
 52485\H,0,-9.3166912721,-4.7840591488,-1.9095342175\H,0,-8.2163109959,
 -5.6168416884,-0.9400436174\H,0,-9.606990584,-5.0398390052,-0.32522434
 5\H,0,-3.1864793438,-3.3552787786,-0.0471799895\H,0,-1.3807762441,-4.2
 944558853,3.340296945\H,0,-2.8090905177,-5.3849401116,3.5189047294\H,0
 ,-1.4612242339,-5.8340026735,2.6150154544\H,0,2.5601253166,-1.64924676
 06,-1.5752514901\H,0,2.5429417718,0.0504793275,-1.9299061428\H,0,3.992
 2401296,-1.057127928,0.3019934153\H,0,3.9211110746,1.0574544558,-2.703
 3187016\H,0,5.1317785896,2.1700372626,-2.1841148797\H,0,5.6945667643,0
 .8971808256,-2.9616448955\H,0,6.6778298459,1.5034243424,-0.1241097682\
 H,0,6.5369278122,-0.2363116686,0.6601957363\H,0,7.3415315379,-1.237863
 0215,-1.2397252961\H,0,7.9488473206,0.355938802,-1.9561985435\H,0,8.99
 78318348,0.9979576808,0.0331109433\H,0,8.9632948182,-0.7133868449,0.65
 4653329\H,0,10.4667842298,-0.0279902613,-1.6502799175\H,0,9.4175767432
 ,-2.0168296595,-2.4468206069\H,0,10.9436869244,-2.6566224461,-1.608085
 0524\H,0,9.6524881348,-2.4446364056,-0.234612901\H,0,11.4660642873,0.5
 279650267,0.5828697745\H,0,11.4199350469,-1.114537415,0.8774983714\H,0
 ,12.8890322221,-1.5619143526,-0.9847061382\H,0,12.8998537379,0.0903897
 3,-1.6551988812\H,0,13.8219436311,1.1642689829,0.4560329463\H,0,14.095
 2522783,-0.5920688116,1.3118977063\H,0,15.4932526138,0.3107105561,-1.1
 954038984\H,0,15.6547129142,-2.2642167138,0.2509636425\H,0,14.76610966
 17,-2.0438467603,-1.2503724523\H,0,16.4998896184,-1.9431298379,-1.3917
 206416\H,0,16.0906642671,1.2588537191,0.9393904833\H,0,16.8451389611,-
 0.4566148366,1.3384966109\H,0,18.2560965484,-0.3040769551,-0.759889329
 3\H,0,17.5363006946,1.0743447534,-1.1256761434\H,0,18.2478855812,2.155
 1296707,0.9501430196\H,0,18.801547315,0.7401881998,1.6647964799\H,0,20
 .6129762103,0.6318193301,-0.1421771537\H,0,20.2498490915,3.3540389658,
 -1.2086744608\H,0,21.4816524173,1.9235090037,-1.9970910724\H,0,19.5854
 224466,1.8689087017,-1.9790448735\H,0,21.5969156668,1.3186099701,2.074
 8871059\H,0,22.0586675731,2.414792709,0.5772426906\H,0,20.7045101809,3
 .1225223355,1.547905231\\Version=ES64L-G16RevA.03\State=1-A\HF=-2932.4
 859355\RMSD=6.577e-09\PG=C01 [X(C55H72Mg1N4O5)]\\@


 I LOVE MANKIND - IT'S PEOPLE I CAN'T STAND.
     -- LINUS OF PEANUTS
 Job cpu time:       0 days 17 hours  9 minutes  2.0 seconds.
 Elapsed time:       0 days  4 hours 17 minutes 51.1 seconds.
 File lengths (MBytes):  RWF=   6809 Int=      0 D2E=      0 Chk=    181 Scr=      1
 Normal termination of Gaussian 16 at Fri Jun 28 19:22:08 2019.
