 Entering Gaussian System, Link 0=g16
 Input=Geometria-165-.com
 Output=Geometria-165-.log
 Initial command:
 /usr/local/g16/l1.exe "/home/padawan/israel-mol/chlorophyll-a/spectra/emi/Gau-30073.inp" -scrdir="/home/padawan/israel-mol/chlorophyll-a/spectra/emi/"
 Entering Link 1 = /usr/local/g16/l1.exe PID=     30176.
  
 Copyright (c) 1988,1990,1992,1993,1995,1998,2003,2009,2016,
            Gaussian, Inc.  All Rights Reserved.
  
 This is part of the Gaussian(R) 16 program.  It is based on
 the Gaussian(R) 09 system (copyright 2009, Gaussian, Inc.),
 the Gaussian(R) 03 system (copyright 2003, Gaussian, Inc.),
 the Gaussian(R) 98 system (copyright 1998, Gaussian, Inc.),
 the Gaussian(R) 94 system (copyright 1995, Gaussian, Inc.),
 the Gaussian 92(TM) system (copyright 1992, Gaussian, Inc.),
 the Gaussian 90(TM) system (copyright 1990, Gaussian, Inc.),
 the Gaussian 88(TM) system (copyright 1988, Gaussian, Inc.),
 the Gaussian 86(TM) system (copyright 1986, Carnegie Mellon
 University), and the Gaussian 82(TM) system (copyright 1983,
 Carnegie Mellon University). Gaussian is a federally registered
 trademark of Gaussian, Inc.
  
 This software contains proprietary and confidential information,
 including trade secrets, belonging to Gaussian, Inc.
  
 This software is provided under written license and may be
 used, copied, transmitted, or stored only in accord with that
 written license.
  
 The following legend is applicable only to US Government
 contracts under FAR:
  
                    RESTRICTED RIGHTS LEGEND
  
 Use, reproduction and disclosure by the US Government is
 subject to restrictions as set forth in subparagraphs (a)
 and (c) of the Commercial Computer Software - Restricted
 Rights clause in FAR 52.227-19.
  
 Gaussian, Inc.
 340 Quinnipiac St., Bldg. 40, Wallingford CT 06492
  
  
 ---------------------------------------------------------------
 Warning -- This program may not be used in any manner that
 competes with the business of Gaussian, Inc. or will provide
 assistance to any competitor of Gaussian, Inc.  The licensee
 of this program is prohibited from giving any competitor of
 Gaussian, Inc. access to this program.  By using this program,
 the user acknowledges that Gaussian, Inc. is engaged in the
 business of creating and licensing software in the field of
 computational chemistry and represents and warrants to the
 licensee that it is not a competitor of Gaussian, Inc. and that
 it will not use this program in any manner prohibited above.
 ---------------------------------------------------------------
  

 Cite this work as:
 Gaussian 16, Revision A.03,
 M. J. Frisch, G. W. Trucks, H. B. Schlegel, G. E. Scuseria, 
 M. A. Robb, J. R. Cheeseman, G. Scalmani, V. Barone, 
 G. A. Petersson, H. Nakatsuji, X. Li, M. Caricato, A. V. Marenich, 
 J. Bloino, B. G. Janesko, R. Gomperts, B. Mennucci, H. P. Hratchian, 
 J. V. Ortiz, A. F. Izmaylov, J. L. Sonnenberg, D. Williams-Young, 
 F. Ding, F. Lipparini, F. Egidi, J. Goings, B. Peng, A. Petrone, 
 T. Henderson, D. Ranasinghe, V. G. Zakrzewski, J. Gao, N. Rega, 
 G. Zheng, W. Liang, M. Hada, M. Ehara, K. Toyota, R. Fukuda, 
 J. Hasegawa, M. Ishida, T. Nakajima, Y. Honda, O. Kitao, H. Nakai, 
 T. Vreven, K. Throssell, J. A. Montgomery, Jr., J. E. Peralta, 
 F. Ogliaro, M. J. Bearpark, J. J. Heyd, E. N. Brothers, K. N. Kudin, 
 V. N. Staroverov, T. A. Keith, R. Kobayashi, J. Normand, 
 K. Raghavachari, A. P. Rendell, J. C. Burant, S. S. Iyengar, 
 J. Tomasi, M. Cossi, J. M. Millam, M. Klene, C. Adamo, R. Cammi, 
 J. W. Ochterski, R. L. Martin, K. Morokuma, O. Farkas, 
 J. B. Foresman, and D. J. Fox, Gaussian, Inc., Wallingford CT, 2016.
 
 ******************************************
 Gaussian 16:  ES64L-G16RevA.03 25-Dec-2016
                27-Jun-2019 
 ******************************************
 %nproc=4
 Will use up to    4 processors via shared memory.
 %Mem=2GB
 -------------------------------------
 # td=(NStates=1) CAM-B3LYP/6-31G(d,p)
 -------------------------------------
 1/38=1,172=1/1;
 2/12=2,17=6,18=5,40=1/2;
 3/5=1,6=6,7=101,11=9,25=1,30=1,74=-40/1,2,3,8;
 4//1;
 5/5=2,38=5/2;
 8/6=1,10=2,108=1/1;
 9/41=1,42=1,70=2/14;
 6/7=2,8=2,9=2,10=2/1;
 99/5=1,9=1/99;
 --
 TD
 --
 Symbolic Z-matrix:
 Charge =  0 Multiplicity = 1
 12                   -7.12946   0.59114  -0.01019 
 6                    -4.91432  -1.89048   0.51928 
 6                    -4.79998   2.84144   1.13299 
 6                    -9.33437   3.10952  -0.43439 
 6                    -9.6075   -1.78699  -0.80041 
 7                    -5.12107   0.4088    0.66503 
 6                    -4.37169  -0.70779   0.76872 
 6                    -2.89648  -0.36162   1.19725 
 6                    -3.01621   1.08347   1.60597 
 6                    -4.44121   1.45808   1.13745 
 6                    -2.884     1.24376   3.0661 
 6                    -1.97985  -0.65694   0.04241 
 6                    -0.53894  -0.44222   0.47943 
 6                     0.46222  -0.68119  -0.67274 
 8                     0.30501  -0.9891   -1.77046 
 8                     1.72052  -0.41496  -0.23356 
 7                    -6.99332   2.51876   0.27274 
 6                    -6.06829   3.31782   0.74642 
 6                    -6.50852   4.68726   0.91489 
 6                    -7.77438   4.77848   0.37687 
 6                    -8.07774   3.49369   0.00254 
 6                    -5.49848   5.81236   1.37807 
 6                    -8.58308   5.94058   0.16036 
 6                    -8.61196   7.02371   0.9087 
 7                    -9.20104   0.64099  -0.50614 
 6                    -9.83069   1.79191  -0.74048 
 6                    -11.26449   1.45257  -1.1959 
 6                    -11.33622   0.08471  -1.3073 
 6                    -9.90349  -0.38941  -0.88072 
 6                    -12.27633   2.47088  -1.59755 
 6                    -12.43143  -0.76793  -1.70448 
 6                    -12.19973  -1.08818  -3.28961 
 7                    -7.30167  -1.3659   -0.14473 
 6                    -8.34379  -2.26189  -0.49834 
 6                    -7.90868  -3.62643  -0.4186 
 6                    -6.58065  -3.51928  -0.04567 
 6                    -6.21384  -2.16841   0.17179 
 6                    -8.73831  -4.85357  -0.71195 
 6                    -5.33612  -4.25221   0.20476 
 8                    -5.17461  -5.52084   0.08879 
 6                    -4.21467  -3.2505    0.57156 
 6                    -3.48986  -3.56158   1.87207 
 8                    -3.60168  -2.97508   2.9727 
 8                    -2.70552  -4.64006   1.70249 
 6                    -2.16324  -5.05471   3.09304 
 6                     2.81559  -0.67963  -1.10492 
 6                     4.08859  -0.31554  -0.44577 
 6                     5.11902   0.32663  -0.89884 
 6                     4.94295   1.23148  -2.13309 
 6                     6.42371   0.28269  -0.15164 
 6                     7.59546  -0.22765  -0.8519 
 6                     8.86875  -0.06788  -0.11128 
 6                     10.17017  -0.4563   -0.90203 
 6                     10.13144  -2.08635  -1.2283 
 6                     11.47734  -0.31164  -0.05213 
 6                     12.80581  -0.41933  -0.67364 
 6                     13.94678  -0.17857   0.24446 
 6                     15.38092  -0.25857  -0.39159 
 6                     15.76929  -1.6007   -1.01631 
 6                     16.4632   0.47146   0.45646 
 6                     17.86853   0.62995  -0.21989 
 6                     18.88296   1.28608   0.68781 
 6                     20.39437   1.26273   0.172 
 6                     20.51527   2.00961  -1.15682 
 6                     21.35303   1.94136   1.3017 
 1                    -4.18253   3.56185   1.57648 
 1                    -10.16326   3.96712  -0.50643 
 1                    -10.46977  -2.32085  -1.1553 
 1                    -2.78814  -1.18092   1.93374 
 1                    -2.32287   1.77812   0.96077 
 1                    -1.96806   0.81038   3.45828 
 1                    -2.77011   2.26026   3.38409 
 1                    -3.76418   0.56221   3.63882 
 1                    -2.38563  -1.67907  -0.2136 
 1                    -2.23447   0.0647   -0.78111 
 1                     0.15886   0.29965   0.87123 
 1                    -0.2622   -1.23058   1.17938 
 1                    -6.09758   6.79339   0.90979 
 1                    -5.29281   5.74708   2.38683 
 1                    -4.50287   5.77792   0.7443 
 1                    -9.25065   5.96     -0.82808 
 1                    -9.21905   7.94664   0.6266 
 1                    -7.92165   6.98518   1.78831 
 1                    -11.9352   3.1306   -2.44107 
 1                    -13.14385   1.96388  -1.93854 
 1                    -12.53152   3.25216  -0.98987 
 1                    -12.51962  -1.70253  -1.19979 
 1                    -13.56026  -0.48389  -1.69915 
 1                    -13.12267  -1.56917  -3.64298 
 1                    -11.75667  -0.17822  -3.78949 
 1                    -11.37867  -2.04549  -3.17844 
 1                    -9.2548   -4.58315  -1.68292 
 1                    -7.92925  -5.68412  -0.92351 
 1                    -9.47146  -5.06652   0.07977 
 1                    -3.52909  -3.72449  -0.24294 
 1                    -1.56253  -4.19541   3.48365 
 1                    -2.97903  -5.13768   3.93787 
 1                    -1.77192  -6.04319   2.74107 
 1                     2.80948  -1.60103  -1.57207 
 1                     2.55103  -0.07909  -2.0772 
 1                     4.20053  -1.08782   0.36482 
 1                     4.0253    1.15566  -2.56978 
 1                     5.27201   2.25784  -1.8918 
 1                     5.62      0.73466  -2.88475 
 1                     6.67807   1.40988   0.16718 
 1                     6.38228  -0.12972   0.90497 
 1                     7.36887  -1.30604  -0.90125 
 1                     7.5194    0.17972  -1.85765 
 1                     9.13552   0.9708    0.39221 
 1                     8.86458  -0.63623   0.96917 
 1                     10.05052   0.14894  -1.85471 
 1                     9.26885  -2.29304  -1.81898 
 1                     11.15707  -2.35764  -1.75965 
 1                     10.02651  -2.64603  -0.27139 
 1                     11.38123   0.77243   0.42213 
 1                     11.31247  -0.86064   0.5965 
 1                     12.99706  -1.39466  -1.08078 
 1                     12.93014   0.23458  -1.47177 
 1                     13.83047   0.78035   0.81134 
 1                     13.90931  -0.91297   1.139 
 1                     15.09449   0.39326  -1.27972 
 1                     15.94478  -2.27776  -0.21682 
 1                     14.9858  -1.80808  -1.80704 
 1                     16.67627  -1.53415  -1.52914 
 1                     16.07508   1.478     0.78848 
 1                     16.63852  -0.05431   1.40514 
 1                     18.23297  -0.41613  -0.64435 
 1                     17.81173   1.26929  -1.06315 
 1                     18.53185   2.24936   1.09993 
 1                     19.14467   0.75654   1.57387 
 1                     20.72196   0.26178  -0.01853 
 1                     20.16684   3.08317  -1.07697 
 1                     21.56659   2.14583  -1.45468 
 1                     19.99842   1.4128   -2.05504 
 1                     21.25641   1.4886    2.24122 
 1                     22.34719   2.0617    0.90985 
 1                     21.05115   2.88415   1.30527 
 
 Stoichiometry    C55H72MgN4O5
 Framework group  C1[X(C55H72MgN4O5)]
 Deg. of freedom   405
 Full point group                 C1      NOp   1
 Largest Abelian subgroup         C1      NOp   1
 Largest concise Abelian subgroup C1      NOp   1
                         Standard orientation:                         
 ---------------------------------------------------------------------
 Center     Atomic      Atomic             Coordinates (Angstroms)
 Number     Number       Type             X           Y           Z
 ---------------------------------------------------------------------
      1         12           0       -7.129563    0.594497   -0.008931
      2          6           0       -4.915103   -1.886212    0.527629
      3          6           0       -4.798806    2.847617    1.126081
      4          6           0       -9.333725    3.112300   -0.440336
      5          6           0       -9.608779   -1.785262   -0.790506
      6          7           0       -5.120961    0.413600    0.666069
      7          6           0       -4.371945   -0.702924    0.773056
      8          6           0       -2.896440   -0.355910    1.199877
      9          6           0       -3.015479    1.090526    1.603998
     10          6           0       -4.440537    1.464142    1.134846
     11          6           0       -2.882634    1.255456    3.063549
     12          6           0       -1.980383   -0.655279    0.045624
     13          6           0       -0.539220   -0.439678    0.481379
     14          6           0        0.461390   -0.682717   -0.670421
     15          8           0        0.303633   -0.994099   -1.767084
     16          8           0        1.719969   -0.415531   -0.232600
     17          7           0       -6.992607    2.522966    0.267746
     18          6           0       -6.067094    3.323213    0.738488
     19          6           0       -6.506762    4.693348    0.902735
     20          6           0       -7.772807    4.783294    0.364924
     21          6           0       -8.076784    3.497418   -0.005146
     22          6           0       -5.496129    5.819564    1.361893
     23          6           0       -8.581168    5.944983    0.145010
     24          6           0       -8.609355    7.030526    0.889870
     25          7           0       -9.201322    0.643505   -0.504213
     26          6           0       -9.830646    1.793897   -0.741995
     27          6           0      -11.264747    1.453621   -1.195750
     28          6           0      -11.337018    0.085436   -1.302722
     29          6           0       -9.904289   -0.387836   -0.875196
     30          6           0      -12.276380    2.470996   -1.600262
     31          6           0      -12.432698   -0.768086   -1.696723
     32          6           0      -12.201749   -1.093510   -3.280911
     33          7           0       -7.302532   -1.362897   -0.137107
     34          6           0       -8.345123   -2.259645   -0.487425
     35          6           0       -7.910468   -3.624079   -0.403467
     36          6           0       -6.582255   -3.516210   -0.031411
     37          6           0       -6.214871   -2.164780    0.181555
     38          6           0       -8.740665   -4.851851   -0.692540
     39          6           0       -5.337887   -4.248786    0.220875
     40          8           0       -5.176881   -5.517839    0.108912
     41          6           0       -4.215924   -3.246312    0.583999
     42          6           0       -3.490710   -3.553475    1.885213
     43          8           0       -3.601879   -2.963402    2.983999
     44          8           0       -2.706831   -4.632777    1.718789
     45          6           0       -2.164139   -5.043153    3.110453
     46          6           0        2.814594   -0.683396   -1.103544
     47          6           0        4.087987   -0.317656   -0.446079
     48          6           0        5.118462    0.322678   -0.901618
     49          6           0        4.942233    1.223617   -2.138697
     50          6           0        6.423437    0.280667   -0.154804
     51          6           0        7.594721   -0.232351   -0.853888
     52          6           0        8.868368   -0.070663   -0.114295
     53          6           0       10.169329   -0.462097   -0.904311
     54          6           0       10.129879   -2.093170   -1.225319
     55          6           0       11.476895   -0.315183   -0.055406
     56          6           0       12.805071   -0.425345   -0.677090
     57          6           0       13.946505   -0.182053    0.239774
     58          6           0       15.380361   -0.264619   -0.396588
     59          6           0       15.767988   -1.608889   -1.017149
     60          6           0       16.463241    0.467741    0.448676
     61          6           0       17.868358    0.623548   -0.228739
     62          6           0       18.883387    1.282215    0.676439
     63          6           0       20.394581    1.256657    0.160105
     64          6           0       20.515224    1.999221   -1.171155
     65          6           0       21.353938    1.938567    1.287229
     66          1           0       -4.180917    3.569223    1.567009
     67          1           0      -10.162331    3.969967   -0.514801
     68          1           0      -10.471383   -2.319943   -1.143339
     69          1           0       -2.788098   -1.172879    1.938957
     70          1           0       -2.322147    1.782847    0.956287
     71          1           0       -1.966692    0.823010    3.456756
     72          1           0       -2.768247    2.272934    3.378227
     73          1           0       -3.762828    0.576074    3.638807
     74          1           0       -2.386635   -1.678076   -0.206931
     75          1           0       -2.235065    0.063807   -0.780106
     76          1           0        0.159010    0.303197    0.870509
     77          1           0       -0.262488   -1.225883    1.183749
     78          1           0       -6.095062    6.799296    0.890695
     79          1           0       -5.290077    5.757446    2.370777
     80          1           0       -4.500792    5.782720    0.727834
     81          1           0       -9.249128    5.961475   -0.843226
     82          1           0       -9.216231    7.952762    0.605053
     83          1           0       -7.918713    6.994579    1.769324
     84          1           0      -11.935350    3.127883   -2.446035
     85          1           0      -13.144228    1.963221   -1.939272
     86          1           0      -12.531052    3.254324   -0.994998
     87          1           0      -12.521023   -1.701022   -1.189000
     88          1           0      -13.561430   -0.483611   -1.691849
     89          1           0      -13.125006   -1.575298   -3.632364
     90          1           0      -11.758561   -0.185324   -3.783889
     91          1           0      -11.380998   -2.050755   -3.166985
     92          1           0       -9.257440   -4.584367   -1.664170
     93          1           0       -7.931992   -5.683372   -0.901755
     94          1           0       -9.473570   -5.061992    0.100149
     95          1           0       -3.530851   -3.723162   -0.229243
     96          1           0       -1.562969   -4.182817    3.498056
     97          1           0       -2.979621   -5.123106    3.955863
     98          1           0       -1.773317   -6.032906    2.761499
     99          1           0        2.807959   -1.606297   -1.567727
    100          1           0        2.549860   -0.085896   -2.077642
    101          1           0        4.199972   -1.087369    0.366949
    102          1           0        4.024379    1.146736   -2.574772
    103          1           0        5.271761    2.250628   -1.900837
    104          1           0        5.618798    0.724146   -2.889026
    105          1           0        6.678336    1.408788    0.160291
    106          1           0        6.382287   -0.128331    0.903145
    107          1           0        7.367728   -1.310808   -0.899680
    108          1           0        7.518413    0.171816   -1.860909
    109          1           0        9.135713    0.969540    0.385747
    110          1           0        8.864431   -0.635533    0.967985
    111          1           0       10.049521    0.140122   -1.858883
    112          1           0        9.266980   -2.301441   -1.814989
    113          1           0       11.155196   -2.366542   -1.756208
    114          1           0       10.025126   -2.649730   -0.266574
    115          1           0       11.381363    0.770445    0.415413
    116          1           0       11.312089   -0.862033    0.595056
    117          1           0       12.995812   -1.402049   -1.081168
    118          1           0       12.929319    0.225952   -1.477371
    119          1           0       13.830770    0.778726    0.803612
    120          1           0       13.909127   -0.913562    1.136684
    121          1           0       15.093810    0.384456   -1.286699
    122          1           0       15.943557   -2.283440   -0.215559
    123          1           0       14.984109   -1.818530   -1.806893
    124          1           0       16.674785   -1.544319   -1.530556
    125          1           0       16.075621    1.475478    0.777610
    126          1           0       16.638749   -0.055047    1.398974
    127          1           0       18.232252   -0.424026   -0.649980
    128          1           0       17.811449    1.260194   -1.074029
    129          1           0       18.532797    2.246945    1.085599
    130          1           0       19.145263    0.755434    1.564090
    131          1           0       20.721731    0.254987   -0.027344
    132          1           0       20.167213    3.073162   -1.094622
    133          1           0       21.566472    2.134103   -1.469872
    134          1           0       19.997799    1.399719   -2.067252
    135          1           0       21.257536    1.488864    2.228246
    136          1           0       22.347984    2.057285    0.894597
    137          1           0       21.052410    2.881475    1.287894
 ---------------------------------------------------------------------
 Rotational constants (GHZ):           0.0662373           0.0060432           0.0057079
 Standard basis: 6-31G(d,p) (6D, 7F)
 There are  1339 symmetry adapted cartesian basis functions of A   symmetry.
 There are  1339 symmetry adapted basis functions of A   symmetry.
  1339 basis functions,  2348 primitive gaussians,  1339 cartesian basis functions
   241 alpha electrons      241 beta electrons
       nuclear repulsion energy      8760.9394850193 Hartrees.
 NAtoms=  137 NActive=  137 NUniq=  137 SFac= 1.00D+00 NAtFMM=   60 NAOKFM=T Big=T
 Integral buffers will be    131072 words long.
 Raffenetti 1 integral format.
 Two-electron integral symmetry is turned on.
 One-electron integrals computed using PRISM.
