 Entering Gaussian System, Link 0=g16
 Input=Geometria-134-.com
 Output=Geometria-134-.log
 Initial command:
 /usr/local/g16/l1.exe "/home/padawan/israel-mol/chlorophyll-a/spectra/emi/Gau-29685.inp" -scrdir="/home/padawan/israel-mol/chlorophyll-a/spectra/emi/"
 Entering Link 1 = /usr/local/g16/l1.exe PID=     29687.
  
 Copyright (c) 1988,1990,1992,1993,1995,1998,2003,2009,2016,
            Gaussian, Inc.  All Rights Reserved.
  
 This is part of the Gaussian(R) 16 program.  It is based on
 the Gaussian(R) 09 system (copyright 2009, Gaussian, Inc.),
 the Gaussian(R) 03 system (copyright 2003, Gaussian, Inc.),
 the Gaussian(R) 98 system (copyright 1998, Gaussian, Inc.),
 the Gaussian(R) 94 system (copyright 1995, Gaussian, Inc.),
 the Gaussian 92(TM) system (copyright 1992, Gaussian, Inc.),
 the Gaussian 90(TM) system (copyright 1990, Gaussian, Inc.),
 the Gaussian 88(TM) system (copyright 1988, Gaussian, Inc.),
 the Gaussian 86(TM) system (copyright 1986, Carnegie Mellon
 University), and the Gaussian 82(TM) system (copyright 1983,
 Carnegie Mellon University). Gaussian is a federally registered
 trademark of Gaussian, Inc.
  
 This software contains proprietary and confidential information,
 including trade secrets, belonging to Gaussian, Inc.
  
 This software is provided under written license and may be
 used, copied, transmitted, or stored only in accord with that
 written license.
  
 The following legend is applicable only to US Government
 contracts under FAR:
  
                    RESTRICTED RIGHTS LEGEND
  
 Use, reproduction and disclosure by the US Government is
 subject to restrictions as set forth in subparagraphs (a)
 and (c) of the Commercial Computer Software - Restricted
 Rights clause in FAR 52.227-19.
  
 Gaussian, Inc.
 340 Quinnipiac St., Bldg. 40, Wallingford CT 06492
  
  
 ---------------------------------------------------------------
 Warning -- This program may not be used in any manner that
 competes with the business of Gaussian, Inc. or will provide
 assistance to any competitor of Gaussian, Inc.  The licensee
 of this program is prohibited from giving any competitor of
 Gaussian, Inc. access to this program.  By using this program,
 the user acknowledges that Gaussian, Inc. is engaged in the
 business of creating and licensing software in the field of
 computational chemistry and represents and warrants to the
 licensee that it is not a competitor of Gaussian, Inc. and that
 it will not use this program in any manner prohibited above.
 ---------------------------------------------------------------
  

 Cite this work as:
 Gaussian 16, Revision A.03,
 M. J. Frisch, G. W. Trucks, H. B. Schlegel, G. E. Scuseria, 
 M. A. Robb, J. R. Cheeseman, G. Scalmani, V. Barone, 
 G. A. Petersson, H. Nakatsuji, X. Li, M. Caricato, A. V. Marenich, 
 J. Bloino, B. G. Janesko, R. Gomperts, B. Mennucci, H. P. Hratchian, 
 J. V. Ortiz, A. F. Izmaylov, J. L. Sonnenberg, D. Williams-Young, 
 F. Ding, F. Lipparini, F. Egidi, J. Goings, B. Peng, A. Petrone, 
 T. Henderson, D. Ranasinghe, V. G. Zakrzewski, J. Gao, N. Rega, 
 G. Zheng, W. Liang, M. Hada, M. Ehara, K. Toyota, R. Fukuda, 
 J. Hasegawa, M. Ishida, T. Nakajima, Y. Honda, O. Kitao, H. Nakai, 
 T. Vreven, K. Throssell, J. A. Montgomery, Jr., J. E. Peralta, 
 F. Ogliaro, M. J. Bearpark, J. J. Heyd, E. N. Brothers, K. N. Kudin, 
 V. N. Staroverov, T. A. Keith, R. Kobayashi, J. Normand, 
 K. Raghavachari, A. P. Rendell, J. C. Burant, S. S. Iyengar, 
 J. Tomasi, M. Cossi, J. M. Millam, M. Klene, C. Adamo, R. Cammi, 
 J. W. Ochterski, R. L. Martin, K. Morokuma, O. Farkas, 
 J. B. Foresman, and D. J. Fox, Gaussian, Inc., Wallingford CT, 2016.
 
 ******************************************
 Gaussian 16:  ES64L-G16RevA.03 25-Dec-2016
                27-Jun-2019 
 ******************************************
 %nproc=4
 Will use up to    4 processors via shared memory.
 %Mem=2GB
 -------------------------------------
 # td=(NStates=1) CAM-B3LYP/6-31G(d,p)
 -------------------------------------
 1/38=1,172=1/1;
 2/12=2,17=6,18=5,40=1/2;
 3/5=1,6=6,7=101,11=9,25=1,30=1,74=-40/1,2,3,8;
 4//1;
 5/5=2,38=5/2;
 8/6=1,10=2,108=1/1;
 9/41=1,42=1,70=2/14;
 6/7=2,8=2,9=2,10=2/1;
 99/5=1,9=1/99;
 --
 TD
 --
 Symbolic Z-matrix:
 Charge =  0 Multiplicity = 1
 12                   -7.17736   0.58754   0.11074 
 6                    -4.82485  -2.03155   0.58484 
 6                    -4.76791   2.73957   1.19543 
 6                    -9.35287   3.18423  -0.58585 
 6                    -9.45146  -1.66924  -0.89143 
 7                    -5.02965   0.3545    0.70307 
 6                    -4.36698  -0.76433   0.81003 
 6                    -2.83403  -0.43202   1.22297 
 6                    -2.95793   1.09162   1.66654 
 6                    -4.2801    1.50068   1.13112 
 6                    -2.79891   1.45071   3.13457 
 6                    -1.91394  -0.67496   0.14337 
 6                    -0.45504  -0.56323   0.57043 
 6                     0.49316  -0.72915  -0.54642 
 8                     0.13648  -1.08798  -1.64658 
 8                     1.80745  -0.51174  -0.17418 
 7                    -7.12079   2.62542   0.35229 
 6                    -5.97073   3.3164    0.75664 
 6                    -6.32117   4.69754   0.74545 
 6                    -7.69438   4.80059   0.36294 
 6                    -8.12469   3.46428   0.03344 
 6                    -5.45087   5.84054   1.17457 
 6                    -8.52195   6.06326   0.14318 
 6                    -8.32429   7.15329   0.87463 
 7                    -9.15841   0.72384  -0.52647 
 6                    -9.86659   1.80139  -0.69073 
 6                    -11.22221   1.45974  -1.26787 
 6                    -11.22522   0.15213  -1.26689 
 6                    -9.93278  -0.32952  -0.89103 
 6                    -12.26457   2.57159  -1.45307 
 6                    -12.38123  -0.69393  -1.7836 
 6                    -12.22055  -1.16667  -3.30279 
 7                    -7.18538  -1.37352  -0.22257 
 6                    -8.23173  -2.19757  -0.5242 
 6                    -7.81079  -3.57281  -0.55268 
 6                    -6.5061   -3.5801   -0.07233 
 6                    -6.19923  -2.17332   0.15663 
 6                    -8.51804  -4.86918  -0.96602 
 6                    -5.37893  -4.38704   0.13157 
 8                    -5.28673  -5.57132   0.07027 
 6                    -4.21738  -3.37656   0.67931 
 6                    -3.68412  -3.71799   2.02008 
 8                    -3.83538  -3.21458   3.06094 
 8                    -2.85673  -4.81682   1.89148 
 6                    -2.19492  -5.20838   3.05926 
 6                     2.83137  -0.69309  -1.1911 
 6                     4.10308  -0.37003  -0.51381 
 6                     5.10741   0.37244  -0.92582 
 6                     4.97781   1.23628  -2.24907 
 6                     6.45129   0.46752  -0.29508 
 6                     7.68996   0.03427  -1.06918 
 6                     8.88085   0.00355  -0.16519 
 6                     10.18062  -0.43988  -0.95874 
 6                     10.02827  -1.96541  -1.30623 
 6                     11.37032  -0.22127   0.13212 
 6                     12.72203  -0.45485  -0.62376 
 6                     14.04519  -0.03612   0.19033 
 6                     15.36691  -0.33548  -0.54439 
 6                     15.74369  -1.76875  -0.66491 
 6                     16.35341   0.42405   0.44616 
 6                     17.73468   0.66477  -0.21247 
 6                     18.80164   1.25847   0.73394 
 6                     20.27398   1.34877   0.12721 
 6                     20.2645   2.14171  -1.17087 
 6                     21.10111   1.94628   1.11773 
 1                    -3.99629   3.44137   1.51054 
 1                    -10.13702   3.83928  -0.54029 
 1                    -10.14917  -2.42344  -1.11623 
 1                    -2.58117  -0.94817   2.0857 
 1                    -2.16142   1.63308   1.08989 
 1                    -1.78305   1.19273   3.54202 
 1                    -3.12877   2.47997   3.25842 
 1                    -3.46425   0.64267   3.71589 
 1                    -2.09826  -1.67725  -0.30365 
 1                    -2.05357   0.07783  -0.5807 
 1                    -0.50694   0.23974   0.9458 
 1                    -0.35034  -1.44748   1.25369 
 1                    -5.75111   6.77149   0.65411 
 1                    -5.58199   6.18447   2.16637 
 1                    -4.4315    5.60495   0.85043 
 1                    -9.40781   5.95047  -0.53761 
 1                    -8.78756   7.90889   0.61352 
 1                    -7.66349   7.28546   1.80026 
 1                    -11.98593   3.54298  -1.99821 
 1                    -13.07409   1.92876  -1.95191 
 1                    -12.7095   2.81485  -0.24164 
 1                    -12.42085  -1.45427  -1.08168 
 1                    -13.51535  -0.21887  -1.6804 
 1                    -13.10901  -1.55313  -3.60482 
 1                    -11.79117  -0.37467  -3.98041 
 1                    -11.32036  -2.03496  -3.49285 
 1                    -9.04543  -4.65516  -1.81526 
 1                    -7.84307  -5.74771  -1.04079 
 1                    -9.35511  -5.13947  -0.40393 
 1                    -3.27687  -3.40589   0.08818 
 1                    -1.61045  -4.4966    3.45605 
 1                    -3.03206  -5.67884   3.77423 
 1                    -1.7004   -6.18041   2.76614 
 1                     2.8673   -1.74303  -1.71534 
 1                     2.32956  -0.03051  -1.97144 
 1                     4.27389  -1.0814    0.37671 
 1                     3.83191   1.15527  -2.44916 
 1                     5.29348   2.28167  -1.90371 
 1                     5.485     0.91547  -3.26136 
 1                     6.46695   1.37132  -0.0396 
 1                     6.18292  -0.03049   0.62148 
 1                     7.4373   -0.85495  -1.65589 
 1                     8.00442   0.58506  -1.94384 
 1                     9.07381   1.02254   0.33497 
 1                     8.82499  -0.64307   0.7444 
 1                     10.35494   0.18405  -2.06387 
 1                     9.0948   -1.96707  -1.99667 
 1                     10.92614  -2.36578  -1.73182 
 1                     9.8531   -2.61488  -0.43831 
 1                     11.26061   0.94926   0.4526 
 1                     11.27609  -0.92173   0.96269 
 1                     12.8328  -1.4892   -0.71826 
 1                     12.77053   0.17983  -1.55346 
 1                     13.83641   0.98473   0.40379 
 1                     14.15586  -0.50594   1.263 
 1                     15.57805   0.18048  -1.54273 
 1                     15.78518  -2.42805   0.32352 
 1                     15.0796  -2.29415  -1.29679 
 1                     16.6249  -1.77703  -1.12537 
 1                     16.037    1.3726    0.67171 
 1                     16.35896  -0.39233   1.22288 
 1                     18.21735  -0.34512  -0.11469 
 1                     17.67687   1.15008  -1.02985 
 1                     18.4755   2.3137    0.97915 
 1                     18.91798   0.76362   1.50196 
 1                     20.67473   0.2528    0.11129 
 1                     19.58071   3.06397  -0.81271 
 1                     21.35205   2.51726  -1.6843 
 1                     19.59015   1.7243   -1.74904 
 1                     21.10836   1.40944   2.10931 
 1                     22.15906   2.30357   0.8203 
 1                     20.76207   2.8589    1.52788 
 
 Stoichiometry    C55H72MgN4O5
 Framework group  C1[X(C55H72MgN4O5)]
 Deg. of freedom   405
 Full point group                 C1      NOp   1
 Largest Abelian subgroup         C1      NOp   1
 Largest concise Abelian subgroup C1      NOp   1
                         Standard orientation:                         
 ---------------------------------------------------------------------
 Center     Atomic      Atomic             Coordinates (Angstroms)
 Number     Number       Type             X           Y           Z
 ---------------------------------------------------------------------
      1         12           0       -7.176801    0.598314    0.117498
      2          6           0       -4.828757   -2.028300    0.571706
      3          6           0       -4.763251    2.738127    1.217150
      4          6           0       -9.347950    3.203851   -0.559417
      5          6           0       -9.455157   -1.647081   -0.900442
      6          7           0       -5.029328    0.357177    0.707449
      7          6           0       -4.368594   -0.763558    0.806019
      8          6           0       -2.834946   -0.436975    1.220910
      9          6           0       -2.956034    1.083600    1.675642
     10          6           0       -4.277636    1.498884    1.143637
     11          6           0       -2.795956    1.431661    3.146217
     12          6           0       -1.915605   -0.673629    0.139275
     13          6           0       -0.456384   -0.567584    0.566695
     14          6           0        0.491197   -0.726992   -0.551632
     15          8           0        0.133567   -1.077149   -1.654277
     16          8           0        1.805979   -0.514620   -0.178221
     17          7           0       -7.116582    2.634272    0.373930
     18          6           0       -5.965184    3.320261    0.782963
     19          6           0       -6.313202    4.702060    0.781977
     20          6           0       -7.686344    4.810312    0.400663
     21          6           0       -8.119094    3.477200    0.061524
     22          6           0       -5.440772    5.840355    1.219182
     23          6           0       -8.511756    6.076003    0.190393
     24          6           0       -8.311961    7.160310    0.929735
     25          7           0       -9.157796    0.742746   -0.518084
     26          6           0       -9.864134    1.822715   -0.674242
     27          6           0      -11.220521    1.487679   -1.253450
     28          6           0      -11.225833    0.180100   -1.262028
     29          6           0       -9.934125   -0.306559   -0.890106
     30          6           0      -12.260974    2.602675   -1.430198
     31          6           0      -12.383478   -0.660125   -1.784558
     32          6           0      -12.224074   -1.122027   -3.307210
     33          7           0       -7.188366   -1.360233   -0.230136
     34          6           0       -8.236257   -2.180225   -0.537462
     35          6           0       -7.817737   -3.555948   -0.576132
     36          6           0       -6.512928   -3.569047   -0.096246
     37          6           0       -6.203516   -2.164513    0.142897
     38          6           0       -8.527389   -4.848021   -0.998715
     39          6           0       -5.387116   -4.379434    0.101396
     40          8           0       -5.297011   -5.563394    0.031418
     41          6           0       -4.223623   -3.375028    0.656154
     42          6           0       -3.690572   -3.727183    1.994232
     43          8           0       -3.840636   -3.231135    3.038788
     44          8           0       -2.865151   -4.826494    1.857342
     45          6           0       -2.203689   -5.227743    3.022027
     46          6           0        2.829272   -0.690324   -1.196751
     47          6           0        4.101754   -0.374457   -0.517509
     48          6           0        5.107268    0.369241   -0.924389
     49          6           0        4.978789    1.242953   -2.241244
     50          6           0        6.451494    0.457341   -0.293378
     51          6           0        7.689170    0.027594   -1.071014
     52          6           0        8.880274   -0.011834   -0.167634
     53          6           0       10.179027   -0.451726   -0.964803
     54          6           0       10.023894   -1.974401   -1.323399
     55          6           0       11.369432   -0.243183    0.127261
     56          6           0       12.720504   -0.473606   -0.630730
     57          6           0       14.044645   -0.063169    0.185992
     58          6           0       15.365619   -0.359460   -0.551303
     59          6           0       15.739836   -1.792477   -0.682409
     60          6           0       16.353741    0.391067    0.444473
     61          6           0       17.735236    0.634173   -0.212801
     62          6           0       18.803520    1.219068    0.737598
     63          6           0       20.275833    1.311209    0.131085
     64          6           0       20.267365    2.113643   -1.161155
     65          6           0       21.104309    1.900009    1.125692
     66          1           0       -3.990310    3.436245    1.537146
     67          1           0      -10.130938    3.859926   -0.508825
     68          1           0      -10.154261   -2.398390   -1.130539
     69          1           0       -2.582742   -0.959864    2.079762
     70          1           0       -2.158744    1.627859    1.102724
     71          1           0       -1.780429    1.168928    3.551450
     72          1           0       -3.123963    2.460570    3.277685
     73          1           0       -3.462539    0.620563    3.721817
     74          1           0       -2.101816   -1.672293   -0.315008
     75          1           0       -2.054118    0.084678   -0.579225
     76          1           0       -0.506763    0.232709    0.947946
     77          1           0       -0.353036   -1.456988    1.243436
     78          1           0       -5.739529    6.775611    0.705635
     79          1           0       -5.570986    6.177258    2.213512
     80          1           0       -4.421907    5.605357    0.893011
     81          1           0       -9.398017    5.969753   -0.490937
     82          1           0       -8.773983    7.918612    0.674297
     83          1           0       -7.650657    7.284551    1.856098
     84          1           0      -11.980795    3.577542   -1.968307
     85          1           0      -13.071771    1.964931   -1.933470
     86          1           0      -12.705126    2.837853   -0.216878
     87          1           0      -12.424222   -1.425515   -1.088209
     88          1           0      -13.516729   -0.183844   -1.677543
     89          1           0      -13.113299   -1.504709   -3.611790
     90          1           0      -11.793506   -0.325851   -3.979159
     91          1           0      -11.325467   -1.990482   -3.503894
     92          1           0       -9.054657   -4.626867   -1.846215
     93          1           0       -7.853991   -5.727169   -1.080124
     94          1           0       -9.364763   -5.120943   -0.438366
     95          1           0       -3.283343   -3.401686    0.064542
     96          1           0       -1.617851   -4.519911    3.423829
     97          1           0       -3.041446   -5.701952    3.733795
     98          1           0       -1.710963   -6.198472    2.721655
     99          1           0        2.863202   -1.736463   -1.728660
    100          1           0        2.328402   -0.021177   -1.972070
    101          1           0        4.271572   -1.092624    0.367735
    102          1           0        3.832695    1.165428   -2.441572
    103          1           0        5.296406    2.285236   -1.888344
    104          1           0        5.485115    0.928671   -3.256014
    105          1           0        6.468818    1.359223   -0.031306
    106          1           0        6.182523   -0.046886    0.619597
    107          1           0        7.434779   -0.856874   -1.664126
    108          1           0        8.004346    0.584211   -1.941713
    109          1           0        9.075172    1.003136    0.339904
    110          1           0        8.823547   -0.664984    0.737221
    111          1           0       10.354122    0.179963   -2.065400
    112          1           0        9.090224   -1.969381   -2.013537
    113          1           0       10.920929   -2.373230   -1.752175
    114          1           0        9.847838   -2.629898   -0.460197
    115          1           0       11.261878    0.925156    0.456318
    116          1           0       11.274217   -0.949534    0.952708
    117          1           0       12.829427   -1.507427   -0.732821
    118          1           0       12.769849    0.167768   -1.555775
    119          1           0       13.837714    0.956464    0.406977
    120          1           0       14.154799   -0.541009    1.255170
    121          1           0       15.577369    0.163410   -1.545904
    122          1           0       15.780459   -2.459058    0.301157
    123          1           0       15.074643   -2.312073   -1.317911
    124          1           0       16.620901   -1.798935   -1.143197
    125          1           0       16.039065    1.338494    0.677054
    126          1           0       16.358086   -0.430975    1.215196
    127          1           0       18.216164   -0.377250   -0.122564
    128          1           0       17.678045    1.125552   -1.026592
    129          1           0       18.479305    2.273039    0.990609
    130          1           0       18.919214    0.718408    1.501939
    131          1           0       20.674657    0.214689    0.107029
    132          1           0       19.585307    3.034456   -0.796057
    133          1           0       21.355424    2.491024   -1.672162
    134          1           0       19.592117    1.701658   -1.742158
    135          1           0       21.110903    1.355922    2.113322
    136          1           0       22.162794    2.257611    0.830557
    137          1           0       20.766989    2.810197    1.542615
 ---------------------------------------------------------------------
 Rotational constants (GHZ):           0.0640068           0.0061046           0.0057501
 Standard basis: 6-31G(d,p) (6D, 7F)
 There are  1339 symmetry adapted cartesian basis functions of A   symmetry.
 There are  1339 symmetry adapted basis functions of A   symmetry.
  1339 basis functions,  2348 primitive gaussians,  1339 cartesian basis functions
   241 alpha electrons      241 beta electrons
       nuclear repulsion energy      8749.2193617724 Hartrees.
 NAtoms=  137 NActive=  137 NUniq=  137 SFac= 1.00D+00 NAtFMM=   60 NAOKFM=T Big=T
 Integral buffers will be    131072 words long.
 Raffenetti 1 integral format.
 Two-electron integral symmetry is turned on.
 One-electron integrals computed using PRISM.
