 Entering Gaussian System, Link 0=g16
 Input=Geometria-162-.com
 Output=Geometria-162-.log
 Initial command:
 /usr/local/g09/l1.exe "/home/padawan/israel-mol/chlorophyll-a/spectra/emi/Gau-115597.inp" -scrdir="/home/padawan/israel-mol/chlorophyll-a/spectra/emi/"
 Entering Link 1 = /usr/local/g09/l1.exe PID=    115599.
  
 Copyright (c) 1988,1990,1992,1993,1995,1998,2003,2009,2013,
            Gaussian, Inc.  All Rights Reserved.
  
 This is part of the Gaussian(R) 09 program.  It is based on
 the Gaussian(R) 03 system (copyright 2003, Gaussian, Inc.),
 the Gaussian(R) 98 system (copyright 1998, Gaussian, Inc.),
 the Gaussian(R) 94 system (copyright 1995, Gaussian, Inc.),
 the Gaussian 92(TM) system (copyright 1992, Gaussian, Inc.),
 the Gaussian 90(TM) system (copyright 1990, Gaussian, Inc.),
 the Gaussian 88(TM) system (copyright 1988, Gaussian, Inc.),
 the Gaussian 86(TM) system (copyright 1986, Carnegie Mellon
 University), and the Gaussian 82(TM) system (copyright 1983,
 Carnegie Mellon University). Gaussian is a federally registered
 trademark of Gaussian, Inc.
  
 This software contains proprietary and confidential information,
 including trade secrets, belonging to Gaussian, Inc.
  
 This software is provided under written license and may be
 used, copied, transmitted, or stored only in accord with that
 written license.
  
 The following legend is applicable only to US Government
 contracts under FAR:
  
                    RESTRICTED RIGHTS LEGEND
  
 Use, reproduction and disclosure by the US Government is
 subject to restrictions as set forth in subparagraphs (a)
 and (c) of the Commercial Computer Software - Restricted
 Rights clause in FAR 52.227-19.
  
 Gaussian, Inc.
 340 Quinnipiac St., Bldg. 40, Wallingford CT 06492
  
  
 ---------------------------------------------------------------
 Warning -- This program may not be used in any manner that
 competes with the business of Gaussian, Inc. or will provide
 assistance to any competitor of Gaussian, Inc.  The licensee
 of this program is prohibited from giving any competitor of
 Gaussian, Inc. access to this program.  By using this program,
 the user acknowledges that Gaussian, Inc. is engaged in the
 business of creating and licensing software in the field of
 computational chemistry and represents and warrants to the
 licensee that it is not a competitor of Gaussian, Inc. and that
 it will not use this program in any manner prohibited above.
 ---------------------------------------------------------------
  

 Cite this work as:
 Gaussian 09, Revision D.01,
 M. J. Frisch, G. W. Trucks, H. B. Schlegel, G. E. Scuseria, 
 M. A. Robb, J. R. Cheeseman, G. Scalmani, V. Barone, B. Mennucci, 
 G. A. Petersson, H. Nakatsuji, M. Caricato, X. Li, H. P. Hratchian, 
 A. F. Izmaylov, J. Bloino, G. Zheng, J. L. Sonnenberg, M. Hada, 
 M. Ehara, K. Toyota, R. Fukuda, J. Hasegawa, M. Ishida, T. Nakajima, 
 Y. Honda, O. Kitao, H. Nakai, T. Vreven, J. A. Montgomery, Jr., 
 J. E. Peralta, F. Ogliaro, M. Bearpark, J. J. Heyd, E. Brothers, 
 K. N. Kudin, V. N. Staroverov, T. Keith, R. Kobayashi, J. Normand, 
 K. Raghavachari, A. Rendell, J. C. Burant, S. S. Iyengar, J. Tomasi, 
 M. Cossi, N. Rega, J. M. Millam, M. Klene, J. E. Knox, J. B. Cross, 
 V. Bakken, C. Adamo, J. Jaramillo, R. Gomperts, R. E. Stratmann, 
 O. Yazyev, A. J. Austin, R. Cammi, C. Pomelli, J. W. Ochterski, 
 R. L. Martin, K. Morokuma, V. G. Zakrzewski, G. A. Voth, 
 P. Salvador, J. J. Dannenberg, S. Dapprich, A. D. Daniels, 
 O. Farkas, J. B. Foresman, J. V. Ortiz, J. Cioslowski, 
 and D. J. Fox, Gaussian, Inc., Wallingford CT, 2013.
 
 ******************************************
 Gaussian 09:  ES64L-G09RevD.01 24-Apr-2013
                 3-Jul-2019 
 ******************************************
 %nproc=4
 Will use up to    4 processors via shared memory.
 %Mem=2GB
 -------------------------------------
 # td=(NStates=1) CAM-B3LYP/6-31G(d,p)
 -------------------------------------
 1/38=1/1;
 2/12=2,17=6,18=5,40=1/2;
 3/5=1,6=6,7=101,11=9,16=1,25=1,30=1,74=-40/1,2,8,3;
 4//1;
 5/5=2,38=5/2;
 8/6=1,10=2,108=1/1;
 9/41=1,42=1,70=2/14;
 6/7=2,8=2,9=2,10=2/1;
 99/5=1,9=1/99;
 --
 TD
 --
 Symbolic Z-matrix:
 Charge =  0 Multiplicity = 1
 12                   -7.16868   0.58084   0.08177 
 6                    -4.78893  -1.92643   0.44632 
 6                    -4.84597   2.78436   1.28688 
 6                    -9.42009   3.09026  -0.36219 
 6                    -9.55353  -1.67064  -0.84236 
 7                    -5.13621   0.36677   0.71103 
 6                    -4.28203  -0.73563   0.59895 
 6                    -2.81567  -0.31186   1.10737 
 6                    -2.98834   1.15827   1.57597 
 6                    -4.40863   1.47658   1.20436 
 6                    -2.96487   1.15716   3.16142 
 6                    -1.78767  -0.58662  -0.06631 
 6                    -0.39156  -0.40429   0.34369 
 6                     0.60803  -0.67643  -0.73451 
 8                     0.34029  -1.15214  -1.84731 
 8                     1.83858  -0.41563  -0.3413 
 7                    -7.13337   2.64047   0.30909 
 6                    -6.03299   3.32762   0.75308 
 6                    -6.44327   4.76648   0.87087 
 6                    -7.72076   4.82033   0.36443 
 6                    -8.13747   3.46642   0.12262 
 6                    -5.46135   5.91495   1.2598 
 6                    -8.54008   5.97096   0.14575 
 6                    -8.38278   7.09065   0.72787 
 7                    -9.18457   0.6402   -0.51293 
 6                    -9.85576   1.77781  -0.70386 
 6                    -11.18757   1.51761  -1.06937 
 6                    -11.30491   0.06664  -1.12911 
 6                    -9.94889  -0.29679  -0.87207 
 6                    -12.2798   2.40339  -1.3365 
 6                    -12.38629  -0.80199  -1.64588 
 6                    -12.32785  -1.21713  -3.20105 
 7                    -7.26528  -1.37261  -0.22831 
 6                    -8.27588  -2.20677  -0.49238 
 6                    -7.86535  -3.58259  -0.53175 
 6                    -6.54159  -3.53134  -0.08557 
 6                    -6.13434  -2.12713  -0.05706 
 6                    -8.58223  -4.82107  -0.81593 
 6                    -5.30831  -4.28921   0.21577 
 8                    -5.18491  -5.50379   0.22508 
 6                    -4.19196  -3.4018    0.4803 
 6                    -3.63736  -3.67234   1.97287 
 8                    -4.01049  -3.06678   2.94204 
 8                    -2.80751  -4.69889   1.97676 
 6                    -2.23311  -5.08926   3.20432 
 6                     2.87909  -0.61703  -1.27658 
 6                     4.20762  -0.36136  -0.60861 
 6                     5.14271   0.38091  -1.00149 
 6                     5.1704    1.20996  -2.14365 
 6                     6.51893   0.45871  -0.21674 
 6                     7.68219  -0.03949  -1.07735 
 6                     8.98585  -0.14405  -0.20681 
 6                     10.23633  -0.59996  -0.91968 
 6                     10.13253  -2.11148  -1.29145 
 6                     11.43366  -0.36658  -0.02668 
 6                     12.79462  -0.58751  -0.53966 
 6                     13.97217  -0.14779   0.29574 
 6                     15.29838  -0.2335   -0.50973 
 6                     15.62624  -1.55956  -0.93204 
 6                     16.33326   0.45278   0.53133 
 6                     17.73639   0.61964  -0.18192 
 6                     18.79733   1.19276   0.76818 
 6                     20.222    1.35213   0.24069 
 6                     20.30333   2.13373  -0.99099 
 6                     21.06417   2.01645   1.31862 
 1                    -4.29582   3.49504   1.71049 
 1                    -10.17448   3.87692  -0.40445 
 1                    -10.27583  -2.32321  -1.11961 
 1                    -2.77438  -1.10392   1.8194 
 1                    -2.211     1.69046   1.10837 
 1                    -1.96239   0.7915    3.38359 
 1                    -3.41491   2.21169   3.49291 
 1                    -3.6428    0.50272   3.3627 
 1                    -1.70706  -1.71527  -0.33088 
 1                    -1.86472   0.11192  -0.98181 
 1                    -0.41909   0.74851   0.78526 
 1                    -0.0964   -0.87841   1.20699 
 1                    -5.68561   6.74476   0.68286 
 1                    -5.5182    5.98684   2.39987 
 1                    -4.34922   5.70879   1.11454 
 1                    -9.27471   5.79351  -0.50554 
 1                    -9.05473   7.90495   0.28613 
 1                    -7.60442   7.37861   1.52128 
 1                    -12.27994   2.92673  -2.22606 
 1                    -13.27868   2.01353  -1.35458 
 1                    -12.42304   3.16201  -0.38333 
 1                    -12.38443  -1.71093  -1.04614 
 1                    -13.31539  -0.32292  -1.43629 
 1                    -12.83359  -2.19111  -3.40433 
 1                    -12.41944  -0.42259  -3.93182 
 1                    -11.29862  -1.62037  -3.45609 
 1                    -9.26379  -4.69588  -1.61691 
 1                    -7.90518  -5.59172  -0.92048 
 1                    -9.26377  -5.15719   0.15015 
 1                    -3.24303  -3.82879  -0.14512 
 1                    -1.59146  -4.40872   3.70337 
 1                    -2.97262  -5.30785   3.87313 
 1                    -1.77377  -6.10644   2.78063 
 1                     2.58521  -1.63476  -1.65406 
 1                     2.62886   0.20892  -2.07797 
 1                     4.28145  -1.11942   0.11002 
 1                     4.07166   1.49299  -2.71795 
 1                     5.74284   2.2007   -2.08359 
 1                     5.62883   0.63983  -2.96104 
 1                     6.77449   1.35157   0.3407 
 1                     6.43779  -0.01868   0.65753 
 1                     7.55623  -1.17681  -1.51712 
 1                     7.75469   0.56503  -1.97815 
 1                     9.13224   0.90232   0.18408 
 1                     8.84756  -0.83523   0.77869 
 1                     10.59264   0.22017  -1.97972 
 1                     9.36235  -2.21823  -2.19563 
 1                     11.03223  -2.65634  -1.60467 
 1                     9.66219  -2.63099  -0.44811 
 1                     11.36269   0.55949   0.5202 
 1                     11.42904  -1.00118   0.96653 
 1                     13.03018  -1.81669  -0.6316 
 1                     12.77912  -0.09167  -1.54757 
 1                     13.89525   1.15738   0.33701 
 1                     13.93133  -0.53651   1.24796 
 1                     15.30583   0.21448  -1.40362 
 1                     15.99221  -2.15433   0.03117 
 1                     14.79411  -2.20117  -1.39848 
 1                     16.67586  -1.8683   -1.71793 
 1                     16.02259   1.33062   0.63065 
 1                     16.42316  -0.07958   1.44118 
 1                     18.00174  -0.38997  -0.83737 
 1                     17.43558   1.10551  -1.00298 
 1                     18.30412   2.0909    1.08841 
 1                     18.76965   0.6777    1.51405 
 1                     20.53242   0.33043   0.14839 
 1                     19.93402   3.1309   -0.89075 
 1                     21.29384   2.43342  -1.40085 
 1                     19.79978   1.88732  -1.92706 
 1                     21.10492   1.45582   2.19796 
 1                     22.01469   2.14582   0.88089 
 1                     20.67277   3.02484   1.3553 
 
 Stoichiometry    C55H72MgN4O5
 Framework group  C1[X(C55H72MgN4O5)]
 Deg. of freedom   405
 Full point group                 C1      NOp   1
 Largest Abelian subgroup         C1      NOp   1
 Largest concise Abelian subgroup C1      NOp   1
                         Standard orientation:                         
 ---------------------------------------------------------------------
 Center     Atomic      Atomic             Coordinates (Angstroms)
 Number     Number       Type             X           Y           Z
 ---------------------------------------------------------------------
      1         12           0       -7.168395    0.588460    0.073765
      2          6           0       -4.791204   -1.919861    0.447636
      3          6           0       -4.844834    2.793358    1.274692
      4          6           0       -9.417177    3.098597   -0.379395
      5          6           0       -9.554398   -1.663541   -0.846101
      6          7           0       -5.136686    0.374392    0.705486
      7          6           0       -4.283382   -0.729078    0.597325
      8          6           0       -2.817112   -0.305151    1.105869
      9          6           0       -2.988906    1.166462    1.570112
     10          6           0       -4.408572    1.484964    1.196304
     11          6           0       -2.966873    1.169856    3.155579
     12          6           0       -1.788294   -0.584171   -0.066091
     13          6           0       -0.392389   -0.401905    0.344657
     14          6           0        0.607935   -0.678000   -0.731851
     15          8           0        0.340775   -1.156647   -1.843534
     16          8           0        1.838352   -0.417164   -0.338270
     17          7           0       -7.131473    2.648701    0.295243
     18          6           0       -6.030886    3.336148    0.738269
     19          6           0       -6.439997    4.775697    0.851579
     20          6           0       -7.716983    4.829231    0.343834
     21          6           0       -8.134666    3.474998    0.105509
     22          6           0       -5.457416    5.924408    1.238126
     23          6           0       -8.535082    5.979951    0.121123
     24          6           0       -8.377318    7.101155    0.700186
     25          7           0       -9.183695    0.647903   -0.522925
     26          6           0       -9.853705    1.785556   -0.717712
     27          6           0      -11.185409    1.525493   -1.083690
     28          6           0      -11.303985    0.074464   -1.139399
     29          6           0       -9.948519   -0.289432   -0.880092
     30          6           0      -12.276610    2.411472   -1.354341
     31          6           0      -12.385665   -0.794682   -1.654665
     32          6           0      -12.326181   -1.214317   -3.208590
     33          7           0       -7.266443   -1.365775   -0.230821
     34          6           0       -8.277543   -2.199791   -0.493435
     35          6           0       -7.868201   -3.576081   -0.528502
     36          6           0       -6.544797   -3.524728   -0.081267
     37          6           0       -6.136327   -2.120806   -0.056396
     38          6           0       -8.585913   -4.814742   -0.809798
     39          6           0       -5.312459   -4.282829    0.223360
     40          8           0       -5.190146   -5.497488    0.236243
     41          6           0       -4.195571   -3.395647    0.486365
     42          6           0       -3.642566   -3.662421    1.980204
     43          8           0       -4.016036   -3.053769    2.947302
     44          8           0       -2.813627   -4.689691    1.987776
     45          6           0       -2.240688   -5.077061    3.216965
     46          6           0        2.879535   -0.622152   -1.272024
     47          6           0        4.207687   -0.365755   -0.603581
     48          6           0        5.143785    0.374574   -0.997726
     49          6           0        5.173242    1.200335   -2.142220
     50          6           0        6.519360    0.453391   -0.211949
     51          6           0        7.682958   -0.048292   -1.070083
     52          6           0        8.985740   -0.151514   -0.198061
     53          6           0       10.236465   -0.610558   -0.908491
     54          6           0       10.131659   -2.123046   -1.276040
     55          6           0       11.433183   -0.375691   -0.015072
     56          6           0       12.794419   -0.599289   -0.526184
     57          6           0       13.971593   -0.158219    0.309028
     58          6           0       15.298455   -0.247400   -0.494984
     59          6           0       15.625532   -1.574956   -0.913214
     60          6           0       16.333000    0.440931    0.545050
     61          6           0       17.736924    0.604519   -0.167399
     62          6           0       18.797512    1.179405    0.782027
     63          6           0       20.222801    1.336009    0.255381
     64          6           0       20.305940    2.114024   -0.978449
     65          6           0       21.064578    2.002668    1.332175
     66          1           0       -4.294436    3.504757    1.696773
     67          1           0      -10.170833    3.885794   -0.424582
     68          1           0      -10.277029   -2.316261   -1.122142
     69          1           0       -2.777172   -1.095209    1.820195
     70          1           0       -2.210674    1.696633    1.101706
     71          1           0       -1.964918    0.803948    3.379707
     72          1           0       -3.416274    2.225722    3.483653
     73          1           0       -3.645561    0.516599    3.358110
     74          1           0       -1.708445   -1.713639   -0.327360
     75          1           0       -1.863891    0.111824   -0.983646
     76          1           0       -0.419297    0.752179    0.782911
     77          1           0       -0.098433   -0.873817    1.209580
     78          1           0       -5.680411    6.752765    0.658620
     79          1           0       -5.515230    5.999600    2.377929
     80          1           0       -4.345333    5.716850    1.094469
     81          1           0       -9.269276    5.801289   -0.530327
     82          1           0       -9.048141    7.914790    0.255513
     83          1           0       -7.599421    7.390700    1.493480
     84          1           0      -12.275486    2.932272   -2.245386
     85          1           0      -13.275819    2.022438   -1.372213
     86          1           0      -12.420049    3.172939   -0.403469
     87          1           0      -12.385154   -1.701910   -1.052337
     88          1           0      -13.314527   -0.314196   -1.447291
     89          1           0      -12.832598   -2.188426   -3.409555
     90          1           0      -12.416400   -0.421778   -3.941709
     91          1           0      -11.297073   -1.619185   -3.461552
     92          1           0       -9.266636   -4.691232   -1.611756
     93          1           0       -7.909456   -5.586279   -0.911535
     94          1           0       -9.268626   -5.147497    0.156621
     95          1           0       -3.246456   -3.825258   -0.136969
     96          1           0       -1.598881   -4.395661    3.714662
     97          1           0       -2.980990   -5.293087    3.885729
     98          1           0       -1.781857   -6.095848    2.796604
     99          1           0        2.585093   -1.640691   -1.646865
    100          1           0        2.630763    0.201723   -2.075996
    101          1           0        4.280191   -1.121825    0.117281
    102          1           0        4.075275    1.482689   -2.718325
    103          1           0        5.746509    2.190733   -2.084473
    104          1           0        5.631913    0.627461   -2.957569
    105          1           0        6.775209    1.347614    0.343168
    106          1           0        6.437007   -0.021427    0.663599
    107          1           0        7.556396   -1.186744   -1.506718
    108          1           0        7.756812    0.553594   -1.972534
    109          1           0        9.132697    0.895836    0.189973
    110          1           0        8.845947   -0.839755    0.789279
    111          1           0       10.594454    0.206229   -1.970543
    112          1           0        9.362205   -2.231694   -2.180605
    113          1           0       11.031155   -2.669593   -1.586889
    114          1           0        9.660094   -2.639724   -0.431651
    115          1           0       11.362545    0.551997    0.529104
    116          1           0       11.427100   -1.007445    0.979940
    117          1           0       13.028966   -1.828931   -0.614399
    118          1           0       12.780269   -0.106310   -1.535513
    119          1           0       13.895796    1.147125    0.346508
    120          1           0       13.929545   -0.544191    1.262321
    121          1           0       15.307120    0.198018   -1.390147
    122          1           0       15.990094   -2.167289    0.052026
    123          1           0       14.793255   -2.217158   -1.378572
    124          1           0       16.675583   -1.886863   -1.697266
    125          1           0       16.023018    1.319326    0.641585
    126          1           0       16.421603   -0.088906    1.456496
    127          1           0       18.001977   -0.407191   -0.819717
    128          1           0       17.437291    1.088303   -0.990115
    129          1           0       18.304808    2.078897    1.099244
    130          1           0       18.768704    0.666505    1.529342
    131          1           0       20.532396    0.313779    0.166282
    132          1           0       19.937418    3.111797   -0.881393
    133          1           0       21.297088    2.411666   -1.388263
    134          1           0       19.803023    1.865387   -1.914269
    135          1           0       21.104033    1.444513    2.213150
    136          1           0       22.015614    2.129940    0.894947
    137          1           0       20.674038    3.011502    1.365620
 ---------------------------------------------------------------------
 Rotational constants (GHZ):      0.0651434      0.0060874      0.0057413
 Standard basis: 6-31G(d,p) (6D, 7F)
 There are  1339 symmetry adapted cartesian basis functions of A   symmetry.
 There are  1339 symmetry adapted basis functions of A   symmetry.
  1339 basis functions,  2348 primitive gaussians,  1339 cartesian basis functions
   241 alpha electrons      241 beta electrons
       nuclear repulsion energy      8758.6281304512 Hartrees.
 NAtoms=  137 NActive=  137 NUniq=  137 SFac= 1.00D+00 NAtFMM=   60 NAOKFM=T Big=T
 Integral buffers will be    131072 words long.
 Raffenetti 1 integral format.
 Two-electron integral symmetry is turned on.
 One-electron integrals computed using PRISM.
 NBasis=  1339 RedAO= T EigKep=  3.95D-04  NBF=  1339
 NBsUse=  1339 1.00D-06 EigRej= -1.00D+00 NBFU=  1339
 ExpMin= 4.21D-02 ExpMax= 1.17D+04 ExpMxC= 1.76D+03 IAcc=2 IRadAn=         4 AccDes= 0.00D+00
 Harris functional with IExCor=20419 and IRadAn=       4 diagonalized for initial guess.
 HarFok:  IExCor=20419 AccDes= 0.00D+00 IRadAn=         4 IDoV= 1 UseB2=F ITyADJ=14
 ICtDFT=  3500011 ScaDFX=  1.000000  1.000000  1.000000  1.000000
 FoFCou: FMM=F IPFlag=           0 FMFlag=      100000 FMFlg1=        2001
         NFxFlg=           0 DoJE=T BraDBF=F KetDBF=T FulRan=T
         wScrn=  0.000000 ICntrl=     500 IOpCl=  0 I1Cent=   200000004 NGrid=           0
         NMat0=    1 NMatS0=      1 NMatT0=    0 NMatD0=    1 NMtDS0=    0 NMtDT0=    0
 Petite list used in FoFCou.
 Requested convergence on RMS density matrix=1.00D-08 within 128 cycles.
 Requested convergence on MAX density matrix=1.00D-06.
 Requested convergence on             energy=1.00D-06.
 No special actions if energy rises.
 SCF Done:  E(RCAM-B3LYP) =  -2932.54964212     A.U. after   18 cycles
            NFock= 18  Conv=0.73D-08     -V/T= 2.0085
 DoSCS=F DFT=T ScalE2(SS,OS)=  1.000000  1.000000
 ExpMin= 4.21D-02 ExpMax= 1.17D+04 ExpMxC= 1.76D+03 IAcc=3 IRadAn=         5 AccDes= 0.00D+00
 HarFok:  IExCor=  205 AccDes= 0.00D+00 IRadAn=         5 IDoV=-2 UseB2=F ITyADJ=14
 ICtDFT= 12500011 ScaDFX=  1.000000  1.000000  1.000000  1.000000
 Range of M.O.s used for correlation:    70  1339
 NBasis=  1339 NAE=   241 NBE=   241 NFC=    69 NFV=     0
 NROrb=   1270 NOA=   172 NOB=   172 NVA=  1098 NVB=  1098
 Would need an additional       2415464100000 words for in-memory AO integral storage.
 Orbital symmetries:
       Occupied  (A) (A) (A) (A) (A) (A) (A) (A) (A) (A) (A) (A)
                 (A) (A) (A) (A) (A) (A) (A) (A) (A) (A) (A) (A)
                 (A) (A) (A) (A) (A) (A) (A) (A) (A) (A) (A) (A)
                 (A) (A) (A) (A) (A) (A) (A) (A) (A) (A) (A) (A)
                 (A) (A) (A) (A) (A) (A) (A) (A) (A) (A) (A) (A)
                 (A) (A) (A) (A) (A) (A) (A) (A) (A) (A) (A) (A)
                 (A) (A) (A) (A) (A) (A) (A) (A) (A) (A) (A) (A)
                 (A) (A) (A) (A) (A) (A) (A) (A) (A) (A) (A) (A)
                 (A) (A) (A) (A) (A) (A) (A) (A) (A) (A) (A) (A)
                 (A) (A) (A) (A) (A) (A) (A) (A) (A) (A) (A) (A)
                 (A) (A) (A) (A) (A) (A) (A) (A) (A) (A) (A) (A)
                 (A) (A) (A) (A) (A) (A) (A) (A) (A) (A) (A) (A)
                 (A) (A) (A) (A) (A) (A) (A) (A) (A) (A) (A) (A)
                 (A) (A) (A) (A) (A) (A) (A) (A) (A) (A) (A) (A)
                 (A) (A) (A) (A) (A) (A) (A) (A) (A) (A) (A) (A)
                 (A) (A) (A) (A) (A) (A) (A) (A) (A) (A) (A) (A)
                 (A) (A) (A) (A) (A) (A) (A) (A) (A) (A) (A) (A)
                 (A) (A) (A) (A) (A) (A) (A) (A) (A) (A) (A) (A)
                 (A) (A) (A) (A) (A) (A) (A) (A) (A) (A) (A) (A)
                 (A) (A) (A) (A) (A) (A) (A) (A) (A) (A) (A) (A)
                 (A)
       Virtual   (A) (A) (A) (A) (A) (A) (A) (A) (A) (A) (A) (A)
                 (A) (A) (A) (A) (A) (A) (A) (A) (A) (A) (A) (A)
                 (A) (A) (A) (A) (A) (A) (A) (A) (A) (A) (A) (A)
                 (A) (A) (A) (A) (A) (A) (A) (A) (A) (A) (A) (A)
                 (A) (A) (A) (A) (A) (A) (A) (A) (A) (A) (A) (A)
                 (A) (A) (A) (A) (A) (A) (A) (A) (A) (A) (A) (A)
                 (A) (A) (A) (A) (A) (A) (A) (A) (A) (A) (A) (A)
                 (A) (A) (A) (A) (A) (A) (A) (A) (A) (A) (A) (A)
                 (A) (A) (A) (A) (A) (A) (A) (A) (A) (A) (A) (A)
                 (A) (A) (A) (A) (A) (A) (A) (A) (A) (A) (A) (A)
                 (A) (A) (A) (A) (A) (A) (A) (A) (A) (A) (A) (A)
                 (A) (A) (A) (A) (A) (A) (A) (A) (A) (A) (A) (A)
                 (A) (A) (A) (A) (A) (A) (A) (A) (A) (A) (A) (A)
                 (A) (A) (A) (A) (A) (A) (A) (A) (A) (A) (A) (A)
                 (A) (A) (A) (A) (A) (A) (A) (A) (A) (A) (A) (A)
                 (A) (A) (A) (A) (A) (A) (A) (A) (A) (A) (A) (A)
                 (A) (A) (A) (A) (A) (A) (A) (A) (A) (A) (A) (A)
                 (A) (A) (A) (A) (A) (A) (A) (A) (A) (A) (A) (A)
                 (A) (A) (A) (A) (A) (A) (A) (A) (A) (A) (A) (A)
                 (A) (A) (A) (A) (A) (A) (A) (A) (A) (A) (A) (A)
                 (A) (A) (A) (A) (A) (A) (A) (A) (A) (A) (A) (A)
                 (A) (A) (A) (A) (A) (A) (A) (A) (A) (A) (A) (A)
                 (A) (A) (A) (A) (A) (A) (A) (A) (A) (A) (A) (A)
                 (A) (A) (A) (A) (A) (A) (A) (A) (A) (A) (A) (A)
                 (A) (A) (A) (A) (A) (A) (A) (A) (A) (A) (A) (A)
                 (A) (A) (A) (A) (A) (A) (A) (A) (A) (A) (A) (A)
                 (A) (A) (A) (A) (A) (A) (A) (A) (A) (A) (A) (A)
                 (A) (A) (A) (A) (A) (A) (A) (A) (A) (A) (A) (A)
                 (A) (A) (A) (A) (A) (A) (A) (A) (A) (A) (A) (A)
                 (A) (A) (A) (A) (A) (A) (A) (A) (A) (A) (A) (A)
                 (A) (A) (A) (A) (A) (A) (A) (A) (A) (A) (A) (A)
                 (A) (A) (A) (A) (A) (A) (A) (A) (A) (A) (A) (A)
                 (A) (A) (A) (A) (A) (A) (A) (A) (A) (A) (A) (A)
                 (A) (A) (A) (A) (A) (A) (A) (A) (A) (A) (A) (A)
                 (A) (A) (A) (A) (A) (A) (A) (A) (A) (A) (A) (A)
                 (A) (A) (A) (A) (A) (A) (A) (A) (A) (A) (A) (A)
                 (A) (A) (A) (A) (A) (A) (A) (A) (A) (A) (A) (A)
                 (A) (A) (A) (A) (A) (A) (A) (A) (A) (A) (A) (A)
                 (A) (A) (A) (A) (A) (A) (A) (A) (A) (A) (A) (A)
                 (A) (A) (A) (A) (A) (A) (A) (A) (A) (A) (A) (A)
                 (A) (A) (A) (A) (A) (A) (A) (A) (A) (A) (A) (A)
                 (A) (A) (A) (A) (A) (A) (A) (A) (A) (A) (A) (A)
                 (A) (A) (A) (A) (A) (A) (A) (A) (A) (A) (A) (A)
                 (A) (A) (A) (A) (A) (A) (A) (A) (A) (A) (A) (A)
                 (A) (A) (A) (A) (A) (A) (A) (A) (A) (A) (A) (A)
                 (A) (A) (A) (A) (A) (A) (A) (A) (A) (A) (A) (A)
                 (A) (A) (A) (A) (A) (A) (A) (A) (A) (A) (A) (A)
                 (A) (A) (A) (A) (A) (A) (A) (A) (A) (A) (A) (A)
                 (A) (A) (A) (A) (A) (A) (A) (A) (A) (A) (A) (A)
                 (A) (A) (A) (A) (A) (A) (A) (A) (A) (A) (A) (A)
                 (A) (A) (A) (A) (A) (A) (A) (A) (A) (A) (A) (A)
                 (A) (A) (A) (A) (A) (A) (A) (A) (A) (A) (A) (A)
                 (A) (A) (A) (A) (A) (A) (A) (A) (A) (A) (A) (A)
                 (A) (A) (A) (A) (A) (A) (A) (A) (A) (A) (A) (A)
                 (A) (A) (A) (A) (A) (A) (A) (A) (A) (A) (A) (A)
                 (A) (A) (A) (A) (A) (A) (A) (A) (A) (A) (A) (A)
                 (A) (A) (A) (A) (A) (A) (A) (A) (A) (A) (A) (A)
                 (A) (A) (A) (A) (A) (A) (A) (A) (A) (A) (A) (A)
                 (A) (A) (A) (A) (A) (A) (A) (A) (A) (A) (A) (A)
                 (A) (A) (A) (A) (A) (A) (A) (A) (A) (A) (A) (A)
                 (A) (A) (A) (A) (A) (A) (A) (A) (A) (A) (A) (A)
                 (A) (A) (A) (A) (A) (A) (A) (A) (A) (A) (A) (A)
                 (A) (A) (A) (A) (A) (A) (A) (A) (A) (A) (A) (A)
                 (A) (A) (A) (A) (A) (A) (A) (A) (A) (A) (A) (A)
                 (A) (A) (A) (A) (A) (A) (A) (A) (A) (A) (A) (A)
                 (A) (A) (A) (A) (A) (A) (A) (A) (A) (A) (A) (A)
                 (A) (A) (A) (A) (A) (A) (A) (A) (A) (A) (A) (A)
                 (A) (A) (A) (A) (A) (A) (A) (A) (A) (A) (A) (A)
                 (A) (A) (A) (A) (A) (A) (A) (A) (A) (A) (A) (A)
                 (A) (A) (A) (A) (A) (A) (A) (A) (A) (A) (A) (A)
                 (A) (A) (A) (A) (A) (A) (A) (A) (A) (A) (A) (A)
                 (A) (A) (A) (A) (A) (A) (A) (A) (A) (A) (A) (A)
                 (A) (A) (A) (A) (A) (A) (A) (A) (A) (A) (A) (A)
                 (A) (A) (A) (A) (A) (A) (A) (A) (A) (A) (A) (A)
                 (A) (A) (A) (A) (A) (A) (A) (A) (A) (A) (A) (A)
                 (A) (A) (A) (A) (A) (A) (A) (A) (A) (A) (A) (A)
                 (A) (A) (A) (A) (A) (A) (A) (A) (A) (A) (A) (A)
                 (A) (A) (A) (A) (A) (A) (A) (A) (A) (A) (A) (A)
                 (A) (A) (A) (A) (A) (A) (A) (A) (A) (A) (A) (A)
                 (A) (A) (A) (A) (A) (A) (A) (A) (A) (A) (A) (A)
                 (A) (A) (A) (A) (A) (A) (A) (A) (A) (A) (A) (A)
                 (A) (A) (A) (A) (A) (A) (A) (A) (A) (A) (A) (A)
                 (A) (A) (A) (A) (A) (A) (A) (A) (A) (A) (A) (A)
                 (A) (A) (A) (A) (A) (A) (A) (A) (A) (A) (A) (A)
                 (A) (A) (A) (A) (A) (A) (A) (A) (A) (A) (A) (A)
                 (A) (A) (A) (A) (A) (A) (A) (A) (A) (A) (A) (A)
                 (A) (A) (A) (A) (A) (A) (A) (A) (A) (A) (A) (A)
                 (A) (A) (A) (A) (A) (A) (A) (A) (A) (A) (A) (A)
                 (A) (A) (A) (A) (A) (A) (A) (A) (A) (A) (A) (A)
                 (A) (A) (A) (A) (A) (A) (A) (A) (A) (A) (A) (A)
                 (A) (A) (A) (A) (A) (A) (A) (A) (A) (A) (A) (A)
                 (A) (A) (A) (A) (A) (A)
     8 initial guesses have been made.
 Convergence on wavefunction:    0.001000000000000
 Iteration     1 Dimension     8 NMult     0 NNew      8
 CISAX will form     8 AO SS matrices at one time.
 Iteration     2 Dimension    12 NMult     8 NNew      4
 Iteration     3 Dimension    16 NMult    12 NNew      4
 Iteration     4 Dimension    20 NMult    16 NNew      4
 Iteration     5 Dimension    24 NMult    20 NNew      4
 Iteration     6 Dimension    28 NMult    24 NNew      4
 ***********************************************************************
 Excited states from <AA,BB:AA,BB> singles matrix:
 ***********************************************************************
 
 Ground to excited state transition densities written to RWF  633
 Ground to excited state transition electric dipole moments (Au):
       state          X           Y           Z        Dip. S.      Osc.
         1         0.1706      2.0180      0.2912      4.1863      0.2110
 Ground to excited state transition velocity dipole moments (Au):
       state          X           Y           Z        Dip. S.      Osc.
         1        -0.0118     -0.1477     -0.0209      0.0224      0.1973
 Ground to excited state transition magnetic dipole moments (Au):
       state          X           Y           Z
         1        -0.5873     -0.4795      3.7620
 Ground to excited state transition velocity quadrupole moments (Au):
       state          XX          YY          ZZ          XY          XZ          YZ
         1         0.2839     -0.1849     -0.0578      1.8269      0.2095     -0.1635
 <0|del|b> * <b|rxdel|0> + <0|del|b> * <b|delr+rdel|0>
 Rotatory Strengths (R) in cgs (10**-40 erg-esu-cm/Gauss)
       state          XX          YY          ZZ    R(velocity)    E-M Angle
         1       -70.5476   -147.5868    209.8238     -2.7702       90.09
 1/2[<0|r|b>*<b|rxdel|0> + (<0|rxdel|b>*<b|r|0>)*]
 Rotatory Strengths (R) in cgs (10**-40 erg-esu-cm/Gauss)
       state          XX          YY          ZZ     R(length)
         1        70.8526    684.2162   -774.7087     -6.5466
  1/2[<0|del|b>*<b|r|0> + (<0|r|b>*<b|del|0>)*] (Au)
       state          X           Y           Z        Dip. S.   Osc.(frdel)
         1        -0.0020     -0.2980     -0.0061      0.3061      0.2041

 Excitation energies and oscillator strengths:
 
 Excited State   1:      Singlet-A      2.0577 eV  602.53 nm  f=0.2110  <S**2>=0.000
     240 -> 243        0.24673
     241 -> 242        0.65162
 This state for optimization and/or second-order correction.
 Total Energy, E(TD-HF/TD-KS) =  -2932.47402221    
 Copying the excited state density for this state as the 1-particle RhoCI density.
 SavETr:  write IOETrn=   770 NScale= 10 NData=  16 NLR=1 NState=    1 LETran=      28.

 **********************************************************************

            Population analysis using the SCF density.

 **********************************************************************

 Orbital symmetries:
       Occupied  (A) (A) (A) (A) (A) (A) (A) (A) (A) (A) (A) (A)
                 (A) (A) (A) (A) (A) (A) (A) (A) (A) (A) (A) (A)
                 (A) (A) (A) (A) (A) (A) (A) (A) (A) (A) (A) (A)
                 (A) (A) (A) (A) (A) (A) (A) (A) (A) (A) (A) (A)
                 (A) (A) (A) (A) (A) (A) (A) (A) (A) (A) (A) (A)
                 (A) (A) (A) (A) (A) (A) (A) (A) (A) (A) (A) (A)
                 (A) (A) (A) (A) (A) (A) (A) (A) (A) (A) (A) (A)
                 (A) (A) (A) (A) (A) (A) (A) (A) (A) (A) (A) (A)
                 (A) (A) (A) (A) (A) (A) (A) (A) (A) (A) (A) (A)
                 (A) (A) (A) (A) (A) (A) (A) (A) (A) (A) (A) (A)
                 (A) (A) (A) (A) (A) (A) (A) (A) (A) (A) (A) (A)
                 (A) (A) (A) (A) (A) (A) (A) (A) (A) (A) (A) (A)
                 (A) (A) (A) (A) (A) (A) (A) (A) (A) (A) (A) (A)
                 (A) (A) (A) (A) (A) (A) (A) (A) (A) (A) (A) (A)
                 (A) (A) (A) (A) (A) (A) (A) (A) (A) (A) (A) (A)
                 (A) (A) (A) (A) (A) (A) (A) (A) (A) (A) (A) (A)
                 (A) (A) (A) (A) (A) (A) (A) (A) (A) (A) (A) (A)
                 (A) (A) (A) (A) (A) (A) (A) (A) (A) (A) (A) (A)
                 (A) (A) (A) (A) (A) (A) (A) (A) (A) (A) (A) (A)
                 (A) (A) (A) (A) (A) (A) (A) (A) (A) (A) (A) (A)
                 (A)
       Virtual   (A) (A) (A) (A) (A) (A) (A) (A) (A) (A) (A) (A)
                 (A) (A) (A) (A) (A) (A) (A) (A) (A) (A) (A) (A)
                 (A) (A) (A) (A) (A) (A) (A) (A) (A) (A) (A) (A)
                 (A) (A) (A) (A) (A) (A) (A) (A) (A) (A) (A) (A)
                 (A) (A) (A) (A) (A) (A) (A) (A) (A) (A) (A) (A)
                 (A) (A) (A) (A) (A) (A) (A) (A) (A) (A) (A) (A)
                 (A) (A) (A) (A) (A) (A) (A) (A) (A) (A) (A) (A)
                 (A) (A) (A) (A) (A) (A) (A) (A) (A) (A) (A) (A)
                 (A) (A) (A) (A) (A) (A) (A) (A) (A) (A) (A) (A)
                 (A) (A) (A) (A) (A) (A) (A) (A) (A) (A) (A) (A)
                 (A) (A) (A) (A) (A) (A) (A) (A) (A) (A) (A) (A)
                 (A) (A) (A) (A) (A) (A) (A) (A) (A) (A) (A) (A)
                 (A) (A) (A) (A) (A) (A) (A) (A) (A) (A) (A) (A)
                 (A) (A) (A) (A) (A) (A) (A) (A) (A) (A) (A) (A)
                 (A) (A) (A) (A) (A) (A) (A) (A) (A) (A) (A) (A)
                 (A) (A) (A) (A) (A) (A) (A) (A) (A) (A) (A) (A)
                 (A) (A) (A) (A) (A) (A) (A) (A) (A) (A) (A) (A)
                 (A) (A) (A) (A) (A) (A) (A) (A) (A) (A) (A) (A)
                 (A) (A) (A) (A) (A) (A) (A) (A) (A) (A) (A) (A)
                 (A) (A) (A) (A) (A) (A) (A) (A) (A) (A) (A) (A)
                 (A) (A) (A) (A) (A) (A) (A) (A) (A) (A) (A) (A)
                 (A) (A) (A) (A) (A) (A) (A) (A) (A) (A) (A) (A)
                 (A) (A) (A) (A) (A) (A) (A) (A) (A) (A) (A) (A)
                 (A) (A) (A) (A) (A) (A) (A) (A) (A) (A) (A) (A)
                 (A) (A) (A) (A) (A) (A) (A) (A) (A) (A) (A) (A)
                 (A) (A) (A) (A) (A) (A) (A) (A) (A) (A) (A) (A)
                 (A) (A) (A) (A) (A) (A) (A) (A) (A) (A) (A) (A)
                 (A) (A) (A) (A) (A) (A) (A) (A) (A) (A) (A) (A)
                 (A) (A) (A) (A) (A) (A) (A) (A) (A) (A) (A) (A)
                 (A) (A) (A) (A) (A) (A) (A) (A) (A) (A) (A) (A)
                 (A) (A) (A) (A) (A) (A) (A) (A) (A) (A) (A) (A)
                 (A) (A) (A) (A) (A) (A) (A) (A) (A) (A) (A) (A)
                 (A) (A) (A) (A) (A) (A) (A) (A) (A) (A) (A) (A)
                 (A) (A) (A) (A) (A) (A) (A) (A) (A) (A) (A) (A)
                 (A) (A) (A) (A) (A) (A) (A) (A) (A) (A) (A) (A)
                 (A) (A) (A) (A) (A) (A) (A) (A) (A) (A) (A) (A)
                 (A) (A) (A) (A) (A) (A) (A) (A) (A) (A) (A) (A)
                 (A) (A) (A) (A) (A) (A) (A) (A) (A) (A) (A) (A)
                 (A) (A) (A) (A) (A) (A) (A) (A) (A) (A) (A) (A)
                 (A) (A) (A) (A) (A) (A) (A) (A) (A) (A) (A) (A)
                 (A) (A) (A) (A) (A) (A) (A) (A) (A) (A) (A) (A)
                 (A) (A) (A) (A) (A) (A) (A) (A) (A) (A) (A) (A)
                 (A) (A) (A) (A) (A) (A) (A) (A) (A) (A) (A) (A)
                 (A) (A) (A) (A) (A) (A) (A) (A) (A) (A) (A) (A)
                 (A) (A) (A) (A) (A) (A) (A) (A) (A) (A) (A) (A)
                 (A) (A) (A) (A) (A) (A) (A) (A) (A) (A) (A) (A)
                 (A) (A) (A) (A) (A) (A) (A) (A) (A) (A) (A) (A)
                 (A) (A) (A) (A) (A) (A) (A) (A) (A) (A) (A) (A)
                 (A) (A) (A) (A) (A) (A) (A) (A) (A) (A) (A) (A)
                 (A) (A) (A) (A) (A) (A) (A) (A) (A) (A) (A) (A)
                 (A) (A) (A) (A) (A) (A) (A) (A) (A) (A) (A) (A)
                 (A) (A) (A) (A) (A) (A) (A) (A) (A) (A) (A) (A)
                 (A) (A) (A) (A) (A) (A) (A) (A) (A) (A) (A) (A)
                 (A) (A) (A) (A) (A) (A) (A) (A) (A) (A) (A) (A)
                 (A) (A) (A) (A) (A) (A) (A) (A) (A) (A) (A) (A)
                 (A) (A) (A) (A) (A) (A) (A) (A) (A) (A) (A) (A)
                 (A) (A) (A) (A) (A) (A) (A) (A) (A) (A) (A) (A)
                 (A) (A) (A) (A) (A) (A) (A) (A) (A) (A) (A) (A)
                 (A) (A) (A) (A) (A) (A) (A) (A) (A) (A) (A) (A)
                 (A) (A) (A) (A) (A) (A) (A) (A) (A) (A) (A) (A)
                 (A) (A) (A) (A) (A) (A) (A) (A) (A) (A) (A) (A)
                 (A) (A) (A) (A) (A) (A) (A) (A) (A) (A) (A) (A)
                 (A) (A) (A) (A) (A) (A) (A) (A) (A) (A) (A) (A)
                 (A) (A) (A) (A) (A) (A) (A) (A) (A) (A) (A) (A)
                 (A) (A) (A) (A) (A) (A) (A) (A) (A) (A) (A) (A)
                 (A) (A) (A) (A) (A) (A) (A) (A) (A) (A) (A) (A)
                 (A) (A) (A) (A) (A) (A) (A) (A) (A) (A) (A) (A)
                 (A) (A) (A) (A) (A) (A) (A) (A) (A) (A) (A) (A)
                 (A) (A) (A) (A) (A) (A) (A) (A) (A) (A) (A) (A)
                 (A) (A) (A) (A) (A) (A) (A) (A) (A) (A) (A) (A)
                 (A) (A) (A) (A) (A) (A) (A) (A) (A) (A) (A) (A)
                 (A) (A) (A) (A) (A) (A) (A) (A) (A) (A) (A) (A)
                 (A) (A) (A) (A) (A) (A) (A) (A) (A) (A) (A) (A)
                 (A) (A) (A) (A) (A) (A) (A) (A) (A) (A) (A) (A)
                 (A) (A) (A) (A) (A) (A) (A) (A) (A) (A) (A) (A)
                 (A) (A) (A) (A) (A) (A) (A) (A) (A) (A) (A) (A)
                 (A) (A) (A) (A) (A) (A) (A) (A) (A) (A) (A) (A)
                 (A) (A) (A) (A) (A) (A) (A) (A) (A) (A) (A) (A)
                 (A) (A) (A) (A) (A) (A) (A) (A) (A) (A) (A) (A)
                 (A) (A) (A) (A) (A) (A) (A) (A) (A) (A) (A) (A)
                 (A) (A) (A) (A) (A) (A) (A) (A) (A) (A) (A) (A)
                 (A) (A) (A) (A) (A) (A) (A) (A) (A) (A) (A) (A)
                 (A) (A) (A) (A) (A) (A) (A) (A) (A) (A) (A) (A)
                 (A) (A) (A) (A) (A) (A) (A) (A) (A) (A) (A) (A)
                 (A) (A) (A) (A) (A) (A) (A) (A) (A) (A) (A) (A)
                 (A) (A) (A) (A) (A) (A) (A) (A) (A) (A) (A) (A)
                 (A) (A) (A) (A) (A) (A) (A) (A) (A) (A) (A) (A)
                 (A) (A) (A) (A) (A) (A) (A) (A) (A) (A) (A) (A)
                 (A) (A) (A) (A) (A) (A) (A) (A) (A) (A) (A) (A)
                 (A) (A) (A) (A) (A) (A) (A) (A) (A) (A) (A) (A)
                 (A) (A) (A) (A) (A) (A) (A) (A) (A) (A) (A) (A)
                 (A) (A) (A) (A) (A) (A)
 The electronic state is 1-A.
 Alpha  occ. eigenvalues --  -46.84363 -19.27194 -19.26165 -19.21384 -19.20516
 Alpha  occ. eigenvalues --  -19.18977 -14.41225 -14.39244 -14.39091 -14.38178
 Alpha  occ. eigenvalues --  -10.39709 -10.39119 -10.33835 -10.32205 -10.31551
 Alpha  occ. eigenvalues --  -10.30947 -10.29956 -10.29837 -10.29681 -10.29244
 Alpha  occ. eigenvalues --  -10.29231 -10.28735 -10.28522 -10.27935 -10.27802
 Alpha  occ. eigenvalues --  -10.27667 -10.27528 -10.27493 -10.27476 -10.27421
 Alpha  occ. eigenvalues --  -10.27389 -10.27388 -10.27298 -10.27279 -10.27171
 Alpha  occ. eigenvalues --  -10.26967 -10.26959 -10.26941 -10.26907 -10.26837
 Alpha  occ. eigenvalues --  -10.26828 -10.26484 -10.26249 -10.26122 -10.25988
 Alpha  occ. eigenvalues --  -10.25889 -10.25687 -10.25673 -10.25651 -10.25606
 Alpha  occ. eigenvalues --  -10.25487 -10.25419 -10.25369 -10.25191 -10.25080
 Alpha  occ. eigenvalues --  -10.24969 -10.24947 -10.24781 -10.24753 -10.24571
 Alpha  occ. eigenvalues --  -10.24240 -10.23500 -10.23342 -10.22963 -10.22442
 Alpha  occ. eigenvalues --   -3.13352  -1.88069  -1.87578  -1.87534  -1.20051
 Alpha  occ. eigenvalues --   -1.19420  -1.10573  -1.10131  -1.08341  -1.06225
 Alpha  occ. eigenvalues --   -1.04083  -1.03883  -1.01302  -0.92693  -0.92041
 Alpha  occ. eigenvalues --   -0.91518  -0.90460  -0.90235  -0.89985  -0.89385
 Alpha  occ. eigenvalues --   -0.88586  -0.88219  -0.87786  -0.87061  -0.86434
 Alpha  occ. eigenvalues --   -0.85679  -0.84336  -0.83808  -0.83465  -0.82489
 Alpha  occ. eigenvalues --   -0.82242  -0.81743  -0.80949  -0.80524  -0.78242
 Alpha  occ. eigenvalues --   -0.77902  -0.77260  -0.76695  -0.76492  -0.76212
 Alpha  occ. eigenvalues --   -0.76063  -0.75523  -0.75170  -0.74528  -0.72670
 Alpha  occ. eigenvalues --   -0.72049  -0.70710  -0.69946  -0.68798  -0.67850
 Alpha  occ. eigenvalues --   -0.67433  -0.66971  -0.65805  -0.65108  -0.64927
 Alpha  occ. eigenvalues --   -0.64471  -0.64410  -0.63504  -0.63445  -0.62404
 Alpha  occ. eigenvalues --   -0.61822  -0.61360  -0.61285  -0.60289  -0.59542
 Alpha  occ. eigenvalues --   -0.59197  -0.58675  -0.57788  -0.57601  -0.56843
 Alpha  occ. eigenvalues --   -0.56417  -0.55869  -0.55331  -0.55202  -0.54983
 Alpha  occ. eigenvalues --   -0.54715  -0.54539  -0.54073  -0.53718  -0.53517
 Alpha  occ. eigenvalues --   -0.52996  -0.52302  -0.52152  -0.51909  -0.51792
 Alpha  occ. eigenvalues --   -0.51641  -0.51548  -0.51321  -0.50967  -0.50771
 Alpha  occ. eigenvalues --   -0.50626  -0.50422  -0.50183  -0.50096  -0.49665
 Alpha  occ. eigenvalues --   -0.49360  -0.49207  -0.48889  -0.48823  -0.48632
 Alpha  occ. eigenvalues --   -0.48242  -0.48164  -0.47915  -0.47857  -0.47643
 Alpha  occ. eigenvalues --   -0.47593  -0.47105  -0.46906  -0.46765  -0.46478
 Alpha  occ. eigenvalues --   -0.45951  -0.45563  -0.45422  -0.45196  -0.45022
 Alpha  occ. eigenvalues --   -0.44737  -0.44635  -0.44516  -0.44335  -0.44129
 Alpha  occ. eigenvalues --   -0.43876  -0.43746  -0.43666  -0.43316  -0.43263
 Alpha  occ. eigenvalues --   -0.43065  -0.43040  -0.42870  -0.42573  -0.42419
 Alpha  occ. eigenvalues --   -0.42275  -0.42182  -0.41893  -0.41732  -0.41454
 Alpha  occ. eigenvalues --   -0.41346  -0.41075  -0.40846  -0.40751  -0.40078
 Alpha  occ. eigenvalues --   -0.39883  -0.39706  -0.39315  -0.39190  -0.39178
 Alpha  occ. eigenvalues --   -0.39042  -0.38766  -0.38391  -0.37675  -0.37446
 Alpha  occ. eigenvalues --   -0.37294  -0.37185  -0.36974  -0.36860  -0.36827
 Alpha  occ. eigenvalues --   -0.36383  -0.36014  -0.35495  -0.35441  -0.35227
 Alpha  occ. eigenvalues --   -0.35006  -0.34837  -0.34406  -0.34008  -0.33350
 Alpha  occ. eigenvalues --   -0.32923  -0.32534  -0.31492  -0.31372  -0.31060
 Alpha  occ. eigenvalues --   -0.29716  -0.28745  -0.27657  -0.27049  -0.22864
 Alpha  occ. eigenvalues --   -0.21024
 Alpha virt. eigenvalues --   -0.06130  -0.02998   0.01965   0.04254   0.05556
 Alpha virt. eigenvalues --    0.06181   0.06629   0.06697   0.07002   0.07790
 Alpha virt. eigenvalues --    0.08691   0.09880   0.10523   0.10606   0.11747
 Alpha virt. eigenvalues --    0.11768   0.12048   0.12206   0.12891   0.12986
 Alpha virt. eigenvalues --    0.13406   0.13701   0.14214   0.14335   0.14801
 Alpha virt. eigenvalues --    0.14969   0.15022   0.15357   0.15528   0.15639
 Alpha virt. eigenvalues --    0.15828   0.16061   0.16119   0.16325   0.16630
 Alpha virt. eigenvalues --    0.16790   0.17073   0.17167   0.17542   0.17740
 Alpha virt. eigenvalues --    0.17911   0.18322   0.18430   0.18643   0.18726
 Alpha virt. eigenvalues --    0.18834   0.18917   0.19112   0.19265   0.19485
 Alpha virt. eigenvalues --    0.19521   0.19930   0.20134   0.20161   0.20416
 Alpha virt. eigenvalues --    0.20428   0.20710   0.21048   0.21133   0.21181
 Alpha virt. eigenvalues --    0.21381   0.21474   0.21600   0.21740   0.21947
 Alpha virt. eigenvalues --    0.22249   0.22290   0.22572   0.22648   0.22869
 Alpha virt. eigenvalues --    0.22992   0.23352   0.23388   0.23594   0.23671
 Alpha virt. eigenvalues --    0.23853   0.23868   0.24109   0.24220   0.24376
 Alpha virt. eigenvalues --    0.24429   0.24619   0.24997   0.25122   0.25348
 Alpha virt. eigenvalues --    0.25479   0.25605   0.25832   0.26169   0.26322
 Alpha virt. eigenvalues --    0.26474   0.26768   0.26797   0.27278   0.27807
 Alpha virt. eigenvalues --    0.27911   0.28234   0.28324   0.28573   0.28897
 Alpha virt. eigenvalues --    0.29271   0.29598   0.29673   0.29708   0.29785
 Alpha virt. eigenvalues --    0.29886   0.30400   0.30524   0.30789   0.30935
 Alpha virt. eigenvalues --    0.31395   0.31737   0.31845   0.32118   0.32544
 Alpha virt. eigenvalues --    0.32811   0.32863   0.32990   0.33723   0.33765
 Alpha virt. eigenvalues --    0.34112   0.34203   0.34325   0.34933   0.35294
 Alpha virt. eigenvalues --    0.35557   0.35951   0.36061   0.36608   0.36886
 Alpha virt. eigenvalues --    0.37112   0.37150   0.37839   0.38632   0.39346
 Alpha virt. eigenvalues --    0.39578   0.39792   0.40120   0.40235   0.40902
 Alpha virt. eigenvalues --    0.41653   0.41727   0.42079   0.42263   0.43155
 Alpha virt. eigenvalues --    0.43870   0.44102   0.44186   0.45182   0.46114
 Alpha virt. eigenvalues --    0.46523   0.47557   0.47914   0.48428   0.49637
 Alpha virt. eigenvalues --    0.50532   0.51341   0.51713   0.52056   0.52524
 Alpha virt. eigenvalues --    0.52880   0.53244   0.53991   0.54318   0.54646
 Alpha virt. eigenvalues --    0.54787   0.54896   0.55286   0.55464   0.55767
 Alpha virt. eigenvalues --    0.55978   0.56175   0.56420   0.56803   0.57088
 Alpha virt. eigenvalues --    0.57359   0.57605   0.57686   0.58043   0.58428
 Alpha virt. eigenvalues --    0.58677   0.58708   0.58778   0.58822   0.59134
 Alpha virt. eigenvalues --    0.59206   0.59271   0.59650   0.59770   0.59842
 Alpha virt. eigenvalues --    0.59879   0.60168   0.60521   0.60770   0.60876
 Alpha virt. eigenvalues --    0.61072   0.61553   0.62489   0.62679   0.63035
 Alpha virt. eigenvalues --    0.63238   0.63505   0.63718   0.64184   0.64474
 Alpha virt. eigenvalues --    0.64704   0.64888   0.65237   0.65490   0.65743
 Alpha virt. eigenvalues --    0.65948   0.66228   0.66447   0.66502   0.66927
 Alpha virt. eigenvalues --    0.67115   0.67448   0.67649   0.67722   0.68208
 Alpha virt. eigenvalues --    0.68407   0.68834   0.69124   0.69270   0.69381
 Alpha virt. eigenvalues --    0.69729   0.70028   0.70194   0.70844   0.71207
 Alpha virt. eigenvalues --    0.71296   0.71467   0.72247   0.72387   0.72495
 Alpha virt. eigenvalues --    0.72630   0.72962   0.73083   0.73145   0.73526
 Alpha virt. eigenvalues --    0.73831   0.74114   0.74311   0.74451   0.74751
 Alpha virt. eigenvalues --    0.74877   0.75043   0.75636   0.75726   0.75995
 Alpha virt. eigenvalues --    0.76028   0.76598   0.76782   0.76993   0.77239
 Alpha virt. eigenvalues --    0.77583   0.77968   0.78206   0.78548   0.78752
 Alpha virt. eigenvalues --    0.79289   0.79322   0.79527   0.79688   0.79763
 Alpha virt. eigenvalues --    0.80287   0.80623   0.80776   0.80912   0.81181
 Alpha virt. eigenvalues --    0.81335   0.81519   0.81657   0.81967   0.82226
 Alpha virt. eigenvalues --    0.82495   0.82685   0.82728   0.83225   0.83286
 Alpha virt. eigenvalues --    0.83649   0.83773   0.84179   0.84262   0.84391
 Alpha virt. eigenvalues --    0.84602   0.85105   0.85243   0.85480   0.85766
 Alpha virt. eigenvalues --    0.85965   0.86068   0.86502   0.86616   0.86666
 Alpha virt. eigenvalues --    0.86989   0.87037   0.87258   0.87672   0.87863
 Alpha virt. eigenvalues --    0.88066   0.88368   0.88587   0.88748   0.88777
 Alpha virt. eigenvalues --    0.89109   0.89222   0.89559   0.89768   0.89996
 Alpha virt. eigenvalues --    0.90059   0.90203   0.90399   0.90636   0.90849
 Alpha virt. eigenvalues --    0.91344   0.91445   0.91561   0.91635   0.92135
 Alpha virt. eigenvalues --    0.92162   0.92685   0.92891   0.92932   0.92995
 Alpha virt. eigenvalues --    0.93405   0.93520   0.94038   0.94167   0.94382
 Alpha virt. eigenvalues --    0.94508   0.94643   0.94706   0.95126   0.95327
 Alpha virt. eigenvalues --    0.95805   0.95929   0.96126   0.96351   0.96444
 Alpha virt. eigenvalues --    0.96533   0.96664   0.96875   0.97282   0.97341
 Alpha virt. eigenvalues --    0.97639   0.98015   0.98222   0.98374   0.98815
 Alpha virt. eigenvalues --    0.99205   0.99240   0.99356   0.99745   1.00104
 Alpha virt. eigenvalues --    1.00241   1.00454   1.01116   1.01194   1.01237
 Alpha virt. eigenvalues --    1.01326   1.01611   1.01852   1.01908   1.02023
 Alpha virt. eigenvalues --    1.02126   1.02436   1.02703   1.02823   1.03019
 Alpha virt. eigenvalues --    1.03146   1.03291   1.03397   1.03516   1.03873
 Alpha virt. eigenvalues --    1.03987   1.04241   1.04348   1.04766   1.05077
 Alpha virt. eigenvalues --    1.05300   1.05653   1.05861   1.06254   1.06384
 Alpha virt. eigenvalues --    1.06752   1.06805   1.07203   1.07692   1.08144
 Alpha virt. eigenvalues --    1.08317   1.08591   1.08772   1.09141   1.09645
 Alpha virt. eigenvalues --    1.10058   1.10810   1.11286   1.11426   1.11526
 Alpha virt. eigenvalues --    1.12131   1.12249   1.12322   1.13042   1.13211
 Alpha virt. eigenvalues --    1.13447   1.13984   1.14938   1.15216   1.15801
 Alpha virt. eigenvalues --    1.15928   1.16976   1.17348   1.17768   1.18374
 Alpha virt. eigenvalues --    1.18693   1.18888   1.19365   1.20096   1.20394
 Alpha virt. eigenvalues --    1.20516   1.21237   1.21837   1.22481   1.23234
 Alpha virt. eigenvalues --    1.23512   1.24141   1.24491   1.25002   1.25596
 Alpha virt. eigenvalues --    1.26221   1.26818   1.26894   1.27255   1.27938
 Alpha virt. eigenvalues --    1.28400   1.29455   1.29821   1.30149   1.30721
 Alpha virt. eigenvalues --    1.30843   1.31541   1.32326   1.32726   1.33391
 Alpha virt. eigenvalues --    1.33884   1.33975   1.34225   1.34563   1.35145
 Alpha virt. eigenvalues --    1.35616   1.35878   1.36431   1.37082   1.37707
 Alpha virt. eigenvalues --    1.38153   1.38704   1.39492   1.40027   1.40551
 Alpha virt. eigenvalues --    1.41406   1.41981   1.42553   1.42726   1.43027
 Alpha virt. eigenvalues --    1.43234   1.43993   1.44878   1.45094   1.45649
 Alpha virt. eigenvalues --    1.46194   1.46711   1.47431   1.47737   1.49020
 Alpha virt. eigenvalues --    1.49201   1.49390   1.49905   1.49917   1.50432
 Alpha virt. eigenvalues --    1.50497   1.50935   1.52060   1.52193   1.52536
 Alpha virt. eigenvalues --    1.52915   1.53772   1.54020   1.54154   1.54810
 Alpha virt. eigenvalues --    1.55028   1.56132   1.56426   1.56640   1.57089
 Alpha virt. eigenvalues --    1.57434   1.57754   1.58261   1.58419   1.58799
 Alpha virt. eigenvalues --    1.59086   1.59443   1.59768   1.59937   1.60201
 Alpha virt. eigenvalues --    1.60385   1.60814   1.61392   1.61653   1.62206
 Alpha virt. eigenvalues --    1.63015   1.63828   1.64140   1.64669   1.64898
 Alpha virt. eigenvalues --    1.65334   1.66113   1.66274   1.66553   1.66779
 Alpha virt. eigenvalues --    1.67349   1.68048   1.68171   1.68779   1.69056
 Alpha virt. eigenvalues --    1.69538   1.69699   1.70412   1.70946   1.71615
 Alpha virt. eigenvalues --    1.72007   1.72222   1.72980   1.73592   1.74120
 Alpha virt. eigenvalues --    1.74180   1.74537   1.74670   1.75245   1.75557
 Alpha virt. eigenvalues --    1.76027   1.76319   1.76985   1.77369   1.77470
 Alpha virt. eigenvalues --    1.78329   1.78964   1.79171   1.79399   1.79964
 Alpha virt. eigenvalues --    1.80609   1.80728   1.80881   1.80895   1.81874
 Alpha virt. eigenvalues --    1.82309   1.82702   1.82835   1.83047   1.83410
 Alpha virt. eigenvalues --    1.83863   1.84585   1.84991   1.85532   1.85739
 Alpha virt. eigenvalues --    1.86078   1.86147   1.86541   1.87247   1.87599
 Alpha virt. eigenvalues --    1.87699   1.87935   1.88048   1.88255   1.88520
 Alpha virt. eigenvalues --    1.88782   1.88955   1.89214   1.89713   1.89986
 Alpha virt. eigenvalues --    1.90126   1.90537   1.90630   1.90724   1.90920
 Alpha virt. eigenvalues --    1.91208   1.91399   1.91722   1.91758   1.92620
 Alpha virt. eigenvalues --    1.92731   1.92907   1.93335   1.93441   1.93663
 Alpha virt. eigenvalues --    1.93938   1.94064   1.94339   1.94837   1.95109
 Alpha virt. eigenvalues --    1.95347   1.95358   1.95741   1.96080   1.96177
 Alpha virt. eigenvalues --    1.96487   1.96665   1.96846   1.97153   1.97367
 Alpha virt. eigenvalues --    1.97859   1.98171   1.98306   1.98858   1.99035
 Alpha virt. eigenvalues --    1.99375   1.99594   2.00163   2.00463   2.01078
 Alpha virt. eigenvalues --    2.01284   2.01722   2.02204   2.02305   2.02479
 Alpha virt. eigenvalues --    2.02848   2.03202   2.03328   2.03511   2.03842
 Alpha virt. eigenvalues --    2.03861   2.04202   2.04556   2.04637   2.05061
 Alpha virt. eigenvalues --    2.05370   2.05902   2.06140   2.06667   2.06797
 Alpha virt. eigenvalues --    2.07185   2.07533   2.08130   2.08397   2.08759
 Alpha virt. eigenvalues --    2.08882   2.09227   2.09578   2.10088   2.10311
 Alpha virt. eigenvalues --    2.10459   2.10507   2.10825   2.11230   2.11360
 Alpha virt. eigenvalues --    2.11579   2.11720   2.11871   2.12805   2.12935
 Alpha virt. eigenvalues --    2.12964   2.13180   2.13524   2.13888   2.14680
 Alpha virt. eigenvalues --    2.14973   2.15526   2.15852   2.16175   2.16239
 Alpha virt. eigenvalues --    2.16673   2.17119   2.17493   2.17547   2.18503
 Alpha virt. eigenvalues --    2.18601   2.18659   2.19128   2.19268   2.19356
 Alpha virt. eigenvalues --    2.20159   2.20325   2.20485   2.20735   2.21046
 Alpha virt. eigenvalues --    2.21370   2.21653   2.21928   2.22116   2.22318
 Alpha virt. eigenvalues --    2.22415   2.22784   2.22967   2.23382   2.23679
 Alpha virt. eigenvalues --    2.24122   2.24374   2.24539   2.24947   2.25757
 Alpha virt. eigenvalues --    2.26215   2.26683   2.27117   2.27268   2.27368
 Alpha virt. eigenvalues --    2.27997   2.28195   2.28386   2.28452   2.28636
 Alpha virt. eigenvalues --    2.29250   2.29419   2.29583   2.29956   2.30128
 Alpha virt. eigenvalues --    2.30529   2.30893   2.31349   2.31809   2.31946
 Alpha virt. eigenvalues --    2.32211   2.32428   2.32454   2.33011   2.33443
 Alpha virt. eigenvalues --    2.33510   2.34107   2.34341   2.34613   2.34770
 Alpha virt. eigenvalues --    2.35078   2.35795   2.36140   2.36297   2.36808
 Alpha virt. eigenvalues --    2.37069   2.37444   2.37459   2.37754   2.38016
 Alpha virt. eigenvalues --    2.38460   2.38723   2.39403   2.39884   2.40143
 Alpha virt. eigenvalues --    2.40517   2.40580   2.40668   2.41156   2.41521
 Alpha virt. eigenvalues --    2.41801   2.42248   2.42359   2.42602   2.42664
 Alpha virt. eigenvalues --    2.42894   2.43344   2.43967   2.44235   2.44589
 Alpha virt. eigenvalues --    2.45050   2.45159   2.45304   2.45402   2.45512
 Alpha virt. eigenvalues --    2.46209   2.46305   2.46473   2.47293   2.47507
 Alpha virt. eigenvalues --    2.47920   2.48495   2.49039   2.49293   2.49510
 Alpha virt. eigenvalues --    2.49961   2.50326   2.50483   2.50771   2.51081
 Alpha virt. eigenvalues --    2.51149   2.51535   2.52522   2.52655   2.52819
 Alpha virt. eigenvalues --    2.53068   2.53741   2.54279   2.54690   2.54959
 Alpha virt. eigenvalues --    2.55393   2.55905   2.56370   2.56551   2.56863
 Alpha virt. eigenvalues --    2.57506   2.57624   2.57995   2.58410   2.59231
 Alpha virt. eigenvalues --    2.59582   2.59797   2.60042   2.60150   2.60764
 Alpha virt. eigenvalues --    2.60910   2.61222   2.61967   2.62292   2.62645
 Alpha virt. eigenvalues --    2.63101   2.63807   2.64073   2.64203   2.64244
 Alpha virt. eigenvalues --    2.65020   2.65278   2.65401   2.65720   2.66383
 Alpha virt. eigenvalues --    2.67152   2.67461   2.68195   2.68296   2.68514
 Alpha virt. eigenvalues --    2.68763   2.69427   2.69785   2.69961   2.70155
 Alpha virt. eigenvalues --    2.70182   2.70892   2.71836   2.72040   2.72303
 Alpha virt. eigenvalues --    2.72787   2.72878   2.73097   2.73342   2.73556
 Alpha virt. eigenvalues --    2.73869   2.74132   2.74742   2.75191   2.75376
 Alpha virt. eigenvalues --    2.75560   2.75705   2.76398   2.76518   2.76898
 Alpha virt. eigenvalues --    2.77073   2.77380   2.77809   2.77886   2.78073
 Alpha virt. eigenvalues --    2.78325   2.78702   2.78868   2.78945   2.79279
 Alpha virt. eigenvalues --    2.79431   2.79867   2.80281   2.80685   2.81109
 Alpha virt. eigenvalues --    2.81427   2.81739   2.81904   2.82112   2.82413
 Alpha virt. eigenvalues --    2.82802   2.83018   2.83255   2.83683   2.84073
 Alpha virt. eigenvalues --    2.84620   2.84737   2.85831   2.85900   2.86251
 Alpha virt. eigenvalues --    2.86629   2.87129   2.87470   2.87711   2.87817
 Alpha virt. eigenvalues --    2.87964   2.88311   2.88727   2.88886   2.89372
 Alpha virt. eigenvalues --    2.89612   2.90110   2.90343   2.90878   2.91220
 Alpha virt. eigenvalues --    2.91439   2.92031   2.92248   2.92736   2.93251
 Alpha virt. eigenvalues --    2.93320   2.94014   2.94029   2.94580   2.95120
 Alpha virt. eigenvalues --    2.95936   2.96250   2.97110   2.97734   2.97994
 Alpha virt. eigenvalues --    2.98131   2.98710   2.99056   2.99297   2.99756
 Alpha virt. eigenvalues --    3.00614   3.00932   3.01148   3.01409   3.01821
 Alpha virt. eigenvalues --    3.01908   3.02466   3.02670   3.02782   3.03257
 Alpha virt. eigenvalues --    3.03461   3.04152   3.04335   3.05405   3.05848
 Alpha virt. eigenvalues --    3.06456   3.06715   3.07293   3.07798   3.08091
 Alpha virt. eigenvalues --    3.08454   3.08773   3.09068   3.09207   3.09616
 Alpha virt. eigenvalues --    3.10726   3.10951   3.11906   3.12493   3.13217
 Alpha virt. eigenvalues --    3.14390   3.15173   3.15724   3.16829   3.17528
 Alpha virt. eigenvalues --    3.17737   3.17850   3.20074   3.20776   3.20885
 Alpha virt. eigenvalues --    3.21258   3.22361   3.22873   3.23121   3.23456
 Alpha virt. eigenvalues --    3.23712   3.25569   3.26178   3.26508   3.27000
 Alpha virt. eigenvalues --    3.27220   3.28025   3.28632   3.28852   3.29725
 Alpha virt. eigenvalues --    3.30149   3.30997   3.32450   3.32980   3.33878
 Alpha virt. eigenvalues --    3.34669   3.34705   3.35840   3.37030   3.37038
 Alpha virt. eigenvalues --    3.38642   3.40794   3.41757   3.42020   3.43000
 Alpha virt. eigenvalues --    3.43992   3.45117   3.45406   3.46067   3.46162
 Alpha virt. eigenvalues --    3.46992   3.47147   3.47204   3.47270   3.47925
 Alpha virt. eigenvalues --    3.47943   3.48673   3.50596   3.50617   3.52171
 Alpha virt. eigenvalues --    3.52407   3.52801   3.53226   3.53538   3.54262
 Alpha virt. eigenvalues --    3.54853   3.55464   3.55905   3.56215   3.57158
 Alpha virt. eigenvalues --    3.57692   3.61495   3.61637   3.62093   3.63496
 Alpha virt. eigenvalues --    3.63891   3.64165   3.64719   3.65795   3.66227
 Alpha virt. eigenvalues --    3.68516   3.68647   3.68976   3.71631   3.71985
 Alpha virt. eigenvalues --    3.76745   3.78481   3.78907   3.79067   3.81720
 Alpha virt. eigenvalues --    3.85695   3.89932   3.98641   4.07995   4.11022
 Alpha virt. eigenvalues --    4.14889   4.16266   4.21627   4.22171   4.22815
 Alpha virt. eigenvalues --    4.23748   4.26503   4.27780   4.28212   4.28763
 Alpha virt. eigenvalues --    4.29471   4.29973   4.31010   4.33053   4.33602
 Alpha virt. eigenvalues --    4.34264   4.35854   4.37150   4.38829   4.39973
 Alpha virt. eigenvalues --    4.41062   4.43974   4.45734   4.46192   4.47146
 Alpha virt. eigenvalues --    4.48166   4.48701   4.49612   4.50575   4.50634
 Alpha virt. eigenvalues --    4.52521   4.53482   4.54105   4.55670   4.57350
 Alpha virt. eigenvalues --    4.58460   4.60125   4.60362   4.61145   4.61609
 Alpha virt. eigenvalues --    4.62845   4.63031   4.63649   4.64240   4.65945
 Alpha virt. eigenvalues --    4.69123   4.69842   4.71139   4.72313   4.72913
 Alpha virt. eigenvalues --    4.73916   4.76575   4.77335   4.80855   4.82534
 Alpha virt. eigenvalues --    4.84076   4.84820   4.87680   4.88820   4.89614
 Alpha virt. eigenvalues --    4.90821   4.95516   5.06944
          Condensed to atoms (all electrons):
 Mulliken charges:
               1
     1  Mg   0.825485
     2  C    0.092864
     3  C   -0.152380
     4  C   -0.184213
     5  C   -0.152290
     6  N   -0.629708
     7  C    0.242043
     8  C   -0.162081
     9  C   -0.148016
    10  C    0.319021
    11  C   -0.289895
    12  C   -0.162886
    13  C   -0.262925
    14  C    0.612584
    15  O   -0.499916
    16  O   -0.454102
    17  N   -0.707504
    18  C    0.278806
    19  C   -0.027748
    20  C    0.003411
    21  C    0.329124
    22  C   -0.371741
    23  C   -0.010746
    24  C   -0.262829
    25  N   -0.657335
    26  C    0.308886
    27  C    0.009282
    28  C    0.015787
    29  C    0.302916
    30  C   -0.395089
    31  C   -0.233153
    32  C   -0.320724
    33  N   -0.711421
    34  C    0.293496
    35  C    0.022881
    36  C   -0.016437
    37  C    0.234667
    38  C   -0.363182
    39  C    0.397136
    40  O   -0.483945
    41  C   -0.304061
    42  C    0.602194
    43  O   -0.461333
    44  O   -0.422279
    45  C   -0.092475
    46  C    0.003042
    47  C   -0.132324
    48  C    0.175179
    49  C   -0.386446
    50  C   -0.226492
    51  C   -0.171838
    52  C   -0.172792
    53  C   -0.017648
    54  C   -0.309420
    55  C   -0.160511
    56  C   -0.155349
    57  C   -0.151348
    58  C   -0.052638
    59  C   -0.286836
    60  C   -0.171898
    61  C   -0.198207
    62  C   -0.134242
    63  C   -0.062957
    64  C   -0.324582
    65  C   -0.304469
    66  H    0.061793
    67  H    0.094778
    68  H    0.071397
    69  H    0.122704
    70  H    0.110161
    71  H    0.109110
    72  H    0.096068
    73  H    0.148726
    74  H    0.110663
    75  H    0.116897
    76  H    0.091234
    77  H    0.138235
    78  H    0.134866
    79  H    0.119876
    80  H    0.109608
    81  H    0.084265
    82  H    0.085384
    83  H    0.108312
    84  H    0.131115
    85  H    0.119661
    86  H    0.084300
    87  H    0.107795
    88  H    0.109152
    89  H    0.106616
    90  H    0.119621
    91  H    0.098821
    92  H    0.120538
    93  H    0.156249
    94  H    0.103161
    95  H    0.158983
    96  H    0.130926
    97  H    0.143960
    98  H    0.122635
    99  H    0.133898
   100  H    0.099271
   101  H    0.094298
   102  H    0.083717
   103  H    0.117043
   104  H    0.140275
   105  H    0.103131
   106  H    0.105134
   107  H    0.075311
   108  H    0.109638
   109  H    0.091210
   110  H    0.083116
   111  H    0.021585
   112  H    0.087060
   113  H    0.115022
   114  H    0.109079
   115  H    0.093606
   116  H    0.058219
   117  H    0.061970
   118  H    0.083549
   119  H    0.040303
   120  H    0.106970
   121  H    0.103145
   122  H    0.075677
   123  H    0.103808
   124  H    0.053250
   125  H    0.106845
   126  H    0.091577
   127  H    0.050030
   128  H    0.100506
   129  H    0.080349
   130  H    0.092159
   131  H    0.091562
   132  H    0.100672
   133  H    0.090132
   134  H    0.104048
   135  H    0.103464
   136  H    0.102453
   137  H    0.100916
 Sum of Mulliken charges =   0.00000
 Mulliken charges with hydrogens summed into heavy atoms:
               1
     1  Mg   0.825485
     2  C    0.092864
     3  C   -0.090587
     4  C   -0.089435
     5  C   -0.080893
     6  N   -0.629708
     7  C    0.242043
     8  C   -0.039376
     9  C   -0.037856
    10  C    0.319021
    11  C    0.064010
    12  C    0.064675
    13  C   -0.033456
    14  C    0.612584
    15  O   -0.499916
    16  O   -0.454102
    17  N   -0.707504
    18  C    0.278806
    19  C   -0.027748
    20  C    0.003411
    21  C    0.329124
    22  C   -0.007391
    23  C    0.073519
    24  C   -0.069133
    25  N   -0.657335
    26  C    0.308886
    27  C    0.009282
    28  C    0.015787
    29  C    0.302916
    30  C   -0.060014
    31  C   -0.016206
    32  C    0.004334
    33  N   -0.711421
    34  C    0.293496
    35  C    0.022881
    36  C   -0.016437
    37  C    0.234667
    38  C    0.016766
    39  C    0.397136
    40  O   -0.483945
    41  C   -0.145078
    42  C    0.602194
    43  O   -0.461333
    44  O   -0.422279
    45  C    0.305046
    46  C    0.236212
    47  C   -0.038025
    48  C    0.175179
    49  C   -0.045412
    50  C   -0.018227
    51  C    0.013111
    52  C    0.001534
    53  C    0.003937
    54  C    0.001740
    55  C   -0.008686
    56  C   -0.009831
    57  C   -0.004075
    58  C    0.050508
    59  C   -0.054101
    60  C    0.026524
    61  C   -0.047671
    62  C    0.038267
    63  C    0.028605
    64  C   -0.029731
    65  C    0.002363
 Electronic spatial extent (au):  <R**2>=         179556.2923
 Charge=              0.0000 electrons
 Dipole moment (field-independent basis, Debye):
    X=              2.8045    Y=              3.9077    Z=              1.2196  Tot=              4.9622
 Quadrupole moment (field-independent basis, Debye-Ang):
   XX=           -365.1317   YY=           -394.5468   ZZ=           -394.5982
   XY=            -13.3217   XZ=             18.1853   YZ=             -6.7739
 Traceless Quadrupole moment (field-independent basis, Debye-Ang):
   XX=             19.6272   YY=             -9.7879   ZZ=             -9.8393
   XY=            -13.3217   XZ=             18.1853   YZ=             -6.7739
 Octapole moment (field-independent basis, Debye-Ang**2):
  XXX=           -682.2321  YYY=            102.7440  ZZZ=             25.2534  XYY=            -19.6468
  XXY=            127.6861  XXZ=           -138.6044  XZZ=             10.0710  YZZ=            -34.2293
  YYZ=             41.3234  XYZ=            -48.3000
 Hexadecapole moment (field-independent basis, Debye-Ang**3):
 XXXX=        -225565.2362 YYYY=         -17491.8443 ZZZZ=          -4225.6573 XXXY=           1318.4725
 XXXZ=           2923.9987 YYYX=           -699.7851 YYYZ=           -243.4719 ZZZX=             69.4508
 ZZZY=           -216.1453 XXYY=         -40366.8716 XXZZ=         -38458.0595 YYZZ=          -3407.4989
 XXYZ=           -574.4457 YYXZ=             37.7654 ZZXY=            114.6800
 N-N= 8.758628130451D+03 E-N=-2.434163590489D+04  KE= 2.907954973209D+03
 1\1\GINC-PEDRO-RYZENSSD\SP\RCAM-B3LYP TD-FC\6-31G(d,p)\C55H72Mg1N4O5\P
 ADAWAN\03-Jul-2019\0\\# td=(NStates=1) CAM-B3LYP/6-31G(d,p)\\TD\\0,1\M
 g,0,-7.1686774407,0.5808368318,0.081765864\C,0,-4.7889335114,-1.926433
 8218,0.4463211648\C,0,-4.8459745264,2.784356883,1.2868750524\C,0,-9.42
 00867442,3.090264522,-0.3621890786\C,0,-9.5535256663,-1.6706425753,-0.
 8423606652\N,0,-5.1362070453,0.3667664947,0.7110315215\C,0,-4.28202790
 89,-0.7356333853,0.598947918\C,0,-2.8156705725,-0.3118606118,1.1073710
 913\C,0,-2.9883422726,1.1582684951,1.5759683275\C,0,-4.4086278577,1.47
 65784066,1.2043574656\C,0,-2.9648715693,1.1571580039,3.1614175507\C,0,
 -1.7876722282,-0.5866239238,-0.066312673\C,0,-0.3915565783,-0.40429477
 67,0.3436884981\C,0,0.6080319404,-0.676431156,-0.7345088314\O,0,0.3402
 852686,-1.1521406217,-1.8473110628\O,0,1.8385756681,-0.4156289593,-0.3
 41300919\N,0,-7.1333737853,2.6404696368,0.3090896045\C,0,-6.0329925783
 ,3.3276237382,0.7530788415\C,0,-6.4432715803,4.7664809375,0.870867774\
 C,0,-7.7207647835,4.8203326648,0.3644348348\C,0,-8.1374680184,3.466415
 8369,0.1226248088\C,0,-5.4613540921,5.9149539613,1.2598007406\C,0,-8.5
 400818058,5.9709581295,0.1457515606\C,0,-8.3827821695,7.0906451831,0.7
 278690367\N,0,-9.1845707297,0.6401968808,-0.5129253262\C,0,-9.85576183
 59,1.7778077339,-0.7038567098\C,0,-11.1875678534,1.5176101001,-1.06936
 86564\C,0,-11.3049128952,0.0666420283,-1.1291116252\C,0,-9.9488905698,
 -0.2967916535,-0.8720722233\C,0,-12.2797968034,2.4033909101,-1.3365004
 248\C,0,-12.3862931756,-0.8019876089,-1.645875396\C,0,-12.3278502734,-
 1.2171341246,-3.2010452231\N,0,-7.2652759959,-1.3726068743,-0.22830750
 78\C,0,-8.2758778276,-2.2067658487,-0.4923841936\C,0,-7.8653526809,-3.
 5825865262,-0.5317504523\C,0,-6.5415880429,-3.5313374707,-0.0855702889
 \C,0,-6.13433603,-2.1271309944,-0.0570629021\C,0,-8.58222569,-4.821074
 9499,-0.8159300714\C,0,-5.3083053008,-4.2892128048,0.21577445\O,0,-5.1
 849073286,-5.5037948629,0.2250795387\C,0,-4.1919627757,-3.4017959694,0
 .4802978951\C,0,-3.6373643673,-3.6723424555,1.9728676597\O,0,-4.010492
 6499,-3.0667834145,2.9420368848\O,0,-2.8075119449,-4.6988946119,1.9767
 562565\C,0,-2.2331138993,-5.0892631554,3.204315367\C,0,2.8790904207,-0
 .6170294975,-1.2765788583\C,0,4.2076228513,-0.3613643127,-0.6086110101
 \C,0,5.1427077552,0.3809143568,-1.0014899217\C,0,5.1703954625,1.209963
 6457,-2.1436485302\C,0,6.5189262254,0.458707721,-0.216738159\C,0,7.682
 1857565,-0.0394942963,-1.077354686\C,0,8.9858504576,-0.1440495354,-0.2
 06812494\C,0,10.2363342579,-0.5999570674,-0.9196829388\C,0,10.13252995
 32,-2.1114820843,-1.2914526103\C,0,11.4336562425,-0.3665804388,-0.0266
 817996\C,0,12.7946243701,-0.5875128024,-0.5396639893\C,0,13.9721666851
 ,-0.1477859814,0.2957366412\C,0,15.2983759625,-0.2334970788,-0.5097292
 127\C,0,15.6262442933,-1.5595635902,-0.932042822\C,0,16.3332574316,0.4
 52779638,0.53132764\C,0,17.7363882282,0.6196433627,-0.181924007\C,0,18
 .7973301025,1.1927574927,0.7681772507\C,0,20.2220008693,1.3521255461,0
 .2406888321\C,0,20.303331687,2.1337316704,-0.9909900917\C,0,21.0641673
 475,2.0164545818,1.3186172251\H,0,-4.2958210666,3.4950350249,1.7104856
 355\H,0,-10.1744778405,3.8769185269,-0.4044458361\H,0,-10.2758308725,-
 2.323211662,-1.1196086131\H,0,-2.7743838953,-1.1039187058,1.8194026315
 \H,0,-2.2110047057,1.6904626289,1.1083714875\H,0,-1.9623906966,0.79149
 96029,3.3835920727\H,0,-3.4149065507,2.211685226,3.4929114565\H,0,-3.6
 427977225,0.5027249565,3.3626986827\H,0,-1.7070631912,-1.7152714875,-0
 .3308769969\H,0,-1.8647181443,0.1119184422,-0.9818082204\H,0,-0.419085
 4259,0.7485094648,0.785258925\H,0,-0.0963974417,-0.8784123564,1.206994
 6547\H,0,-5.6856073361,6.7447631204,0.6828639956\H,0,-5.5181988093,5.9
 868420473,2.3998662837\H,0,-4.3492188779,5.7087920456,1.1145446301\H,0
 ,-9.2747095235,5.7935054986,-0.5055407823\H,0,-9.0547266886,7.90495123
 4,0.2861282346\H,0,-7.6044199078,7.3786142609,1.5212805136\H,0,-12.279
 9420993,2.9267329993,-2.2260556103\H,0,-13.278677537,2.0135252437,-1.3
 545766492\H,0,-12.4230440355,3.1620148562,-0.383329577\H,0,-12.3844332
 217,-1.7109305382,-1.0461395689\H,0,-13.3153902579,-0.3229190287,-1.43
 62891564\H,0,-12.8335897116,-2.1911137976,-3.4043303175\H,0,-12.419435
 5078,-0.4225867963,-3.9318166774\H,0,-11.2986161409,-1.6203669038,-3.4
 560942294\H,0,-9.2637859816,-4.6958803309,-1.6169149556\H,0,-7.9051798
 828,-5.5917191761,-0.9204816612\H,0,-9.2637662615,-5.1571907404,0.1501
 531927\H,0,-3.2430349994,-3.8287861293,-0.1451197835\H,0,-1.5914573122
 ,-4.4087173114,3.7033732526\H,0,-2.9726168703,-5.3078524028,3.87313015
 19\H,0,-1.773765488,-6.1064399172,2.7806320161\H,0,2.5852078249,-1.634
 7553114,-1.6540593709\H,0,2.6288603636,0.2089151711,-2.0779709493\H,0,
 4.2814490505,-1.1194241576,0.1100242184\H,0,4.0716561291,1.4929880092,
 -2.7179501647\H,0,5.7428396957,2.2007003289,-2.0835948277\H,0,5.628830
 1906,0.63982509,-2.9610448355\H,0,6.7744895119,1.3515691569,0.34069671
 25\H,0,6.4377878982,-0.0186799054,0.6575254692\H,0,7.556233008,-1.1768
 069159,-1.5171230359\H,0,7.7546879047,0.5650297111,-1.9781507387\H,0,9
 .1322352751,0.9023181168,0.1840760398\H,0,8.847563245,-0.8352290291,0.
 7786857323\H,0,10.5926368151,0.2201745552,-1.9797228618\H,0,9.36235122
 06,-2.2182297995,-2.1956254873\H,0,11.0322257783,-2.6563424181,-1.6046
 747114\H,0,9.6621891049,-2.6309850405,-0.4481142511\H,0,11.3626939503,
 0.559488179,0.5202035079\H,0,11.429035957,-1.0011760789,0.9665272743\H
 ,0,13.0301763365,-1.8166898302,-0.6316008277\H,0,12.7791216647,-0.0916
 684758,-1.5475681181\H,0,13.8952509618,1.1573782938,0.3370110441\H,0,1
 3.9313258857,-0.536513256,1.2479613126\H,0,15.3058338719,0.2144809331,
 -1.4036247205\H,0,15.9922066636,-2.1543257247,0.0311716633\H,0,14.7941
 124619,-2.2011724928,-1.3984772628\H,0,16.6758572151,-1.8683023551,-1.
 7179332628\H,0,16.0225874594,1.3306208958,0.6306496093\H,0,16.42315676
 29,-0.0795771328,1.4411768789\H,0,18.0017411128,-0.389965544,-0.837367
 0771\H,0,17.4355806226,1.1055078697,-1.0029838742\H,0,18.3041212047,2.
 090903248,1.088406846\H,0,18.7696541257,0.6777019512,1.5140514054\H,0,
 20.5324181545,0.3304291911,0.1483919032\H,0,19.9340175084,3.1308966516
 ,-0.8907526687\H,0,21.2938436365,2.4334199948,-1.4008514484\H,0,19.799
 7838828,1.8873205429,-1.927059675\H,0,21.1049164668,1.4558236915,2.197
 9594131\H,0,22.0146931756,2.1458158113,0.8808930556\H,0,20.6727670066,
 3.0248425676,1.3552959701\\Version=ES64L-G09RevD.01\State=1-A\HF=-2932
 .5496421\RMSD=7.287e-09\PG=C01 [X(C55H72Mg1N4O5)]\\@


 EVANS BOLDLY PUT 50 ATM. OF ETHYLENE IN A CELL WITH 25 ATM. OF OXYGEN.
 THE APPARATUS SUBSEQUENTLY BLEW UP, BUT LUCKILY NOT BEFORE HE
 OBTAINED THE SPECTRA SHOWN IN FIGURE 8.
 A.J.MERER AND R.S.MULLIKEN, CHEM.REV. 69, 645 (1969)
 Job cpu time:       0 days  6 hours 18 minutes 36.3 seconds.
 File lengths (MBytes):  RWF=   2106 Int=      0 D2E=      0 Chk=    163 Scr=      1
 Normal termination of Gaussian 09 at Wed Jul  3 23:35:32 2019.
