 Entering Gaussian System, Link 0=g16
 Input=Geometria-6-.com
 Output=Geometria-6-.log
 Initial command:
<<<<<<< HEAD
 /usr/local/g16/l1.exe "/home/padawan/israel-mol/chlorophyll-a/spectra/emi/Gau-17926.inp" -scrdir="/home/padawan/israel-mol/chlorophyll-a/spectra/emi/"
 Entering Link 1 = /usr/local/g16/l1.exe PID=     17961.
  
 Copyright (c) 1988,1990,1992,1993,1995,1998,2003,2009,2016,
            Gaussian, Inc.  All Rights Reserved.
  
 This is part of the Gaussian(R) 16 program.  It is based on
 the Gaussian(R) 09 system (copyright 2009, Gaussian, Inc.),
=======
 /usr/local/g09/l1.exe "/home/padawan/israel-mol/chlorophyll-a/spectra/emi/Gau-91826.inp" -scrdir="/home/padawan/israel-mol/chlorophyll-a/spectra/emi/"
 Entering Link 1 = /usr/local/g09/l1.exe PID=     91857.
  
 Copyright (c) 1988,1990,1992,1993,1995,1998,2003,2009,2013,
            Gaussian, Inc.  All Rights Reserved.
  
 This is part of the Gaussian(R) 09 program.  It is based on
>>>>>>> 8e03b5b5abfc0030b3aa597dc0de36371bfbd096
 the Gaussian(R) 03 system (copyright 2003, Gaussian, Inc.),
 the Gaussian(R) 98 system (copyright 1998, Gaussian, Inc.),
 the Gaussian(R) 94 system (copyright 1995, Gaussian, Inc.),
 the Gaussian 92(TM) system (copyright 1992, Gaussian, Inc.),
 the Gaussian 90(TM) system (copyright 1990, Gaussian, Inc.),
 the Gaussian 88(TM) system (copyright 1988, Gaussian, Inc.),
 the Gaussian 86(TM) system (copyright 1986, Carnegie Mellon
 University), and the Gaussian 82(TM) system (copyright 1983,
 Carnegie Mellon University). Gaussian is a federally registered
 trademark of Gaussian, Inc.
  
 This software contains proprietary and confidential information,
 including trade secrets, belonging to Gaussian, Inc.
  
 This software is provided under written license and may be
 used, copied, transmitted, or stored only in accord with that
 written license.
  
 The following legend is applicable only to US Government
 contracts under FAR:
  
                    RESTRICTED RIGHTS LEGEND
  
 Use, reproduction and disclosure by the US Government is
 subject to restrictions as set forth in subparagraphs (a)
 and (c) of the Commercial Computer Software - Restricted
 Rights clause in FAR 52.227-19.
  
 Gaussian, Inc.
 340 Quinnipiac St., Bldg. 40, Wallingford CT 06492
  
  
 ---------------------------------------------------------------
 Warning -- This program may not be used in any manner that
 competes with the business of Gaussian, Inc. or will provide
 assistance to any competitor of Gaussian, Inc.  The licensee
 of this program is prohibited from giving any competitor of
 Gaussian, Inc. access to this program.  By using this program,
 the user acknowledges that Gaussian, Inc. is engaged in the
 business of creating and licensing software in the field of
 computational chemistry and represents and warrants to the
 licensee that it is not a competitor of Gaussian, Inc. and that
 it will not use this program in any manner prohibited above.
 ---------------------------------------------------------------
  

 Cite this work as:
<<<<<<< HEAD
 Gaussian 16, Revision A.03,
 M. J. Frisch, G. W. Trucks, H. B. Schlegel, G. E. Scuseria, 
 M. A. Robb, J. R. Cheeseman, G. Scalmani, V. Barone, 
 G. A. Petersson, H. Nakatsuji, X. Li, M. Caricato, A. V. Marenich, 
 J. Bloino, B. G. Janesko, R. Gomperts, B. Mennucci, H. P. Hratchian, 
 J. V. Ortiz, A. F. Izmaylov, J. L. Sonnenberg, D. Williams-Young, 
 F. Ding, F. Lipparini, F. Egidi, J. Goings, B. Peng, A. Petrone, 
 T. Henderson, D. Ranasinghe, V. G. Zakrzewski, J. Gao, N. Rega, 
 G. Zheng, W. Liang, M. Hada, M. Ehara, K. Toyota, R. Fukuda, 
 J. Hasegawa, M. Ishida, T. Nakajima, Y. Honda, O. Kitao, H. Nakai, 
 T. Vreven, K. Throssell, J. A. Montgomery, Jr., J. E. Peralta, 
 F. Ogliaro, M. J. Bearpark, J. J. Heyd, E. N. Brothers, K. N. Kudin, 
 V. N. Staroverov, T. A. Keith, R. Kobayashi, J. Normand, 
 K. Raghavachari, A. P. Rendell, J. C. Burant, S. S. Iyengar, 
 J. Tomasi, M. Cossi, J. M. Millam, M. Klene, C. Adamo, R. Cammi, 
 J. W. Ochterski, R. L. Martin, K. Morokuma, O. Farkas, 
 J. B. Foresman, and D. J. Fox, Gaussian, Inc., Wallingford CT, 2016.
 
 ******************************************
 Gaussian 16:  ES64L-G16RevA.03 25-Dec-2016
                26-Jun-2019 
=======
 Gaussian 09, Revision D.01,
 M. J. Frisch, G. W. Trucks, H. B. Schlegel, G. E. Scuseria, 
 M. A. Robb, J. R. Cheeseman, G. Scalmani, V. Barone, B. Mennucci, 
 G. A. Petersson, H. Nakatsuji, M. Caricato, X. Li, H. P. Hratchian, 
 A. F. Izmaylov, J. Bloino, G. Zheng, J. L. Sonnenberg, M. Hada, 
 M. Ehara, K. Toyota, R. Fukuda, J. Hasegawa, M. Ishida, T. Nakajima, 
 Y. Honda, O. Kitao, H. Nakai, T. Vreven, J. A. Montgomery, Jr., 
 J. E. Peralta, F. Ogliaro, M. Bearpark, J. J. Heyd, E. Brothers, 
 K. N. Kudin, V. N. Staroverov, T. Keith, R. Kobayashi, J. Normand, 
 K. Raghavachari, A. Rendell, J. C. Burant, S. S. Iyengar, J. Tomasi, 
 M. Cossi, N. Rega, J. M. Millam, M. Klene, J. E. Knox, J. B. Cross, 
 V. Bakken, C. Adamo, J. Jaramillo, R. Gomperts, R. E. Stratmann, 
 O. Yazyev, A. J. Austin, R. Cammi, C. Pomelli, J. W. Ochterski, 
 R. L. Martin, K. Morokuma, V. G. Zakrzewski, G. A. Voth, 
 P. Salvador, J. J. Dannenberg, S. Dapprich, A. D. Daniels, 
 O. Farkas, J. B. Foresman, J. V. Ortiz, J. Cioslowski, 
 and D. J. Fox, Gaussian, Inc., Wallingford CT, 2013.
 
 ******************************************
 Gaussian 09:  ES64L-G09RevD.01 24-Apr-2013
                 2-Jul-2019 
>>>>>>> 8e03b5b5abfc0030b3aa597dc0de36371bfbd096
 ******************************************
 %nproc=4
 Will use up to    4 processors via shared memory.
 %Mem=2GB
 -------------------------------------
 # td=(NStates=1) CAM-B3LYP/6-31G(d,p)
 -------------------------------------
<<<<<<< HEAD
 1/38=1,172=1/1;
 2/12=2,17=6,18=5,40=1/2;
 3/5=1,6=6,7=101,11=9,25=1,30=1,74=-40/1,2,3,8;
=======
 1/38=1/1;
 2/12=2,17=6,18=5,40=1/2;
 3/5=1,6=6,7=101,11=9,16=1,25=1,30=1,74=-40/1,2,8,3;
>>>>>>> 8e03b5b5abfc0030b3aa597dc0de36371bfbd096
 4//1;
 5/5=2,38=5/2;
 8/6=1,10=2,108=1/1;
 9/41=1,42=1,70=2/14;
 6/7=2,8=2,9=2,10=2/1;
 99/5=1,9=1/99;
 --
 TD
 --
 Symbolic Z-matrix:
 Charge =  0 Multiplicity = 1
<<<<<<< HEAD
 12                   -7.16185   0.56036   0.22247 
 6                    -4.83902  -2.02042   0.44056 
 6                    -4.89353   2.87574   1.24058 
 6                    -9.38494   3.14318  -0.3195 
 6                    -9.4851   -1.72452  -0.74511 
 7                    -5.04692   0.42661   0.78646 
 6                    -4.35081  -0.74476   0.8256 
 6                    -2.87524  -0.44465   1.24289 
 6                    -2.93871   1.06099   1.67834 
 6                    -4.33733   1.56271   1.17254 
 6                    -2.85578   1.24495   3.25487 
 6                    -1.96435  -0.63441   0.12392 
 6                    -0.52443  -0.46051   0.50707 
 6                     0.3757   -0.63028  -0.71941 
 8                     0.05097  -0.89745  -1.84703 
 8                     1.73017  -0.57027  -0.43974 
 7                    -7.1498    2.63416   0.44999 
 6                    -6.12075   3.352     0.83963 
 6                    -6.46403   4.79781   0.83664 
 6                    -7.7271    4.82955   0.37205 
 6                    -8.15164   3.42899   0.06333 
 6                    -5.47633   5.81742   1.23109 
 6                    -8.53521   6.0334    0.13041 
 6                    -8.47114   7.14375   0.81253 
 7                    -9.16051   0.7473   -0.49395 
 6                    -9.87626   1.86055  -0.62111 
 6                    -11.12653   1.54717  -1.29784 
 6                    -11.18299   0.17836  -1.39522 
 6                    -9.89186  -0.36354  -0.92472 
 6                    -12.18589   2.62735  -1.52364 
 6                    -12.27127  -0.64162  -2.07895 
 6                    -12.11944  -0.87061  -3.52551 
 7                    -7.18096  -1.45702  -0.16462 
 6                    -8.24605  -2.30346  -0.40321 
 6                    -7.86049  -3.67185  -0.3609 
 6                    -6.52906  -3.54492  -0.04282 
 6                    -6.12602  -2.2965    0.06143 
 6                    -8.636    -4.84248  -0.5954 
 6                    -5.25556  -4.46391   0.27381 
 8                    -5.21906  -5.60146   0.16618 
 6                    -4.15391  -3.30392   0.67916 
 6                    -3.57059  -3.67971   2.01876 
 8                    -3.76554  -3.17645   3.0742 
 8                    -2.78467  -4.71824   1.93291 
 6                    -2.16845  -5.12762   3.02735 
 6                     2.75357  -0.65196  -1.45978 
 6                     4.12871  -0.51015  -0.77393 
 6                     5.22774   0.11856  -1.21515 
 6                     5.1447    0.97301  -2.46738 
 6                     6.50876   0.14823  -0.27896 
 6                     7.73864  -0.32747  -0.9616 
 6                     8.94913  -0.21409  -0.20894 
 6                     10.20574  -0.68517  -0.95053 
 6                     10.14861  -2.16964  -1.24586 
 6                     11.39195  -0.2689   -0.0658 
 6                     12.81712  -0.44295  -0.71696 
 6                     13.91886  -0.08438   0.21506 
 6                     15.39632  -0.13195  -0.40927 
 6                     15.67825  -1.55301  -0.84981 
 6                     16.2636   0.66162   0.47165 
 6                     17.69676   0.6818   -0.04382 
 6                     18.70139   1.4052    0.82444 
 6                     20.14243   1.44416   0.17771 
 6                     20.41117   2.20056  -1.0685 
 6                     21.07323   1.9512    1.33845 
 1                    -4.20314   3.52877   1.59081 
 1                    -10.06868   3.86652  -0.39673 
 1                    -10.35581  -2.46352  -0.82185 
 1                    -2.77271  -1.09437   2.09069 
 1                    -1.98114   1.53831   1.24965 
 1                    -1.73855   1.07058   3.54257 
 1                    -3.02451   2.28515   3.38309 
 1                    -3.57223   0.69492   3.6796 
 1                    -2.11783  -1.47589  -0.42526 
 1                    -2.22393   0.14514  -0.66166 
 1                    -0.02135   0.49703   0.83479 
 1                    -0.01339  -0.99069   1.24329 
 1                    -5.65224   6.73622   0.6831 
 1                    -5.50415   5.9825    2.41293 
 1                    -4.51988   5.42052   1.06068 
 1                    -9.18779   5.77961  -0.67438 
 1                    -8.90517   8.14001   0.64518 
 1                    -7.88241   7.19794   1.95635 
 1                    -11.81021   3.39325  -2.26763 
 1                    -13.14844   2.40203  -1.98618 
 1                    -12.38467   3.21637  -0.57875 
 1                    -12.27182  -1.70947  -1.62899 
 1                    -13.39736  -0.22815  -1.79919 
 1                    -12.83298  -1.61123  -3.76851 
 1                    -12.17797  -0.02054  -4.18635 
 1                    -11.13633  -1.29813  -3.71508 
 1                    -9.10865  -4.88091  -1.58331 
 1                    -8.08194  -5.66653  -0.49373 
 1                    -9.38032  -5.12002   0.12609 
 1                    -3.34524  -3.42895  -0.0597 
 1                    -1.78162  -4.14228   3.55924 
 1                    -2.98285  -5.49074   3.9274 
 1                    -1.55088  -6.01291   2.753 
 1                     2.65787  -1.63733  -1.63256 
 1                     2.81907  -0.1086   -2.27509 
 1                     4.33072  -1.03063   0.26203 
 1                     3.9591    0.92467  -2.77723 
 1                     5.56203   2.15504  -2.43979 
 1                     5.87432   0.52401  -3.08447 
 1                     6.48476   1.25363   0.21176 
 1                     6.44492  -0.54665   0.48304 
 1                     7.62889  -1.22     -1.21094 
 1                     7.66869   0.42963  -1.79195 
 1                     8.93089   0.95915   0.02664 
 1                     8.90126  -0.79175   0.52311 
 1                     10.19248   0.06883  -1.80376 
 1                     9.21228  -2.48313  -1.72689 
 1                     10.89525  -2.51539  -1.74129 
 1                     10.04164  -2.89588  -0.37536 
 1                     11.2794   0.6588    0.39708 
 1                     11.27883  -0.89218   0.81112 
 1                     12.75368  -1.58266  -0.93692 
 1                     12.69871   0.42066  -1.5332 
 1                     13.65711   0.95047   0.60954 
 1                     14.00192  -0.97782   1.01973 
 1                     15.28176   0.33325  -1.43675 
 1                     15.70252  -2.20758  -0.11383 
 1                     15.19473  -1.77546  -1.83532 
 1                     16.75904  -1.49358  -1.29042 
 1                     15.94669   1.74481   0.68091 
 1                     15.98208   0.26046   1.52215 
 1                     18.13685  -0.26333  -0.52637 
 1                     17.79373   1.28491  -1.05708 
 1                     18.32724   2.40851   0.90615 
 1                     18.85155   0.96273   1.8952 
 1                     20.42368   0.40443  -0.07569 
 1                     20.22023   3.224    -0.7274 
 1                     21.41473   2.14342  -1.51328 
 1                     19.46221   2.02284  -1.93168 
 1                     20.79112   1.1896    2.20475 
 1                     22.217    1.91668   1.29446 
 1                     20.72127   3.08322   1.44234 
=======
 12                   -7.20081   0.56229   0.05877 
 6                    -4.86144  -1.97991   0.51073 
 6                    -4.78938   2.80935   1.17837 
 6                    -9.35928   3.13878  -0.48102 
 6                    -9.59613  -1.79781  -0.84242 
 7                    -5.13945   0.35592   0.8495 
 6                    -4.28985  -0.78554   0.84026 
 6                    -2.86134  -0.45184   1.24693 
 6                    -3.05549   1.05945   1.67819 
 6                    -4.3398    1.44522   1.21229 
 6                    -2.72556   1.23514   3.14282 
 6                    -1.97902  -0.54624   0.1032 
 6                    -0.4909   -0.58659   0.56711 
 6                     0.48042  -0.79568  -0.55182 
 8                     0.17473  -1.06607  -1.75244 
 8                     1.75203  -0.5651   -0.18196 
 7                    -7.04268   2.58246   0.33931 
 6                    -6.00142   3.33766   0.79685 
 6                    -6.29428   4.79444   0.7608 
 6                    -7.5682    4.89392   0.33213 
 6                    -8.11357   3.50125   0.04013 
 6                    -5.36367   5.9668    0.98453 
 6                    -8.40251   5.98622  -0.05594 
 6                    -8.50175   7.21661   0.56144 
 7                    -9.08118   0.69743  -0.5548 
 6                    -9.83518   1.77045  -0.65167 
 6                    -11.15168   1.45374  -1.04243 
 6                    -11.22719   0.09993  -1.20561 
 6                    -9.91952  -0.39849  -0.92199 
 6                    -12.26017   2.42051  -1.21124 
 6                    -12.3757  -0.7335   -1.66553 
 6                    -12.48629  -0.83654  -3.24173 
 7                    -7.18529  -1.35325  -0.10921 
 6                    -8.34761  -2.20399  -0.56283 
 6                    -7.86631  -3.59982  -0.43999 
 6                    -6.52479  -3.58501  -0.19777 
 6                    -6.14654  -2.25967  -0.00534 
 6                    -8.63889  -4.82141  -0.78986 
 6                    -5.35886  -4.44609   0.26764 
 8                    -5.20642  -5.64487   0.30369 
 6                    -4.23514  -3.40134   0.47078 
 6                    -3.57335  -3.65924   1.87649 
 8                    -3.69855  -3.20189   2.94057 
 8                    -2.64584  -4.74011   1.70409 
 6                    -2.30515  -5.34525   3.0096 
 6                     2.82875  -0.69525  -1.07085 
 6                     4.15288  -0.40512  -0.43511 
 6                     5.06098   0.40713  -0.97442 
 6                     5.0162    1.09507  -2.31428 
 6                     6.42986   0.54938  -0.28951 
 6                     7.6215   -0.07487  -1.0552 
 6                     8.88829   0.05326  -0.1014 
 6                     10.1747  -0.51306  -0.85402 
 6                     10.02698  -1.92491  -1.33711 
 6                     11.41763  -0.21088  -0.07778 
 6                     12.80408  -0.43998  -0.82491 
 6                     13.91368  -0.02304   0.11465 
 6                     15.29249  -0.08019  -0.54822 
 6                     15.63545  -1.54607  -0.9327 
 6                     16.44572   0.4136    0.34466 
 6                     17.86391   0.46028  -0.12878 
 6                     18.79047   1.24344   0.78279 
 6                     20.22051   1.36606   0.27848 
 6                     20.3224   2.06754  -1.01328 
 6                     21.14802   2.01466   1.53355 
 1                    -4.12545   3.68293   1.66026 
 1                    -9.98308   3.98136  -0.55236 
 1                    -10.46918  -2.44203  -0.95644 
 1                    -2.70027  -1.14843   2.10049 
 1                    -2.40213   1.76296   1.04516 
 1                    -1.73123   0.97522   3.60185 
 1                    -2.75513   2.16976   3.68552 
 1                    -3.59876   0.8086    3.86199 
 1                    -2.20577  -1.62616  -0.25651 
 1                    -2.07398   0.26186  -0.80164 
 1                    -0.23776   0.35628   1.03563 
 1                    -0.28114  -1.33035   1.34971 
 1                    -5.66682   6.68842   0.46022 
 1                    -5.46839   6.22456   2.084 
 1                    -4.28852   5.79237   0.77116 
 1                    -9.28594   5.83396  -0.76986 
 1                    -9.29801   7.91883   0.32613 
 1                    -7.91758   7.61399   1.55935 
 1                    -11.70262   3.37368  -1.81626 
 1                    -13.26188   2.04194  -1.89395 
 1                    -12.69957   2.82831  -0.36219 
 1                    -12.19583  -1.75738  -1.36507 
 1                    -13.27477  -0.10028  -1.40216 
 1                    -13.47769  -1.34541  -3.65132 
 1                    -12.49788  -0.02517  -3.82418 
 1                    -11.74176  -1.44982  -3.66565 
 1                    -9.18279  -4.7608   -1.82377 
 1                    -8.25314  -5.77984  -0.92049 
 1                    -9.63867  -4.89179  -0.32107 
 1                    -3.56477  -3.4992   -0.2874 
 1                    -1.50339  -4.4876    3.50101 
 1                    -3.08323  -5.5967    3.6158 
 1                    -1.56395  -6.24615   2.63896 
 1                     2.79862  -1.67091  -1.41496 
 1                     2.73129   0.13552  -1.71705 
 1                     4.23117  -0.74557   0.5517 
 1                     4.01005   1.23644  -2.69311 
 1                     5.45638   2.12051  -2.36633 
 1                     5.59467   0.60042  -3.06204 
 1                     6.5335    1.59656  -0.12285 
 1                     6.55936  -0.12026   0.5142 
 1                     7.48292  -1.07272  -1.33172 
 1                     7.77413   0.23253  -2.17729 
 1                     9.09542   1.04862   0.43448 
 1                     8.6143   -0.62481   0.67112 
 1                     10.22221   0.06896  -1.61649 
 1                     8.93494  -1.99369  -1.83023 
 1                     10.72438  -2.13069  -1.79056 
 1                     10.0725  -2.50463  -0.43159 
 1                     11.33031   0.76879   0.20189 
 1                     11.35943  -0.87614   0.79676 
 1                     12.7775  -1.56859  -1.06841 
 1                     12.73885   0.31478  -1.67145 
 1                     13.56631   0.99998   0.2159 
 1                     13.88669  -0.59285   1.02195 
 1                     15.36544   0.44054  -1.51702 
 1                     15.31859  -2.29458  -0.09643 
 1                     14.76371  -1.84178  -1.70126 
 1                     16.60805  -1.86408  -1.44319 
 1                     16.19566   1.25403   0.97992 
 1                     16.44643  -0.19801   1.3479 
 1                     18.40255  -0.47264  -0.46649 
 1                     17.88482   0.86143  -1.11769 
 1                     18.45469   2.35255   1.07921 
 1                     18.80054   0.74351   1.66068 
 1                     20.54162   0.29308   0.12628 
 1                     19.99632   3.22712  -1.04183 
 1                     21.45832   2.23711  -1.15517 
 1                     19.96415   1.47487  -1.91641 
 1                     21.29119   1.21212   2.38501 
 1                     22.19133   2.03836   1.19767 
 1                     20.74669   2.77382   2.11612 
>>>>>>> 8e03b5b5abfc0030b3aa597dc0de36371bfbd096
 
 Stoichiometry    C55H72MgN4O5
 Framework group  C1[X(C55H72MgN4O5)]
 Deg. of freedom   405
 Full point group                 C1      NOp   1
 Largest Abelian subgroup         C1      NOp   1
 Largest concise Abelian subgroup C1      NOp   1
                         Standard orientation:                         
 ---------------------------------------------------------------------
 Center     Atomic      Atomic             Coordinates (Angstroms)
 Number     Number       Type             X           Y           Z
 ---------------------------------------------------------------------
<<<<<<< HEAD
      1         12           0       -7.162104    0.561635    0.224388
      2          6           0       -4.840536   -2.021514    0.427426
      3          6           0       -4.893097    2.869654    1.257545
      4          6           0       -9.383822    3.148759   -0.302479
      5          6           0       -9.486051   -1.716181   -0.758072
      6          7           0       -5.047441    0.423442    0.788304
      7          6           0       -4.351888   -0.748473    0.820486
      8          6           0       -2.876324   -0.451615    1.240149
      9          6           0       -2.939264    1.051348    1.684829
     10          6           0       -4.337474    1.556813    1.181629
     11          6           0       -2.856824    1.225562    3.262489
     12          6           0       -1.965119   -0.634899    0.120352
     13          6           0       -0.525259   -0.464024    0.505091
     14          6           0        0.375237   -0.626652   -0.722089
     15          8           0        0.050791   -0.886727   -1.851452
     16          8           0        1.729639   -0.568995   -0.441571
     17          7           0       -7.149186    2.633984    0.464675
     18          6           0       -6.119955    3.348936    0.859090
     19          6           0       -6.462575    4.794903    0.864882
     20          6           0       -7.725454    4.830082    0.400033
     21          6           0       -8.150527    3.431642    0.082550
     22          6           0       -5.474544    5.811612    1.265948
     23          6           0       -8.532931    6.035768    0.165521
     24          6           0       -8.468600    7.141866    0.854482
     25          7           0       -9.160420    0.753892   -0.491590
     26          6           0       -9.875620    1.868231   -0.612148
     27          6           0      -11.125786    1.559604   -1.291247
     28          6           0      -11.182836    0.191445   -1.397066
     29          6           0       -9.892129   -0.353935   -0.929445
     30          6           0      -12.184565    2.641640   -1.510773
     31          6           0      -12.271244   -0.623815   -2.086222
     32          6           0      -12.118992   -0.843966   -3.534108
     33          7           0       -7.181998   -1.453315   -0.175119
     34          6           0       -8.247396   -2.297782   -0.419291
     35          6           0       -7.862474   -3.666583   -0.385273
     36          6           0       -6.531096   -3.542229   -0.065931
     37          6           0       -6.127521   -2.294658    0.046140
     38          6           0       -8.638434   -4.835393   -0.627247
     39          6           0       -5.258135   -4.463737    0.245491
     40          8           0       -5.222117   -5.600624    0.130878
     41          6           0       -4.156100   -3.306766    0.658366
     42          6           0       -3.573437   -3.691068    1.995842
     43          8           0       -3.768539   -3.194225    3.054287
     44          8           0       -2.787963   -4.729405    1.903884
     45          6           0       -2.172325   -5.145796    2.996001
     46          6           0        2.753364   -0.644875   -1.461723
     47          6           0        4.128327   -0.507917   -0.774519
     48          6           0        5.227796    0.122988   -1.211470
     49          6           0        5.145607    0.985169   -2.458447
     50          6           0        6.508489    0.146306   -0.274658
     51          6           0        7.738404   -0.325749   -0.959769
     52          6           0        8.948669   -0.217553   -0.205990
     53          6           0       10.205336   -0.684637   -0.950006
     54          6           0       10.147634   -2.167237   -1.254490
     55          6           0       11.391417   -0.274371   -0.062304
     56          6           0       12.816737   -0.445063   -0.714017
     57          6           0       13.918308   -0.092743    0.220589
     58          6           0       15.395967   -0.137147   -0.403489
     59          6           0       15.677410   -1.555604   -0.852670
     60          6           0       16.263295    0.650586    0.482612
     61          6           0       17.696655    0.673278   -0.032211
     62          6           0       18.701297    1.390858    0.840849
     63          6           0       20.142591    1.433141    0.194889
     64          6           0       20.412129    2.197066   -1.046546
     65          6           0       21.073198    1.932593    1.359059
     66          1           0       -4.202537    3.520201    1.612039
     67          1           0      -10.067197    3.872872   -0.375492
     68          1           0      -10.357071   -2.454292   -0.839670
     69          1           0       -2.774406   -1.106582    2.083967
     70          1           0       -1.981325    1.530856    1.259426
     71          1           0       -1.739776    1.048911    3.549513
     72          1           0       -3.025122    2.265036    3.397052
     73          1           0       -3.573680    0.673265    3.683572
     74          1           0       -2.118789   -1.472911   -0.434044
     75          1           0       -2.224062    0.149591   -0.660501
     76          1           0       -0.021855    0.491255    0.838878
     77          1           0       -0.014727   -0.998963    1.238211
     78          1           0       -5.649843    6.733846    0.723566
     79          1           0       -5.502718    5.969426    2.448771
     80          1           0       -4.518214    5.415328    1.093444
     81          1           0       -9.185335    5.787236   -0.641048
     82          1           0       -8.902114    8.139341    0.693117
     83          1           0       -7.880256    7.188740    1.998832
     84          1           0      -11.808263    3.411928   -2.249900
     85          1           0      -13.147058    2.419615   -1.975037
     86          1           0      -12.383421    3.224922   -0.562347
     87          1           0      -12.272446   -1.694413   -1.642842
     88          1           0      -13.397243   -0.211555   -1.804324
     89          1           0      -12.832783   -1.582745   -3.781917
     90          1           0      -12.176896    0.010185   -4.189729
     91          1           0      -11.136010   -1.270768   -3.725954
     92          1           0       -9.110743   -4.867526   -1.615548
     93          1           0       -8.084784   -5.660307   -0.530452
     94          1           0       -9.383139   -5.117025    0.092253
     95          1           0       -3.347216   -3.427618   -0.080958
     96          1           0       -1.785235   -4.163930    3.534085
     97          1           0       -2.987217   -5.514078    3.893504
     98          1           0       -1.555066   -6.029669    2.716431
     99          1           0        2.657273   -1.629111   -1.640599
    100          1           0        2.819409   -0.096531   -2.273653
    101          1           0        4.329722   -1.034852    0.258287
    102          1           0        3.960099    0.939283   -2.769010
    103          1           0        5.563466    2.166811   -2.423432
    104          1           0        5.875247    0.539643   -3.078022
    105          1           0        6.484822    1.248678    0.222856
    106          1           0        6.444058   -0.553221    0.483031
    107          1           0        7.628335   -1.216675   -1.214636
    108          1           0        7.669100    0.436478   -1.785468
    109          1           0        8.930878    0.954223    0.036803
    110          1           0        8.900271   -0.799694    0.522477
    111          1           0       10.192726    0.074601   -1.798584
    112          1           0        9.211330   -2.477329   -1.737777
    113          1           0       10.894296   -2.510275   -1.751770
    114          1           0       10.040012   -2.898775   -0.388513
    115          1           0       11.279117    0.650514    0.406233
    116          1           0       11.277693   -0.902978    0.810720
    117          1           0       12.752858   -1.583366   -0.941009
    118          1           0       12.699025    0.423610   -1.524964
    119          1           0       13.656884    0.939777    0.621336
    120          1           0       14.000669   -0.991154    1.019775
    121          1           0       15.281998    0.334421   -1.428126
    122          1           0       15.701112   -2.214700   -0.120722
    123          1           0       15.194148   -1.771759   -1.839701
    124          1           0       16.758383   -1.493962   -1.292513
    125          1           0       15.946804    1.732614    0.698423
    126          1           0       15.981213    0.243094    1.530525
    127          1           0       18.136487   -0.269069   -0.520406
    128          1           0       17.794260    1.282564   -1.041704
    129          1           0       18.327580    2.393814    0.928594
    130          1           0       18.850868    0.941739    1.908916
    131          1           0       20.423452    0.394852   -0.064807
    132          1           0       20.221527    3.218473   -0.699221
    133          1           0       21.415817    2.142206   -1.491313
    134          1           0       19.463398    2.025104   -1.911147
    135          1           0       20.790422    1.165804    2.220554
    136          1           0       22.216973    1.897823    1.315274
    137          1           0       20.721722    3.064114    1.469793
 ---------------------------------------------------------------------
 Rotational constants (GHZ):           0.0631491           0.0061029           0.0057560
=======
      1         12           0       -7.196297    0.574895    0.074581
      2          6           0       -4.861319   -1.976980    0.493534
      3          6           0       -4.779314    2.803825    1.218186
      4          6           0       -9.350408    3.161752   -0.432001
      5          6           0       -9.597143   -1.769708   -0.851999
      6          7           0       -5.134461    0.355162    0.860457
      7          6           0       -4.287068   -0.787720    0.836648
      8          6           0       -2.857467   -0.461629    1.245650
      9          6           0       -3.048239    1.044779    1.695131
     10          6           0       -4.332322    1.438527    1.235316
     11          6           0       -2.716350    1.202348    3.161376
     12          6           0       -1.976602   -0.544054    0.099889
     13          6           0       -0.488045   -0.592780    0.561600
     14          6           0        0.481629   -0.790357   -0.560842
     15          8           0        0.174091   -1.045817   -1.764257
     16          8           0        1.754086   -0.566635   -0.189698
     17          7           0       -7.033979    2.591268    0.379022
     18          6           0       -5.990759    3.338967    0.844363
     19          6           0       -6.280856    4.796629    0.826019
     20          6           0       -7.555058    4.903644    0.400010
     21          6           0       -8.103422    3.515599    0.092027
     22          6           0       -5.347755    5.964453    1.062674
     23          6           0       -8.387695    6.002086    0.025940
     24          6           0       -8.483893    7.225207    0.658067
     25          7           0       -9.077081    0.720933   -0.535212
     26          6           0       -9.829124    1.796464   -0.618425
     27          6           0      -11.146666    1.486958   -1.011444
     28          6           0      -11.224949    0.135330   -1.190681
     29          6           0       -9.917929   -0.368931   -0.914501
     30          6           0      -12.253483    2.457786   -1.167458
     31          6           0      -12.375574   -0.690356   -1.659211
     32          6           0      -12.488099   -0.774366   -3.236404
     33          7           0       -7.184642   -1.338540   -0.116255
     34          6           0       -8.349092   -2.181578   -0.578685
     35          6           0       -7.870348   -3.579693   -0.473049
     36          6           0       -6.528528   -3.570339   -0.232185
     37          6           0       -6.147520   -2.248115   -0.024381
     38          6           0       -8.645659   -4.795551   -0.836591
     39          6           0       -5.363745   -4.439130    0.221604
     40          8           0       -5.213569   -5.638544    0.243176
     41          6           0       -4.237792   -3.399022    0.435922
     42          6           0       -3.574945   -3.674944    1.837708
     43          8           0       -3.698092   -3.230081    2.907308
     44          8           0       -2.649703   -4.755446    1.651380
     45          6           0       -2.308738   -5.376769    2.949189
     46          6           0        2.829568   -0.688218   -1.081286
     47          6           0        4.154958   -0.408223   -0.443630
     48          6           0        5.064022    0.408666   -0.974231
     49          6           0        5.019082    1.112633   -2.305735
     50          6           0        6.433927    0.540120   -0.289217
     51          6           0        7.623520   -0.077217   -1.063651
     52          6           0        8.891609    0.037104   -0.109821
     53          6           0       10.176093   -0.522648   -0.870590
     54          6           0       10.025127   -1.928354   -1.370322
     55          6           0       11.420466   -0.232131   -0.092205
     56          6           0       12.805636   -0.454939   -0.843585
     57          6           0       13.917079   -0.051363    0.099630
     58          6           0       15.295037   -0.103229   -0.565433
     59          6           0       15.634754   -1.565069   -0.967760
     60          6           0       16.450205    0.377668    0.331974
     61          6           0       17.867959    0.427289   -0.142474
     62          6           0       18.797029    1.197752    0.777324
     63          6           0       20.226745    1.323645    0.272903
     64          6           0       20.328556    2.040291   -1.010516
     65          6           0       21.156882    1.955460    1.534569
     66          1           0       -4.113179    3.670328    1.709709
     67          1           0       -9.972664    4.006311   -0.492579
     68          1           0      -10.471555   -2.410863   -0.972712
     69          1           0       -2.696793   -1.168658    2.090662
     70          1           0       -2.394233    1.754545    1.069798
     71          1           0       -1.722014    0.935074    3.616158
     72          1           0       -2.743527    2.130486    3.715225
     73          1           0       -3.589578    0.768924    3.876395
     74          1           0       -2.205826   -1.619173   -0.272426
     75          1           0       -2.071007    0.274968   -0.795143
     76          1           0       -0.232576    0.343951    1.041052
     77          1           0       -0.278849   -1.346218    1.335033
     78          1           0       -5.650089    6.692853    0.547352
     79          1           0       -5.450763    6.209272    2.165260
     80          1           0       -4.273177    5.790531    0.846022
     81          1           0       -9.272208    5.860041   -0.688746
     82          1           0       -9.279059    7.931708    0.432050
     83          1           0       -7.897854    7.609536    1.659988
     84          1           0      -11.694771    3.417037   -1.761700
     85          1           0      -13.256664    2.089297   -1.853507
     86          1           0      -12.691156    2.856263   -0.313108
     87          1           0      -12.197341   -1.718084   -1.371195
     88          1           0      -13.273127   -0.058605   -1.387289
     89          1           0      -13.480935   -1.276422   -3.650912
     90          1           0      -12.498781    0.043916   -3.809117
     91          1           0      -11.745223   -1.383967   -3.668447
     92          1           0       -9.190582   -4.721563   -1.869088
     93          1           0       -8.261900   -5.753082   -0.979085
     94          1           0       -9.645056   -4.869611   -0.367552
     95          1           0       -3.568451   -3.489115   -0.324129
     96          1           0       -1.504786   -4.526572    3.449897
     97          1           0       -3.086626   -5.633951    3.553233
     98          1           0       -1.569685   -6.274600    2.566993
     99          1           0        2.797186   -1.659645   -1.436973
    100          1           0        2.732995    0.150383   -1.717425
    101          1           0        4.233691   -0.760570    0.538961
    102          1           0        4.012787    1.260433   -2.681718
    103          1           0        5.461175    2.137779   -2.346053
    104          1           0        5.595770    0.625836   -3.060005
    105          1           0        6.539762    1.585044   -0.110197
    106          1           0        6.563032   -0.139304    0.506297
    107          1           0        7.482713   -1.071429   -1.351901
    108          1           0        7.775499    0.243252   -2.182164
    109          1           0        9.101245    1.025604    0.437664
    110          1           0        8.617171   -0.649610    0.654871
    111          1           0       10.223879    0.068334   -1.626116
    112          1           0        8.932411   -1.989155   -1.862996
    113          1           0       10.721633   -2.130036   -1.826988
    114          1           0       10.070535   -2.518922   -0.471840
    115          1           0       11.335334    0.744301    0.199230
    116          1           0       11.361949   -0.907665    0.774399
    117          1           0       12.776624   -1.580507   -1.100503
    118          1           0       12.740923    0.309992   -1.680984
    119          1           0       13.571786    0.971043    0.213469
    120          1           0       13.889999   -0.631901    1.000098
    121          1           0       15.367921    0.428889   -1.528026
    122          1           0       15.317386   -2.322896   -0.140120
    123          1           0       14.761602   -1.849918   -1.738803
    124          1           0       16.606181   -1.878821   -1.483098
    125          1           0       16.202469    1.210941    0.977502
    126          1           0       16.450849   -0.245864    1.327843
    127          1           0       18.404432   -0.502563   -0.491899
    128          1           0       17.888541    0.840175   -1.126548
    129          1           0       18.463706    2.303881    1.087331
    130          1           0       18.807107    0.687360    1.649173
    131          1           0       20.545622    0.251945    0.107548
    132          1           0       20.004674    3.200750   -1.024858
    133          1           0       21.464639    2.209379   -1.151650
    134          1           0       19.968166    1.459128   -1.920243
    135          1           0       21.299451    1.142541    2.376232
    136          1           0       22.199869    1.981165    1.197824
    137          1           0       20.757665    2.708372    2.126610
 ---------------------------------------------------------------------
 Rotational constants (GHZ):      0.0641943      0.0060972      0.0057396
>>>>>>> 8e03b5b5abfc0030b3aa597dc0de36371bfbd096
 Standard basis: 6-31G(d,p) (6D, 7F)
 There are  1339 symmetry adapted cartesian basis functions of A   symmetry.
 There are  1339 symmetry adapted basis functions of A   symmetry.
  1339 basis functions,  2348 primitive gaussians,  1339 cartesian basis functions
   241 alpha electrons      241 beta electrons
<<<<<<< HEAD
       nuclear repulsion energy      8747.7261875363 Hartrees.
=======
       nuclear repulsion energy      8735.7238716599 Hartrees.
>>>>>>> 8e03b5b5abfc0030b3aa597dc0de36371bfbd096
 NAtoms=  137 NActive=  137 NUniq=  137 SFac= 1.00D+00 NAtFMM=   60 NAOKFM=T Big=T
 Integral buffers will be    131072 words long.
 Raffenetti 1 integral format.
 Two-electron integral symmetry is turned on.
 One-electron integrals computed using PRISM.
<<<<<<< HEAD
 NBasis=  1339 RedAO= T EigKep=  2.87D-04  NBF=  1339
 NBsUse=  1339 1.00D-06 EigRej= -1.00D+00 NBFU=  1339
 ExpMin= 4.21D-02 ExpMax= 1.17D+04 ExpMxC= 1.76D+03 IAcc=3 IRadAn=         5 AccDes= 0.00D+00
 Harris functional with IExCor=20419 and IRadAn=       5 diagonalized for initial guess.
 HarFok:  IExCor=20419 AccDes= 0.00D+00 IRadAn=         5 IDoV= 1 UseB2=F ITyADJ=14
 ICtDFT=  3500011 ScaDFX=  1.000000  1.000000  1.000000  1.000000
 FoFCou: FMM=F IPFlag=           0 FMFlag=      100000 FMFlg1=        2001
         NFxFlg=           0 DoJE=T BraDBF=F KetDBF=T FulRan=T
         wScrn=  0.000000 ICntrl=       500 IOpCl=  0 I1Cent=   200000004 NGrid=           0
=======
 NBasis=  1339 RedAO= T EigKep=  3.59D-04  NBF=  1339
 NBsUse=  1339 1.00D-06 EigRej= -1.00D+00 NBFU=  1339
 ExpMin= 4.21D-02 ExpMax= 1.17D+04 ExpMxC= 1.76D+03 IAcc=2 IRadAn=         4 AccDes= 0.00D+00
 Harris functional with IExCor=20419 and IRadAn=       4 diagonalized for initial guess.
 HarFok:  IExCor=20419 AccDes= 0.00D+00 IRadAn=         4 IDoV= 1 UseB2=F ITyADJ=14
 ICtDFT=  3500011 ScaDFX=  1.000000  1.000000  1.000000  1.000000
 FoFCou: FMM=F IPFlag=           0 FMFlag=      100000 FMFlg1=        2001
         NFxFlg=           0 DoJE=T BraDBF=F KetDBF=T FulRan=T
         wScrn=  0.000000 ICntrl=     500 IOpCl=  0 I1Cent=   200000004 NGrid=           0
>>>>>>> 8e03b5b5abfc0030b3aa597dc0de36371bfbd096
         NMat0=    1 NMatS0=      1 NMatT0=    0 NMatD0=    1 NMtDS0=    0 NMtDT0=    0
 Petite list used in FoFCou.
 Requested convergence on RMS density matrix=1.00D-08 within 128 cycles.
 Requested convergence on MAX density matrix=1.00D-06.
 Requested convergence on             energy=1.00D-06.
 No special actions if energy rises.
<<<<<<< HEAD
 SCF Done:  E(RCAM-B3LYP) =  -2932.59190422     A.U. after   17 cycles
            NFock= 17  Conv=0.80D-08     -V/T= 2.0086
=======
 SCF Done:  E(RCAM-B3LYP) =  -2932.60112534     A.U. after   18 cycles
            NFock= 18  Conv=0.45D-08     -V/T= 2.0092
>>>>>>> 8e03b5b5abfc0030b3aa597dc0de36371bfbd096
 DoSCS=F DFT=T ScalE2(SS,OS)=  1.000000  1.000000
 ExpMin= 4.21D-02 ExpMax= 1.17D+04 ExpMxC= 1.76D+03 IAcc=3 IRadAn=         5 AccDes= 0.00D+00
 HarFok:  IExCor=  205 AccDes= 0.00D+00 IRadAn=         5 IDoV=-2 UseB2=F ITyADJ=14
 ICtDFT= 12500011 ScaDFX=  1.000000  1.000000  1.000000  1.000000
<<<<<<< HEAD
 GSVD:  LWork=       -5313 too small for GESVD, short by       24840 words or       24840 for optimal perf.
 Range of M.O.s used for correlation:    70  1339
 NBasis=  1339 NAE=   241 NBE=   241 NFC=    69 NFV=     0
 NROrb=   1270 NOA=   172 NOB=   172 NVA=  1098 NVB=  1098
=======
 Range of M.O.s used for correlation:    70  1339
 NBasis=  1339 NAE=   241 NBE=   241 NFC=    69 NFV=     0
 NROrb=   1270 NOA=   172 NOB=   172 NVA=  1098 NVB=  1098
 Would need an additional       2415464100000 words for in-memory AO integral storage.
>>>>>>> 8e03b5b5abfc0030b3aa597dc0de36371bfbd096
 Orbital symmetries:
       Occupied  (A) (A) (A) (A) (A) (A) (A) (A) (A) (A) (A) (A)
                 (A) (A) (A) (A) (A) (A) (A) (A) (A) (A) (A) (A)
                 (A) (A) (A) (A) (A) (A) (A) (A) (A) (A) (A) (A)
                 (A) (A) (A) (A) (A) (A) (A) (A) (A) (A) (A) (A)
                 (A) (A) (A) (A) (A) (A) (A) (A) (A) (A) (A) (A)
                 (A) (A) (A) (A) (A) (A) (A) (A) (A) (A) (A) (A)
                 (A) (A) (A) (A) (A) (A) (A) (A) (A) (A) (A) (A)
                 (A) (A) (A) (A) (A) (A) (A) (A) (A) (A) (A) (A)
                 (A) (A) (A) (A) (A) (A) (A) (A) (A) (A) (A) (A)
                 (A) (A) (A) (A) (A) (A) (A) (A) (A) (A) (A) (A)
                 (A) (A) (A) (A) (A) (A) (A) (A) (A) (A) (A) (A)
                 (A) (A) (A) (A) (A) (A) (A) (A) (A) (A) (A) (A)
                 (A) (A) (A) (A) (A) (A) (A) (A) (A) (A) (A) (A)
                 (A) (A) (A) (A) (A) (A) (A) (A) (A) (A) (A) (A)
                 (A) (A) (A) (A) (A) (A) (A) (A) (A) (A) (A) (A)
                 (A) (A) (A) (A) (A) (A) (A) (A) (A) (A) (A) (A)
                 (A) (A) (A) (A) (A) (A) (A) (A) (A) (A) (A) (A)
                 (A) (A) (A) (A) (A) (A) (A) (A) (A) (A) (A) (A)
                 (A) (A) (A) (A) (A) (A) (A) (A) (A) (A) (A) (A)
                 (A) (A) (A) (A) (A) (A) (A) (A) (A) (A) (A) (A)
                 (A)
       Virtual   (A) (A) (A) (A) (A) (A) (A) (A) (A) (A) (A) (A)
                 (A) (A) (A) (A) (A) (A) (A) (A) (A) (A) (A) (A)
                 (A) (A) (A) (A) (A) (A) (A) (A) (A) (A) (A) (A)
                 (A) (A) (A) (A) (A) (A) (A) (A) (A) (A) (A) (A)
                 (A) (A) (A) (A) (A) (A) (A) (A) (A) (A) (A) (A)
                 (A) (A) (A) (A) (A) (A) (A) (A) (A) (A) (A) (A)
                 (A) (A) (A) (A) (A) (A) (A) (A) (A) (A) (A) (A)
                 (A) (A) (A) (A) (A) (A) (A) (A) (A) (A) (A) (A)
                 (A) (A) (A) (A) (A) (A) (A) (A) (A) (A) (A) (A)
                 (A) (A) (A) (A) (A) (A) (A) (A) (A) (A) (A) (A)
                 (A) (A) (A) (A) (A) (A) (A) (A) (A) (A) (A) (A)
                 (A) (A) (A) (A) (A) (A) (A) (A) (A) (A) (A) (A)
                 (A) (A) (A) (A) (A) (A) (A) (A) (A) (A) (A) (A)
                 (A) (A) (A) (A) (A) (A) (A) (A) (A) (A) (A) (A)
                 (A) (A) (A) (A) (A) (A) (A) (A) (A) (A) (A) (A)
                 (A) (A) (A) (A) (A) (A) (A) (A) (A) (A) (A) (A)
                 (A) (A) (A) (A) (A) (A) (A) (A) (A) (A) (A) (A)
                 (A) (A) (A) (A) (A) (A) (A) (A) (A) (A) (A) (A)
                 (A) (A) (A) (A) (A) (A) (A) (A) (A) (A) (A) (A)
                 (A) (A) (A) (A) (A) (A) (A) (A) (A) (A) (A) (A)
                 (A) (A) (A) (A) (A) (A) (A) (A) (A) (A) (A) (A)
                 (A) (A) (A) (A) (A) (A) (A) (A) (A) (A) (A) (A)
                 (A) (A) (A) (A) (A) (A) (A) (A) (A) (A) (A) (A)
                 (A) (A) (A) (A) (A) (A) (A) (A) (A) (A) (A) (A)
                 (A) (A) (A) (A) (A) (A) (A) (A) (A) (A) (A) (A)
                 (A) (A) (A) (A) (A) (A) (A) (A) (A) (A) (A) (A)
                 (A) (A) (A) (A) (A) (A) (A) (A) (A) (A) (A) (A)
                 (A) (A) (A) (A) (A) (A) (A) (A) (A) (A) (A) (A)
                 (A) (A) (A) (A) (A) (A) (A) (A) (A) (A) (A) (A)
                 (A) (A) (A) (A) (A) (A) (A) (A) (A) (A) (A) (A)
                 (A) (A) (A) (A) (A) (A) (A) (A) (A) (A) (A) (A)
                 (A) (A) (A) (A) (A) (A) (A) (A) (A) (A) (A) (A)
                 (A) (A) (A) (A) (A) (A) (A) (A) (A) (A) (A) (A)
                 (A) (A) (A) (A) (A) (A) (A) (A) (A) (A) (A) (A)
                 (A) (A) (A) (A) (A) (A) (A) (A) (A) (A) (A) (A)
                 (A) (A) (A) (A) (A) (A) (A) (A) (A) (A) (A) (A)
                 (A) (A) (A) (A) (A) (A) (A) (A) (A) (A) (A) (A)
                 (A) (A) (A) (A) (A) (A) (A) (A) (A) (A) (A) (A)
                 (A) (A) (A) (A) (A) (A) (A) (A) (A) (A) (A) (A)
                 (A) (A) (A) (A) (A) (A) (A) (A) (A) (A) (A) (A)
                 (A) (A) (A) (A) (A) (A) (A) (A) (A) (A) (A) (A)
                 (A) (A) (A) (A) (A) (A) (A) (A) (A) (A) (A) (A)
                 (A) (A) (A) (A) (A) (A) (A) (A) (A) (A) (A) (A)
                 (A) (A) (A) (A) (A) (A) (A) (A) (A) (A) (A) (A)
                 (A) (A) (A) (A) (A) (A) (A) (A) (A) (A) (A) (A)
                 (A) (A) (A) (A) (A) (A) (A) (A) (A) (A) (A) (A)
                 (A) (A) (A) (A) (A) (A) (A) (A) (A) (A) (A) (A)
                 (A) (A) (A) (A) (A) (A) (A) (A) (A) (A) (A) (A)
                 (A) (A) (A) (A) (A) (A) (A) (A) (A) (A) (A) (A)
                 (A) (A) (A) (A) (A) (A) (A) (A) (A) (A) (A) (A)
                 (A) (A) (A) (A) (A) (A) (A) (A) (A) (A) (A) (A)
                 (A) (A) (A) (A) (A) (A) (A) (A) (A) (A) (A) (A)
                 (A) (A) (A) (A) (A) (A) (A) (A) (A) (A) (A) (A)
                 (A) (A) (A) (A) (A) (A) (A) (A) (A) (A) (A) (A)
                 (A) (A) (A) (A) (A) (A) (A) (A) (A) (A) (A) (A)
                 (A) (A) (A) (A) (A) (A) (A) (A) (A) (A) (A) (A)
                 (A) (A) (A) (A) (A) (A) (A) (A) (A) (A) (A) (A)
                 (A) (A) (A) (A) (A) (A) (A) (A) (A) (A) (A) (A)
                 (A) (A) (A) (A) (A) (A) (A) (A) (A) (A) (A) (A)
                 (A) (A) (A) (A) (A) (A) (A) (A) (A) (A) (A) (A)
                 (A) (A) (A) (A) (A) (A) (A) (A) (A) (A) (A) (A)
                 (A) (A) (A) (A) (A) (A) (A) (A) (A) (A) (A) (A)
                 (A) (A) (A) (A) (A) (A) (A) (A) (A) (A) (A) (A)
                 (A) (A) (A) (A) (A) (A) (A) (A) (A) (A) (A) (A)
                 (A) (A) (A) (A) (A) (A) (A) (A) (A) (A) (A) (A)
                 (A) (A) (A) (A) (A) (A) (A) (A) (A) (A) (A) (A)
                 (A) (A) (A) (A) (A) (A) (A) (A) (A) (A) (A) (A)
                 (A) (A) (A) (A) (A) (A) (A) (A) (A) (A) (A) (A)
                 (A) (A) (A) (A) (A) (A) (A) (A) (A) (A) (A) (A)
                 (A) (A) (A) (A) (A) (A) (A) (A) (A) (A) (A) (A)
                 (A) (A) (A) (A) (A) (A) (A) (A) (A) (A) (A) (A)
                 (A) (A) (A) (A) (A) (A) (A) (A) (A) (A) (A) (A)
                 (A) (A) (A) (A) (A) (A) (A) (A) (A) (A) (A) (A)
                 (A) (A) (A) (A) (A) (A) (A) (A) (A) (A) (A) (A)
                 (A) (A) (A) (A) (A) (A) (A) (A) (A) (A) (A) (A)
                 (A) (A) (A) (A) (A) (A) (A) (A) (A) (A) (A) (A)
                 (A) (A) (A) (A) (A) (A) (A) (A) (A) (A) (A) (A)
                 (A) (A) (A) (A) (A) (A) (A) (A) (A) (A) (A) (A)
                 (A) (A) (A) (A) (A) (A) (A) (A) (A) (A) (A) (A)
                 (A) (A) (A) (A) (A) (A) (A) (A) (A) (A) (A) (A)
                 (A) (A) (A) (A) (A) (A) (A) (A) (A) (A) (A) (A)
                 (A) (A) (A) (A) (A) (A) (A) (A) (A) (A) (A) (A)
                 (A) (A) (A) (A) (A) (A) (A) (A) (A) (A) (A) (A)
                 (A) (A) (A) (A) (A) (A) (A) (A) (A) (A) (A) (A)
                 (A) (A) (A) (A) (A) (A) (A) (A) (A) (A) (A) (A)
                 (A) (A) (A) (A) (A) (A) (A) (A) (A) (A) (A) (A)
                 (A) (A) (A) (A) (A) (A) (A) (A) (A) (A) (A) (A)
                 (A) (A) (A) (A) (A) (A) (A) (A) (A) (A) (A) (A)
                 (A) (A) (A) (A) (A) (A) (A) (A) (A) (A) (A) (A)
                 (A) (A) (A) (A) (A) (A) (A) (A) (A) (A) (A) (A)
                 (A) (A) (A) (A) (A) (A) (A) (A) (A) (A) (A) (A)
                 (A) (A) (A) (A) (A) (A)
<<<<<<< HEAD
     4 initial guesses have been made.
 Convergence on wavefunction:    0.001000000000000
 Iteration     1 Dimension     4 NMult     0 NNew      4
 CISAX will form     4 AO SS matrices at one time.
 Iteration     2 Dimension     6 NMult     4 NNew      2
 Iteration     3 Dimension     8 NMult     6 NNew      2
 Iteration     4 Dimension    10 NMult     8 NNew      2
 Iteration     5 Dimension    12 NMult    10 NNew      2
 Iteration     6 Dimension    14 NMult    12 NNew      2
=======
     8 initial guesses have been made.
 Convergence on wavefunction:    0.001000000000000
 Iteration     1 Dimension     8 NMult     0 NNew      8
 CISAX will form     8 AO SS matrices at one time.
 Iteration     2 Dimension    12 NMult     8 NNew      4
 Iteration     3 Dimension    16 NMult    12 NNew      4
 Iteration     4 Dimension    20 NMult    16 NNew      4
 Iteration     5 Dimension    24 NMult    20 NNew      4
 Iteration     6 Dimension    28 NMult    24 NNew      4
>>>>>>> 8e03b5b5abfc0030b3aa597dc0de36371bfbd096
 ***********************************************************************
 Excited states from <AA,BB:AA,BB> singles matrix:
 ***********************************************************************
 
 Ground to excited state transition densities written to RWF  633
 Ground to excited state transition electric dipole moments (Au):
       state          X           Y           Z        Dip. S.      Osc.
<<<<<<< HEAD
         1         0.4379     -1.6780     -0.0325      3.0084      0.1639
 Ground to excited state transition velocity dipole moments (Au):
       state          X           Y           Z        Dip. S.      Osc.
         1        -0.0329      0.1346      0.0035      0.0192      0.1568
 Ground to excited state transition magnetic dipole moments (Au):
       state          X           Y           Z
         1         0.5024      0.1971     -3.3496
 Ground to excited state transition velocity quadrupole moments (Au):
       state          XX          YY          ZZ          XY          XZ          YZ
         1         0.9251      0.0509      0.0519     -1.7718      0.0392      0.1241
 <0|del|b> * <b|rxdel|0> + <0|del|b> * <b|delr+rdel|0>
 Rotatory Strengths (R) in cgs (10**-40 erg-esu-cm/Gauss)
       state          XX          YY          ZZ    R(velocity)    E-M Angle
         1        14.4722   -113.0641     83.7831     -4.9363       90.21
 1/2[<0|r|b>*<b|rxdel|0> + (<0|rxdel|b>*<b|r|0>)*]
 Rotatory Strengths (R) in cgs (10**-40 erg-esu-cm/Gauss)
       state          XX          YY          ZZ     R(length)
         1      -155.5769    233.8312    -77.0818      0.3908
  1/2[<0|del|b>*<b|r|0> + (<0|r|b>*<b|del|0>)*] (Au)
       state          X           Y           Z        Dip. S.   Osc.(frdel)
         1        -0.0144     -0.2259     -0.0001      0.2404      0.1603

 Excitation energies and oscillator strengths:
 
 Excited State   1:      Singlet-A      2.2235 eV  557.60 nm  f=0.1639  <S**2>=0.000
     240 -> 242       -0.18675
     240 -> 243        0.27981
     241 -> 242        0.59020
     241 -> 243        0.18080
 This state for optimization and/or second-order correction.
 Total Energy, E(TD-HF/TD-DFT) =  -2932.51019113    
 Copying the excited state density for this state as the 1-particle RhoCI density.
 SavETr:  write IOETrn=   770 NScale= 10 NData=  16 NLR=1 NState=    1 LETran=      28.
 Hyperfine terms turned off by default for NAtoms > 100.
=======
         1        -0.2491      1.6396      0.1514      2.7733      0.1457
 Ground to excited state transition velocity dipole moments (Au):
       state          X           Y           Z        Dip. S.      Osc.
         1         0.0198     -0.1259     -0.0125      0.0164      0.1387
 Ground to excited state transition magnetic dipole moments (Au):
       state          X           Y           Z
         1        -0.6776     -0.3794      3.7653
 Ground to excited state transition velocity quadrupole moments (Au):
       state          XX          YY          ZZ          XY          XZ          YZ
         1        -0.6590      0.0789     -0.0519      1.6186      0.0744     -0.0878
 <0|del|b> * <b|rxdel|0> + <0|del|b> * <b|delr+rdel|0>
 Rotatory Strengths (R) in cgs (10**-40 erg-esu-cm/Gauss)
       state          XX          YY          ZZ    R(velocity)    E-M Angle
         1       -46.2219   -188.5928    119.8403    -38.3248       91.49
 1/2[<0|r|b>*<b|rxdel|0> + (<0|rxdel|b>*<b|r|0>)*]
 Rotatory Strengths (R) in cgs (10**-40 erg-esu-cm/Gauss)
       state          XX          YY          ZZ     R(length)
         1      -119.3741    439.8739   -403.1489    -27.5497
  1/2[<0|del|b>*<b|r|0> + (<0|r|b>*<b|del|0>)*] (Au)
       state          X           Y           Z        Dip. S.   Osc.(frdel)
         1        -0.0049     -0.2064     -0.0019      0.2132      0.1421

 Excitation energies and oscillator strengths:
 
 Excited State   1:      Singlet-A      2.1447 eV  578.09 nm  f=0.1457  <S**2>=0.000
     240 -> 243       -0.30672
     241 -> 242        0.62688
 This state for optimization and/or second-order correction.
 Total Energy, E(TD-HF/TD-KS) =  -2932.52230822    
 Copying the excited state density for this state as the 1-particle RhoCI density.
 SavETr:  write IOETrn=   770 NScale= 10 NData=  16 NLR=1 NState=    1 LETran=      28.
>>>>>>> 8e03b5b5abfc0030b3aa597dc0de36371bfbd096

 **********************************************************************

            Population analysis using the SCF density.

 **********************************************************************

 Orbital symmetries:
       Occupied  (A) (A) (A) (A) (A) (A) (A) (A) (A) (A) (A) (A)
                 (A) (A) (A) (A) (A) (A) (A) (A) (A) (A) (A) (A)
                 (A) (A) (A) (A) (A) (A) (A) (A) (A) (A) (A) (A)
                 (A) (A) (A) (A) (A) (A) (A) (A) (A) (A) (A) (A)
                 (A) (A) (A) (A) (A) (A) (A) (A) (A) (A) (A) (A)
                 (A) (A) (A) (A) (A) (A) (A) (A) (A) (A) (A) (A)
                 (A) (A) (A) (A) (A) (A) (A) (A) (A) (A) (A) (A)
                 (A) (A) (A) (A) (A) (A) (A) (A) (A) (A) (A) (A)
                 (A) (A) (A) (A) (A) (A) (A) (A) (A) (A) (A) (A)
                 (A) (A) (A) (A) (A) (A) (A) (A) (A) (A) (A) (A)
                 (A) (A) (A) (A) (A) (A) (A) (A) (A) (A) (A) (A)
                 (A) (A) (A) (A) (A) (A) (A) (A) (A) (A) (A) (A)
                 (A) (A) (A) (A) (A) (A) (A) (A) (A) (A) (A) (A)
                 (A) (A) (A) (A) (A) (A) (A) (A) (A) (A) (A) (A)
                 (A) (A) (A) (A) (A) (A) (A) (A) (A) (A) (A) (A)
                 (A) (A) (A) (A) (A) (A) (A) (A) (A) (A) (A) (A)
                 (A) (A) (A) (A) (A) (A) (A) (A) (A) (A) (A) (A)
                 (A) (A) (A) (A) (A) (A) (A) (A) (A) (A) (A) (A)
                 (A) (A) (A) (A) (A) (A) (A) (A) (A) (A) (A) (A)
                 (A) (A) (A) (A) (A) (A) (A) (A) (A) (A) (A) (A)
                 (A)
       Virtual   (A) (A) (A) (A) (A) (A) (A) (A) (A) (A) (A) (A)
                 (A) (A) (A) (A) (A) (A) (A) (A) (A) (A) (A) (A)
                 (A) (A) (A) (A) (A) (A) (A) (A) (A) (A) (A) (A)
                 (A) (A) (A) (A) (A) (A) (A) (A) (A) (A) (A) (A)
                 (A) (A) (A) (A) (A) (A) (A) (A) (A) (A) (A) (A)
                 (A) (A) (A) (A) (A) (A) (A) (A) (A) (A) (A) (A)
                 (A) (A) (A) (A) (A) (A) (A) (A) (A) (A) (A) (A)
                 (A) (A) (A) (A) (A) (A) (A) (A) (A) (A) (A) (A)
                 (A) (A) (A) (A) (A) (A) (A) (A) (A) (A) (A) (A)
                 (A) (A) (A) (A) (A) (A) (A) (A) (A) (A) (A) (A)
                 (A) (A) (A) (A) (A) (A) (A) (A) (A) (A) (A) (A)
                 (A) (A) (A) (A) (A) (A) (A) (A) (A) (A) (A) (A)
                 (A) (A) (A) (A) (A) (A) (A) (A) (A) (A) (A) (A)
                 (A) (A) (A) (A) (A) (A) (A) (A) (A) (A) (A) (A)
                 (A) (A) (A) (A) (A) (A) (A) (A) (A) (A) (A) (A)
                 (A) (A) (A) (A) (A) (A) (A) (A) (A) (A) (A) (A)
                 (A) (A) (A) (A) (A) (A) (A) (A) (A) (A) (A) (A)
                 (A) (A) (A) (A) (A) (A) (A) (A) (A) (A) (A) (A)
                 (A) (A) (A) (A) (A) (A) (A) (A) (A) (A) (A) (A)
                 (A) (A) (A) (A) (A) (A) (A) (A) (A) (A) (A) (A)
                 (A) (A) (A) (A) (A) (A) (A) (A) (A) (A) (A) (A)
                 (A) (A) (A) (A) (A) (A) (A) (A) (A) (A) (A) (A)
                 (A) (A) (A) (A) (A) (A) (A) (A) (A) (A) (A) (A)
                 (A) (A) (A) (A) (A) (A) (A) (A) (A) (A) (A) (A)
                 (A) (A) (A) (A) (A) (A) (A) (A) (A) (A) (A) (A)
                 (A) (A) (A) (A) (A) (A) (A) (A) (A) (A) (A) (A)
                 (A) (A) (A) (A) (A) (A) (A) (A) (A) (A) (A) (A)
                 (A) (A) (A) (A) (A) (A) (A) (A) (A) (A) (A) (A)
                 (A) (A) (A) (A) (A) (A) (A) (A) (A) (A) (A) (A)
                 (A) (A) (A) (A) (A) (A) (A) (A) (A) (A) (A) (A)
                 (A) (A) (A) (A) (A) (A) (A) (A) (A) (A) (A) (A)
                 (A) (A) (A) (A) (A) (A) (A) (A) (A) (A) (A) (A)
                 (A) (A) (A) (A) (A) (A) (A) (A) (A) (A) (A) (A)
                 (A) (A) (A) (A) (A) (A) (A) (A) (A) (A) (A) (A)
                 (A) (A) (A) (A) (A) (A) (A) (A) (A) (A) (A) (A)
                 (A) (A) (A) (A) (A) (A) (A) (A) (A) (A) (A) (A)
                 (A) (A) (A) (A) (A) (A) (A) (A) (A) (A) (A) (A)
                 (A) (A) (A) (A) (A) (A) (A) (A) (A) (A) (A) (A)
                 (A) (A) (A) (A) (A) (A) (A) (A) (A) (A) (A) (A)
                 (A) (A) (A) (A) (A) (A) (A) (A) (A) (A) (A) (A)
                 (A) (A) (A) (A) (A) (A) (A) (A) (A) (A) (A) (A)
                 (A) (A) (A) (A) (A) (A) (A) (A) (A) (A) (A) (A)
                 (A) (A) (A) (A) (A) (A) (A) (A) (A) (A) (A) (A)
                 (A) (A) (A) (A) (A) (A) (A) (A) (A) (A) (A) (A)
                 (A) (A) (A) (A) (A) (A) (A) (A) (A) (A) (A) (A)
                 (A) (A) (A) (A) (A) (A) (A) (A) (A) (A) (A) (A)
                 (A) (A) (A) (A) (A) (A) (A) (A) (A) (A) (A) (A)
                 (A) (A) (A) (A) (A) (A) (A) (A) (A) (A) (A) (A)
                 (A) (A) (A) (A) (A) (A) (A) (A) (A) (A) (A) (A)
                 (A) (A) (A) (A) (A) (A) (A) (A) (A) (A) (A) (A)
                 (A) (A) (A) (A) (A) (A) (A) (A) (A) (A) (A) (A)
                 (A) (A) (A) (A) (A) (A) (A) (A) (A) (A) (A) (A)
                 (A) (A) (A) (A) (A) (A) (A) (A) (A) (A) (A) (A)
                 (A) (A) (A) (A) (A) (A) (A) (A) (A) (A) (A) (A)
                 (A) (A) (A) (A) (A) (A) (A) (A) (A) (A) (A) (A)
                 (A) (A) (A) (A) (A) (A) (A) (A) (A) (A) (A) (A)
                 (A) (A) (A) (A) (A) (A) (A) (A) (A) (A) (A) (A)
                 (A) (A) (A) (A) (A) (A) (A) (A) (A) (A) (A) (A)
                 (A) (A) (A) (A) (A) (A) (A) (A) (A) (A) (A) (A)
                 (A) (A) (A) (A) (A) (A) (A) (A) (A) (A) (A) (A)
                 (A) (A) (A) (A) (A) (A) (A) (A) (A) (A) (A) (A)
                 (A) (A) (A) (A) (A) (A) (A) (A) (A) (A) (A) (A)
                 (A) (A) (A) (A) (A) (A) (A) (A) (A) (A) (A) (A)
                 (A) (A) (A) (A) (A) (A) (A) (A) (A) (A) (A) (A)
                 (A) (A) (A) (A) (A) (A) (A) (A) (A) (A) (A) (A)
                 (A) (A) (A) (A) (A) (A) (A) (A) (A) (A) (A) (A)
                 (A) (A) (A) (A) (A) (A) (A) (A) (A) (A) (A) (A)
                 (A) (A) (A) (A) (A) (A) (A) (A) (A) (A) (A) (A)
                 (A) (A) (A) (A) (A) (A) (A) (A) (A) (A) (A) (A)
                 (A) (A) (A) (A) (A) (A) (A) (A) (A) (A) (A) (A)
                 (A) (A) (A) (A) (A) (A) (A) (A) (A) (A) (A) (A)
                 (A) (A) (A) (A) (A) (A) (A) (A) (A) (A) (A) (A)
                 (A) (A) (A) (A) (A) (A) (A) (A) (A) (A) (A) (A)
                 (A) (A) (A) (A) (A) (A) (A) (A) (A) (A) (A) (A)
                 (A) (A) (A) (A) (A) (A) (A) (A) (A) (A) (A) (A)
                 (A) (A) (A) (A) (A) (A) (A) (A) (A) (A) (A) (A)
                 (A) (A) (A) (A) (A) (A) (A) (A) (A) (A) (A) (A)
                 (A) (A) (A) (A) (A) (A) (A) (A) (A) (A) (A) (A)
                 (A) (A) (A) (A) (A) (A) (A) (A) (A) (A) (A) (A)
                 (A) (A) (A) (A) (A) (A) (A) (A) (A) (A) (A) (A)
                 (A) (A) (A) (A) (A) (A) (A) (A) (A) (A) (A) (A)
                 (A) (A) (A) (A) (A) (A) (A) (A) (A) (A) (A) (A)
                 (A) (A) (A) (A) (A) (A) (A) (A) (A) (A) (A) (A)
                 (A) (A) (A) (A) (A) (A) (A) (A) (A) (A) (A) (A)
                 (A) (A) (A) (A) (A) (A) (A) (A) (A) (A) (A) (A)
                 (A) (A) (A) (A) (A) (A) (A) (A) (A) (A) (A) (A)
                 (A) (A) (A) (A) (A) (A) (A) (A) (A) (A) (A) (A)
                 (A) (A) (A) (A) (A) (A) (A) (A) (A) (A) (A) (A)
                 (A) (A) (A) (A) (A) (A) (A) (A) (A) (A) (A) (A)
                 (A) (A) (A) (A) (A) (A) (A) (A) (A) (A) (A) (A)
                 (A) (A) (A) (A) (A) (A) (A) (A) (A) (A) (A) (A)
                 (A) (A) (A) (A) (A) (A)
 The electronic state is 1-A.
<<<<<<< HEAD
 Alpha  occ. eigenvalues --  -46.85347 -19.26845 -19.24736 -19.22798 -19.20908
 Alpha  occ. eigenvalues --  -19.20486 -14.41801 -14.39492 -14.39015 -14.38202
 Alpha  occ. eigenvalues --  -10.39130 -10.39060 -10.36474 -10.32779 -10.32358
 Alpha  occ. eigenvalues --  -10.30796 -10.30460 -10.29965 -10.29011 -10.28891
 Alpha  occ. eigenvalues --  -10.28888 -10.28740 -10.28507 -10.28294 -10.28226
 Alpha  occ. eigenvalues --  -10.28153 -10.28105 -10.27976 -10.27465 -10.27373
 Alpha  occ. eigenvalues --  -10.26999 -10.26698 -10.26675 -10.26674 -10.26664
 Alpha  occ. eigenvalues --  -10.26562 -10.26522 -10.26518 -10.26461 -10.26441
 Alpha  occ. eigenvalues --  -10.26380 -10.26261 -10.26251 -10.26202 -10.26179
 Alpha  occ. eigenvalues --  -10.26104 -10.26090 -10.26085 -10.26054 -10.26036
 Alpha  occ. eigenvalues --  -10.26024 -10.25937 -10.25632 -10.25561 -10.25512
 Alpha  occ. eigenvalues --  -10.25439 -10.25133 -10.24281 -10.24279 -10.23931
 Alpha  occ. eigenvalues --  -10.23837 -10.23736 -10.23628 -10.23347 -10.22781
 Alpha  occ. eigenvalues --   -3.14048  -1.88789  -1.88252  -1.88221  -1.23013
 Alpha  occ. eigenvalues --   -1.16943  -1.16759  -1.11424  -1.08282  -1.05625
 Alpha  occ. eigenvalues --   -1.04027  -1.02539  -1.02106  -0.92898  -0.92712
 Alpha  occ. eigenvalues --   -0.91371  -0.90556  -0.89919  -0.89616  -0.89564
 Alpha  occ. eigenvalues --   -0.88494  -0.87713  -0.87570  -0.86735  -0.86667
 Alpha  occ. eigenvalues --   -0.85712  -0.84928  -0.84205  -0.83458  -0.83226
 Alpha  occ. eigenvalues --   -0.82205  -0.82040  -0.81037  -0.80496  -0.79018
 Alpha  occ. eigenvalues --   -0.78113  -0.77134  -0.77129  -0.76267  -0.76150
 Alpha  occ. eigenvalues --   -0.75455  -0.75197  -0.74199  -0.73301  -0.72599
 Alpha  occ. eigenvalues --   -0.71977  -0.71439  -0.68698  -0.68380  -0.67761
 Alpha  occ. eigenvalues --   -0.67197  -0.66134  -0.65617  -0.64615  -0.64222
 Alpha  occ. eigenvalues --   -0.64016  -0.63793  -0.62974  -0.62711  -0.62530
 Alpha  occ. eigenvalues --   -0.61480  -0.60519  -0.60367  -0.59561  -0.59420
 Alpha  occ. eigenvalues --   -0.58860  -0.58625  -0.58092  -0.58040  -0.57309
 Alpha  occ. eigenvalues --   -0.57216  -0.56880  -0.56463  -0.55441  -0.55419
 Alpha  occ. eigenvalues --   -0.55281  -0.54964  -0.54685  -0.53621  -0.53484
 Alpha  occ. eigenvalues --   -0.53212  -0.52951  -0.52695  -0.52206  -0.51888
 Alpha  occ. eigenvalues --   -0.51737  -0.51559  -0.51182  -0.51078  -0.50901
 Alpha  occ. eigenvalues --   -0.50708  -0.50507  -0.50216  -0.49982  -0.49824
 Alpha  occ. eigenvalues --   -0.49476  -0.49308  -0.49190  -0.48988  -0.48953
 Alpha  occ. eigenvalues --   -0.48642  -0.48364  -0.48274  -0.47951  -0.47788
 Alpha  occ. eigenvalues --   -0.47400  -0.47098  -0.46978  -0.46801  -0.46548
 Alpha  occ. eigenvalues --   -0.46301  -0.46212  -0.45981  -0.45899  -0.45772
 Alpha  occ. eigenvalues --   -0.45520  -0.45238  -0.45038  -0.44784  -0.44650
 Alpha  occ. eigenvalues --   -0.44269  -0.44041  -0.43840  -0.43657  -0.43419
 Alpha  occ. eigenvalues --   -0.43280  -0.42812  -0.42715  -0.42633  -0.42365
 Alpha  occ. eigenvalues --   -0.42131  -0.41870  -0.41781  -0.41604  -0.41195
 Alpha  occ. eigenvalues --   -0.41066  -0.40920  -0.40831  -0.40552  -0.40468
 Alpha  occ. eigenvalues --   -0.39906  -0.39633  -0.39281  -0.38959  -0.38861
 Alpha  occ. eigenvalues --   -0.38634  -0.38302  -0.38032  -0.37864  -0.37628
 Alpha  occ. eigenvalues --   -0.37263  -0.37115  -0.36789  -0.36678  -0.36487
 Alpha  occ. eigenvalues --   -0.35968  -0.35840  -0.35500  -0.35399  -0.35065
 Alpha  occ. eigenvalues --   -0.35046  -0.34910  -0.34406  -0.33978  -0.33095
 Alpha  occ. eigenvalues --   -0.32753  -0.32562  -0.32116  -0.30893  -0.29724
 Alpha  occ. eigenvalues --   -0.29575  -0.28793  -0.28237  -0.27842  -0.23153
 Alpha  occ. eigenvalues --   -0.21160
 Alpha virt. eigenvalues --   -0.05412  -0.03363   0.02479   0.04622   0.05530
 Alpha virt. eigenvalues --    0.06476   0.06604   0.06942   0.07418   0.07739
 Alpha virt. eigenvalues --    0.08741   0.10906   0.10916   0.11499   0.11567
 Alpha virt. eigenvalues --    0.11731   0.12395   0.12539   0.12979   0.13413
 Alpha virt. eigenvalues --    0.13768   0.13788   0.14016   0.14290   0.14328
 Alpha virt. eigenvalues --    0.14543   0.14947   0.15105   0.15131   0.15562
 Alpha virt. eigenvalues --    0.15869   0.15914   0.16009   0.16643   0.16888
 Alpha virt. eigenvalues --    0.17102   0.17217   0.17478   0.17590   0.17740
 Alpha virt. eigenvalues --    0.17823   0.17915   0.18208   0.18278   0.18486
 Alpha virt. eigenvalues --    0.18530   0.18704   0.18834   0.19375   0.19779
 Alpha virt. eigenvalues --    0.19798   0.19944   0.20159   0.20267   0.20453
 Alpha virt. eigenvalues --    0.20527   0.20551   0.20830   0.20986   0.21195
 Alpha virt. eigenvalues --    0.21398   0.21497   0.21567   0.21619   0.21731
 Alpha virt. eigenvalues --    0.21924   0.21929   0.22335   0.22359   0.22414
 Alpha virt. eigenvalues --    0.22636   0.22923   0.23144   0.23456   0.23501
 Alpha virt. eigenvalues --    0.23712   0.23772   0.23864   0.24041   0.24405
 Alpha virt. eigenvalues --    0.24770   0.24914   0.25070   0.25232   0.25398
 Alpha virt. eigenvalues --    0.25486   0.25715   0.25988   0.26321   0.26382
 Alpha virt. eigenvalues --    0.26419   0.26676   0.26741   0.27148   0.27566
 Alpha virt. eigenvalues --    0.27962   0.28018   0.28542   0.28598   0.28846
 Alpha virt. eigenvalues --    0.29504   0.29722   0.29824   0.30228   0.30377
 Alpha virt. eigenvalues --    0.30651   0.30746   0.31063   0.31210   0.31482
 Alpha virt. eigenvalues --    0.31597   0.31663   0.31772   0.32067   0.32163
 Alpha virt. eigenvalues --    0.32459   0.32859   0.33181   0.33488   0.33655
 Alpha virt. eigenvalues --    0.33863   0.34377   0.34530   0.34705   0.35059
 Alpha virt. eigenvalues --    0.35363   0.35760   0.35994   0.36208   0.36690
 Alpha virt. eigenvalues --    0.36944   0.37064   0.38056   0.38407   0.39014
 Alpha virt. eigenvalues --    0.39369   0.40085   0.40480   0.40631   0.41009
 Alpha virt. eigenvalues --    0.41357   0.41719   0.42324   0.42762   0.42954
 Alpha virt. eigenvalues --    0.43077   0.43304   0.43714   0.44629   0.45342
 Alpha virt. eigenvalues --    0.46106   0.46859   0.47992   0.49074   0.50030
 Alpha virt. eigenvalues --    0.50261   0.50632   0.51198   0.52157   0.52562
 Alpha virt. eigenvalues --    0.52674   0.53453   0.53988   0.54771   0.54832
 Alpha virt. eigenvalues --    0.55108   0.55400   0.55508   0.55692   0.55933
 Alpha virt. eigenvalues --    0.56383   0.56585   0.56782   0.56966   0.57180
 Alpha virt. eigenvalues --    0.57221   0.57574   0.57703   0.57814   0.57950
 Alpha virt. eigenvalues --    0.58281   0.58443   0.58562   0.58813   0.58967
 Alpha virt. eigenvalues --    0.59234   0.59630   0.59714   0.59931   0.60586
 Alpha virt. eigenvalues --    0.60734   0.60975   0.61375   0.61454   0.61473
 Alpha virt. eigenvalues --    0.61544   0.61916   0.62240   0.62409   0.62596
 Alpha virt. eigenvalues --    0.62881   0.63155   0.63217   0.63799   0.64224
 Alpha virt. eigenvalues --    0.64309   0.64864   0.64919   0.65245   0.65536
 Alpha virt. eigenvalues --    0.65896   0.66112   0.66171   0.66240   0.66690
 Alpha virt. eigenvalues --    0.66981   0.67063   0.67332   0.67591   0.67745
 Alpha virt. eigenvalues --    0.68007   0.68496   0.68609   0.69004   0.69353
 Alpha virt. eigenvalues --    0.69755   0.69986   0.70536   0.70951   0.71233
 Alpha virt. eigenvalues --    0.71520   0.71599   0.71810   0.72149   0.72411
 Alpha virt. eigenvalues --    0.72847   0.72972   0.73220   0.73602   0.73707
 Alpha virt. eigenvalues --    0.74123   0.74221   0.74349   0.74715   0.74918
 Alpha virt. eigenvalues --    0.75244   0.75882   0.75963   0.76112   0.76249
 Alpha virt. eigenvalues --    0.76514   0.76987   0.77043   0.77483   0.77532
 Alpha virt. eigenvalues --    0.77612   0.77756   0.78179   0.78256   0.78917
 Alpha virt. eigenvalues --    0.79149   0.79270   0.79449   0.79577   0.79901
 Alpha virt. eigenvalues --    0.80169   0.80447   0.80679   0.80776   0.80973
 Alpha virt. eigenvalues --    0.81109   0.81570   0.81868   0.81953   0.82429
 Alpha virt. eigenvalues --    0.82532   0.82827   0.82959   0.83041   0.83225
 Alpha virt. eigenvalues --    0.83606   0.83759   0.83922   0.84118   0.84293
 Alpha virt. eigenvalues --    0.84787   0.84941   0.85026   0.85098   0.85638
 Alpha virt. eigenvalues --    0.85847   0.85938   0.86124   0.86435   0.86624
 Alpha virt. eigenvalues --    0.86917   0.86982   0.87082   0.87263   0.87879
 Alpha virt. eigenvalues --    0.88121   0.88246   0.88544   0.88626   0.88931
 Alpha virt. eigenvalues --    0.89009   0.89039   0.89674   0.89870   0.89952
 Alpha virt. eigenvalues --    0.90133   0.90333   0.90486   0.90704   0.90876
 Alpha virt. eigenvalues --    0.91125   0.91170   0.91409   0.91877   0.91928
 Alpha virt. eigenvalues --    0.92215   0.92397   0.92520   0.92792   0.92955
 Alpha virt. eigenvalues --    0.93241   0.93366   0.93440   0.93520   0.93644
 Alpha virt. eigenvalues --    0.93835   0.94182   0.94455   0.94665   0.94885
 Alpha virt. eigenvalues --    0.94978   0.95457   0.95744   0.95918   0.96085
 Alpha virt. eigenvalues --    0.96198   0.96432   0.96589   0.96772   0.96915
 Alpha virt. eigenvalues --    0.97055   0.97326   0.97639   0.97738   0.97907
 Alpha virt. eigenvalues --    0.98374   0.98434   0.98557   0.98914   0.99186
 Alpha virt. eigenvalues --    0.99486   0.99759   0.99854   1.00303   1.00354
 Alpha virt. eigenvalues --    1.00686   1.00977   1.01252   1.01541   1.01628
 Alpha virt. eigenvalues --    1.01719   1.01970   1.02315   1.02416   1.02527
 Alpha virt. eigenvalues --    1.02584   1.03135   1.03389   1.03928   1.03970
 Alpha virt. eigenvalues --    1.04230   1.04370   1.04589   1.05035   1.05347
 Alpha virt. eigenvalues --    1.05423   1.05580   1.05961   1.06476   1.06811
 Alpha virt. eigenvalues --    1.06963   1.07337   1.07836   1.07925   1.08429
 Alpha virt. eigenvalues --    1.08804   1.09042   1.09448   1.09840   1.10033
 Alpha virt. eigenvalues --    1.10396   1.10716   1.11018   1.11788   1.11962
 Alpha virt. eigenvalues --    1.12559   1.12645   1.13049   1.13134   1.13539
 Alpha virt. eigenvalues --    1.14098   1.14254   1.14381   1.14882   1.15433
 Alpha virt. eigenvalues --    1.15554   1.15798   1.16344   1.16738   1.17494
 Alpha virt. eigenvalues --    1.17702   1.18120   1.18974   1.19102   1.20343
 Alpha virt. eigenvalues --    1.20883   1.21371   1.21770   1.22467   1.23073
 Alpha virt. eigenvalues --    1.23390   1.23586   1.24434   1.24981   1.25417
 Alpha virt. eigenvalues --    1.25947   1.26315   1.26743   1.27419   1.27869
 Alpha virt. eigenvalues --    1.27922   1.28288   1.28578   1.30340   1.30743
 Alpha virt. eigenvalues --    1.31205   1.31775   1.32423   1.32846   1.33279
 Alpha virt. eigenvalues --    1.33469   1.33726   1.33978   1.34646   1.35273
 Alpha virt. eigenvalues --    1.35788   1.36409   1.36696   1.37434   1.37590
 Alpha virt. eigenvalues --    1.38292   1.38737   1.38932   1.39593   1.39702
 Alpha virt. eigenvalues --    1.40469   1.40795   1.41338   1.41992   1.42285
 Alpha virt. eigenvalues --    1.42819   1.42911   1.43054   1.44621   1.44872
 Alpha virt. eigenvalues --    1.45034   1.46150   1.46542   1.46947   1.47156
 Alpha virt. eigenvalues --    1.48653   1.48681   1.49124   1.50058   1.50257
 Alpha virt. eigenvalues --    1.51119   1.51607   1.52040   1.52457   1.52719
 Alpha virt. eigenvalues --    1.53146   1.53603   1.53881   1.54265   1.55431
 Alpha virt. eigenvalues --    1.55613   1.55913   1.56896   1.57144   1.57381
 Alpha virt. eigenvalues --    1.58096   1.58377   1.59262   1.59310   1.59652
 Alpha virt. eigenvalues --    1.59860   1.60442   1.60909   1.61518   1.62226
 Alpha virt. eigenvalues --    1.62566   1.62923   1.63260   1.63417   1.63848
 Alpha virt. eigenvalues --    1.64153   1.64230   1.64501   1.65294   1.65460
 Alpha virt. eigenvalues --    1.66185   1.66667   1.66762   1.67579   1.67774
 Alpha virt. eigenvalues --    1.68019   1.68858   1.69461   1.69780   1.69837
 Alpha virt. eigenvalues --    1.70457   1.71107   1.71399   1.71481   1.71539
 Alpha virt. eigenvalues --    1.72093   1.72665   1.73589   1.73950   1.74589
 Alpha virt. eigenvalues --    1.75576   1.75618   1.76260   1.76477   1.76584
 Alpha virt. eigenvalues --    1.76688   1.77051   1.77290   1.77697   1.78195
 Alpha virt. eigenvalues --    1.78775   1.78787   1.79375   1.79501   1.79761
 Alpha virt. eigenvalues --    1.80082   1.80770   1.81360   1.81605   1.81855
 Alpha virt. eigenvalues --    1.82344   1.82387   1.83127   1.83546   1.83865
 Alpha virt. eigenvalues --    1.84382   1.84714   1.85379   1.85869   1.86041
 Alpha virt. eigenvalues --    1.86296   1.86656   1.86840   1.86994   1.87200
 Alpha virt. eigenvalues --    1.87285   1.87446   1.87620   1.88013   1.88260
 Alpha virt. eigenvalues --    1.88860   1.89012   1.89140   1.89300   1.89540
 Alpha virt. eigenvalues --    1.90088   1.90234   1.90399   1.90644   1.90972
 Alpha virt. eigenvalues --    1.91168   1.91543   1.91780   1.91844   1.92642
 Alpha virt. eigenvalues --    1.92806   1.92884   1.93476   1.93679   1.93906
 Alpha virt. eigenvalues --    1.94047   1.94489   1.94697   1.95043   1.95105
 Alpha virt. eigenvalues --    1.95691   1.96052   1.96218   1.96301   1.96632
 Alpha virt. eigenvalues --    1.96661   1.97348   1.97523   1.97802   1.98386
 Alpha virt. eigenvalues --    1.98551   1.98842   1.99030   1.99277   1.99576
 Alpha virt. eigenvalues --    1.99610   2.00177   2.00407   2.00505   2.00947
 Alpha virt. eigenvalues --    2.01290   2.01482   2.01785   2.02026   2.02226
 Alpha virt. eigenvalues --    2.02485   2.02806   2.03023   2.03282   2.03340
 Alpha virt. eigenvalues --    2.03872   2.03928   2.04303   2.04704   2.05803
 Alpha virt. eigenvalues --    2.06027   2.06424   2.06634   2.06839   2.06938
 Alpha virt. eigenvalues --    2.07559   2.07715   2.07798   2.07919   2.08126
 Alpha virt. eigenvalues --    2.08444   2.08576   2.08915   2.09577   2.09869
 Alpha virt. eigenvalues --    2.10189   2.10314   2.10508   2.10890   2.11228
 Alpha virt. eigenvalues --    2.11523   2.11940   2.12232   2.12522   2.12551
 Alpha virt. eigenvalues --    2.12990   2.13046   2.13251   2.13777   2.14223
 Alpha virt. eigenvalues --    2.14446   2.14565   2.14790   2.15163   2.15561
 Alpha virt. eigenvalues --    2.15653   2.15929   2.16333   2.17013   2.17422
 Alpha virt. eigenvalues --    2.17680   2.18260   2.18445   2.18577   2.18720
 Alpha virt. eigenvalues --    2.18866   2.19110   2.19742   2.19803   2.20326
 Alpha virt. eigenvalues --    2.21060   2.21289   2.21487   2.22064   2.22085
 Alpha virt. eigenvalues --    2.22414   2.22925   2.22971   2.23516   2.23794
 Alpha virt. eigenvalues --    2.23923   2.24143   2.24567   2.25056   2.25421
 Alpha virt. eigenvalues --    2.25889   2.26135   2.26296   2.26594   2.27016
 Alpha virt. eigenvalues --    2.27184   2.27361   2.27709   2.28142   2.28220
[...]
 Alpha virt. eigenvalues --    2.12419   2.12794   2.13117   2.13166   2.13656
 Alpha virt. eigenvalues --    2.13808   2.14193   2.14799   2.15164   2.15211
 Alpha virt. eigenvalues --    2.15402   2.15699   2.16105   2.16561   2.16569
 Alpha virt. eigenvalues --    2.17041   2.17282   2.17753   2.18048   2.18126
 Alpha virt. eigenvalues --    2.18366   2.18720   2.19178   2.19426   2.20034
 Alpha virt. eigenvalues --    2.20546   2.20663   2.21090   2.21187   2.21610
 Alpha virt. eigenvalues --    2.21707   2.21784   2.22017   2.22371   2.22686
 Alpha virt. eigenvalues --    2.23084   2.23250   2.23770   2.24205   2.24740
 Alpha virt. eigenvalues --    2.24832   2.25197   2.25630   2.26611   2.26929
 Alpha virt. eigenvalues --    2.27267   2.27540   2.27751   2.28418   2.28667
 Alpha virt. eigenvalues --    2.28787   2.28982   2.29316   2.29971   2.30284
 Alpha virt. eigenvalues --    2.30583   2.30657   2.31307   2.31734   2.32018
 Alpha virt. eigenvalues --    2.32239   2.32357   2.32833   2.33033   2.33300
 Alpha virt. eigenvalues --    2.33350   2.33984   2.34029   2.34466   2.34908
 Alpha virt. eigenvalues --    2.35467   2.35656   2.36362   2.36471   2.36625
 Alpha virt. eigenvalues --    2.36992   2.37107   2.37463   2.37744   2.37944
 Alpha virt. eigenvalues --    2.38082   2.38318   2.38782   2.39258   2.39765
 Alpha virt. eigenvalues --    2.39940   2.40373   2.40467   2.40888   2.41212
 Alpha virt. eigenvalues --    2.41320   2.41517   2.41882   2.41928   2.42364
 Alpha virt. eigenvalues --    2.42735   2.43068   2.43427   2.43580   2.43940
 Alpha virt. eigenvalues --    2.44394   2.44806   2.45039   2.45446   2.45977
 Alpha virt. eigenvalues --    2.46339   2.46439   2.46679   2.46961   2.47155
 Alpha virt. eigenvalues --    2.47223   2.47463   2.47611   2.48158   2.48438
 Alpha virt. eigenvalues --    2.48813   2.49406   2.49667   2.50083   2.50335
 Alpha virt. eigenvalues --    2.50953   2.51276   2.51434   2.51830   2.52004
 Alpha virt. eigenvalues --    2.52217   2.52927   2.53325   2.53909   2.54042
 Alpha virt. eigenvalues --    2.54227   2.54306   2.54994   2.55044   2.55497
 Alpha virt. eigenvalues --    2.55721   2.56327   2.57078   2.57270   2.58033
 Alpha virt. eigenvalues --    2.58406   2.58577   2.59084   2.59406   2.59808
 Alpha virt. eigenvalues --    2.59895   2.60153   2.60371   2.60849   2.61537
 Alpha virt. eigenvalues --    2.61658   2.62322   2.62558   2.62720   2.63234
 Alpha virt. eigenvalues --    2.63478   2.64269   2.64569   2.65034   2.65436
 Alpha virt. eigenvalues --    2.65926   2.66193   2.66266   2.66781   2.66910
 Alpha virt. eigenvalues --    2.67250   2.67337   2.67886   2.68267   2.68771
 Alpha virt. eigenvalues --    2.68935   2.69583   2.69937   2.70589   2.70869
 Alpha virt. eigenvalues --    2.71108   2.71367   2.71908   2.72138   2.72605
 Alpha virt. eigenvalues --    2.72781   2.72996   2.73443   2.73543   2.73869
 Alpha virt. eigenvalues --    2.74017   2.74809   2.74892   2.75216   2.75635
 Alpha virt. eigenvalues --    2.76411   2.76762   2.77148   2.77321   2.77371
 Alpha virt. eigenvalues --    2.77504   2.77578   2.78081   2.78894   2.79065
 Alpha virt. eigenvalues --    2.79176   2.79591   2.80034   2.80248   2.80328
 Alpha virt. eigenvalues --    2.80604   2.80854   2.81145   2.81447   2.82077
 Alpha virt. eigenvalues --    2.82277   2.82445   2.83037   2.83129   2.83564
 Alpha virt. eigenvalues --    2.84312   2.84514   2.84638   2.84838   2.85385
 Alpha virt. eigenvalues --    2.85803   2.86443   2.86859   2.87285   2.87322
 Alpha virt. eigenvalues --    2.88062   2.88363   2.88512   2.89405   2.89472
 Alpha virt. eigenvalues --    2.89803   2.89891   2.90264   2.90524   2.90968
 Alpha virt. eigenvalues --    2.91146   2.91586   2.91696   2.92129   2.92975
 Alpha virt. eigenvalues --    2.93114   2.93550   2.93931   2.94550   2.94695
 Alpha virt. eigenvalues --    2.94885   2.95206   2.95781   2.95891   2.96037
 Alpha virt. eigenvalues --    2.96524   2.97157   2.97409   2.97699   2.97994
 Alpha virt. eigenvalues --    2.98481   2.98820   2.98933   2.99424   2.99624
 Alpha virt. eigenvalues --    3.00214   3.00654   3.00934   3.01563   3.01616
 Alpha virt. eigenvalues --    3.01686   3.02382   3.03025   3.03642   3.04200
 Alpha virt. eigenvalues --    3.04621   3.05105   3.05719   3.06193   3.06620
 Alpha virt. eigenvalues --    3.07470   3.07976   3.08723   3.09607   3.10353
 Alpha virt. eigenvalues --    3.10474   3.11103   3.11190   3.11768   3.12048
 Alpha virt. eigenvalues --    3.13275   3.14228   3.14351   3.14774   3.15229
 Alpha virt. eigenvalues --    3.15783   3.16071   3.16597   3.17873   3.19234
 Alpha virt. eigenvalues --    3.19762   3.20191   3.21232   3.21688   3.22540
 Alpha virt. eigenvalues --    3.23011   3.23386   3.23883   3.24293   3.26069
 Alpha virt. eigenvalues --    3.28019   3.28630   3.28801   3.28976   3.29443
 Alpha virt. eigenvalues --    3.30564   3.31875   3.32510   3.32937   3.33256
 Alpha virt. eigenvalues --    3.34577   3.35838   3.35963   3.36535   3.37390
 Alpha virt. eigenvalues --    3.38293   3.38479   3.39526   3.40221   3.40532
 Alpha virt. eigenvalues --    3.41087   3.41843   3.43009   3.43865   3.45206
 Alpha virt. eigenvalues --    3.45445   3.46130   3.46426   3.47055   3.47682
 Alpha virt. eigenvalues --    3.47787   3.50119   3.50138   3.50439   3.51000
 Alpha virt. eigenvalues --    3.51691   3.51892   3.52436   3.53005   3.53126
 Alpha virt. eigenvalues --    3.53935   3.54121   3.54684   3.56518   3.57729
 Alpha virt. eigenvalues --    3.58199   3.58553   3.58951   3.60382   3.60760
 Alpha virt. eigenvalues --    3.60871   3.61031   3.61087   3.62072   3.62815
 Alpha virt. eigenvalues --    3.64057   3.64288   3.66212   3.66376   3.67102
 Alpha virt. eigenvalues --    3.69462   3.69638   3.71542   3.74116   3.77397
 Alpha virt. eigenvalues --    3.77638   3.92542   3.95804   4.07922   4.09520
 Alpha virt. eigenvalues --    4.11924   4.20233   4.21981   4.22765   4.23519
 Alpha virt. eigenvalues --    4.24008   4.26418   4.27033   4.28133   4.28506
 Alpha virt. eigenvalues --    4.29367   4.30293   4.30985   4.32814   4.34123
 Alpha virt. eigenvalues --    4.35477   4.36087   4.38609   4.39180   4.40440
 Alpha virt. eigenvalues --    4.40948   4.41843   4.43010   4.44022   4.44484
 Alpha virt. eigenvalues --    4.46825   4.46871   4.47950   4.49397   4.49839
 Alpha virt. eigenvalues --    4.50591   4.51097   4.54985   4.55167   4.56422
 Alpha virt. eigenvalues --    4.56665   4.58070   4.59209   4.59349   4.59395
 Alpha virt. eigenvalues --    4.60841   4.62626   4.63177   4.64624   4.66676
 Alpha virt. eigenvalues --    4.68054   4.68863   4.69991   4.70984   4.72921
 Alpha virt. eigenvalues --    4.73399   4.74300   4.77049   4.80564   4.82234
 Alpha virt. eigenvalues --    4.84609   4.85151   4.86050   4.87768   4.89885
 Alpha virt. eigenvalues --    4.91040   4.94553   4.98652
          Condensed to atoms (all electrons):
 Mulliken charges:
               1
     1  Mg   0.831285
     2  C    0.037295
     3  C   -0.228006
     4  C   -0.162497
     5  C   -0.149571
     6  N   -0.605035
     7  C    0.262220
     8  C   -0.145749
     9  C   -0.149322
    10  C    0.367265
    11  C   -0.325445
    12  C   -0.154738
    13  C   -0.268828
    14  C    0.599924
    15  O   -0.507748
    16  O   -0.480885
    17  N   -0.703604
    18  C    0.340231
    19  C    0.007879
    20  C    0.059213
    21  C    0.260261
    22  C   -0.343565
    23  C   -0.127618
    24  C   -0.240086
    25  N   -0.714765
    26  C    0.333866
    27  C    0.025779
    28  C    0.042914
    29  C    0.220849
    30  C   -0.367494
    31  C   -0.228501
    32  C   -0.316911
    33  N   -0.715154
    34  C    0.251035
    35  C    0.037248
    36  C   -0.013322
    37  C    0.269353
    38  C   -0.394127
    39  C    0.397494
    40  O   -0.438804
    41  C   -0.299430
    42  C    0.597222
    43  O   -0.422319
    44  O   -0.494917
    45  C   -0.057744
    46  C    0.059181
    47  C   -0.155925
    48  C    0.103618
    49  C   -0.376837
    50  C   -0.202111
    51  C   -0.207379
    52  C   -0.191626
    53  C   -0.066515
    54  C   -0.259314
    55  C   -0.190310
    56  C   -0.197166
    57  C   -0.156846
    58  C   -0.054955
    59  C   -0.308355
    60  C   -0.165296
    61  C   -0.183539
    62  C   -0.149694
    63  C   -0.054732
    64  C   -0.291846
    65  C   -0.335479
    66  H    0.074540
    67  H    0.080406
    68  H    0.105553
    69  H    0.150490
    70  H    0.113592
    71  H    0.114210
    72  H    0.114703
    73  H    0.103420
    74  H    0.109750
    75  H    0.122488
    76  H    0.138808
    77  H    0.143381
    78  H    0.134641
    79  H    0.118874
    80  H    0.116343
    81  H    0.107810
    82  H    0.110419
    83  H    0.093748
    84  H    0.080813
    85  H    0.080535
    86  H    0.137600
    87  H    0.103135
    88  H    0.108654
    89  H    0.074176
    90  H    0.124734
    91  H    0.111382
    92  H    0.108828
    93  H    0.154099
    94  H    0.119464
    95  H    0.178105
    96  H    0.083674
    97  H    0.148399
    98  H    0.110437
    99  H    0.129138
   100  H    0.112083
   101  H    0.093999
   102  H    0.117029
   103  H    0.111789
   104  H    0.135159
   105  H    0.107939
   106  H    0.105739
   107  H    0.115588
   108  H    0.067423
   109  H    0.086438
   110  H    0.100554
   111  H    0.094857
   112  H    0.077391
   113  H    0.096372
   114  H    0.092244
   115  H    0.090732
   116  H    0.078907
   117  H    0.092370
   118  H    0.092010
   119  H    0.098065
   120  H    0.103039
   121  H    0.088205
   122  H    0.087460
   123  H    0.075278
   124  H    0.105260
   125  H    0.092672
   126  H    0.058577
   127  H    0.083171
   128  H    0.093656
   129  H    0.065042
   130  H    0.103059
   131  H    0.083878
   132  H    0.087053
   133  H    0.087665
   134  H    0.105437
   135  H    0.080324
   136  H    0.106408
   137  H    0.120750
 Sum of Mulliken charges =   0.00000
 Mulliken charges with hydrogens summed into heavy atoms:
               1
     1  Mg   0.831285
     2  C    0.037295
     3  C   -0.153466
     4  C   -0.082091
     5  C   -0.044018
     6  N   -0.605035
     7  C    0.262220
     8  C    0.004742
     9  C   -0.035730
    10  C    0.367265
    11  C    0.006889
    12  C    0.077500
    13  C    0.013361
    14  C    0.599924
    15  O   -0.507748
    16  O   -0.480885
    17  N   -0.703604
    18  C    0.340231
    19  C    0.007879
    20  C    0.059213
    21  C    0.260261
    22  C    0.026294
    23  C   -0.019807
    24  C   -0.035920
    25  N   -0.714765
    26  C    0.333866
    27  C    0.025779
    28  C    0.042914
    29  C    0.220849
    30  C   -0.068546
    31  C   -0.016712
    32  C   -0.006619
    33  N   -0.715154
    34  C    0.251035
    35  C    0.037248
    36  C   -0.013322
    37  C    0.269353
    38  C   -0.011736
    39  C    0.397494
    40  O   -0.438804
    41  C   -0.121325
    42  C    0.597222
    43  O   -0.422319
    44  O   -0.494917
    45  C    0.284765
    46  C    0.300403
    47  C   -0.061926
    48  C    0.103618
    49  C   -0.012859
    50  C    0.011567
    51  C   -0.024367
    52  C   -0.004634
    53  C    0.028342
    54  C    0.006693
    55  C   -0.020672
    56  C   -0.012786
    57  C    0.044259
    58  C    0.033250
    59  C   -0.040358
    60  C   -0.014048
    61  C   -0.006711
    62  C    0.018407
    63  C    0.029146
    64  C   -0.011692
    65  C   -0.027996
 Electronic spatial extent (au):  <R**2>=         179649.5982
 Charge=              0.0000 electrons
 Dipole moment (field-independent basis, Debye):
    X=              1.9277    Y=              4.9680    Z=              1.2450  Tot=              5.4724
 Quadrupole moment (field-independent basis, Debye-Ang):
   XX=           -351.6610   YY=           -389.6941   ZZ=           -396.5244
   XY=            -18.8798   XZ=              6.9935   YZ=              2.7885
 Traceless Quadrupole moment (field-independent basis, Debye-Ang):
   XX=             27.6322   YY=            -10.4009   ZZ=            -17.2313
   XY=            -18.8798   XZ=              6.9935   YZ=              2.7885
 Octapole moment (field-independent basis, Debye-Ang**2):
  XXX=           -416.7987  YYY=            149.6302  ZZZ=             27.9985  XYY=           -131.1700
  XXY=             35.9508  XXZ=           -137.0672  XZZ=             17.4113  YZZ=            -18.0844
  YYZ=             50.0937  XYZ=            -52.0121
 Hexadecapole moment (field-independent basis, Debye-Ang**3):
 XXXX=        -219868.9108 YYYY=         -17441.7337 ZZZZ=          -4197.4694 XXXY=          -1000.0188
 XXXZ=           1483.5886 YYYX=          -1156.9126 YYYZ=             23.3761 ZZZX=            -30.8270
 ZZZY=            -78.3516 XXYY=         -40004.8488 XXZZ=         -38711.1704 YYZZ=          -3495.6682
 XXYZ=            567.8060 YYXZ=            -28.5976 ZZXY=            149.8911
 N-N= 8.735723871660D+03 E-N=-2.429451255799D+04  KE= 2.905960142373D+03
 1\1\GINC-PEDRO-RYZENSSD\SP\RCAM-B3LYP TD-FC\6-31G(d,p)\C55H72Mg1N4O5\P
 ADAWAN\02-Jul-2019\0\\# td=(NStates=1) CAM-B3LYP/6-31G(d,p)\\TD\\0,1\M
 g,0,-7.2008106541,0.5622949776,0.0587735648\C,0,-4.8614407621,-1.97990
 91693,0.5107276055\C,0,-4.7893788668,2.8093493822,1.1783742023\C,0,-9.
 3592806636,3.1387793734,-0.4810209618\C,0,-9.5961299267,-1.7978052915,
 -0.8424206712\N,0,-5.1394473693,0.3559154096,0.8494953678\C,0,-4.28984
 8691,-0.7855383758,0.8402620494\C,0,-2.8613351389,-0.4518446102,1.2469
 250467\C,0,-3.0554889873,1.0594486132,1.6781885496\C,0,-4.339800975,1.
 4452152703,1.2122882587\C,0,-2.7255576379,1.2351358017,3.1428156905\C,
 0,-1.9790213631,-0.5462398854,0.1032042787\C,0,-0.4908965123,-0.586593
 0065,0.5671108404\C,0,0.4804191791,-0.7956830812,-0.5518205626\O,0,0.1
 74728713,-1.0660720148,-1.7524415759\O,0,1.7520270132,-0.5651039068,-0
 .1819649854\N,0,-7.0426847164,2.5824638362,0.3393126268\C,0,-6.0014194
 209,3.3376647423,0.7968532189\C,0,-6.2942766808,4.7944437338,0.7607967
 669\C,0,-7.568199527,4.8939200235,0.3321316045\C,0,-8.1135656282,3.501
 2493202,0.040126559\C,0,-5.3636743241,5.9667991458,0.9845332138\C,0,-8
 .4025080484,5.9862196557,-0.0559386085\C,0,-8.5017540667,7.2166077794,
 0.561442394\N,0,-9.0811803906,0.6974326044,-0.5547995137\C,0,-9.835179
 7777,1.7704469978,-0.6516714912\C,0,-11.151684265,1.4537437135,-1.0424
 259621\C,0,-11.2271851224,0.0999253566,-1.2056092749\C,0,-9.9195176325
 ,-0.3984918235,-0.9219872148\C,0,-12.2601748412,2.4205126223,-1.211237
 8986\C,0,-12.3757021165,-0.7335007602,-1.6655273612\C,0,-12.486286117,
 -0.8365360648,-3.2417292915\N,0,-7.1852879971,-1.3532549391,-0.1092055
 976\C,0,-8.3476050003,-2.2039855707,-0.5628312383\C,0,-7.8663127769,-3
 .5998182493,-0.4399912764\C,0,-6.5247863627,-3.5850128383,-0.197771509
 1\C,0,-6.1465372501,-2.2596742487,-0.0053377296\C,0,-8.6388913565,-4.8
 214149839,-0.7898574641\C,0,-5.3588603563,-4.4460884923,0.2676396366\O
 ,0,-5.2064194798,-5.6448689703,0.3036873994\C,0,-4.2351370931,-3.40133
 59234,0.470776943\C,0,-3.5733479657,-3.6592411454,1.8764880217\O,0,-3.
 6985514557,-3.2018869249,2.9405667378\O,0,-2.6458357773,-4.7401087333,
 1.7040889898\C,0,-2.305151103,-5.345248754,3.0095958951\C,0,2.82874538
 62,-0.6952473193,-1.0708482852\C,0,4.1528773767,-0.4051186882,-0.43511
 36604\C,0,5.0609795824,0.4071269781,-0.9744172144\C,0,5.016200043,1.09
 50721565,-2.3142755929\C,0,6.4298573185,0.5493767879,-0.2895054357\C,0
 ,7.6214996879,-0.0748678337,-1.0552024707\C,0,8.8882907017,0.053260195
 6,-0.101401953\C,0,10.1746980943,-0.5130583775,-0.8540163721\C,0,10.02
 69793981,-1.9249134274,-1.3371071757\C,0,11.4176346404,-0.2108848693,-
 0.0777769091\C,0,12.8040753152,-0.4399780489,-0.8249125142\C,0,13.9136
 808365,-0.0230435072,0.1146485324\C,0,15.2924853734,-0.0801917483,-0.5
 482230621\C,0,15.6354452134,-1.546072241,-0.932702888\C,0,16.445718677
 8,0.4135957196,0.3446589731\C,0,17.8639109805,0.4602774261,-0.12877869
 25\C,0,18.7904694164,1.2434425613,0.7827887119\C,0,20.2205107203,1.366
 0569392,0.2784826115\C,0,20.3224035942,2.0675350507,-1.0132823209\C,0,
 21.1480157324,2.0146644027,1.5335487183\H,0,-4.1254540299,3.6829338148
 ,1.660260613\H,0,-9.9830787006,3.9813589709,-0.5523606276\H,0,-10.4691
 802074,-2.4420335442,-0.9564422964\H,0,-2.7002664835,-1.1484331572,2.1
 004907403\H,0,-2.4021338186,1.7629598786,1.0451551659\H,0,-1.731227580
 3,0.9752179747,3.6018538989\H,0,-2.7551305731,2.1697610336,3.685520717
 5\H,0,-3.598763319,0.8085955436,3.8619886117\H,0,-2.2057730622,-1.6261
 625767,-0.2565095602\H,0,-2.0739790704,0.2618634367,-0.8016402036\H,0,
 -0.2377572931,0.3562802419,1.0356339625\H,0,-0.2811359156,-1.33034755,
 1.3497089261\H,0,-5.6668154569,6.6884174858,0.4602217314\H,0,-5.468393
 8288,6.2245558187,2.0840046976\H,0,-4.2885228083,5.7923704034,0.771160
 2916\H,0,-9.2859406466,5.8339595441,-0.7698572139\H,0,-9.298011017,7.9
 188326222,0.326132235\H,0,-7.9175812239,7.6139877983,1.5593543209\H,0,
 -11.7026243675,3.3736776938,-1.8162646312\H,0,-13.2618758568,2.0419380
 85,-1.8939505866\H,0,-12.6995716883,2.8283114858,-0.3621874627\H,0,-12
 .1958343618,-1.7573751826,-1.365071462\H,0,-13.2747661955,-0.100276764
 5,-1.4021557431\H,0,-13.477694122,-1.3454092271,-3.651315016\H,0,-12.4
 978833525,-0.0251670543,-3.8241759133\H,0,-11.7417604553,-1.4498198491
 ,-3.6656451845\H,0,-9.1827878818,-4.7607968226,-1.8237656407\H,0,-8.25
 31446793,-5.779837988,-0.9204916622\H,0,-9.6386737523,-4.8917942007,-0
 .32107393\H,0,-3.5647671726,-3.499203171,-0.2874040119\H,0,-1.50338850
 54,-4.4875951992,3.5010130166\H,0,-3.0832279314,-5.5967012877,3.615804
 4193\H,0,-1.563954507,-6.2461538886,2.6389578487\H,0,2.798619166,-1.67
 09089268,-1.4149554605\H,0,2.7312906067,0.1355178314,-1.7170548577\H,0
 ,4.231174023,-0.7455667719,0.5516983858\H,0,4.0100499685,1.2364423546,
 -2.6931076805\H,0,5.4563810498,2.1205123101,-2.3663331015\H,0,5.594666
 7743,0.6004211496,-3.0620449355\H,0,6.5334954124,1.5965636564,-0.12284
 96422\H,0,6.5593600554,-0.1202600634,0.5142011368\H,0,7.4829156763,-1.
 0727165069,-1.331724496\H,0,7.7741298489,0.2325264607,-2.1772906527\H,
 0,9.0954215938,1.0486227473,0.4344810803\H,0,8.6142999187,-0.624807987
 ,0.6711249762\H,0,10.2222097724,0.0689594336,-1.6164865382\H,0,8.93493
 84793,-1.9936873452,-1.8302289477\H,0,10.7243849942,-2.1306898529,-1.7
 905633002\H,0,10.072500136,-2.5046324052,-0.431592599\H,0,11.330310712
 ,0.7687891091,0.2018916767\H,0,11.3594289963,-0.8761435757,0.796760297
 6\H,0,12.777501069,-1.5685850197,-1.0684145091\H,0,12.7388476373,0.314
 7821692,-1.6714505064\H,0,13.5663080675,0.9999825543,0.2158989329\H,0,
 13.8866914222,-0.5928488896,1.0219487114\H,0,15.3654398325,0.440543539
 4,-1.5170160596\H,0,15.3185893018,-2.2945797501,-0.096431097\H,0,14.76
 37094216,-1.8417765533,-1.7012575409\H,0,16.6080504344,-1.8640819331,-
 1.4431857881\H,0,16.1956647672,1.254033237,0.9799245368\H,0,16.4464290
 901,-0.198008976,1.347897551\H,0,18.4025511938,-0.4726438118,-0.466489
 9894\H,0,17.8848155461,0.8614334622,-1.1176853443\H,0,18.4546862612,2.
 3525494126,1.0792059259\H,0,18.800537214,0.7435085319,1.6606760679\H,0
 ,20.5416190746,0.2930754557,0.126279692\H,0,19.996323739,3.2271162735,
 -1.0418277762\H,0,21.4583200841,2.2371103638,-1.15516688\H,0,19.964150
 3194,1.4748692977,-1.9164086099\H,0,21.2911850937,1.212119321,2.385008
 118\H,0,22.1913308394,2.0383550652,1.1976747338\H,0,20.7466943993,2.77
 3817465,2.1161220527\\Version=ES64L-G09RevD.01\State=1-A\HF=-2932.6011
 253\RMSD=4.524e-09\PG=C01 [X(C55H72Mg1N4O5)]\\@


 Sacred cows make the best hamburger.
                               -- Mark Twain
 Job cpu time:       0 days  6 hours 16 minutes 31.3 seconds.
 File lengths (MBytes):  RWF=   2106 Int=      0 D2E=      0 Chk=    163 Scr=      1
 Normal termination of Gaussian 09 at Tue Jul  2 11:17:04 2019.
>>>>>>> 8e03b5b5abfc0030b3aa597dc0de36371bfbd096
