 Entering Gaussian System, Link 0=g16
 Input=Geometria-49-.com
 Output=Geometria-49-.log
 Initial command:
<<<<<<< HEAD
 /usr/local/g16/l1.exe "/home/padawan/israel-mol/chlorophyll-a/spectra/emi/Gau-52192.inp" -scrdir="/home/padawan/israel-mol/chlorophyll-a/spectra/emi/"
 Entering Link 1 = /usr/local/g16/l1.exe PID=     52194.
  
 Copyright (c) 1988,1990,1992,1993,1995,1998,2003,2009,2016,
            Gaussian, Inc.  All Rights Reserved.
  
 This is part of the Gaussian(R) 16 program.  It is based on
 the Gaussian(R) 09 system (copyright 2009, Gaussian, Inc.),
=======
 /usr/local/g09/l1.exe "/home/padawan/israel-mol/chlorophyll-a/spectra/emi/Gau-105595.inp" -scrdir="/home/padawan/israel-mol/chlorophyll-a/spectra/emi/"
 Entering Link 1 = /usr/local/g09/l1.exe PID=    105597.
  
 Copyright (c) 1988,1990,1992,1993,1995,1998,2003,2009,2013,
            Gaussian, Inc.  All Rights Reserved.
  
 This is part of the Gaussian(R) 09 program.  It is based on
>>>>>>> 8e03b5b5abfc0030b3aa597dc0de36371bfbd096
 the Gaussian(R) 03 system (copyright 2003, Gaussian, Inc.),
 the Gaussian(R) 98 system (copyright 1998, Gaussian, Inc.),
 the Gaussian(R) 94 system (copyright 1995, Gaussian, Inc.),
 the Gaussian 92(TM) system (copyright 1992, Gaussian, Inc.),
 the Gaussian 90(TM) system (copyright 1990, Gaussian, Inc.),
 the Gaussian 88(TM) system (copyright 1988, Gaussian, Inc.),
 the Gaussian 86(TM) system (copyright 1986, Carnegie Mellon
 University), and the Gaussian 82(TM) system (copyright 1983,
 Carnegie Mellon University). Gaussian is a federally registered
 trademark of Gaussian, Inc.
  
 This software contains proprietary and confidential information,
 including trade secrets, belonging to Gaussian, Inc.
  
 This software is provided under written license and may be
 used, copied, transmitted, or stored only in accord with that
 written license.
  
 The following legend is applicable only to US Government
 contracts under FAR:
  
                    RESTRICTED RIGHTS LEGEND
  
 Use, reproduction and disclosure by the US Government is
 subject to restrictions as set forth in subparagraphs (a)
 and (c) of the Commercial Computer Software - Restricted
 Rights clause in FAR 52.227-19.
  
 Gaussian, Inc.
 340 Quinnipiac St., Bldg. 40, Wallingford CT 06492
  
  
 ---------------------------------------------------------------
 Warning -- This program may not be used in any manner that
 competes with the business of Gaussian, Inc. or will provide
 assistance to any competitor of Gaussian, Inc.  The licensee
 of this program is prohibited from giving any competitor of
 Gaussian, Inc. access to this program.  By using this program,
 the user acknowledges that Gaussian, Inc. is engaged in the
 business of creating and licensing software in the field of
 computational chemistry and represents and warrants to the
 licensee that it is not a competitor of Gaussian, Inc. and that
 it will not use this program in any manner prohibited above.
 ---------------------------------------------------------------
  

 Cite this work as:
<<<<<<< HEAD
 Gaussian 16, Revision A.03,
 M. J. Frisch, G. W. Trucks, H. B. Schlegel, G. E. Scuseria, 
 M. A. Robb, J. R. Cheeseman, G. Scalmani, V. Barone, 
 G. A. Petersson, H. Nakatsuji, X. Li, M. Caricato, A. V. Marenich, 
 J. Bloino, B. G. Janesko, R. Gomperts, B. Mennucci, H. P. Hratchian, 
 J. V. Ortiz, A. F. Izmaylov, J. L. Sonnenberg, D. Williams-Young, 
 F. Ding, F. Lipparini, F. Egidi, J. Goings, B. Peng, A. Petrone, 
 T. Henderson, D. Ranasinghe, V. G. Zakrzewski, J. Gao, N. Rega, 
 G. Zheng, W. Liang, M. Hada, M. Ehara, K. Toyota, R. Fukuda, 
 J. Hasegawa, M. Ishida, T. Nakajima, Y. Honda, O. Kitao, H. Nakai, 
 T. Vreven, K. Throssell, J. A. Montgomery, Jr., J. E. Peralta, 
 F. Ogliaro, M. J. Bearpark, J. J. Heyd, E. N. Brothers, K. N. Kudin, 
 V. N. Staroverov, T. A. Keith, R. Kobayashi, J. Normand, 
 K. Raghavachari, A. P. Rendell, J. C. Burant, S. S. Iyengar, 
 J. Tomasi, M. Cossi, J. M. Millam, M. Klene, C. Adamo, R. Cammi, 
 J. W. Ochterski, R. L. Martin, K. Morokuma, O. Farkas, 
 J. B. Foresman, and D. J. Fox, Gaussian, Inc., Wallingford CT, 2016.
 
 ******************************************
 Gaussian 16:  ES64L-G16RevA.03 25-Dec-2016
                30-Jun-2019 
=======
 Gaussian 09, Revision D.01,
 M. J. Frisch, G. W. Trucks, H. B. Schlegel, G. E. Scuseria, 
 M. A. Robb, J. R. Cheeseman, G. Scalmani, V. Barone, B. Mennucci, 
 G. A. Petersson, H. Nakatsuji, M. Caricato, X. Li, H. P. Hratchian, 
 A. F. Izmaylov, J. Bloino, G. Zheng, J. L. Sonnenberg, M. Hada, 
 M. Ehara, K. Toyota, R. Fukuda, J. Hasegawa, M. Ishida, T. Nakajima, 
 Y. Honda, O. Kitao, H. Nakai, T. Vreven, J. A. Montgomery, Jr., 
 J. E. Peralta, F. Ogliaro, M. Bearpark, J. J. Heyd, E. Brothers, 
 K. N. Kudin, V. N. Staroverov, T. Keith, R. Kobayashi, J. Normand, 
 K. Raghavachari, A. Rendell, J. C. Burant, S. S. Iyengar, J. Tomasi, 
 M. Cossi, N. Rega, J. M. Millam, M. Klene, J. E. Knox, J. B. Cross, 
 V. Bakken, C. Adamo, J. Jaramillo, R. Gomperts, R. E. Stratmann, 
 O. Yazyev, A. J. Austin, R. Cammi, C. Pomelli, J. W. Ochterski, 
 R. L. Martin, K. Morokuma, V. G. Zakrzewski, G. A. Voth, 
 P. Salvador, J. J. Dannenberg, S. Dapprich, A. D. Daniels, 
 O. Farkas, J. B. Foresman, J. V. Ortiz, J. Cioslowski, 
 and D. J. Fox, Gaussian, Inc., Wallingford CT, 2013.
 
 ******************************************
 Gaussian 09:  ES64L-G09RevD.01 24-Apr-2013
                 2-Jul-2019 
>>>>>>> 8e03b5b5abfc0030b3aa597dc0de36371bfbd096
 ******************************************
 %nproc=4
 Will use up to    4 processors via shared memory.
 %Mem=2GB
 -------------------------------------
 # td=(NStates=1) CAM-B3LYP/6-31G(d,p)
 -------------------------------------
<<<<<<< HEAD
 1/38=1,172=1/1;
 2/12=2,17=6,18=5,40=1/2;
 3/5=1,6=6,7=101,11=9,25=1,30=1,74=-40/1,2,3,8;
=======
 1/38=1/1;
 2/12=2,17=6,18=5,40=1/2;
 3/5=1,6=6,7=101,11=9,16=1,25=1,30=1,74=-40/1,2,8,3;
>>>>>>> 8e03b5b5abfc0030b3aa597dc0de36371bfbd096
 4//1;
 5/5=2,38=5/2;
 8/6=1,10=2,108=1/1;
 9/41=1,42=1,70=2/14;
 6/7=2,8=2,9=2,10=2/1;
 99/5=1,9=1/99;
 --
 TD
 --
 Symbolic Z-matrix:
 Charge =  0 Multiplicity = 1
<<<<<<< HEAD
 12                   -7.09063   0.51423   0.01689 
 6                    -4.87036  -2.06389   0.50569 
 6                    -4.82655   2.83752   1.27463 
 6                    -9.3824    3.04158  -0.49191 
 6                    -9.64292  -1.7473   -0.89572 
 7                    -5.1543    0.39948   0.75088 
 6                    -4.34309  -0.69514   0.77713 
 6                    -2.85144  -0.33142   1.28518 
 6                    -3.0057    1.09554   1.66995 
 6                    -4.47482   1.4638    1.24771 
 6                    -2.80936   1.47121   3.11971 
 6                    -1.83818  -0.72705   0.13708 
 6                    -0.47276  -0.46509   0.59896 
 6                     0.63319  -0.6419   -0.53466 
 8                     0.25054  -1.03927  -1.59277 
 8                     1.80035  -0.50135  -0.05052 
 7                    -7.10219   2.57131   0.43111 
 6                    -6.01925   3.30804   0.79408 
 6                    -6.45942   4.73371   0.76371 
 6                    -7.65871   4.82411   0.21591 
 6                    -8.19966   3.40741  -0.03729 
 6                    -5.5586    5.85993   1.08113 
 6                    -8.43216   6.01923  -0.12623 
 6                    -8.55508   7.09107   0.68169 
 7                    -9.24724   0.59075  -0.4714 
 6                    -9.90994   1.70844  -0.66226 
 6                    -11.2953   1.45096  -1.12677 
 6                    -11.33202   0.1217   -1.25907 
 6                    -10.06303  -0.46505  -0.86852 
 6                    -12.37099   2.57584  -1.30685 
 6                    -12.46173  -0.62547  -1.67285 
 6                    -12.53451  -0.88421  -3.21879 
 7                    -7.32692  -1.41423  -0.23426 
 6                    -8.24793  -2.30697  -0.56709 
 6                    -7.89702  -3.63846  -0.5255 
 6                    -6.50456  -3.57793  -0.08941 
 6                    -6.22573  -2.20343   0.18577 
 6                    -8.67063  -4.84827  -0.75266 
 6                    -5.281    -4.39591   0.08762 
 8                    -5.06184  -5.54698   0.02028 
 6                    -4.21059  -3.29875   0.42058 
 6                    -3.4431   -3.59898   1.74772 
 8                    -3.64062  -3.02522   2.75605 
 8                    -2.61235  -4.61612   1.70672 
 6                    -2.02938  -4.97774   2.90325 
 6                     2.90009  -0.77854  -0.96617 
 6                     4.21482  -0.51779  -0.38866 
 6                     5.1668    0.36206  -0.85166 
 6                     5.07956   1.17721  -2.07161 
 6                     6.43858   0.42501  -0.08132 
 6                     7.60053  -0.27624  -0.85861 
 6                     8.90006  -0.10255  -0.05813 
 6                     10.21464  -0.60028  -0.80354 
 6                     9.98472  -1.91559  -1.29978 
 6                     11.37894  -0.24496   0.02228 
 6                     12.79435  -0.47822  -0.66477 
 6                     14.02199  -0.23167   0.22865 
 6                     15.32729  -0.14336  -0.42837 
 6                     15.5726  -1.52771  -1.13656 
 6                     16.43279   0.39095   0.56893 
 6                     17.77244   0.52632  -0.12555 
 6                     18.85823   1.26077   0.77896 
 6                     20.24104   1.33369   0.09969 
 6                     20.2839   2.28284  -1.18263 
 6                     21.31739   1.79544   1.11121 
 1                    -4.17345   3.72815   1.51979 
 1                    -10.07836   3.92457  -0.47713 
 1                    -10.49491  -2.33947  -1.17049 
 1                    -2.69201  -0.89676   2.38878 
 1                    -2.39894   1.93567   1.0359 
 1                    -1.80543   1.40293   3.51043 
 1                    -3.10008   2.53661   3.20457 
 1                    -3.20127   0.82458   3.82385 
 1                    -2.02493  -1.86758  -0.07847 
 1                    -1.9346   -0.18353  -0.76218 
 1                    -0.25896   0.67363   0.88851 
 1                    -0.26094  -1.00276   1.65859 
 1                    -6.01669   6.76873   0.61885 
 1                    -5.36624   6.35255   2.18312 
 1                    -4.47272   5.52688   0.61604 
 1                    -9.03739   5.9403   -1.1289 
 1                    -9.17541   7.98412   0.50477 
 1                    -8.13923   7.20189   1.77103 
 1                    -12.31079   3.14863  -2.35907 
 1                    -13.21532   2.0676   -1.62671 
 1                    -12.6076   3.24433  -0.56856 
 1                    -12.35386  -1.62181  -1.24484 
 1                    -13.50899  -0.15394  -1.41163 
 1                    -13.36906  -1.5051   -3.56532 
 1                    -12.76704   0.19708  -3.66598 
 1                    -11.5717  -1.16146  -3.33099 
 1                    -9.2752   -5.00676  -1.90637 
 1                    -8.00686  -5.72611  -0.69243 
 1                    -9.40949  -5.13267   0.09845 
 1                    -3.24146  -3.25171  -0.39582 
 1                    -1.54883  -4.26087   3.22682 
 1                    -2.82248  -5.08467   3.62707 
 1                    -1.36123  -5.89131   2.74067 
 1                     2.87608  -1.90852  -1.328 
 1                     2.67987  -0.20731  -1.86471 
 1                     4.46844  -1.01092   0.65662 
 1                     3.96338   1.2941   -2.15606 
 1                     6.01332   2.08147  -1.78894 
 1                     5.67764   0.5667   -2.79543 
 1                     6.63309   1.5229    0.06032 
 1                     6.29392   0.0208    0.69865 
 1                     7.32809  -1.39539  -1.06174 
 1                     7.75917   0.06445  -2.01231 
 1                     9.13317   0.95616   0.12998 
 1                     9.02002  -0.69364   0.87578 
 1                     10.22187  -0.06129  -1.75883 
 1                     9.10473  -2.04776  -2.16782 
 1                     10.81439  -2.35807  -2.04182 
 1                     9.87924  -2.66627  -0.54299 
 1                     11.47767   0.84389   0.29733 
 1                     11.28585  -0.84912   1.00283 
 1                     12.8073  -1.49334  -1.22938 
 1                     12.81674   0.11896  -1.56685 
 1                     13.84113   0.83953   0.7905 
 1                     13.92221  -0.8626    1.00903 
 1                     15.21089   0.51144  -1.12459 
 1                     15.72612  -2.26875  -0.37543 
 1                     14.72444  -1.74899  -1.82257 
 1                     16.57061  -1.38332  -1.54866 
 1                     16.13162   1.32783   0.76398 
 1                     16.47042  -0.19591   1.46371 
 1                     18.13272  -0.40222  -0.57486 
 1                     17.81393   1.31824  -1.065 
 1                     18.45649   2.18407   1.21837 
 1                     18.96022   0.4909    1.61021 
 1                     20.5066   0.42138  -0.27299 
 1                     20.19266   3.32857  -1.16361 
 1                     21.16334   2.2602   -1.48457 
 1                     19.55745   1.94149  -1.86933 
 1                     21.16123   1.1008    1.93626 
 1                     22.31608   1.60817   0.61542 
 1                     21.29091   2.86524   1.45263 
=======
 12                   -7.14796   0.58932   0.09367 
 6                    -4.92791  -1.89588   0.39073 
 6                    -4.79253   2.869     1.0641 
 6                    -9.42555   3.09168  -0.28605 
 6                    -9.62008  -1.80777  -0.85508 
 7                    -5.05669   0.39028   0.55976 
 6                    -4.31421  -0.68217   0.62987 
 6                    -2.88631  -0.37627   1.09363 
 6                    -3.02355   1.06513   1.5767 
 6                    -4.37806   1.5047    1.11263 
 6                    -3.06742   1.22215   3.18031 
 6                    -1.84531  -0.60682   0.02248 
 6                    -0.47026  -0.31484   0.39252 
 6                     0.50087  -0.52576  -0.60235 
 8                     0.36906  -0.85936  -1.7781 
 8                     1.77206  -0.39811  -0.18226 
 7                    -7.09206   2.55473   0.33581 
 6                    -5.98955   3.36847   0.76363 
 6                    -6.41961   4.72742   0.74818 
 6                    -7.81      4.83927   0.358 
 6                    -8.13855   3.42085   0.10267 
 6                    -5.49345   5.8087    1.2029 
 6                    -8.64821   5.99232   0.21139 
 6                    -8.62306   7.11297   0.87809 
 7                    -9.13347   0.59493  -0.42317 
 6                    -9.89728   1.78593  -0.64108 
 6                    -11.25774   1.37788  -1.18538 
 6                    -11.26391   0.07642  -1.21681 
 6                    -10.01137  -0.41028  -0.79725 
 6                    -12.35677   2.40702  -1.4577 
 6                    -12.38101  -0.88213  -1.6957 
 6                    -12.2287  -1.06943  -3.29362 
 7                    -7.28635  -1.38799  -0.28432 
 6                    -8.33411  -2.23551  -0.538 
 6                    -7.77496  -3.64655  -0.38785 
 6                    -6.50442  -3.6011   -0.06362 
 6                    -6.2623   -2.18322   0.09656 
 6                    -8.54096  -4.93575  -0.76356 
 6                    -5.25816  -4.35964   0.1076 
 8                    -5.13552  -5.53738   0.10143 
 6                    -4.14119  -3.23321   0.51956 
 6                    -3.54408  -3.56571   1.96182 
 8                    -3.87344  -2.99434   2.93209 
 8                    -2.83667  -4.70999   1.84417 
 6                    -2.34281  -5.22554   3.04739 
 6                     2.76996  -0.47575  -1.19862 
 6                     4.09278  -0.31336  -0.58741 
 6                     5.20341   0.43113  -0.99547 
 6                     5.09363   1.40808  -2.12259 
 6                     6.48679   0.45576  -0.22063 
 6                     7.69599  -0.04975  -0.92649 
 6                     9.00991   0.00695   0.0412 
 6                     10.25011  -0.57115  -0.77034 
 6                     10.14345  -2.14335  -0.89883 
 6                     11.49191  -0.29942   0.05866 
 6                     12.78158  -0.47457  -0.60159 
 6                     14.05216  -0.14535   0.22571 
 6                     15.3435  -0.2608   -0.54361 
 6                     15.60298  -1.6668   -0.85771 
 6                     16.51495   0.25788   0.36015 
 6                     17.93592   0.44864  -0.19139 
 6                     18.83101   1.28295   0.62776 
 6                     20.33706   1.26641   0.24209 
 6                     20.38852   1.87213  -1.27605 
 6                     21.21612   2.03688   1.2407 
 1                    -4.10451   3.567     1.30566 
 1                    -10.04775   3.85492  -0.5899 
 1                    -10.3685  -2.42838  -0.96201 
 1                    -2.73585  -0.86407   2.0348 
 1                    -2.25256   1.83125   1.32699 
 1                    -2.04867   0.85946   3.61126 
 1                    -3.1987    2.30003   3.59694 
 1                    -3.9211    0.39266   3.59526 
 1                    -2.14296  -1.60526  -0.40813 
 1                    -2.06664   0.04546  -0.8119 
 1                    -0.45054   0.64073   0.91402 
 1                    -0.41879  -0.97071   1.24005 
 1                    -5.89153   6.65206   0.82283 
 1                    -5.29802   5.81741   2.28943 
 1                    -4.41551   5.71224   0.84071 
 1                    -9.65633   5.81053  -0.34565 
 1                    -9.37467   7.99786   0.90241 
 1                    -7.77016   7.3229    1.7733 
 1                    -11.9503   2.95057  -2.15386 
 1                    -13.26972   1.88251  -1.93769 
 1                    -12.6192   3.13547  -0.72161 
 1                    -12.25228  -1.8325   -1.22536 
 1                    -13.35885  -0.53525  -1.5005 
 1                    -13.01997  -1.79292  -3.58231 
 1                    -12.31331  -0.07562  -3.92393 
 1                    -11.12283  -1.4878   -3.62504 
 1                    -8.95343  -5.11537  -1.83915 
 1                    -7.77847  -5.85525  -0.60406 
 1                    -9.36002  -5.09048   0.07337 
 1                    -3.41998  -3.46206  -0.27045 
 1                    -1.6568   -4.58151   3.48266 
 1                    -3.45112  -5.22167   3.87758 
 1                    -1.80489  -6.21881   2.88691 
 1                     2.81737  -1.60762  -1.70643 
 1                     2.59071   0.31848  -1.98586 
 1                     4.33147  -0.94936   0.20485 
 1                     4.12507   1.35634  -2.56984 
 1                     5.17487   2.33096  -1.84035 
 1                     5.93104   1.30355  -2.96538 
 1                     6.55701   1.47874   0.04281 
 1                     6.30081  -0.17413   0.73296 
 1                     7.72705  -1.12638  -1.14045 
 1                     8.18364   0.37738  -1.84544 
 1                     8.94511   0.9863    0.28753 
 1                     8.71932  -0.75995   0.79927 
 1                     10.27173  -0.15166  -1.7303 
 1                     9.08962  -2.38402  -1.42524 
 1                     10.91749  -2.62701  -1.46318 
 1                     10.09083  -2.57395   0.06721 
 1                     11.39738   0.83197   0.31445 
 1                     11.40749  -0.97084   0.85566 
 1                     12.86541  -1.55639  -0.73736 
 1                     12.8712   0.08515  -1.64675 
 1                     13.82751   0.99613   0.41681 
 1                     14.03253  -0.79512   0.99733 
 1                     15.30133   0.48203  -1.33833 
 1                     15.4082  -2.36147  -0.06914 
 1                     15.10156  -2.15637  -1.69771 
 1                     16.78577  -1.92364  -1.17233 
 1                     16.18112   1.30009   0.57067 
 1                     16.50739  -0.17101   1.20683 
 1                     18.32488  -0.59762  -0.26206 
 1                     17.65248   0.90606  -1.07769 
 1                     18.40417   2.16892   0.51918 
 1                     18.84113   0.91383   1.514 
 1                     20.61451   0.21723   0.0695 
 1                     20.42226   3.09629  -1.34574 
 1                     21.37094   1.76874  -1.77655 
 1                     19.46907   1.54675  -1.97102 
 1                     21.31592   1.67246   2.09477 
 1                     22.33359   2.17605   0.96716 
 1                     20.81056   3.19481   1.25658 
>>>>>>> 8e03b5b5abfc0030b3aa597dc0de36371bfbd096
 
 Stoichiometry    C55H72MgN4O5
 Framework group  C1[X(C55H72MgN4O5)]
 Deg. of freedom   405
 Full point group                 C1      NOp   1
 Largest Abelian subgroup         C1      NOp   1
 Largest concise Abelian subgroup C1      NOp   1
                         Standard orientation:                         
 ---------------------------------------------------------------------
 Center     Atomic      Atomic             Coordinates (Angstroms)
 Number     Number       Type             X           Y           Z
 ---------------------------------------------------------------------
<<<<<<< HEAD
      1         12           0       -7.088793    0.505628    0.023001
      2          6           0       -4.865976   -2.069828    0.514242
      3          6           0       -4.825450    2.832949    1.274604
      4          6           0       -9.383091    3.030223   -0.488089
      5          6           0       -9.640085   -1.759564   -0.883305
      6          7           0       -5.151693    0.393731    0.755398
      7          6           0       -4.339574   -0.700181    0.782808
      8          6           0       -2.847753   -0.334366    1.288849
      9          6           0       -3.002820    1.093141    1.671273
     10          6           0       -4.472629    1.459465    1.249752
     11          6           0       -2.805442    1.471495    3.120199
     12          6           0       -1.835223   -0.731169    0.140504
     13          6           0       -0.469599   -0.467297    0.600673
     14          6           0        0.635459   -0.645182   -0.533660
     15          8           0        0.252150   -1.044708   -1.590719
     16          8           0        1.802947   -0.502839   -0.050846
     17          7           0       -7.101647    2.563419    0.433648
     18          6           0       -6.018974    3.301660    0.794335
     19          6           0       -6.460335    4.726913    0.761880
     20          6           0       -7.660198    4.815388    0.215034
     21          6           0       -8.200233    3.397806   -0.035198
     22          6           0       -5.560141    5.854417    1.076511
     23          6           0       -8.434938    6.009280   -0.128470
     24          6           0       -8.557985    7.082419    0.677694
     25          7           0       -9.245911    0.579545   -0.463432
     26          6           0       -9.909697    1.696360   -0.655629
     27          6           0      -11.295275    1.436947   -1.118412
     28          6           0      -11.331032    0.107423   -1.248362
     29          6           0      -10.061211   -0.477609   -0.857958
     30          6           0      -12.372044    2.560632   -1.299453
     31          6           0      -12.460519   -0.641382   -1.659790
     32          6           0      -12.534513   -0.902878   -3.205207
     33          7           0       -7.323746   -1.423460   -0.224567
     34          6           0       -8.244328   -2.317522   -0.554994
     35          6           0       -7.892296   -3.648658   -0.511405
     36          6           0       -6.499493   -3.586236   -0.076708
     37          6           0       -6.221520   -2.211029    0.195821
     38          6           0       -8.665138   -4.859486   -0.735746
     39          6           0       -5.275103   -4.402913    0.100621
     40          8           0       -5.055060   -5.553915    0.035082
     41          6           0       -4.205282   -3.304296    0.430680
     42          6           0       -3.436326   -3.601587    1.757626
     43          8           0       -3.633374   -3.026235    2.765139
     44          8           0       -2.604783   -4.618123    1.717636
     45          6           0       -2.020417   -4.977188    2.914252
     46          6           0        2.902069   -0.780729   -0.967022
     47          6           0        4.217119   -0.517908   -0.391183
     48          6           0        5.167951    0.361909   -0.856600
     49          6           0        5.078920    1.174857   -2.077884
     50          6           0        6.440387    0.427238   -0.087545
     51          6           0        7.602190   -0.274424   -0.864682
     52          6           0        8.902320   -0.098280   -0.065700
     53          6           0       10.216618   -0.596242   -0.811458
     54          6           0        9.987305   -1.912607   -1.305195
     55          6           0       11.381387   -0.238537    0.012671
     56          6           0       12.796356   -0.471848   -0.675277
     57          6           0       14.024615   -0.222745    0.216575
     58          6           0       15.329234   -0.134514   -0.441804
     59          6           0       15.575019   -1.519899   -1.147808
     60          6           0       16.435216    0.402434    0.553545
     61          6           0       17.774119    0.537683   -0.142406
     62          6           0       18.860138    1.274591    0.759817
     63          6           0       20.242268    1.347450    0.079151
     64          6           0       20.283170    2.294390   -1.204864
     65          6           0       21.319173    1.811837    1.088863
     66          1           0       -4.172847    3.724532    1.517601
     67          1           0      -10.079752    3.912675   -0.474207
     68          1           0      -10.491843   -2.352908   -1.156264
     69          1           0       -2.686837   -0.897647    2.393286
     70          1           0       -2.397329    1.932652    1.035206
     71          1           0       -1.801096    1.404714    3.510112
     72          1           0       -3.096951    2.536803    3.203470
     73          1           0       -3.196184    0.825773    3.825828
     74          1           0       -2.021250   -1.872223   -0.072884
     75          1           0       -1.932912   -0.189300   -0.759606
     76          1           0       -0.256454    0.672102    0.888036
     77          1           0       -0.256364   -1.002951    1.661038
     78          1           0       -6.019393    6.762034    0.613066
     79          1           0       -5.367167    6.349114    2.177465
     80          1           0       -4.474417    5.521445    0.611002
     81          1           0       -9.041022    5.928107   -1.130450
     82          1           0       -9.179204    7.974659    0.499786
     83          1           0       -8.141226    7.195478    1.766446
     84          1           0      -12.313279    3.131632   -2.352726
     85          1           0      -13.216259    2.051151   -1.617654
     86          1           0      -12.608524    3.230220   -0.562112
     87          1           0      -12.351442   -1.636888   -1.230145
     88          1           0      -13.507920   -0.170251   -1.398424
     89          1           0      -13.368878   -1.525043   -3.549884
     90          1           0      -12.768335    0.177438   -3.654069
     91          1           0      -11.571584   -1.179540   -3.317817
     92          1           0       -9.270634   -5.020483   -1.888620
     93          1           0       -8.000594   -5.736685   -0.674594
     94          1           0       -9.402978   -5.143003    0.116542
     95          1           0       -3.236944   -3.257895   -0.386702
     96          1           0       -1.540153   -4.259365    3.236128
     97          1           0       -2.812761   -5.083498    3.638989
     98          1           0       -1.351674   -5.890493    2.752650
     99          1           0        2.878640   -1.911364   -1.326859
    100          1           0        2.680549   -0.211247   -1.866355
    101          1           0        4.472098   -1.009012    0.654719
    102          1           0        3.962566    1.290690   -2.161510
    103          1           0        6.012203    2.080366   -1.797647
    104          1           0        5.676828    0.563570   -2.801188
    105          1           0        6.634131    1.525523    0.052005
    106          1           0        6.296781    0.024271    0.693266
    107          1           0        7.330478   -1.394148   -1.065604
    108          1           0        7.759490    0.064380   -2.019121
    109          1           0        9.134734    0.960945    0.120347
    110          1           0        9.023621   -0.687652    0.869121
    111          1           0       10.222526   -0.058919   -1.767692
    112          1           0        9.106623   -2.047006   -2.172190
    113          1           0       10.816660   -2.355706   -2.047223
    114          1           0        9.883139   -2.662048   -0.547001
    115          1           0       11.479478    0.850865    0.285729
    116          1           0       11.289694   -0.841065    0.994356
    117          1           0       12.809613   -1.487936   -1.238133
    118          1           0       12.817420    0.123781   -1.578421
    119          1           0       13.843395    0.849286    0.776720
    120          1           0       13.926072   -0.852386    0.998142
    121          1           0       15.211665    0.518975   -1.139052
    122          1           0       15.729845   -2.259482   -0.385526
    123          1           0       14.726404   -1.743061   -1.832645
    124          1           0       16.572529   -1.375420   -1.561073
    125          1           0       16.133464    1.339405    0.747241
    126          1           0       16.474152   -0.182836    1.449309
    127          1           0       18.134743   -0.391347   -0.590432
    128          1           0       17.814095    1.327992   -1.083274
    129          1           0       18.458051    2.198327    1.197989
    130          1           0       18.963528    0.506254    1.592316
    131          1           0       20.508220    0.434702   -0.292188
    132          1           0       20.191100    3.340077   -1.187583
    133          1           0       21.162351    2.271945   -1.507576
    134          1           0       19.556366    1.951252   -1.890302
    135          1           0       21.164339    1.118505    1.915273
    136          1           0       22.317559    1.624514    0.592478
    137          1           0       21.292133    2.882203    1.428441
 ---------------------------------------------------------------------
 Rotational constants (GHZ):           0.0662057           0.0060690           0.0057204
=======
      1         12           0       -7.147557    0.589750    0.086865
      2          6           0       -4.927576   -1.895676    0.382506
      3          6           0       -4.793141    2.868304    1.062377
      4          6           0       -9.425013    3.092452   -0.291463
      5          6           0       -9.618684   -1.806248   -0.867219
      6          7           0       -5.056678    0.390245    0.554486
      7          6           0       -4.314178   -0.682239    0.623804
      8          6           0       -2.886698   -0.376851    1.089200
      9          6           0       -3.024461    1.063887    1.574079
     10          6           0       -4.378614    1.503978    1.109433
     11          6           0       -3.069729    1.218762    3.177861
     12          6           0       -1.844759   -0.605888    0.018635
     13          6           0       -0.470057   -0.314300    0.390255
     14          6           0        0.501950   -0.523815   -0.604059
     15          8           0        0.371174   -0.855856   -1.780376
     16          8           0        1.772767   -0.396633   -0.182704
     17          7           0       -7.092020    2.554842    0.331688
     18          6           0       -5.989939    3.368088    0.761543
     19          6           0       -6.420091    4.727025    0.747538
     20          6           0       -7.810158    4.839300    0.356320
     21          6           0       -8.138374    3.421195    0.098808
     22          6           0       -5.494403    5.807771    1.204501
     23          6           0       -8.648328    5.992477    0.210527
     24          6           0       -8.623831    7.112233    0.878754
     25          7           0       -9.132623    0.595907   -0.431669
     26          6           0       -9.896336    1.787136   -0.648646
     27          6           0      -11.256305    1.379711   -1.194661
     28          6           0      -11.262343    0.078300   -1.227839
     29          6           0      -10.010125   -0.408873   -0.807857
     30          6           0      -12.355179    2.409137   -1.466551
     31          6           0      -12.378961   -0.879691   -1.708972
     32          6           0      -12.225260   -1.064844   -3.307014
     33          7           0       -7.285474   -1.387059   -0.293891
     34          6           0       -8.332956   -2.234317   -0.549602
     35          6           0       -7.773827   -3.645519   -0.400857
     36          6           0       -6.503571   -3.600409   -0.075476
     37          6           0       -6.261692   -2.182719    0.086811
     38          6           0       -8.539403   -4.934266   -0.778960
     39          6           0       -5.257397   -4.359079    0.095803
     40          8           0       -5.134663   -5.536799    0.088156
     41          6           0       -4.140865   -3.233117    0.510229
     42          6           0       -3.544968   -3.567505    1.952551
     43          8           0       -3.875210   -2.997453    2.923300
     44          8           0       -2.837379   -4.711567    1.833984
     45          6           0       -2.344515   -5.228691    3.036934
     46          6           0        2.771547   -0.472835   -1.198315
     47          6           0        4.093830   -0.311168   -0.585748
     48          6           0        5.204756    0.433950   -0.991856
     49          6           0        5.095865    1.412404   -2.117758
     50          6           0        6.487467    0.457637   -0.215879
     51          6           0        7.697306   -0.046829   -0.921375
     52          6           0        9.010395    0.008666    0.047522
     53          6           0       10.251329   -0.568254   -0.763724
     54          6           0       10.144905   -2.140280   -0.894416
     55          6           0       11.492401   -0.297540    0.066701
     56          6           0       12.782653   -0.471707   -0.592670
     57          6           0       14.052497   -0.143493    0.236163
     58          6           0       15.344503   -0.257820   -0.532202
     59          6           0       15.604362   -1.663383   -0.847953
     60          6           0       16.515131    0.259738    0.373262
     61          6           0       17.936563    0.451339   -0.176805
     62          6           0       18.830889    1.284620    0.644239
     63          6           0       20.337271    1.268710    0.259839
     64          6           0       20.389988    1.876464   -1.257441
     65          6           0       21.215413    2.037908    1.260236
     66          1           0       -4.105385    3.566039    1.305455
     67          1           0      -10.047008    3.856043   -0.594830
     68          1           0      -10.366962   -2.426776   -0.975624
     69          1           0       -2.737012   -0.865907    2.029850
     70          1           0       -2.253319    1.830396    1.326063
     71          1           0       -2.051320    0.855564    3.609207
     72          1           0       -3.201453    2.296073    3.595823
     73          1           0       -3.923696    0.388653    3.590968
     74          1           0       -2.141961   -1.603777   -0.413568
     75          1           0       -2.065422    0.047490   -0.815059
     76          1           0       -0.450853    0.640567    0.913049
     77          1           0       -0.419261   -0.971305    1.236945
     78          1           0       -5.892221    6.651610    0.825221
     79          1           0       -5.299908    5.815033    2.291209
     80          1           0       -4.416143    5.711876    0.843112
     81          1           0       -9.655950    5.811354   -0.347626
     82          1           0       -9.375532    7.997036    0.903607
     83          1           0       -7.771718    7.321030    1.774969
     84          1           0      -11.948146    2.953643   -2.161629
     85          1           0      -13.267668    1.885202   -1.948031
     86          1           0      -12.618297    3.136582   -0.729714
     87          1           0      -12.250560   -1.830687   -1.239791
     88          1           0      -13.356997   -0.533151   -1.514145
     89          1           0      -13.016224   -1.788011   -3.597346
     90          1           0      -12.309408   -0.070200   -3.936057
     91          1           0      -11.119071   -1.482691   -3.638039
     92          1           0       -8.950937   -5.112483   -1.855136
     93          1           0       -7.776976   -5.853921   -0.620030
     94          1           0       -9.359165   -5.090186    0.057058
     95          1           0       -3.418963   -3.460855   -0.279470
     96          1           0       -1.658928   -4.585200    3.473658
     97          1           0       -3.453539   -5.226023    3.866176
     98          1           0       -1.806375   -6.221709    2.875591
     99          1           0        2.819482   -1.604028   -1.707602
    100          1           0        2.592911    0.322426   -1.984645
    101          1           0        4.331890   -0.948208    0.205868
    102          1           0        4.127698    1.361190   -2.565909
    103          1           0        5.176797    2.334911   -1.834217
    104          1           0        5.934010    1.309063   -2.959965
    105          1           0        6.557376    1.480274    0.048986
    106          1           0        6.300716   -0.173535    0.736708
    107          1           0        7.728635   -1.123176   -1.136745
    108          1           0        8.185717    0.381564   -1.839331
    109          1           0        8.945301    0.987681    0.295101
    110          1           0        8.719209   -0.759267    0.804310
    111          1           0       10.273752   -0.147476   -1.723103
    112          1           0        9.091550   -2.380325   -1.422049
    113          1           0       10.919471   -2.623130   -1.458744
    114          1           0       10.091488   -2.572180    0.071002
    115          1           0       11.397560    0.833499    0.323930
    116          1           0       11.407349   -0.970032    0.862729
    117          1           0       12.866679   -1.553340   -0.729816
    118          1           0       12.873127    0.089419   -1.637000
    119          1           0       13.827595    0.997711    0.428597
    120          1           0       14.032245   -0.794300    1.006892
    121          1           0       15.302963    0.486068   -1.325958
    122          1           0       15.408954   -2.359115   -0.060484
    123          1           0       15.103704   -2.151860   -1.689040
    124          1           0       16.787438   -1.919706   -1.161902
    125          1           0       16.181048    1.301638    0.584893
    126          1           0       16.506875   -0.170282    1.219364
    127          1           0       18.325669   -0.594788   -0.248535
    128          1           0       17.653855    0.909926   -1.062731
    129          1           0       18.404073    2.170707    0.536475
    130          1           0       18.840273    0.914314    1.529991
    131          1           0       20.614943    0.219784    0.086089
    132          1           0       20.423691    3.100726   -1.325463
    133          1           0       21.372847    1.773826   -1.757234
    134          1           0       19.471162    1.551946   -1.953643
    135          1           0       21.314501    1.672352    2.113903
    136          1           0       22.333099    2.177531    0.987846
    137          1           0       20.809749    3.195788    1.277314
 ---------------------------------------------------------------------
 Rotational constants (GHZ):      0.0655341      0.0060524      0.0057069
>>>>>>> 8e03b5b5abfc0030b3aa597dc0de36371bfbd096
 Standard basis: 6-31G(d,p) (6D, 7F)
 There are  1339 symmetry adapted cartesian basis functions of A   symmetry.
 There are  1339 symmetry adapted basis functions of A   symmetry.
  1339 basis functions,  2348 primitive gaussians,  1339 cartesian basis functions
   241 alpha electrons      241 beta electrons
<<<<<<< HEAD
       nuclear repulsion energy      8746.5598626866 Hartrees.
=======
       nuclear repulsion energy      8749.2609340186 Hartrees.
>>>>>>> 8e03b5b5abfc0030b3aa597dc0de36371bfbd096
 NAtoms=  137 NActive=  137 NUniq=  137 SFac= 1.00D+00 NAtFMM=   60 NAOKFM=T Big=T
 Integral buffers will be    131072 words long.
 Raffenetti 1 integral format.
 Two-electron integral symmetry is turned on.
 One-electron integrals computed using PRISM.
<<<<<<< HEAD
 NBasis=  1339 RedAO= T EigKep=  3.17D-04  NBF=  1339
 NBsUse=  1339 1.00D-06 EigRej= -1.00D+00 NBFU=  1339
 ExpMin= 4.21D-02 ExpMax= 1.17D+04 ExpMxC= 1.76D+03 IAcc=3 IRadAn=         5 AccDes= 0.00D+00
 Harris functional with IExCor=20419 and IRadAn=       5 diagonalized for initial guess.
 HarFok:  IExCor=20419 AccDes= 0.00D+00 IRadAn=         5 IDoV= 1 UseB2=F ITyADJ=14
 ICtDFT=  3500011 ScaDFX=  1.000000  1.000000  1.000000  1.000000
 FoFCou: FMM=F IPFlag=           0 FMFlag=      100000 FMFlg1=        2001
         NFxFlg=           0 DoJE=T BraDBF=F KetDBF=T FulRan=T
         wScrn=  0.000000 ICntrl=       500 IOpCl=  0 I1Cent=   200000004 NGrid=           0
=======
 NBasis=  1339 RedAO= T EigKep=  2.99D-04  NBF=  1339
 NBsUse=  1339 1.00D-06 EigRej= -1.00D+00 NBFU=  1339
 ExpMin= 4.21D-02 ExpMax= 1.17D+04 ExpMxC= 1.76D+03 IAcc=2 IRadAn=         4 AccDes= 0.00D+00
 Harris functional with IExCor=20419 and IRadAn=       4 diagonalized for initial guess.
 HarFok:  IExCor=20419 AccDes= 0.00D+00 IRadAn=         4 IDoV= 1 UseB2=F ITyADJ=14
 ICtDFT=  3500011 ScaDFX=  1.000000  1.000000  1.000000  1.000000
 FoFCou: FMM=F IPFlag=           0 FMFlag=      100000 FMFlg1=        2001
         NFxFlg=           0 DoJE=T BraDBF=F KetDBF=T FulRan=T
         wScrn=  0.000000 ICntrl=     500 IOpCl=  0 I1Cent=   200000004 NGrid=           0
>>>>>>> 8e03b5b5abfc0030b3aa597dc0de36371bfbd096
         NMat0=    1 NMatS0=      1 NMatT0=    0 NMatD0=    1 NMtDS0=    0 NMtDT0=    0
 Petite list used in FoFCou.
 Requested convergence on RMS density matrix=1.00D-08 within 128 cycles.
 Requested convergence on MAX density matrix=1.00D-06.
 Requested convergence on             energy=1.00D-06.
 No special actions if energy rises.
<<<<<<< HEAD
 SCF Done:  E(RCAM-B3LYP) =  -2932.55225002     A.U. after   17 cycles
            NFock= 17  Conv=0.67D-08     -V/T= 2.0090
=======
 SCF Done:  E(RCAM-B3LYP) =  -2932.61471899     A.U. after   16 cycles
            NFock= 16  Conv=0.46D-08     -V/T= 2.0089
>>>>>>> 8e03b5b5abfc0030b3aa597dc0de36371bfbd096
 DoSCS=F DFT=T ScalE2(SS,OS)=  1.000000  1.000000
 ExpMin= 4.21D-02 ExpMax= 1.17D+04 ExpMxC= 1.76D+03 IAcc=3 IRadAn=         5 AccDes= 0.00D+00
 HarFok:  IExCor=  205 AccDes= 0.00D+00 IRadAn=         5 IDoV=-2 UseB2=F ITyADJ=14
 ICtDFT= 12500011 ScaDFX=  1.000000  1.000000  1.000000  1.000000
<<<<<<< HEAD
 GSVD:  LWork=       -5313 too small for GESVD, short by       24840 words or       24840 for optimal perf.
 Range of M.O.s used for correlation:    70  1339
 NBasis=  1339 NAE=   241 NBE=   241 NFC=    69 NFV=     0
 NROrb=   1270 NOA=   172 NOB=   172 NVA=  1098 NVB=  1098
=======
 Range of M.O.s used for correlation:    70  1339
 NBasis=  1339 NAE=   241 NBE=   241 NFC=    69 NFV=     0
 NROrb=   1270 NOA=   172 NOB=   172 NVA=  1098 NVB=  1098
 Would need an additional       2415464100000 words for in-memory AO integral storage.
>>>>>>> 8e03b5b5abfc0030b3aa597dc0de36371bfbd096
 Orbital symmetries:
       Occupied  (A) (A) (A) (A) (A) (A) (A) (A) (A) (A) (A) (A)
                 (A) (A) (A) (A) (A) (A) (A) (A) (A) (A) (A) (A)
                 (A) (A) (A) (A) (A) (A) (A) (A) (A) (A) (A) (A)
                 (A) (A) (A) (A) (A) (A) (A) (A) (A) (A) (A) (A)
                 (A) (A) (A) (A) (A) (A) (A) (A) (A) (A) (A) (A)
                 (A) (A) (A) (A) (A) (A) (A) (A) (A) (A) (A) (A)
                 (A) (A) (A) (A) (A) (A) (A) (A) (A) (A) (A) (A)
                 (A) (A) (A) (A) (A) (A) (A) (A) (A) (A) (A) (A)
                 (A) (A) (A) (A) (A) (A) (A) (A) (A) (A) (A) (A)
                 (A) (A) (A) (A) (A) (A) (A) (A) (A) (A) (A) (A)
                 (A) (A) (A) (A) (A) (A) (A) (A) (A) (A) (A) (A)
                 (A) (A) (A) (A) (A) (A) (A) (A) (A) (A) (A) (A)
                 (A) (A) (A) (A) (A) (A) (A) (A) (A) (A) (A) (A)
                 (A) (A) (A) (A) (A) (A) (A) (A) (A) (A) (A) (A)
                 (A) (A) (A) (A) (A) (A) (A) (A) (A) (A) (A) (A)
                 (A) (A) (A) (A) (A) (A) (A) (A) (A) (A) (A) (A)
                 (A) (A) (A) (A) (A) (A) (A) (A) (A) (A) (A) (A)
                 (A) (A) (A) (A) (A) (A) (A) (A) (A) (A) (A) (A)
                 (A) (A) (A) (A) (A) (A) (A) (A) (A) (A) (A) (A)
                 (A) (A) (A) (A) (A) (A) (A) (A) (A) (A) (A) (A)
                 (A)
       Virtual   (A) (A) (A) (A) (A) (A) (A) (A) (A) (A) (A) (A)
                 (A) (A) (A) (A) (A) (A) (A) (A) (A) (A) (A) (A)
                 (A) (A) (A) (A) (A) (A) (A) (A) (A) (A) (A) (A)
                 (A) (A) (A) (A) (A) (A) (A) (A) (A) (A) (A) (A)
                 (A) (A) (A) (A) (A) (A) (A) (A) (A) (A) (A) (A)
                 (A) (A) (A) (A) (A) (A) (A) (A) (A) (A) (A) (A)
                 (A) (A) (A) (A) (A) (A) (A) (A) (A) (A) (A) (A)
                 (A) (A) (A) (A) (A) (A) (A) (A) (A) (A) (A) (A)
                 (A) (A) (A) (A) (A) (A) (A) (A) (A) (A) (A) (A)
                 (A) (A) (A) (A) (A) (A) (A) (A) (A) (A) (A) (A)
                 (A) (A) (A) (A) (A) (A) (A) (A) (A) (A) (A) (A)
                 (A) (A) (A) (A) (A) (A) (A) (A) (A) (A) (A) (A)
                 (A) (A) (A) (A) (A) (A) (A) (A) (A) (A) (A) (A)
                 (A) (A) (A) (A) (A) (A) (A) (A) (A) (A) (A) (A)
                 (A) (A) (A) (A) (A) (A) (A) (A) (A) (A) (A) (A)
                 (A) (A) (A) (A) (A) (A) (A) (A) (A) (A) (A) (A)
                 (A) (A) (A) (A) (A) (A) (A) (A) (A) (A) (A) (A)
                 (A) (A) (A) (A) (A) (A) (A) (A) (A) (A) (A) (A)
                 (A) (A) (A) (A) (A) (A) (A) (A) (A) (A) (A) (A)
                 (A) (A) (A) (A) (A) (A) (A) (A) (A) (A) (A) (A)
                 (A) (A) (A) (A) (A) (A) (A) (A) (A) (A) (A) (A)
                 (A) (A) (A) (A) (A) (A) (A) (A) (A) (A) (A) (A)
                 (A) (A) (A) (A) (A) (A) (A) (A) (A) (A) (A) (A)
                 (A) (A) (A) (A) (A) (A) (A) (A) (A) (A) (A) (A)
                 (A) (A) (A) (A) (A) (A) (A) (A) (A) (A) (A) (A)
                 (A) (A) (A) (A) (A) (A) (A) (A) (A) (A) (A) (A)
                 (A) (A) (A) (A) (A) (A) (A) (A) (A) (A) (A) (A)
                 (A) (A) (A) (A) (A) (A) (A) (A) (A) (A) (A) (A)
                 (A) (A) (A) (A) (A) (A) (A) (A) (A) (A) (A) (A)
                 (A) (A) (A) (A) (A) (A) (A) (A) (A) (A) (A) (A)
                 (A) (A) (A) (A) (A) (A) (A) (A) (A) (A) (A) (A)
                 (A) (A) (A) (A) (A) (A) (A) (A) (A) (A) (A) (A)
                 (A) (A) (A) (A) (A) (A) (A) (A) (A) (A) (A) (A)
                 (A) (A) (A) (A) (A) (A) (A) (A) (A) (A) (A) (A)
                 (A) (A) (A) (A) (A) (A) (A) (A) (A) (A) (A) (A)
                 (A) (A) (A) (A) (A) (A) (A) (A) (A) (A) (A) (A)
                 (A) (A) (A) (A) (A) (A) (A) (A) (A) (A) (A) (A)
                 (A) (A) (A) (A) (A) (A) (A) (A) (A) (A) (A) (A)
                 (A) (A) (A) (A) (A) (A) (A) (A) (A) (A) (A) (A)
                 (A) (A) (A) (A) (A) (A) (A) (A) (A) (A) (A) (A)
                 (A) (A) (A) (A) (A) (A) (A) (A) (A) (A) (A) (A)
                 (A) (A) (A) (A) (A) (A) (A) (A) (A) (A) (A) (A)
                 (A) (A) (A) (A) (A) (A) (A) (A) (A) (A) (A) (A)
                 (A) (A) (A) (A) (A) (A) (A) (A) (A) (A) (A) (A)
                 (A) (A) (A) (A) (A) (A) (A) (A) (A) (A) (A) (A)
                 (A) (A) (A) (A) (A) (A) (A) (A) (A) (A) (A) (A)
                 (A) (A) (A) (A) (A) (A) (A) (A) (A) (A) (A) (A)
                 (A) (A) (A) (A) (A) (A) (A) (A) (A) (A) (A) (A)
                 (A) (A) (A) (A) (A) (A) (A) (A) (A) (A) (A) (A)
                 (A) (A) (A) (A) (A) (A) (A) (A) (A) (A) (A) (A)
                 (A) (A) (A) (A) (A) (A) (A) (A) (A) (A) (A) (A)
                 (A) (A) (A) (A) (A) (A) (A) (A) (A) (A) (A) (A)
                 (A) (A) (A) (A) (A) (A) (A) (A) (A) (A) (A) (A)
                 (A) (A) (A) (A) (A) (A) (A) (A) (A) (A) (A) (A)
                 (A) (A) (A) (A) (A) (A) (A) (A) (A) (A) (A) (A)
                 (A) (A) (A) (A) (A) (A) (A) (A) (A) (A) (A) (A)
                 (A) (A) (A) (A) (A) (A) (A) (A) (A) (A) (A) (A)
                 (A) (A) (A) (A) (A) (A) (A) (A) (A) (A) (A) (A)
                 (A) (A) (A) (A) (A) (A) (A) (A) (A) (A) (A) (A)
                 (A) (A) (A) (A) (A) (A) (A) (A) (A) (A) (A) (A)
                 (A) (A) (A) (A) (A) (A) (A) (A) (A) (A) (A) (A)
                 (A) (A) (A) (A) (A) (A) (A) (A) (A) (A) (A) (A)
                 (A) (A) (A) (A) (A) (A) (A) (A) (A) (A) (A) (A)
                 (A) (A) (A) (A) (A) (A) (A) (A) (A) (A) (A) (A)
                 (A) (A) (A) (A) (A) (A) (A) (A) (A) (A) (A) (A)
                 (A) (A) (A) (A) (A) (A) (A) (A) (A) (A) (A) (A)
                 (A) (A) (A) (A) (A) (A) (A) (A) (A) (A) (A) (A)
                 (A) (A) (A) (A) (A) (A) (A) (A) (A) (A) (A) (A)
                 (A) (A) (A) (A) (A) (A) (A) (A) (A) (A) (A) (A)
                 (A) (A) (A) (A) (A) (A) (A) (A) (A) (A) (A) (A)
                 (A) (A) (A) (A) (A) (A) (A) (A) (A) (A) (A) (A)
                 (A) (A) (A) (A) (A) (A) (A) (A) (A) (A) (A) (A)
                 (A) (A) (A) (A) (A) (A) (A) (A) (A) (A) (A) (A)
                 (A) (A) (A) (A) (A) (A) (A) (A) (A) (A) (A) (A)
                 (A) (A) (A) (A) (A) (A) (A) (A) (A) (A) (A) (A)
                 (A) (A) (A) (A) (A) (A) (A) (A) (A) (A) (A) (A)
                 (A) (A) (A) (A) (A) (A) (A) (A) (A) (A) (A) (A)
                 (A) (A) (A) (A) (A) (A) (A) (A) (A) (A) (A) (A)
                 (A) (A) (A) (A) (A) (A) (A) (A) (A) (A) (A) (A)
                 (A) (A) (A) (A) (A) (A) (A) (A) (A) (A) (A) (A)
                 (A) (A) (A) (A) (A) (A) (A) (A) (A) (A) (A) (A)
                 (A) (A) (A) (A) (A) (A) (A) (A) (A) (A) (A) (A)
                 (A) (A) (A) (A) (A) (A) (A) (A) (A) (A) (A) (A)
                 (A) (A) (A) (A) (A) (A) (A) (A) (A) (A) (A) (A)
                 (A) (A) (A) (A) (A) (A) (A) (A) (A) (A) (A) (A)
                 (A) (A) (A) (A) (A) (A) (A) (A) (A) (A) (A) (A)
                 (A) (A) (A) (A) (A) (A) (A) (A) (A) (A) (A) (A)
                 (A) (A) (A) (A) (A) (A) (A) (A) (A) (A) (A) (A)
                 (A) (A) (A) (A) (A) (A) (A) (A) (A) (A) (A) (A)
                 (A) (A) (A) (A) (A) (A) (A) (A) (A) (A) (A) (A)
                 (A) (A) (A) (A) (A) (A) (A) (A) (A) (A) (A) (A)
                 (A) (A) (A) (A) (A) (A)
<<<<<<< HEAD
     4 initial guesses have been made.
 Convergence on wavefunction:    0.001000000000000
 Iteration     1 Dimension     4 NMult     0 NNew      4
 CISAX will form     4 AO SS matrices at one time.
 Iteration     2 Dimension     6 NMult     4 NNew      2
 Iteration     3 Dimension     8 NMult     6 NNew      2
 Iteration     4 Dimension    10 NMult     8 NNew      2
 Iteration     5 Dimension    12 NMult    10 NNew      2
 Iteration     6 Dimension    14 NMult    12 NNew      2
 Iteration     7 Dimension    16 NMult    14 NNew      2
 Iteration     8 Dimension    18 NMult    16 NNew      2
 Iteration     9 Dimension    20 NMult    18 NNew      2
=======
     8 initial guesses have been made.
 Convergence on wavefunction:    0.001000000000000
 Iteration     1 Dimension     8 NMult     0 NNew      8
 CISAX will form     8 AO SS matrices at one time.
 Iteration     2 Dimension    12 NMult     8 NNew      4
 Iteration     3 Dimension    16 NMult    12 NNew      4
 Iteration     4 Dimension    20 NMult    16 NNew      4
 Iteration     5 Dimension    24 NMult    20 NNew      4
 Iteration     6 Dimension    28 NMult    24 NNew      4
>>>>>>> 8e03b5b5abfc0030b3aa597dc0de36371bfbd096
 ***********************************************************************
 Excited states from <AA,BB:AA,BB> singles matrix:
 ***********************************************************************
 
 Ground to excited state transition densities written to RWF  633
 Ground to excited state transition electric dipole moments (Au):
       state          X           Y           Z        Dip. S.      Osc.
<<<<<<< HEAD
         1         1.1651     -2.1318      0.1175      5.9160      0.3241
 Ground to excited state transition velocity dipole moments (Au):
       state          X           Y           Z        Dip. S.      Osc.
         1        -0.0904      0.1713     -0.0075      0.0376      0.3048
 Ground to excited state transition magnetic dipole moments (Au):
       state          X           Y           Z
         1         0.1351     -0.0601     -2.8794
 Ground to excited state transition velocity quadrupole moments (Au):
       state          XX          YY          ZZ          XY          XZ          YZ
         1         2.4165     -0.0128      0.0435     -2.2335      0.2062      0.0988
 <0|del|b> * <b|rxdel|0> + <0|del|b> * <b|delr+rdel|0>
 Rotatory Strengths (R) in cgs (10**-40 erg-esu-cm/Gauss)
       state          XX          YY          ZZ    R(velocity)    E-M Angle
         1       -30.9210    -70.1128     93.5059     -2.5093       90.09
 1/2[<0|r|b>*<b|rxdel|0> + (<0|rxdel|b>*<b|r|0>)*]
 Rotatory Strengths (R) in cgs (10**-40 erg-esu-cm/Gauss)
       state          XX          YY          ZZ     R(length)
         1      -111.2962    -90.6384    239.2341     12.4332
  1/2[<0|del|b>*<b|r|0> + (<0|r|b>*<b|del|0>)*] (Au)
       state          X           Y           Z        Dip. S.   Osc.(frdel)
         1        -0.1054     -0.3651     -0.0009      0.4714      0.3142

 Excitation energies and oscillator strengths:
 
 Excited State   1:      Singlet-A      2.2360 eV  554.48 nm  f=0.3241  <S**2>=0.000
     240 -> 243        0.16778
     241 -> 242        0.67525
 This state for optimization and/or second-order correction.
 Total Energy, E(TD-HF/TD-DFT) =  -2932.47007711    
 Copying the excited state density for this state as the 1-particle RhoCI density.
 SavETr:  write IOETrn=   770 NScale= 10 NData=  16 NLR=1 NState=    1 LETran=      28.
 Hyperfine terms turned off by default for NAtoms > 100.
=======
         1        -0.2946     -2.0355     -0.3537      4.3550      0.2106
 Ground to excited state transition velocity dipole moments (Au):
       state          X           Y           Z        Dip. S.      Osc.
         1         0.0201      0.1427      0.0256      0.0214      0.1969
 Ground to excited state transition magnetic dipole moments (Au):
       state          X           Y           Z
         1         0.3374      0.4620     -2.8996
 Ground to excited state transition velocity quadrupole moments (Au):
       state          XX          YY          ZZ          XY          XZ          YZ
         1        -0.6615      0.4197      0.0390     -1.8344     -0.3378      0.1682
 <0|del|b> * <b|rxdel|0> + <0|del|b> * <b|delr+rdel|0>
 Rotatory Strengths (R) in cgs (10**-40 erg-esu-cm/Gauss)
       state          XX          YY          ZZ    R(velocity)    E-M Angle
         1       -34.4069    -83.4910    102.9722     -4.9752       90.20
 1/2[<0|r|b>*<b|rxdel|0> + (<0|rxdel|b>*<b|r|0>)*]
 Rotatory Strengths (R) in cgs (10**-40 erg-esu-cm/Gauss)
       state          XX          YY          ZZ     R(length)
         1        70.2775    665.0286   -725.1584      3.3826
  1/2[<0|del|b>*<b|r|0> + (<0|r|b>*<b|del|0>)*] (Au)
       state          X           Y           Z        Dip. S.   Osc.(frdel)
         1        -0.0059     -0.2905     -0.0091      0.3055      0.2037

 Excitation energies and oscillator strengths:
 
 Excited State   1:      Singlet-A      1.9740 eV  628.07 nm  f=0.2106  <S**2>=0.000
     240 -> 243        0.27746
     241 -> 242        0.64691
 This state for optimization and/or second-order correction.
 Total Energy, E(TD-HF/TD-KS) =  -2932.54217444    
 Copying the excited state density for this state as the 1-particle RhoCI density.
 SavETr:  write IOETrn=   770 NScale= 10 NData=  16 NLR=1 NState=    1 LETran=      28.
>>>>>>> 8e03b5b5abfc0030b3aa597dc0de36371bfbd096

 **********************************************************************

            Population analysis using the SCF density.

 **********************************************************************

 Orbital symmetries:
       Occupied  (A) (A) (A) (A) (A) (A) (A) (A) (A) (A) (A) (A)
                 (A) (A) (A) (A) (A) (A) (A) (A) (A) (A) (A) (A)
                 (A) (A) (A) (A) (A) (A) (A) (A) (A) (A) (A) (A)
                 (A) (A) (A) (A) (A) (A) (A) (A) (A) (A) (A) (A)
                 (A) (A) (A) (A) (A) (A) (A) (A) (A) (A) (A) (A)
                 (A) (A) (A) (A) (A) (A) (A) (A) (A) (A) (A) (A)
                 (A) (A) (A) (A) (A) (A) (A) (A) (A) (A) (A) (A)
                 (A) (A) (A) (A) (A) (A) (A) (A) (A) (A) (A) (A)
                 (A) (A) (A) (A) (A) (A) (A) (A) (A) (A) (A) (A)
                 (A) (A) (A) (A) (A) (A) (A) (A) (A) (A) (A) (A)
                 (A) (A) (A) (A) (A) (A) (A) (A) (A) (A) (A) (A)
                 (A) (A) (A) (A) (A) (A) (A) (A) (A) (A) (A) (A)
                 (A) (A) (A) (A) (A) (A) (A) (A) (A) (A) (A) (A)
                 (A) (A) (A) (A) (A) (A) (A) (A) (A) (A) (A) (A)
                 (A) (A) (A) (A) (A) (A) (A) (A) (A) (A) (A) (A)
                 (A) (A) (A) (A) (A) (A) (A) (A) (A) (A) (A) (A)
                 (A) (A) (A) (A) (A) (A) (A) (A) (A) (A) (A) (A)
                 (A) (A) (A) (A) (A) (A) (A) (A) (A) (A) (A) (A)
                 (A) (A) (A) (A) (A) (A) (A) (A) (A) (A) (A) (A)
                 (A) (A) (A) (A) (A) (A) (A) (A) (A) (A) (A) (A)
                 (A)
       Virtual   (A) (A) (A) (A) (A) (A) (A) (A) (A) (A) (A) (A)
                 (A) (A) (A) (A) (A) (A) (A) (A) (A) (A) (A) (A)
                 (A) (A) (A) (A) (A) (A) (A) (A) (A) (A) (A) (A)
                 (A) (A) (A) (A) (A) (A) (A) (A) (A) (A) (A) (A)
                 (A) (A) (A) (A) (A) (A) (A) (A) (A) (A) (A) (A)
                 (A) (A) (A) (A) (A) (A) (A) (A) (A) (A) (A) (A)
                 (A) (A) (A) (A) (A) (A) (A) (A) (A) (A) (A) (A)
                 (A) (A) (A) (A) (A) (A) (A) (A) (A) (A) (A) (A)
                 (A) (A) (A) (A) (A) (A) (A) (A) (A) (A) (A) (A)
                 (A) (A) (A) (A) (A) (A) (A) (A) (A) (A) (A) (A)
                 (A) (A) (A) (A) (A) (A) (A) (A) (A) (A) (A) (A)
                 (A) (A) (A) (A) (A) (A) (A) (A) (A) (A) (A) (A)
                 (A) (A) (A) (A) (A) (A) (A) (A) (A) (A) (A) (A)
                 (A) (A) (A) (A) (A) (A) (A) (A) (A) (A) (A) (A)
                 (A) (A) (A) (A) (A) (A) (A) (A) (A) (A) (A) (A)
                 (A) (A) (A) (A) (A) (A) (A) (A) (A) (A) (A) (A)
                 (A) (A) (A) (A) (A) (A) (A) (A) (A) (A) (A) (A)
                 (A) (A) (A) (A) (A) (A) (A) (A) (A) (A) (A) (A)
                 (A) (A) (A) (A) (A) (A) (A) (A) (A) (A) (A) (A)
                 (A) (A) (A) (A) (A) (A) (A) (A) (A) (A) (A) (A)
                 (A) (A) (A) (A) (A) (A) (A) (A) (A) (A) (A) (A)
                 (A) (A) (A) (A) (A) (A) (A) (A) (A) (A) (A) (A)
                 (A) (A) (A) (A) (A) (A) (A) (A) (A) (A) (A) (A)
                 (A) (A) (A) (A) (A) (A) (A) (A) (A) (A) (A) (A)
                 (A) (A) (A) (A) (A) (A) (A) (A) (A) (A) (A) (A)
                 (A) (A) (A) (A) (A) (A) (A) (A) (A) (A) (A) (A)
                 (A) (A) (A) (A) (A) (A) (A) (A) (A) (A) (A) (A)
                 (A) (A) (A) (A) (A) (A) (A) (A) (A) (A) (A) (A)
                 (A) (A) (A) (A) (A) (A) (A) (A) (A) (A) (A) (A)
                 (A) (A) (A) (A) (A) (A) (A) (A) (A) (A) (A) (A)
                 (A) (A) (A) (A) (A) (A) (A) (A) (A) (A) (A) (A)
                 (A) (A) (A) (A) (A) (A) (A) (A) (A) (A) (A) (A)
                 (A) (A) (A) (A) (A) (A) (A) (A) (A) (A) (A) (A)
                 (A) (A) (A) (A) (A) (A) (A) (A) (A) (A) (A) (A)
                 (A) (A) (A) (A) (A) (A) (A) (A) (A) (A) (A) (A)
                 (A) (A) (A) (A) (A) (A) (A) (A) (A) (A) (A) (A)
                 (A) (A) (A) (A) (A) (A) (A) (A) (A) (A) (A) (A)
                 (A) (A) (A) (A) (A) (A) (A) (A) (A) (A) (A) (A)
                 (A) (A) (A) (A) (A) (A) (A) (A) (A) (A) (A) (A)
                 (A) (A) (A) (A) (A) (A) (A) (A) (A) (A) (A) (A)
                 (A) (A) (A) (A) (A) (A) (A) (A) (A) (A) (A) (A)
                 (A) (A) (A) (A) (A) (A) (A) (A) (A) (A) (A) (A)
                 (A) (A) (A) (A) (A) (A) (A) (A) (A) (A) (A) (A)
                 (A) (A) (A) (A) (A) (A) (A) (A) (A) (A) (A) (A)
                 (A) (A) (A) (A) (A) (A) (A) (A) (A) (A) (A) (A)
                 (A) (A) (A) (A) (A) (A) (A) (A) (A) (A) (A) (A)
                 (A) (A) (A) (A) (A) (A) (A) (A) (A) (A) (A) (A)
                 (A) (A) (A) (A) (A) (A) (A) (A) (A) (A) (A) (A)
                 (A) (A) (A) (A) (A) (A) (A) (A) (A) (A) (A) (A)
                 (A) (A) (A) (A) (A) (A) (A) (A) (A) (A) (A) (A)
                 (A) (A) (A) (A) (A) (A) (A) (A) (A) (A) (A) (A)
                 (A) (A) (A) (A) (A) (A) (A) (A) (A) (A) (A) (A)
                 (A) (A) (A) (A) (A) (A) (A) (A) (A) (A) (A) (A)
                 (A) (A) (A) (A) (A) (A) (A) (A) (A) (A) (A) (A)
                 (A) (A) (A) (A) (A) (A) (A) (A) (A) (A) (A) (A)
                 (A) (A) (A) (A) (A) (A) (A) (A) (A) (A) (A) (A)
                 (A) (A) (A) (A) (A) (A) (A) (A) (A) (A) (A) (A)
                 (A) (A) (A) (A) (A) (A) (A) (A) (A) (A) (A) (A)
                 (A) (A) (A) (A) (A) (A) (A) (A) (A) (A) (A) (A)
                 (A) (A) (A) (A) (A) (A) (A) (A) (A) (A) (A) (A)
                 (A) (A) (A) (A) (A) (A) (A) (A) (A) (A) (A) (A)
                 (A) (A) (A) (A) (A) (A) (A) (A) (A) (A) (A) (A)
                 (A) (A) (A) (A) (A) (A) (A) (A) (A) (A) (A) (A)
                 (A) (A) (A) (A) (A) (A) (A) (A) (A) (A) (A) (A)
                 (A) (A) (A) (A) (A) (A) (A) (A) (A) (A) (A) (A)
                 (A) (A) (A) (A) (A) (A) (A) (A) (A) (A) (A) (A)
                 (A) (A) (A) (A) (A) (A) (A) (A) (A) (A) (A) (A)
                 (A) (A) (A) (A) (A) (A) (A) (A) (A) (A) (A) (A)
                 (A) (A) (A) (A) (A) (A) (A) (A) (A) (A) (A) (A)
                 (A) (A) (A) (A) (A) (A) (A) (A) (A) (A) (A) (A)
                 (A) (A) (A) (A) (A) (A) (A) (A) (A) (A) (A) (A)
                 (A) (A) (A) (A) (A) (A) (A) (A) (A) (A) (A) (A)
                 (A) (A) (A) (A) (A) (A) (A) (A) (A) (A) (A) (A)
                 (A) (A) (A) (A) (A) (A) (A) (A) (A) (A) (A) (A)
                 (A) (A) (A) (A) (A) (A) (A) (A) (A) (A) (A) (A)
                 (A) (A) (A) (A) (A) (A) (A) (A) (A) (A) (A) (A)
                 (A) (A) (A) (A) (A) (A) (A) (A) (A) (A) (A) (A)
                 (A) (A) (A) (A) (A) (A) (A) (A) (A) (A) (A) (A)
                 (A) (A) (A) (A) (A) (A) (A) (A) (A) (A) (A) (A)
                 (A) (A) (A) (A) (A) (A) (A) (A) (A) (A) (A) (A)
                 (A) (A) (A) (A) (A) (A) (A) (A) (A) (A) (A) (A)
                 (A) (A) (A) (A) (A) (A) (A) (A) (A) (A) (A) (A)
                 (A) (A) (A) (A) (A) (A) (A) (A) (A) (A) (A) (A)
                 (A) (A) (A) (A) (A) (A) (A) (A) (A) (A) (A) (A)
                 (A) (A) (A) (A) (A) (A) (A) (A) (A) (A) (A) (A)
                 (A) (A) (A) (A) (A) (A) (A) (A) (A) (A) (A) (A)
                 (A) (A) (A) (A) (A) (A) (A) (A) (A) (A) (A) (A)
                 (A) (A) (A) (A) (A) (A) (A) (A) (A) (A) (A) (A)
                 (A) (A) (A) (A) (A) (A) (A) (A) (A) (A) (A) (A)
                 (A) (A) (A) (A) (A) (A) (A) (A) (A) (A) (A) (A)
                 (A) (A) (A) (A) (A) (A) (A) (A) (A) (A) (A) (A)
                 (A) (A) (A) (A) (A) (A)
 The electronic state is 1-A.
<<<<<<< HEAD
 Alpha  occ. eigenvalues --  -46.84831 -19.27763 -19.25178 -19.20256 -19.19728
 Alpha  occ. eigenvalues --  -19.19442 -14.42555 -14.39392 -14.39301 -14.38965
 Alpha  occ. eigenvalues --  -10.38672 -10.37883 -10.33977 -10.33342 -10.32115
 Alpha  occ. eigenvalues --  -10.30810 -10.30470 -10.30300 -10.30036 -10.29069
 Alpha  occ. eigenvalues --  -10.28814 -10.28744 -10.28567 -10.28481 -10.28478
 Alpha  occ. eigenvalues --  -10.28393 -10.28337 -10.28224 -10.28196 -10.28139
 Alpha  occ. eigenvalues --  -10.27940 -10.27776 -10.27760 -10.27708 -10.27485
 Alpha  occ. eigenvalues --  -10.27243 -10.26872 -10.26852 -10.26706 -10.26575
 Alpha  occ. eigenvalues --  -10.26543 -10.26542 -10.26490 -10.26396 -10.26262
 Alpha  occ. eigenvalues --  -10.26252 -10.26164 -10.26152 -10.26025 -10.25996
 Alpha  occ. eigenvalues --  -10.25983 -10.25692 -10.25671 -10.25446 -10.25406
 Alpha  occ. eigenvalues --  -10.25390 -10.24784 -10.24722 -10.24590 -10.24578
 Alpha  occ. eigenvalues --  -10.24230 -10.24080 -10.24027 -10.23960 -10.21621
 Alpha  occ. eigenvalues --   -3.13760  -1.88464  -1.88040  -1.87899  -1.21023
 Alpha  occ. eigenvalues --   -1.20327  -1.12378  -1.10747  -1.10107  -1.04337
 Alpha  occ. eigenvalues --   -1.03871  -1.02578  -1.01523  -0.92780  -0.92715
 Alpha  occ. eigenvalues --   -0.91363  -0.90376  -0.90337  -0.89726  -0.89433
 Alpha  occ. eigenvalues --   -0.88561  -0.88346  -0.86955  -0.86256  -0.85581
 Alpha  occ. eigenvalues --   -0.85004  -0.84083  -0.83389  -0.83096  -0.82839
 Alpha  occ. eigenvalues --   -0.82132  -0.81891  -0.80261  -0.79225  -0.77981
 Alpha  occ. eigenvalues --   -0.77156  -0.77068  -0.76738  -0.76719  -0.76280
 Alpha  occ. eigenvalues --   -0.75550  -0.75072  -0.74027  -0.73488  -0.71684
 Alpha  occ. eigenvalues --   -0.71213  -0.70511  -0.69784  -0.68559  -0.67712
 Alpha  occ. eigenvalues --   -0.67068  -0.66776  -0.65091  -0.65019  -0.64557
 Alpha  occ. eigenvalues --   -0.64516  -0.63950  -0.63799  -0.62970  -0.62744
 Alpha  occ. eigenvalues --   -0.62401  -0.60360  -0.59916  -0.59413  -0.58961
 Alpha  occ. eigenvalues --   -0.58144  -0.57768  -0.57741  -0.57251  -0.56713
 Alpha  occ. eigenvalues --   -0.56331  -0.56012  -0.55445  -0.54989  -0.54796
 Alpha  occ. eigenvalues --   -0.54173  -0.54056  -0.53883  -0.53329  -0.52946
 Alpha  occ. eigenvalues --   -0.52846  -0.52632  -0.52349  -0.52190  -0.51964
 Alpha  occ. eigenvalues --   -0.51890  -0.51664  -0.50879  -0.50849  -0.50593
 Alpha  occ. eigenvalues --   -0.50328  -0.50253  -0.49950  -0.49710  -0.49621
 Alpha  occ. eigenvalues --   -0.49164  -0.48958  -0.48780  -0.48481  -0.48426
 Alpha  occ. eigenvalues --   -0.48235  -0.47998  -0.47598  -0.47497  -0.47355
 Alpha  occ. eigenvalues --   -0.47104  -0.46787  -0.46679  -0.46172  -0.45907
 Alpha  occ. eigenvalues --   -0.45780  -0.45619  -0.45543  -0.45292  -0.44901
 Alpha  occ. eigenvalues --   -0.44706  -0.44529  -0.44377  -0.44205  -0.44047
 Alpha  occ. eigenvalues --   -0.43891  -0.43854  -0.43705  -0.43374  -0.43232
 Alpha  occ. eigenvalues --   -0.43083  -0.43046  -0.42901  -0.42655  -0.42293
 Alpha  occ. eigenvalues --   -0.42073  -0.41702  -0.41405  -0.41180  -0.41040
 Alpha  occ. eigenvalues --   -0.40904  -0.40730  -0.40526  -0.40425  -0.40171
 Alpha  occ. eigenvalues --   -0.40017  -0.39901  -0.39530  -0.39412  -0.39343
 Alpha  occ. eigenvalues --   -0.39114  -0.38906  -0.38535  -0.38403  -0.38076
 Alpha  occ. eigenvalues --   -0.37758  -0.37732  -0.37354  -0.37005  -0.36728
 Alpha  occ. eigenvalues --   -0.36614  -0.36135  -0.35894  -0.35473  -0.35337
 Alpha  occ. eigenvalues --   -0.35081  -0.34845  -0.33647  -0.33270  -0.33071
 Alpha  occ. eigenvalues --   -0.32959  -0.32298  -0.31723  -0.30390  -0.29212
 Alpha  occ. eigenvalues --   -0.29198  -0.28919  -0.28467  -0.27643  -0.23996
 Alpha  occ. eigenvalues --   -0.20138
 Alpha virt. eigenvalues --   -0.05384  -0.02741   0.01775   0.03887   0.04694
 Alpha virt. eigenvalues --    0.05116   0.05890   0.06878   0.07808   0.08112
 Alpha virt. eigenvalues --    0.08992   0.09703   0.10509   0.10924   0.11201
 Alpha virt. eigenvalues --    0.11353   0.12010   0.12720   0.12800   0.12888
 Alpha virt. eigenvalues --    0.13097   0.13480   0.13628   0.13829   0.14025
 Alpha virt. eigenvalues --    0.14448   0.14739   0.14877   0.14978   0.15319
 Alpha virt. eigenvalues --    0.15709   0.15926   0.16021   0.16178   0.16276
 Alpha virt. eigenvalues --    0.16319   0.17124   0.17244   0.17292   0.17652
 Alpha virt. eigenvalues --    0.17880   0.18021   0.18325   0.18494   0.18599
 Alpha virt. eigenvalues --    0.18792   0.18953   0.19053   0.19476   0.19502
 Alpha virt. eigenvalues --    0.19637   0.19907   0.19988   0.20037   0.20333
 Alpha virt. eigenvalues --    0.20441   0.20631   0.20796   0.20916   0.20945
 Alpha virt. eigenvalues --    0.21123   0.21353   0.21486   0.21828   0.21885
 Alpha virt. eigenvalues --    0.21992   0.22296   0.22489   0.22520   0.22631
 Alpha virt. eigenvalues --    0.22817   0.22989   0.23177   0.23468   0.23706
 Alpha virt. eigenvalues --    0.23819   0.24137   0.24158   0.24472   0.24573
 Alpha virt. eigenvalues --    0.24687   0.24950   0.25144   0.25320   0.25527
 Alpha virt. eigenvalues --    0.25936   0.25989   0.26054   0.26331   0.26433
 Alpha virt. eigenvalues --    0.26639   0.26781   0.26897   0.27265   0.27419
 Alpha virt. eigenvalues --    0.27976   0.28142   0.28277   0.28401   0.28513
 Alpha virt. eigenvalues --    0.28665   0.28707   0.29045   0.29214   0.29775
 Alpha virt. eigenvalues --    0.29901   0.29960   0.30391   0.30589   0.30767
 Alpha virt. eigenvalues --    0.30986   0.31100   0.31297   0.31850   0.31992
 Alpha virt. eigenvalues --    0.32318   0.32365   0.32720   0.33045   0.33080
 Alpha virt. eigenvalues --    0.33575   0.33894   0.34033   0.34796   0.35170
 Alpha virt. eigenvalues --    0.35265   0.35404   0.35707   0.35948   0.36190
 Alpha virt. eigenvalues --    0.36414   0.37035   0.37391   0.37879   0.38436
 Alpha virt. eigenvalues --    0.38711   0.39863   0.40087   0.40902   0.41082
 Alpha virt. eigenvalues --    0.41526   0.41714   0.42314   0.42531   0.42993
 Alpha virt. eigenvalues --    0.43541   0.43584   0.43813   0.45332   0.46146
 Alpha virt. eigenvalues --    0.46651   0.47036   0.47980   0.48531   0.48915
 Alpha virt. eigenvalues --    0.49788   0.50264   0.50811   0.51592   0.52254
 Alpha virt. eigenvalues --    0.53065   0.53129   0.53659   0.53924   0.54551
 Alpha virt. eigenvalues --    0.54637   0.54900   0.55255   0.55306   0.55517
 Alpha virt. eigenvalues --    0.56173   0.56240   0.56424   0.56541   0.56870
 Alpha virt. eigenvalues --    0.56944   0.56967   0.57578   0.57686   0.57840
 Alpha virt. eigenvalues --    0.58126   0.58229   0.58454   0.58573   0.58877
 Alpha virt. eigenvalues --    0.59125   0.59173   0.59593   0.59879   0.59976
 Alpha virt. eigenvalues --    0.60117   0.60256   0.60488   0.60971   0.61279
 Alpha virt. eigenvalues --    0.61598   0.61970   0.62287   0.62430   0.62727
 Alpha virt. eigenvalues --    0.62820   0.63261   0.63427   0.63741   0.64010
 Alpha virt. eigenvalues --    0.64194   0.64418   0.64983   0.65214   0.65413
 Alpha virt. eigenvalues --    0.65563   0.66064   0.66572   0.66648   0.66830
 Alpha virt. eigenvalues --    0.67000   0.67145   0.67486   0.68309   0.68481
 Alpha virt. eigenvalues --    0.68760   0.69114   0.69232   0.69466   0.69540
 Alpha virt. eigenvalues --    0.69706   0.69788   0.70286   0.70710   0.71145
 Alpha virt. eigenvalues --    0.71438   0.71651   0.71758   0.71920   0.72111
 Alpha virt. eigenvalues --    0.72266   0.72618   0.73060   0.73367   0.73593
 Alpha virt. eigenvalues --    0.73849   0.74017   0.74289   0.74417   0.74478
 Alpha virt. eigenvalues --    0.75116   0.75249   0.75484   0.75572   0.75850
 Alpha virt. eigenvalues --    0.76011   0.76377   0.76718   0.77085   0.77219
 Alpha virt. eigenvalues --    0.77443   0.77526   0.77946   0.78153   0.78247
 Alpha virt. eigenvalues --    0.78410   0.78998   0.79053   0.79299   0.79536
 Alpha virt. eigenvalues --    0.79853   0.80112   0.80462   0.80731   0.80870
 Alpha virt. eigenvalues --    0.81068   0.81454   0.81572   0.81656   0.81904
 Alpha virt. eigenvalues --    0.82062   0.82446   0.82650   0.82985   0.83073
 Alpha virt. eigenvalues --    0.83147   0.83454   0.83608   0.83895   0.83984
 Alpha virt. eigenvalues --    0.84133   0.84302   0.84701   0.84897   0.85016
 Alpha virt. eigenvalues --    0.85297   0.85353   0.85672   0.85840   0.86026
 Alpha virt. eigenvalues --    0.86235   0.86416   0.87004   0.87034   0.87151
 Alpha virt. eigenvalues --    0.87267   0.87370   0.87586   0.87829   0.88142
 Alpha virt. eigenvalues --    0.88208   0.88737   0.88919   0.89135   0.89150
 Alpha virt. eigenvalues --    0.89435   0.89824   0.89928   0.90123   0.90510
 Alpha virt. eigenvalues --    0.90631   0.90953   0.91078   0.91470   0.91576
 Alpha virt. eigenvalues --    0.91846   0.91924   0.92284   0.92595   0.92656
 Alpha virt. eigenvalues --    0.92923   0.93042   0.93597   0.93830   0.93994
 Alpha virt. eigenvalues --    0.94151   0.94356   0.94452   0.94772   0.95158
 Alpha virt. eigenvalues --    0.95350   0.95395   0.95552   0.95831   0.95927
 Alpha virt. eigenvalues --    0.96488   0.96639   0.96887   0.96938   0.97253
 Alpha virt. eigenvalues --    0.97475   0.97712   0.97920   0.98042   0.98270
 Alpha virt. eigenvalues --    0.98425   0.98465   0.98825   0.98923   0.99076
 Alpha virt. eigenvalues --    0.99362   0.99706   0.99820   0.99918   1.00209
 Alpha virt. eigenvalues --    1.00305   1.00394   1.01043   1.01207   1.01425
 Alpha virt. eigenvalues --    1.01549   1.01678   1.01787   1.01975   1.02201
 Alpha virt. eigenvalues --    1.02402   1.02895   1.03667   1.04183   1.04445
 Alpha virt. eigenvalues --    1.04528   1.04789   1.05301   1.05381   1.05590
 Alpha virt. eigenvalues --    1.05912   1.06116   1.06212   1.06494   1.07010
 Alpha virt. eigenvalues --    1.07283   1.07873   1.07955   1.08171   1.08487
 Alpha virt. eigenvalues --    1.08966   1.09110   1.09451   1.09623   1.10184
 Alpha virt. eigenvalues --    1.10338   1.10408   1.10728   1.11685   1.12041
 Alpha virt. eigenvalues --    1.12336   1.12552   1.12955   1.13351   1.13539
 Alpha virt. eigenvalues --    1.13739   1.14550   1.14717   1.15058   1.15130
 Alpha virt. eigenvalues --    1.15666   1.16142   1.16375   1.16696   1.17525
 Alpha virt. eigenvalues --    1.17994   1.18305   1.18538   1.19188   1.20597
 Alpha virt. eigenvalues --    1.21219   1.21958   1.22079   1.22408   1.22987
 Alpha virt. eigenvalues --    1.23678   1.24829   1.24993   1.25197   1.25908
 Alpha virt. eigenvalues --    1.25939   1.26450   1.26782   1.27584   1.27872
 Alpha virt. eigenvalues --    1.28545   1.28866   1.29333   1.29848   1.30713
 Alpha virt. eigenvalues --    1.31058   1.31246   1.31999   1.32633   1.32701
 Alpha virt. eigenvalues --    1.34010   1.34454   1.34616   1.35230   1.36098
 Alpha virt. eigenvalues --    1.36191   1.36483   1.37031   1.37306   1.37432
 Alpha virt. eigenvalues --    1.38331   1.38923   1.39125   1.39420   1.39720
 Alpha virt. eigenvalues --    1.39875   1.40651   1.41385   1.42269   1.42864
 Alpha virt. eigenvalues --    1.43244   1.44068   1.44213   1.44476   1.44775
 Alpha virt. eigenvalues --    1.45060   1.45640   1.46298   1.46611   1.47071
 Alpha virt. eigenvalues --    1.47248   1.48048   1.48344   1.48894   1.49445
 Alpha virt. eigenvalues --    1.49849   1.50045   1.51145   1.51457   1.52571
 Alpha virt. eigenvalues --    1.52780   1.53183   1.53518   1.54859   1.55456
 Alpha virt. eigenvalues --    1.55607   1.55851   1.56376   1.56683   1.56863
 Alpha virt. eigenvalues --    1.57268   1.57326   1.57690   1.57986   1.58540
 Alpha virt. eigenvalues --    1.58725   1.59628   1.59804   1.60531   1.60968
 Alpha virt. eigenvalues --    1.62384   1.62880   1.63251   1.63286   1.63794
 Alpha virt. eigenvalues --    1.63954   1.64371   1.64478   1.64734   1.64920
 Alpha virt. eigenvalues --    1.65445   1.65737   1.65873   1.66775   1.67465
 Alpha virt. eigenvalues --    1.67597   1.67918   1.68492   1.68655   1.69366
 Alpha virt. eigenvalues --    1.69836   1.69984   1.70451   1.70872   1.71182
 Alpha virt. eigenvalues --    1.71542   1.71956   1.73084   1.73295   1.73396
 Alpha virt. eigenvalues --    1.73554   1.74650   1.75430   1.75671   1.75844
 Alpha virt. eigenvalues --    1.76552   1.76771   1.76960   1.77088   1.77516
 Alpha virt. eigenvalues --    1.77945   1.78214   1.78817   1.79456   1.80136
 Alpha virt. eigenvalues --    1.80225   1.80818   1.80854   1.81136   1.81521
 Alpha virt. eigenvalues --    1.82310   1.82575   1.83061   1.83406   1.83418
 Alpha virt. eigenvalues --    1.83787   1.83868   1.84303   1.84891   1.85052
 Alpha virt. eigenvalues --    1.85359   1.85956   1.86256   1.87042   1.87205
 Alpha virt. eigenvalues --    1.87394   1.87526   1.87588   1.88170   1.88172
 Alpha virt. eigenvalues --    1.88431   1.88548   1.88737   1.88998   1.89235
 Alpha virt. eigenvalues --    1.89793   1.90099   1.90409   1.91042   1.91195
 Alpha virt. eigenvalues --    1.91493   1.91794   1.91898   1.91930   1.92010
 Alpha virt. eigenvalues --    1.92639   1.92929   1.93041   1.93609   1.93641
 Alpha virt. eigenvalues --    1.93836   1.94255   1.94669   1.94969   1.95120
 Alpha virt. eigenvalues --    1.95310   1.95362   1.95690   1.96112   1.96283
 Alpha virt. eigenvalues --    1.96388   1.96828   1.97138   1.97597   1.97677
 Alpha virt. eigenvalues --    1.97959   1.98214   1.98324   1.98530   1.98745
 Alpha virt. eigenvalues --    1.99074   1.99430   1.99788   2.00418   2.00694
 Alpha virt. eigenvalues --    2.01083   2.01178   2.01499   2.01668   2.01923
 Alpha virt. eigenvalues --    2.02178   2.02313   2.02320   2.03264   2.03738
 Alpha virt. eigenvalues --    2.03837   2.04222   2.04516   2.04649   2.04773
 Alpha virt. eigenvalues --    2.05628   2.05922   2.05952   2.06417   2.06617
 Alpha virt. eigenvalues --    2.06743   2.07141   2.07756   2.07799   2.08052
 Alpha virt. eigenvalues --    2.08165   2.08497   2.08791   2.09196   2.09358
 Alpha virt. eigenvalues --    2.09577   2.10116   2.10237   2.10862   2.11161
 Alpha virt. eigenvalues --    2.11393   2.11490   2.11819   2.12406   2.12542
 Alpha virt. eigenvalues --    2.12947   2.13041   2.13440   2.13682   2.13839
 Alpha virt. eigenvalues --    2.13998   2.14674   2.14703   2.14976   2.15383
 Alpha virt. eigenvalues --    2.15577   2.15771   2.16119   2.16357   2.16495
 Alpha virt. eigenvalues --    2.16789   2.16862   2.17577   2.17879   2.18120
 Alpha virt. eigenvalues --    2.18617   2.18794   2.18952   2.19319   2.19559
 Alpha virt. eigenvalues --    2.19984   2.20048   2.20355   2.20822   2.21263
 Alpha virt. eigenvalues --    2.21387   2.21636   2.21868   2.22200   2.22370
 Alpha virt. eigenvalues --    2.23148   2.23443   2.23850   2.24166   2.24523
 Alpha virt. eigenvalues --    2.24740   2.25002   2.25420   2.25498   2.26530
[...]
 Alpha virt. eigenvalues --    2.14199   2.14361   2.14576   2.15230   2.15422
 Alpha virt. eigenvalues --    2.15436   2.15511   2.16091   2.16137   2.16288
 Alpha virt. eigenvalues --    2.16986   2.17168   2.17464   2.17618   2.18094
 Alpha virt. eigenvalues --    2.18395   2.19451   2.19664   2.20249   2.20441
 Alpha virt. eigenvalues --    2.20697   2.21108   2.21629   2.21874   2.22007
 Alpha virt. eigenvalues --    2.22112   2.22532   2.22793   2.22878   2.23435
 Alpha virt. eigenvalues --    2.23587   2.23670   2.24187   2.24216   2.24483
 Alpha virt. eigenvalues --    2.24796   2.25238   2.25666   2.25836   2.26673
 Alpha virt. eigenvalues --    2.26960   2.27538   2.27804   2.28193   2.28425
 Alpha virt. eigenvalues --    2.29583   2.29711   2.30397   2.30540   2.30892
 Alpha virt. eigenvalues --    2.30925   2.31109   2.31420   2.32056   2.32163
 Alpha virt. eigenvalues --    2.32554   2.33233   2.33737   2.33942   2.34538
 Alpha virt. eigenvalues --    2.34948   2.35044   2.35229   2.35605   2.35681
 Alpha virt. eigenvalues --    2.35953   2.36350   2.36600   2.36906   2.37131
 Alpha virt. eigenvalues --    2.37317   2.37874   2.38139   2.38283   2.38400
 Alpha virt. eigenvalues --    2.38679   2.39354   2.39449   2.39602   2.39755
 Alpha virt. eigenvalues --    2.40535   2.40586   2.41311   2.41546   2.41818
 Alpha virt. eigenvalues --    2.42304   2.42385   2.42597   2.43008   2.43141
 Alpha virt. eigenvalues --    2.43532   2.43762   2.43963   2.44321   2.44374
 Alpha virt. eigenvalues --    2.44587   2.44800   2.44879   2.45019   2.45464
 Alpha virt. eigenvalues --    2.45655   2.46110   2.46239   2.46469   2.46953
 Alpha virt. eigenvalues --    2.47170   2.47448   2.47682   2.47808   2.48143
 Alpha virt. eigenvalues --    2.48468   2.48856   2.49193   2.49400   2.49914
 Alpha virt. eigenvalues --    2.50057   2.51041   2.51115   2.51348   2.51848
 Alpha virt. eigenvalues --    2.52013   2.52170   2.52848   2.52944   2.53112
 Alpha virt. eigenvalues --    2.53735   2.54035   2.54537   2.55352   2.55751
 Alpha virt. eigenvalues --    2.56732   2.57297   2.57669   2.58168   2.58328
 Alpha virt. eigenvalues --    2.58566   2.59120   2.59195   2.59392   2.60182
 Alpha virt. eigenvalues --    2.60520   2.61082   2.61287   2.61631   2.62160
 Alpha virt. eigenvalues --    2.62475   2.62547   2.62910   2.63224   2.63493
 Alpha virt. eigenvalues --    2.64263   2.64616   2.65170   2.65813   2.66403
 Alpha virt. eigenvalues --    2.66479   2.66691   2.67198   2.67511   2.67807
 Alpha virt. eigenvalues --    2.68011   2.68271   2.68515   2.68698   2.69224
 Alpha virt. eigenvalues --    2.69576   2.69692   2.69749   2.69999   2.70401
 Alpha virt. eigenvalues --    2.70640   2.71106   2.71416   2.71730   2.71985
 Alpha virt. eigenvalues --    2.72350   2.73031   2.73462   2.73524   2.73542
 Alpha virt. eigenvalues --    2.74165   2.74293   2.74844   2.75329   2.75739
 Alpha virt. eigenvalues --    2.75949   2.76315   2.76538   2.76741   2.77175
 Alpha virt. eigenvalues --    2.77545   2.77987   2.78377   2.78422   2.78802
 Alpha virt. eigenvalues --    2.78912   2.79307   2.79973   2.80047   2.80325
 Alpha virt. eigenvalues --    2.80613   2.81337   2.81743   2.81980   2.82543
 Alpha virt. eigenvalues --    2.82782   2.82858   2.83256   2.83760   2.84291
 Alpha virt. eigenvalues --    2.84466   2.84670   2.85262   2.85403   2.85646
 Alpha virt. eigenvalues --    2.86451   2.86641   2.86788   2.86998   2.87268
 Alpha virt. eigenvalues --    2.87455   2.88581   2.88905   2.89007   2.89885
 Alpha virt. eigenvalues --    2.90178   2.90411   2.90494   2.90911   2.91098
 Alpha virt. eigenvalues --    2.91221   2.92075   2.92089   2.92912   2.93098
 Alpha virt. eigenvalues --    2.93552   2.93850   2.94458   2.94658   2.94760
 Alpha virt. eigenvalues --    2.95594   2.95883   2.96372   2.96569   2.97272
 Alpha virt. eigenvalues --    2.97428   2.97826   2.98077   2.98631   2.99008
 Alpha virt. eigenvalues --    2.99386   3.00396   3.00972   3.01199   3.01496
 Alpha virt. eigenvalues --    3.01568   3.01702   3.02184   3.02528   3.03173
 Alpha virt. eigenvalues --    3.03572   3.04013   3.04389   3.04819   3.05434
 Alpha virt. eigenvalues --    3.06139   3.06219   3.06631   3.06705   3.06777
 Alpha virt. eigenvalues --    3.06975   3.07941   3.08486   3.08633   3.09053
 Alpha virt. eigenvalues --    3.09660   3.10369   3.10752   3.11073   3.11736
 Alpha virt. eigenvalues --    3.12303   3.13077   3.13332   3.13737   3.14620
 Alpha virt. eigenvalues --    3.15076   3.15660   3.16578   3.18103   3.18812
 Alpha virt. eigenvalues --    3.19294   3.19828   3.21157   3.21678   3.22000
 Alpha virt. eigenvalues --    3.23658   3.24718   3.26338   3.27638   3.28220
 Alpha virt. eigenvalues --    3.29124   3.29708   3.30290   3.31104   3.31252
 Alpha virt. eigenvalues --    3.32607   3.33432   3.33668   3.34567   3.35074
 Alpha virt. eigenvalues --    3.35382   3.35905   3.36038   3.36070   3.36900
 Alpha virt. eigenvalues --    3.36933   3.38013   3.38370   3.39426   3.41862
 Alpha virt. eigenvalues --    3.42036   3.42039   3.42458   3.44020   3.44061
 Alpha virt. eigenvalues --    3.44997   3.45714   3.46259   3.47074   3.48232
 Alpha virt. eigenvalues --    3.48981   3.49390   3.49688   3.50641   3.51091
 Alpha virt. eigenvalues --    3.51423   3.51532   3.51628   3.52745   3.53172
 Alpha virt. eigenvalues --    3.54622   3.54622   3.54671   3.55747   3.57980
 Alpha virt. eigenvalues --    3.59281   3.59828   3.60320   3.60861   3.62211
 Alpha virt. eigenvalues --    3.62788   3.62851   3.64234   3.64401   3.65120
 Alpha virt. eigenvalues --    3.69279   3.70297   3.71125   3.72082   3.72621
 Alpha virt. eigenvalues --    3.74985   3.77797   3.78378   3.81404   3.82336
 Alpha virt. eigenvalues --    3.85487   3.90174   3.97346   3.97810   4.05711
 Alpha virt. eigenvalues --    4.13197   4.14871   4.19512   4.20965   4.22394
 Alpha virt. eigenvalues --    4.22873   4.26032   4.26533   4.27719   4.29677
 Alpha virt. eigenvalues --    4.30831   4.30856   4.32282   4.33090   4.34433
 Alpha virt. eigenvalues --    4.36512   4.37310   4.37773   4.38835   4.40263
 Alpha virt. eigenvalues --    4.41550   4.41993   4.43865   4.44454   4.45178
 Alpha virt. eigenvalues --    4.45723   4.47928   4.47994   4.48829   4.49442
 Alpha virt. eigenvalues --    4.50933   4.52228   4.54210   4.55214   4.55263
 Alpha virt. eigenvalues --    4.56092   4.57136   4.58092   4.58469   4.60805
 Alpha virt. eigenvalues --    4.62764   4.62974   4.63613   4.65341   4.66529
 Alpha virt. eigenvalues --    4.67820   4.70604   4.71796   4.72757   4.74120
 Alpha virt. eigenvalues --    4.74751   4.76091   4.77642   4.80609   4.82186
 Alpha virt. eigenvalues --    4.85020   4.86004   4.87464   4.87585   4.89075
 Alpha virt. eigenvalues --    4.90830   4.96119   4.98026
          Condensed to atoms (all electrons):
 Mulliken charges:
               1
     1  Mg   0.811852
     2  C    0.000897
     3  C   -0.184463
     4  C   -0.152225
     5  C   -0.146717
     6  N   -0.615996
     7  C    0.306848
     8  C   -0.142651
     9  C   -0.175588
    10  C    0.318664
    11  C   -0.306761
    12  C   -0.173478
    13  C   -0.280390
    14  C    0.630505
    15  O   -0.489627
    16  O   -0.477685
    17  N   -0.747737
    18  C    0.348957
    19  C   -0.022308
    20  C    0.043345
    21  C    0.315433
    22  C   -0.371124
    23  C   -0.068251
    24  C   -0.254395
    25  N   -0.669073
    26  C    0.225443
    27  C    0.007798
    28  C    0.045028
    29  C    0.264550
    30  C   -0.364882
    31  C   -0.228157
    32  C   -0.303443
    33  N   -0.690461
    34  C    0.304456
    35  C   -0.071799
    36  C    0.116267
    37  C    0.284242
    38  C   -0.382191
    39  C    0.364941
    40  O   -0.413330
    41  C   -0.327920
    42  C    0.618919
    43  O   -0.432645
    44  O   -0.424807
    45  C   -0.076061
    46  C    0.043967
    47  C   -0.135890
    48  C    0.111877
    49  C   -0.359775
    50  C   -0.222496
    51  C   -0.198057
    52  C   -0.179722
    53  C   -0.073761
    54  C   -0.328356
    55  C   -0.134541
    56  C   -0.183900
    57  C   -0.156199
    58  C   -0.045507
    59  C   -0.311297
    60  C   -0.180693
    61  C   -0.190264
    62  C   -0.125966
    63  C   -0.059927
    64  C   -0.317999
    65  C   -0.292872
    66  H    0.063756
    67  H    0.071894
    68  H    0.069208
    69  H    0.132771
    70  H    0.107456
    71  H    0.091817
    72  H    0.113760
    73  H    0.107754
    74  H    0.119968
    75  H    0.124483
    76  H    0.149119
    77  H    0.152169
    78  H    0.124549
    79  H    0.121935
    80  H    0.100124
    81  H    0.090319
    82  H    0.111417
    83  H    0.083443
    84  H    0.139884
    85  H    0.101145
    86  H    0.127139
    87  H    0.111524
    88  H    0.112181
    89  H    0.104637
    90  H    0.101123
    91  H    0.094602
    92  H    0.123775
    93  H    0.128309
    94  H    0.111865
    95  H    0.153097
    96  H    0.132943
    97  H    0.082562
    98  H    0.129885
    99  H    0.108480
   100  H    0.114458
   101  H    0.081452
   102  H    0.105183
   103  H    0.129414
   104  H    0.097819
   105  H    0.111080
   106  H    0.094211
   107  H    0.099585
   108  H    0.091931
   109  H    0.105122
   110  H    0.090598
   111  H    0.089498
   112  H    0.080352
   113  H    0.117295
   114  H    0.110821
   115  H    0.068227
   116  H    0.092272
   117  H    0.084533
   118  H    0.067242
   119  H    0.073159
   120  H    0.094421
   121  H    0.083410
   122  H    0.107201
   123  H    0.106449
   124  H    0.067337
   125  H    0.067819
   126  H    0.089204
   127  H    0.080940
   128  H    0.096757
   129  H    0.098034
   130  H    0.091867
   131  H    0.092569
   132  H    0.064702
   133  H    0.099775
   134  H    0.097192
   135  H    0.117525
   136  H    0.087079
   137  H    0.081772
 Sum of Mulliken charges =   0.00000
 Mulliken charges with hydrogens summed into heavy atoms:
               1
     1  Mg   0.811852
     2  C    0.000897
     3  C   -0.120707
     4  C   -0.080331
     5  C   -0.077509
     6  N   -0.615996
     7  C    0.306848
     8  C   -0.009880
     9  C   -0.068132
    10  C    0.318664
    11  C    0.006571
    12  C    0.070972
    13  C    0.020898
    14  C    0.630505
    15  O   -0.489627
    16  O   -0.477685
    17  N   -0.747737
    18  C    0.348957
    19  C   -0.022308
    20  C    0.043345
    21  C    0.315433
    22  C   -0.024517
    23  C    0.022068
    24  C   -0.059534
    25  N   -0.669073
    26  C    0.225443
    27  C    0.007798
    28  C    0.045028
    29  C    0.264550
    30  C    0.003285
    31  C   -0.004451
    32  C   -0.003081
    33  N   -0.690461
    34  C    0.304456
    35  C   -0.071799
    36  C    0.116267
    37  C    0.284242
    38  C   -0.018242
    39  C    0.364941
    40  O   -0.413330
    41  C   -0.174823
    42  C    0.618919
    43  O   -0.432645
    44  O   -0.424807
    45  C    0.269330
    46  C    0.266905
    47  C   -0.054438
    48  C    0.111877
    49  C   -0.027358
    50  C   -0.017205
    51  C   -0.006541
    52  C    0.015998
    53  C    0.015738
    54  C   -0.019887
    55  C    0.025959
    56  C   -0.032125
    57  C    0.011382
    58  C    0.037903
    59  C   -0.030311
    60  C   -0.023670
    61  C   -0.012567
    62  C    0.063935
    63  C    0.032641
    64  C   -0.056330
    65  C   -0.006497
 Electronic spatial extent (au):  <R**2>=         180542.6917
 Charge=              0.0000 electrons
 Dipole moment (field-independent basis, Debye):
    X=              1.3787    Y=              2.7102    Z=              1.8486  Tot=              3.5585
 Quadrupole moment (field-independent basis, Debye-Ang):
   XX=           -358.4106   YY=           -389.6654   ZZ=           -400.2193
   XY=            -20.7355   XZ=             17.9088   YZ=             -4.0376
 Traceless Quadrupole moment (field-independent basis, Debye-Ang):
   XX=             24.3545   YY=             -6.9003   ZZ=            -17.4542
   XY=            -20.7355   XZ=             17.9088   YZ=             -4.0376
 Octapole moment (field-independent basis, Debye-Ang**2):
  XXX=           -664.3736  YYY=             84.6986  ZZZ=             20.0556  XYY=            -47.9648
  XXY=            -44.8738  XXZ=             -3.8571  XZZ=             -1.4484  YZZ=            -26.7941
  YYZ=             55.3188  XYZ=            -51.8107
 Hexadecapole moment (field-independent basis, Debye-Ang**3):
 XXXX=        -221422.1036 YYYY=         -17388.4604 ZZZZ=          -4246.9679 XXXY=          -2512.2434
 XXXZ=           5657.8707 YYYX=          -1084.0182 YYYZ=            -71.3739 ZZZX=             60.4339
 ZZZY=           -119.8503 XXYY=         -40133.9586 XXZZ=         -39324.7629 YYZZ=          -3458.8228
 XXYZ=           -258.0129 YYXZ=            -60.8875 ZZXY=             72.3513
 N-N= 8.749260934019D+03 E-N=-2.432180503924D+04  KE= 2.906784454989D+03
 1\1\GINC-PEDRO-RYZENSSD\SP\RCAM-B3LYP TD-FC\6-31G(d,p)\C55H72Mg1N4O5\P
 ADAWAN\02-Jul-2019\0\\# td=(NStates=1) CAM-B3LYP/6-31G(d,p)\\TD\\0,1\M
 g,0,-7.1479553685,0.5893176799,0.0936670541\C,0,-4.9279074087,-1.89588
 07665,0.3907256053\C,0,-4.7925291818,2.8689953468,1.0641027752\C,0,-9.
 4255472902,3.091684664,-0.2860514648\C,0,-9.6200823219,-1.8077662876,-
 0.8550819373\N,0,-5.0566890935,0.390278846,0.5597563939\C,0,-4.3142111
 272,-0.6821680388,0.6298710103\C,0,-2.8863076362,-0.3762670524,1.09362
 97172\C,0,-3.023545793,1.0651291812,1.5766984005\C,0,-4.3780648014,1.5
 047012189,1.1126282927\C,0,-3.0674218243,1.2221545036,3.1803094398\C,0
 ,-1.8453079918,-0.606815943,0.0224762059\C,0,-0.470264449,-0.314835830
 8,0.3925233816\C,0,0.5008712243,-0.5257560885,-0.6023456151\O,0,0.3690
 581459,-0.8593613437,-1.7781041421\O,0,1.7720590164,-0.3981072071,-0.1
 822550144\N,0,-7.0920596539,2.5547310629,0.3358122767\C,0,-5.989548233
 8,3.3684678226,0.7636298966\C,0,-6.419609214,4.7274170311,0.7481755048
 \C,0,-7.8100037074,4.839274559,0.3580041917\C,0,-8.1385481264,3.420851
 2804,0.1026728136\C,0,-5.4934473014,5.8087033362,1.20289505\C,0,-8.648
 2126189,5.9923202657,0.2113881242\C,0,-8.6230561969,7.1129674153,0.878
 0940592\N,0,-9.1334656192,0.5949323543,-0.4231663503\C,0,-9.8972759873
 ,1.785928546,-0.6410804321\C,0,-11.2577448711,1.3778761267,-1.18538025
 75\C,0,-11.2639087948,0.0764230064,-1.216810395\C,0,-10.0113668174,-0.
 4102830026,-0.7972547416\C,0,-12.3567745012,2.4070212731,-1.4577025451
 \C,0,-12.3810126476,-0.8821256227,-1.6957003785\C,0,-12.2287003584,-1.
 0694293541,-3.293624481\N,0,-7.2863481031,-1.3879884124,-0.2843231093\
 C,0,-8.3341136512,-2.235508723,-0.5379987551\C,0,-7.774963642,-3.64655
 29228,-0.3878460619\C,0,-6.5044243265,-3.6011044474,-0.0636180937\C,0,
 -6.2622988263,-2.183216603,0.0965624604\C,0,-8.5409615636,-4.935746417
 ,-0.7635648349\C,0,-5.2581602863,-4.3596398475,0.107603633\O,0,-5.1355
 223901,-5.5373782212,0.1014271734\C,0,-4.1411876982,-3.2332091107,0.51
 95618215\C,0,-3.5440750384,-3.5657117925,1.9618165546\O,0,-3.873438944
 5,-2.9943361698,2.9320858897\O,0,-2.8366748612,-4.709985721,1.84417299
 82\C,0,-2.3428148694,-5.2255367828,3.0473896745\C,0,2.7699595077,-0.47
 57453691,-1.1986210625\C,0,4.0927813671,-0.3133595123,-0.5874088899\C,
 0,5.2034138258,0.4311293783,-0.9954693196\C,0,5.0936277858,1.408083457
 6,-2.1225864239\C,0,6.4867930121,0.4557574259,-0.2206285481\C,0,7.6959
 871366,-0.0497453214,-0.9264895995\C,0,9.0099128639,0.0069455642,0.041
 2023074\C,0,10.2501056351,-0.5711541871,-0.7703380043\C,0,10.143451045
 3,-2.1433452706,-0.8988333483\C,0,11.4919120681,-0.2994237232,0.058656
 7343\C,0,12.781583066,-0.4745715083,-0.6015901819\C,0,14.0521646849,-0
 .1453457374,0.2257096385\C,0,15.3435004749,-0.2607998091,-0.5436126011
 \C,0,15.6029819671,-1.6668043142,-0.8577053882\C,0,16.5149456005,0.257
 880148,0.3601505223\C,0,17.9359181812,0.448636262,-0.1913949541\C,0,18
 .8310134708,1.2829465117,0.6277632093\C,0,20.3370623754,1.2664069742,0
 .2420889721\C,0,20.3885202058,1.8721255098,-1.2760485976\C,0,21.216122
 5431,2.036876624,1.2406994333\H,0,-4.1045119357,3.5670022216,1.3056551
 524\H,0,-10.0477451672,3.8549163266,-0.5899043819\H,0,-10.3685001394,-
 2.428382179,-0.9620128535\H,0,-2.7358500419,-0.8640747214,2.0348041716
 \H,0,-2.2525588611,1.8312467073,1.3269933497\H,0,-2.0486693244,0.85945
 63985,3.61126484\H,0,-3.1987049305,2.3000340609,3.5969418596\H,0,-3.92
 10955523,0.3926639504,3.595261939\H,0,-2.1429567806,-1.6052604864,-0.4
 081347227\H,0,-2.0666383363,0.0454617966,-0.8119012297\H,0,-0.45053857
 13,0.6407286868,0.9140218013\H,0,-0.418789681,-0.9707115864,1.24004796
 \H,0,-5.8915279282,6.6520638505,0.822827992\H,0,-5.2980167911,5.817405
 1036,2.2894252396\H,0,-4.4155055066,5.7122423906,0.8407072463\H,0,-9.6
 563276853,5.8105272008,-0.3456547937\H,0,-9.3746686828,7.997860525,0.9
 024098628\H,0,-7.7701564814,7.3228986894,1.7732957151\H,0,-11.95029913
 5,2.9505653825,-2.1538583905\H,0,-13.2697166409,1.8825121424,-1.937694
 961\H,0,-12.6192036515,3.1354722019,-0.7216134053\H,0,-12.2522800064,-
 1.8325026954,-1.2253574906\H,0,-13.3588546044,-0.5352502618,-1.5004955
 771\H,0,-13.0199683494,-1.7929239786,-3.5823081153\H,0,-12.3133148957,
 -0.0756220998,-3.9239258883\H,0,-11.1228285622,-1.4878036475,-3.625041
 1241\H,0,-8.9534349465,-5.1153722801,-1.8391471788\H,0,-7.7784672115,-
 5.8552455288,-0.604060019\H,0,-9.3600158865,-5.0904840697,0.073365514\
 H,0,-3.4199826942,-3.4620594566,-0.2704523167\H,0,-1.6568038469,-4.581
 5145912,3.4826611814\H,0,-3.4511247211,-5.221673785,3.877580597\H,0,-1
 .8048886004,-6.2188111543,2.8869126442\H,0,2.8173710412,-1.6076225982,
 -1.7064346085\H,0,2.5907065483,0.3184761272,-1.9858617384\H,0,4.331474
 053,-0.9493571509,0.2048537014\H,0,4.1250714706,1.3563443448,-2.569835
 3532\H,0,5.174872899,2.3309633552,-1.8403505033\H,0,5.9310404116,1.303
 5514626,-2.9653752685\H,0,6.5570077637,1.4787418742,0.0428069235\H,0,6
 .3008142008,-0.1741254499,0.732963013\H,0,7.7270500897,-1.1263818734,-
 1.1404453681\H,0,8.1836408,0.3773809462,-1.8454374673\H,0,8.9451065623
 ,0.9862965147,0.2875263848\H,0,8.7193204207,-0.7599515014,0.7992677905
 \H,0,10.2717347249,-0.1516626286,-1.7302979193\H,0,9.0896239479,-2.384
 0163781,-1.4252384486\H,0,10.9174943051,-2.6270094848,-1.463180562\H,0
 ,10.0908319692,-2.5739493369,0.067207281\H,0,11.3973774186,0.831965426
 7,0.3144529328\H,0,11.4074938028,-0.9708430456,0.8556561872\H,0,12.865
 4098599,-1.5563938006,-0.7373614037\H,0,12.8712008726,0.0851492059,-1.
 6467480361\H,0,13.8275141881,0.9961321692,0.4168090239\H,0,14.03252600
 57,-0.7951191166,0.9973262491\H,0,15.3013334218,0.4820276878,-1.338328
 1908\H,0,15.4081982627,-2.3614664387,-0.0691383677\H,0,15.101563207,-2
 .1563680124,-1.6977071858\H,0,16.7857682062,-1.9236378887,-1.172328702
 4\H,0,16.181123313,1.3000878425,0.5706736117\H,0,16.5073851857,-0.1710
 062757,1.2068334445\H,0,18.324883427,-0.597616309,-0.2620595464\H,0,17
 .6524823127,0.9060579247,-1.0776913449\H,0,18.4041712097,2.1689210498,
 0.5191799233\H,0,18.8411312734,0.9138255636,1.5140014004\H,0,20.614506
 3633,0.217227871,0.0695040144\H,0,20.4222563322,3.0962931912,-1.345738
 1672\H,0,21.3709413462,1.7687435272,-1.7765490182\H,0,19.4690708115,1.
 5467464854,-1.9710240714\H,0,21.315917567,1.6724553546,2.0947690941\H,
 0,22.3335850648,2.1760488346,0.9671616825\H,0,20.810560786,3.194809564
 3,1.2565760981\\Version=ES64L-G09RevD.01\State=1-A\HF=-2932.614719\RMS
 D=4.553e-09\PG=C01 [X(C55H72Mg1N4O5)]\\@


 THE FIRST AND LAST THING REQUIRED OF GENIUS IS THE LOVE OF TRUTH.

                          -- GOETHE
 Job cpu time:       0 days  6 hours 17 minutes 16.4 seconds.
 File lengths (MBytes):  RWF=   2106 Int=      0 D2E=      0 Chk=    163 Scr=      1
 Normal termination of Gaussian 09 at Tue Jul  2 21:08:46 2019.
>>>>>>> 8e03b5b5abfc0030b3aa597dc0de36371bfbd096
