 Entering Gaussian System, Link 0=g16
 Input=Geometria-199-.com
 Output=Geometria-199-.log
 Initial command:
 /usr/local/g16/l1.exe "/home/padawan/israel-mol/chlorophyll-a/spectra/emi/Gau-14251.inp" -scrdir="/home/padawan/israel-mol/chlorophyll-a/spectra/emi/"
 Entering Link 1 = /usr/local/g16/l1.exe PID=     14253.
  
 Copyright (c) 1988,1990,1992,1993,1995,1998,2003,2009,2016,
            Gaussian, Inc.  All Rights Reserved.
  
 This is part of the Gaussian(R) 16 program.  It is based on
 the Gaussian(R) 09 system (copyright 2009, Gaussian, Inc.),
 the Gaussian(R) 03 system (copyright 2003, Gaussian, Inc.),
 the Gaussian(R) 98 system (copyright 1998, Gaussian, Inc.),
 the Gaussian(R) 94 system (copyright 1995, Gaussian, Inc.),
 the Gaussian 92(TM) system (copyright 1992, Gaussian, Inc.),
 the Gaussian 90(TM) system (copyright 1990, Gaussian, Inc.),
 the Gaussian 88(TM) system (copyright 1988, Gaussian, Inc.),
 the Gaussian 86(TM) system (copyright 1986, Carnegie Mellon
 University), and the Gaussian 82(TM) system (copyright 1983,
 Carnegie Mellon University). Gaussian is a federally registered
 trademark of Gaussian, Inc.
  
 This software contains proprietary and confidential information,
 including trade secrets, belonging to Gaussian, Inc.
  
 This software is provided under written license and may be
 used, copied, transmitted, or stored only in accord with that
 written license.
  
 The following legend is applicable only to US Government
 contracts under FAR:
  
                    RESTRICTED RIGHTS LEGEND
  
 Use, reproduction and disclosure by the US Government is
 subject to restrictions as set forth in subparagraphs (a)
 and (c) of the Commercial Computer Software - Restricted
 Rights clause in FAR 52.227-19.
  
 Gaussian, Inc.
 340 Quinnipiac St., Bldg. 40, Wallingford CT 06492
  
  
 ---------------------------------------------------------------
 Warning -- This program may not be used in any manner that
 competes with the business of Gaussian, Inc. or will provide
 assistance to any competitor of Gaussian, Inc.  The licensee
 of this program is prohibited from giving any competitor of
 Gaussian, Inc. access to this program.  By using this program,
 the user acknowledges that Gaussian, Inc. is engaged in the
 business of creating and licensing software in the field of
 computational chemistry and represents and warrants to the
 licensee that it is not a competitor of Gaussian, Inc. and that
 it will not use this program in any manner prohibited above.
 ---------------------------------------------------------------
  

 Cite this work as:
 Gaussian 16, Revision A.03,
 M. J. Frisch, G. W. Trucks, H. B. Schlegel, G. E. Scuseria, 
 M. A. Robb, J. R. Cheeseman, G. Scalmani, V. Barone, 
 G. A. Petersson, H. Nakatsuji, X. Li, M. Caricato, A. V. Marenich, 
 J. Bloino, B. G. Janesko, R. Gomperts, B. Mennucci, H. P. Hratchian, 
 J. V. Ortiz, A. F. Izmaylov, J. L. Sonnenberg, D. Williams-Young, 
 F. Ding, F. Lipparini, F. Egidi, J. Goings, B. Peng, A. Petrone, 
 T. Henderson, D. Ranasinghe, V. G. Zakrzewski, J. Gao, N. Rega, 
 G. Zheng, W. Liang, M. Hada, M. Ehara, K. Toyota, R. Fukuda, 
 J. Hasegawa, M. Ishida, T. Nakajima, Y. Honda, O. Kitao, H. Nakai, 
 T. Vreven, K. Throssell, J. A. Montgomery, Jr., J. E. Peralta, 
 F. Ogliaro, M. J. Bearpark, J. J. Heyd, E. N. Brothers, K. N. Kudin, 
 V. N. Staroverov, T. A. Keith, R. Kobayashi, J. Normand, 
 K. Raghavachari, A. P. Rendell, J. C. Burant, S. S. Iyengar, 
 J. Tomasi, M. Cossi, J. M. Millam, M. Klene, C. Adamo, R. Cammi, 
 J. W. Ochterski, R. L. Martin, K. Morokuma, O. Farkas, 
 J. B. Foresman, and D. J. Fox, Gaussian, Inc., Wallingford CT, 2016.
 
 ******************************************
 Gaussian 16:  ES64L-G16RevA.03 25-Dec-2016
                10-Sep-2019 
 ******************************************
 %nproc=4
 Will use up to    4 processors via shared memory.
 %Mem=3GB
 ----------------------------------------------------------------------
 # td=(NStates=1) iop(3/107=0140000000,3/108=0140000000) CAM-B3LYP/6-31
 G(d,p)
 ----------------------------------------------------------------------
 1/38=1,172=1/1;
 2/12=2,17=6,18=5,40=1/2;
 3/5=1,6=6,7=101,11=9,25=1,30=1,74=-40,107=140000000,108=140000000/1,2,3,8;
 4//1;
 5/5=2,38=5/2;
 8/6=1,10=2,108=1/1;
 9/41=1,42=1,70=2/14;
 6/7=2,8=2,9=2,10=2/1;
 99/5=1,9=1/99;
 --
 TD
 --
 Symbolic Z-matrix:
 Charge =  0 Multiplicity = 1
 12                   -7.11845   0.52731   0.13236 
 6                    -4.86437  -1.97443   0.71676 
 6                    -4.78009   2.8394    1.25454 
 6                    -9.41937   3.15698  -0.38629 
 6                    -9.52289  -1.67855  -0.9373 
 7                    -5.14444   0.3765    0.82381 
 6                    -4.41449  -0.69527   0.91933 
 6                    -2.96172  -0.524     1.36738 
 6                    -2.96095   1.00405   1.77869 
 6                    -4.37163   1.44134   1.21036 
 6                    -2.87563   1.33515   3.34377 
 6                    -1.93458  -0.75773   0.18592 
 6                    -0.47159  -0.53742   0.6914 
 6                     0.55786  -0.7816   -0.42936 
 8                     0.17342  -1.12616  -1.57045 
 8                     1.81562  -0.53994  -0.14067 
 7                    -7.07443   2.65822   0.25929 
 6                    -6.01746   3.37558   0.82079 
 6                    -6.30629   4.81791   0.7177 
 6                    -7.61627   4.92751   0.2508 
 6                    -8.12663   3.56655   0.12932 
 6                    -5.47405   5.8963    1.26536 
 6                    -8.45589   6.04129   0.1285 
 6                    -8.34024   7.29325   0.5962 
 7                    -9.13236   0.62375  -0.49687 
 6                    -9.84003   1.84757  -0.66714 
 6                    -11.22     1.53637  -1.15479 
 6                    -11.20481   0.19919  -1.26451 
 6                    -9.85237  -0.35451  -0.96497 
 6                    -12.33088   2.53943  -1.37552 
 6                    -12.42336  -0.57371  -1.68081 
 6                    -12.40638  -0.91942  -3.1379 
 7                    -7.31219  -1.41704  -0.23698 
 6                    -8.30779  -2.27985  -0.54215 
 6                    -7.87893  -3.68575  -0.69704 
 6                    -6.46792  -3.54402  -0.21937 
 6                    -6.20791  -2.19654   0.05801 
 6                    -8.60402  -4.91557  -0.86651 
 6                    -5.38994  -4.33276   0.078 
 8                    -5.23773  -5.56747  -0.02628 
 6                    -4.29835  -3.31093   0.56729 
 6                    -3.66377  -3.74573   1.91633 
 8                    -3.75661  -3.11794   3.05451 
 8                    -2.92132  -4.79937   1.78171 
 6                    -2.36714  -5.22847   3.06244 
 6                     2.82792  -0.78156  -1.20714 
 6                     4.19831  -0.54729  -0.60785 
 6                     5.20398   0.2607   -1.12843 
 6                     5.0848    1.07089  -2.49726 
 6                     6.39183   0.3603   -0.32544 
 6                     7.6317   -0.17561  -1.14661 
 6                     8.99461  -0.11122  -0.31039 
 6                     10.24138  -0.62601  -1.00156 
 6                     10.26881  -2.23627  -1.15926 
 6                     11.49273  -0.21498  -0.12028 
 6                     12.75353  -0.50185  -0.83869 
 6                     13.97165   0.06772   0.01785 
 6                     15.4072  -0.02052  -0.60477 
 6                     15.66273  -1.56127  -0.94555 
 6                     16.45657   0.41906   0.40007 
 6                     17.85616   0.62691  -0.13383 
 6                     18.7456   1.33217   0.76532 
 6                     20.20506   1.34676   0.42688 
 6                     20.4137   2.10099  -0.94096 
 6                     21.06875   2.10304   1.54373 
 1                    -3.90663   3.61564   1.54611 
 1                    -10.07374   4.02775  -0.56564 
 1                    -10.23732  -2.39366  -1.4678 
 1                    -2.71674  -1.0976    2.29167 
 1                    -2.2077    1.45161   0.9612 
 1                    -1.90065   1.24446   3.78805 
 1                    -3.1977    2.56402   3.38625 
 1                    -3.72037   0.79924   3.63869 
 1                    -1.90301  -1.80829  -0.3487 
 1                    -2.02165  -0.0199   -0.71748 
 1                    -0.24431   0.5308    0.88994 
 1                    -0.12568  -1.15058   1.5548 
 1                    -5.65228   6.88841   0.82596 
 1                    -5.6031    6.02519   2.37797 
 1                    -4.37847   5.68111   1.10334 
 1                    -9.17466   5.95692  -0.66507 
 1                    -8.98648   8.22091   0.56808 
 1                    -7.68892   7.76091   1.36574 
 1                    -12.0187   3.31084  -2.04137 
 1                    -13.31264   2.28818  -1.78936 
 1                    -12.52149   3.18242  -0.51628 
 1                    -12.61271  -1.43172  -1.06123 
 1                    -13.26905   0.16141  -1.5355 
 1                    -13.52077  -1.18437  -3.65048 
 1                    -12.01631   0.01189  -3.80956 
 1                    -11.45957  -1.81991  -3.39649 
 1                    -9.23922  -4.79782  -1.82849 
 1                    -7.6816   -5.68334  -1.16512 
 1                    -9.17359  -5.29335   0.23175 
 1                    -3.3343   -3.50571   0.02173 
 1                    -2.00028  -4.48227   3.65928 
 1                    -3.27     -5.5183    3.72289 
 1                    -1.85631  -6.16899   2.87612 
 1                     2.72012  -1.75501  -1.53635 
 1                     2.4198   -0.15009  -2.00015 
 1                     4.54349  -1.24501   0.18975 
 1                     4.07775   1.17182  -3.04213 
 1                     5.34428   2.1829   -2.31909 
 1                     5.99346   0.55587  -3.12937 
 1                     6.64333   1.43962  -0.07962 
 1                     6.4495   -0.17478   0.61623 
 1                     7.4784   -1.00088  -1.51381 
 1                     7.6221    0.49406  -1.97337 
 1                     9.28542   0.94182  -0.05497 
 1                     8.76348  -0.70983   0.54385 
 1                     10.43192  -0.02447  -1.95083 
 1                     9.34045  -2.71106  -1.58551 
 1                     10.88602  -2.47827  -2.02765 
 1                     10.28308  -2.75994  -0.23849 
 1                     11.37664   0.89552   0.02041 
 1                     11.42041  -0.80116   0.9078 
 1                     12.83759  -1.45132  -1.15484 
 1                     12.67311   0.1584   -1.77372 
 1                     13.87338   1.13098   0.29281 
 1                     14.11282  -0.48655   1.02164 
 1                     15.47168   0.53126  -1.48028 
 1                     15.9352  -2.18487   0.00839 
 1                     14.96776  -1.94092  -1.73638 
 1                     16.76572  -1.78202  -1.52283 
 1                     16.21358   1.31733   0.90614 
 1                     16.46847  -0.28994   1.29597 
 1                     18.40097  -0.25407  -0.4313 
 1                     17.77287   1.15618  -1.08083 
 1                     18.16176   2.29346   1.06064 
 1                     18.646    0.9831    1.725 
 1                     20.68985   0.29193   0.23557 
 1                     20.11319   3.09077  -1.04197 
 1                     21.57277   1.91136  -1.19714 
 1                     19.83429   1.87029  -1.75815 
 1                     21.13819   1.4704    2.44038 
 1                     22.04015   2.15108   1.07002 
 1                     20.54044   3.22536   1.59609 
 
 Stoichiometry    C55H72MgN4O5
 Framework group  C1[X(C55H72MgN4O5)]
 Deg. of freedom   405
 Full point group                 C1      NOp   1
 Largest Abelian subgroup         C1      NOp   1
 Largest concise Abelian subgroup C1      NOp   1
                         Standard orientation:                         
 ---------------------------------------------------------------------
 Center     Atomic      Atomic             Coordinates (Angstroms)
 Number     Number       Type             X           Y           Z
 ---------------------------------------------------------------------
      1         12           0       -7.120489    0.530228    0.127513
      2          6           0       -4.868497   -1.970711    0.723309
      3          6           0       -4.780867    2.845278    1.240907
      4          6           0       -9.419254    3.159402   -0.403092
      5          6           0       -9.526143   -1.678324   -0.933837
      6          7           0       -5.146871    0.380863    0.820380
      7          6           0       -4.417757   -0.691041    0.920690
      8          6           0       -2.965036   -0.518967    1.368600
      9          6           0       -2.963292    1.010795    1.773493
     10          6           0       -4.373420    1.446739    1.202760
     11          6           0       -2.878352    1.348397    3.337199
     12          6           0       -1.937599   -0.758417    0.188542
     13          6           0       -0.474650   -0.537065    0.693677
     14          6           0        0.555064   -0.786718   -0.425642
     15          8           0        0.170820   -1.135773   -1.565431
     16          8           0        1.812890   -0.544779   -0.137463
     17          7           0       -7.074937    2.661617    0.245511
     18          6           0       -6.017664    3.380547    0.804418
     19          6           0       -6.305377    4.822643    0.695160
     20          6           0       -7.615091    4.931257    0.227282
     21          6           0       -8.126418    3.570176    0.111312
     22          6           0       -5.472558    5.902706    1.238617
     23          6           0       -8.453835    6.045135    0.099974
     24          6           0       -8.337448    7.298956    0.562460
     25          7           0       -9.134083    0.625514   -0.502916
     26          6           0       -9.840777    1.849131   -0.678609
     27          6           0      -11.220778    1.536913   -1.165500
     28          6           0      -11.206541    0.199268   -1.269595
     29          6           0       -9.854634   -0.354164   -0.967195
     30          6           0      -12.330834    2.539856   -1.390880
     31          6           0      -12.425495   -0.574472   -1.683135
     32          6           0      -12.408201   -0.926308   -3.138760
     33          7           0       -7.315533   -1.415510   -0.233734
     34          6           0       -8.311643   -2.278856   -0.535676
     35          6           0       -7.883770   -3.685713   -0.684495
     36          6           0       -6.472849   -3.543022   -0.206865
     37          6           0       -6.211949   -2.194583    0.064961
     38          6           0       -8.609708   -4.915695   -0.849090
     39          6           0       -5.395573   -4.331304    0.094251
     40          8           0       -5.244238   -5.566560   -0.004783
     41          6           0       -4.303419   -3.308239    0.579676
     42          6           0       -3.669693   -3.737845    1.930785
     43          8           0       -3.762516   -3.105210    3.066283
     44          8           0       -2.927968   -4.792586    1.800886
     45          6           0       -2.374613   -5.216715    3.083634
     46          6           0        2.825433   -0.791616   -1.202510
     47          6           0        4.195760   -0.555851   -0.603660
     48          6           0        5.202231    0.249204   -1.127218
     49          6           0        5.084201    1.053730   -2.499493
     50          6           0        6.389835    0.351289   -0.324186
     51          6           0        7.629642   -0.188974   -1.142606
     52          6           0        8.992260   -0.122090   -0.306111
     53          6           0       10.238924   -0.640701   -0.994614
     54          6           0       10.265222   -2.251626   -1.145549
     55          6           0       11.490234   -0.226894   -0.114572
     56          6           0       12.751105   -0.517715   -0.831269
     57          6           0       13.969303    0.054546    0.023359
     58          6           0       15.405032   -0.037373   -0.598306
     59          6           0       15.659559   -1.579732   -0.932513
     60          6           0       16.454335    0.405645    0.405099
     61          6           0       17.854291    0.610213   -0.129114
     62          6           0       18.743899    1.318588    0.767422
     63          6           0       20.203502    1.330679    0.429507
     64          6           0       20.413245    2.078998   -0.941402
     65          6           0       21.067309    2.091000    1.543516
     66          1           0       -3.906944    3.622091    1.529569
     67          1           0      -10.072907    4.029887   -0.586358
     68          1           0      -10.240893   -2.395131   -1.461620
     69          1           0       -2.720845   -1.088862    2.295381
     70          1           0       -2.209391    1.454359    0.954428
     71          1           0       -1.903615    1.258859    3.782244
     72          1           0       -3.199520    2.577672    3.374387
     73          1           0       -3.723607    0.814355    3.634024
     74          1           0       -1.906593   -1.811235   -0.341656
     75          1           0       -2.023762   -0.024325   -0.717983
     76          1           0       -0.246653    0.531810    0.887822
     77          1           0       -0.129535   -1.146849    1.559778
     78          1           0       -5.649877    6.893092    0.794990
     79          1           0       -5.601955    6.036358    2.350628
     80          1           0       -4.377077    5.686030    1.077944
     81          1           0       -9.172354    5.957961   -0.693523
     82          1           0       -8.982983    8.226971    0.530180
     83          1           0       -7.686080    7.769365    1.330282
     84          1           0      -12.017816    3.308233   -2.059841
     85          1           0      -13.312611    2.287596   -1.804061
     86          1           0      -12.521307    3.186585   -0.534428
     87          1           0      -12.615735   -1.429733   -1.060036
     88          1           0      -13.270700    0.161885   -1.541252
     89          1           0      -13.522578   -1.192582   -3.650660
     90          1           0      -12.017173    0.001890   -3.814164
     91          1           0      -11.461955   -1.828577   -3.393183
     92          1           0       -9.244435   -4.801514   -1.811809
     93          1           0       -7.687740   -5.685402   -1.144102
     94          1           0       -9.179992   -5.288439    0.250519
     95          1           0       -3.339294   -3.506020    0.035333
     96          1           0       -2.007444   -4.468290    3.677476
     97          1           0       -3.277957   -5.503104    3.744934
     98          1           0       -1.864408   -6.158387    2.901466
     99          1           0        2.717042   -1.766366   -1.527664
    100          1           0        2.418095   -0.163180   -1.998324
    101          1           0        4.540110   -1.250474    0.197004
    102          1           0        4.077443    1.153115   -3.045185
    103          1           0        5.344435    2.166280   -2.325885
    104          1           0        5.992726    0.535380   -3.129068
    105          1           0        6.642046    1.431453   -0.082795
    106          1           0        6.446742   -0.179876    0.619746
    107          1           0        7.475871   -1.015669   -1.506390
    108          1           0        7.620867    0.477220   -1.972167
    109          1           0        9.283758    0.931804   -0.055004
    110          1           0        8.760350   -0.716933    0.550540
    111          1           0       10.430285   -0.043286   -1.946330
    112          1           0        9.336683   -2.727512   -1.570167
    113          1           0       10.882594   -2.497727   -2.012664
    114          1           0       10.278739   -2.771435   -0.222581
    115          1           0       11.374908    0.884265    0.021408
    116          1           0       11.417067   -0.808703    0.915928
    117          1           0       12.834584   -1.468568   -1.143393
    118          1           0       12.671545    0.138664   -1.769095
    119          1           0       13.871713    1.119021    0.293819
    120          1           0       14.109664   -0.495605    1.029529
    121          1           0       15.470269    0.510676   -1.476102
    122          1           0       15.931183   -2.199516    0.024145
    123          1           0       14.964617   -1.962178   -1.722018
    124          1           0       16.762616   -1.803715   -1.508423
    125          1           0       16.211813    1.306213    0.907288
    126          1           0       16.465352   -0.299590    1.303966
    127          1           0       18.398559   -0.272410   -0.422668
    128          1           0       17.771771    1.135572   -1.078365
    129          1           0       18.160646    2.281541    1.058469
    130          1           0       18.643656    0.973626    1.728515
    131          1           0       20.687581    0.274693    0.242821
    132          1           0       20.113504    3.068570   -1.046684
    133          1           0       21.572272    1.887441   -1.196320
    134          1           0       19.833986    1.845298   -1.757853
    135          1           0       21.135920    1.462080    2.442841
    136          1           0       22.038932    2.136325    1.070002
    137          1           0       20.539814    3.213917    1.590951
 ---------------------------------------------------------------------
 Rotational constants (GHZ):           0.0628975           0.0060684           0.0057150
 Standard basis: 6-31G(d,p) (6D, 7F)
 There are  1339 symmetry adapted cartesian basis functions of A   symmetry.
 There are  1339 symmetry adapted basis functions of A   symmetry.
  1339 basis functions,  2348 primitive gaussians,  1339 cartesian basis functions
   241 alpha electrons      241 beta electrons
       nuclear repulsion energy      8707.7570894625 Hartrees.
 NAtoms=  137 NActive=  137 NUniq=  137 SFac= 1.00D+00 NAtFMM=   60 NAOKFM=T Big=T
 Integral buffers will be    131072 words long.
 Raffenetti 1 integral format.
 Two-electron integral symmetry is turned on.
 One-electron integrals computed using PRISM.
 NBasis=  1339 RedAO= T EigKep=  3.95D-04  NBF=  1339
 NBsUse=  1339 1.00D-06 EigRej= -1.00D+00 NBFU=  1339
 ExpMin= 4.21D-02 ExpMax= 1.17D+04 ExpMxC= 1.76D+03 IAcc=3 IRadAn=         5 AccDes= 0.00D+00
 Harris functional with IExCor=20419 and IRadAn=       5 diagonalized for initial guess.
 HarFok:  IExCor=20419 AccDes= 0.00D+00 IRadAn=         5 IDoV= 1 UseB2=F ITyADJ=14
 ICtDFT=  3500011 ScaDFX=  1.000000  1.000000  1.000000  1.000000
 FoFCou: FMM=F IPFlag=           0 FMFlag=      100000 FMFlg1=        2001
         NFxFlg=           0 DoJE=T BraDBF=F KetDBF=T FulRan=T
         wScrn=  0.000000 ICntrl=       500 IOpCl=  0 I1Cent=   200000004 NGrid=           0
         NMat0=    1 NMatS0=      1 NMatT0=    0 NMatD0=    1 NMtDS0=    0 NMtDT0=    0
 Petite list used in FoFCou.
 Requested convergence on RMS density matrix=1.00D-08 within 128 cycles.
 Requested convergence on MAX density matrix=1.00D-06.
 Requested convergence on             energy=1.00D-06.
 No special actions if energy rises.
 SCF Done:  E(RCAM-B3LYP) =  -2933.47879295     A.U. after   16 cycles
            NFock= 16  Conv=0.73D-08     -V/T= 2.0098
 DoSCS=F DFT=T ScalE2(SS,OS)=  1.000000  1.000000
 ExpMin= 4.21D-02 ExpMax= 1.17D+04 ExpMxC= 1.76D+03 IAcc=3 IRadAn=         5 AccDes= 0.00D+00
 HarFok:  IExCor=  205 AccDes= 0.00D+00 IRadAn=         5 IDoV=-2 UseB2=F ITyADJ=14
 ICtDFT= 12500011 ScaDFX=  1.000000  1.000000  1.000000  1.000000
 GSVD:  LWork=       -5313 too small for GESVD, short by       24840 words or       24840 for optimal perf.
 Range of M.O.s used for correlation:    70  1339
 NBasis=  1339 NAE=   241 NBE=   241 NFC=    69 NFV=     0
 NROrb=   1270 NOA=   172 NOB=   172 NVA=  1098 NVB=  1098
 Orbital symmetries:
       Occupied  (A) (A) (A) (A) (A) (A) (A) (A) (A) (A) (A) (A)
                 (A) (A) (A) (A) (A) (A) (A) (A) (A) (A) (A) (A)
                 (A) (A) (A) (A) (A) (A) (A) (A) (A) (A) (A) (A)
                 (A) (A) (A) (A) (A) (A) (A) (A) (A) (A) (A) (A)
                 (A) (A) (A) (A) (A) (A) (A) (A) (A) (A) (A) (A)
                 (A) (A) (A) (A) (A) (A) (A) (A) (A) (A) (A) (A)
                 (A) (A) (A) (A) (A) (A) (A) (A) (A) (A) (A) (A)
                 (A) (A) (A) (A) (A) (A) (A) (A) (A) (A) (A) (A)
                 (A) (A) (A) (A) (A) (A) (A) (A) (A) (A) (A) (A)
                 (A) (A) (A) (A) (A) (A) (A) (A) (A) (A) (A) (A)
                 (A) (A) (A) (A) (A) (A) (A) (A) (A) (A) (A) (A)
                 (A) (A) (A) (A) (A) (A) (A) (A) (A) (A) (A) (A)
                 (A) (A) (A) (A) (A) (A) (A) (A) (A) (A) (A) (A)
                 (A) (A) (A) (A) (A) (A) (A) (A) (A) (A) (A) (A)
                 (A) (A) (A) (A) (A) (A) (A) (A) (A) (A) (A) (A)
                 (A) (A) (A) (A) (A) (A) (A) (A) (A) (A) (A) (A)
                 (A) (A) (A) (A) (A) (A) (A) (A) (A) (A) (A) (A)
                 (A) (A) (A) (A) (A) (A) (A) (A) (A) (A) (A) (A)
                 (A) (A) (A) (A) (A) (A) (A) (A) (A) (A) (A) (A)
                 (A) (A) (A) (A) (A) (A) (A) (A) (A) (A) (A) (A)
                 (A)
       Virtual   (A) (A) (A) (A) (A) (A) (A) (A) (A) (A) (A) (A)
                 (A) (A) (A) (A) (A) (A) (A) (A) (A) (A) (A) (A)
                 (A) (A) (A) (A) (A) (A) (A) (A) (A) (A) (A) (A)
                 (A) (A) (A) (A) (A) (A) (A) (A) (A) (A) (A) (A)
                 (A) (A) (A) (A) (A) (A) (A) (A) (A) (A) (A) (A)
                 (A) (A) (A) (A) (A) (A) (A) (A) (A) (A) (A) (A)
                 (A) (A) (A) (A) (A) (A) (A) (A) (A) (A) (A) (A)
                 (A) (A) (A) (A) (A) (A) (A) (A) (A) (A) (A) (A)
                 (A) (A) (A) (A) (A) (A) (A) (A) (A) (A) (A) (A)
                 (A) (A) (A) (A) (A) (A) (A) (A) (A) (A) (A) (A)
                 (A) (A) (A) (A) (A) (A) (A) (A) (A) (A) (A) (A)
                 (A) (A) (A) (A) (A) (A) (A) (A) (A) (A) (A) (A)
                 (A) (A) (A) (A) (A) (A) (A) (A) (A) (A) (A) (A)
                 (A) (A) (A) (A) (A) (A) (A) (A) (A) (A) (A) (A)
                 (A) (A) (A) (A) (A) (A) (A) (A) (A) (A) (A) (A)
                 (A) (A) (A) (A) (A) (A) (A) (A) (A) (A) (A) (A)
                 (A) (A) (A) (A) (A) (A) (A) (A) (A) (A) (A) (A)
                 (A) (A) (A) (A) (A) (A) (A) (A) (A) (A) (A) (A)
                 (A) (A) (A) (A) (A) (A) (A) (A) (A) (A) (A) (A)
                 (A) (A) (A) (A) (A) (A) (A) (A) (A) (A) (A) (A)
                 (A) (A) (A) (A) (A) (A) (A) (A) (A) (A) (A) (A)
                 (A) (A) (A) (A) (A) (A) (A) (A) (A) (A) (A) (A)
                 (A) (A) (A) (A) (A) (A) (A) (A) (A) (A) (A) (A)
                 (A) (A) (A) (A) (A) (A) (A) (A) (A) (A) (A) (A)
                 (A) (A) (A) (A) (A) (A) (A) (A) (A) (A) (A) (A)
                 (A) (A) (A) (A) (A) (A) (A) (A) (A) (A) (A) (A)
                 (A) (A) (A) (A) (A) (A) (A) (A) (A) (A) (A) (A)
                 (A) (A) (A) (A) (A) (A) (A) (A) (A) (A) (A) (A)
                 (A) (A) (A) (A) (A) (A) (A) (A) (A) (A) (A) (A)
                 (A) (A) (A) (A) (A) (A) (A) (A) (A) (A) (A) (A)
                 (A) (A) (A) (A) (A) (A) (A) (A) (A) (A) (A) (A)
                 (A) (A) (A) (A) (A) (A) (A) (A) (A) (A) (A) (A)
                 (A) (A) (A) (A) (A) (A) (A) (A) (A) (A) (A) (A)
                 (A) (A) (A) (A) (A) (A) (A) (A) (A) (A) (A) (A)
                 (A) (A) (A) (A) (A) (A) (A) (A) (A) (A) (A) (A)
                 (A) (A) (A) (A) (A) (A) (A) (A) (A) (A) (A) (A)
                 (A) (A) (A) (A) (A) (A) (A) (A) (A) (A) (A) (A)
                 (A) (A) (A) (A) (A) (A) (A) (A) (A) (A) (A) (A)
                 (A) (A) (A) (A) (A) (A) (A) (A) (A) (A) (A) (A)
                 (A) (A) (A) (A) (A) (A) (A) (A) (A) (A) (A) (A)
                 (A) (A) (A) (A) (A) (A) (A) (A) (A) (A) (A) (A)
                 (A) (A) (A) (A) (A) (A) (A) (A) (A) (A) (A) (A)
                 (A) (A) (A) (A) (A) (A) (A) (A) (A) (A) (A) (A)
                 (A) (A) (A) (A) (A) (A) (A) (A) (A) (A) (A) (A)
                 (A) (A) (A) (A) (A) (A) (A) (A) (A) (A) (A) (A)
                 (A) (A) (A) (A) (A) (A) (A) (A) (A) (A) (A) (A)
                 (A) (A) (A) (A) (A) (A) (A) (A) (A) (A) (A) (A)
                 (A) (A) (A) (A) (A) (A) (A) (A) (A) (A) (A) (A)
                 (A) (A) (A) (A) (A) (A) (A) (A) (A) (A) (A) (A)
                 (A) (A) (A) (A) (A) (A) (A) (A) (A) (A) (A) (A)
                 (A) (A) (A) (A) (A) (A) (A) (A) (A) (A) (A) (A)
                 (A) (A) (A) (A) (A) (A) (A) (A) (A) (A) (A) (A)
                 (A) (A) (A) (A) (A) (A) (A) (A) (A) (A) (A) (A)
                 (A) (A) (A) (A) (A) (A) (A) (A) (A) (A) (A) (A)
                 (A) (A) (A) (A) (A) (A) (A) (A) (A) (A) (A) (A)
                 (A) (A) (A) (A) (A) (A) (A) (A) (A) (A) (A) (A)
                 (A) (A) (A) (A) (A) (A) (A) (A) (A) (A) (A) (A)
                 (A) (A) (A) (A) (A) (A) (A) (A) (A) (A) (A) (A)
                 (A) (A) (A) (A) (A) (A) (A) (A) (A) (A) (A) (A)
                 (A) (A) (A) (A) (A) (A) (A) (A) (A) (A) (A) (A)
                 (A) (A) (A) (A) (A) (A) (A) (A) (A) (A) (A) (A)
                 (A) (A) (A) (A) (A) (A) (A) (A) (A) (A) (A) (A)
                 (A) (A) (A) (A) (A) (A) (A) (A) (A) (A) (A) (A)
                 (A) (A) (A) (A) (A) (A) (A) (A) (A) (A) (A) (A)
                 (A) (A) (A) (A) (A) (A) (A) (A) (A) (A) (A) (A)
                 (A) (A) (A) (A) (A) (A) (A) (A) (A) (A) (A) (A)
                 (A) (A) (A) (A) (A) (A) (A) (A) (A) (A) (A) (A)
                 (A) (A) (A) (A) (A) (A) (A) (A) (A) (A) (A) (A)
                 (A) (A) (A) (A) (A) (A) (A) (A) (A) (A) (A) (A)
                 (A) (A) (A) (A) (A) (A) (A) (A) (A) (A) (A) (A)
                 (A) (A) (A) (A) (A) (A) (A) (A) (A) (A) (A) (A)
                 (A) (A) (A) (A) (A) (A) (A) (A) (A) (A) (A) (A)
                 (A) (A) (A) (A) (A) (A) (A) (A) (A) (A) (A) (A)
                 (A) (A) (A) (A) (A) (A) (A) (A) (A) (A) (A) (A)
                 (A) (A) (A) (A) (A) (A) (A) (A) (A) (A) (A) (A)
                 (A) (A) (A) (A) (A) (A) (A) (A) (A) (A) (A) (A)
                 (A) (A) (A) (A) (A) (A) (A) (A) (A) (A) (A) (A)
                 (A) (A) (A) (A) (A) (A) (A) (A) (A) (A) (A) (A)
                 (A) (A) (A) (A) (A) (A) (A) (A) (A) (A) (A) (A)
                 (A) (A) (A) (A) (A) (A) (A) (A) (A) (A) (A) (A)
                 (A) (A) (A) (A) (A) (A) (A) (A) (A) (A) (A) (A)
                 (A) (A) (A) (A) (A) (A) (A) (A) (A) (A) (A) (A)
                 (A) (A) (A) (A) (A) (A) (A) (A) (A) (A) (A) (A)
                 (A) (A) (A) (A) (A) (A) (A) (A) (A) (A) (A) (A)
                 (A) (A) (A) (A) (A) (A) (A) (A) (A) (A) (A) (A)
                 (A) (A) (A) (A) (A) (A) (A) (A) (A) (A) (A) (A)
                 (A) (A) (A) (A) (A) (A) (A) (A) (A) (A) (A) (A)
                 (A) (A) (A) (A) (A) (A) (A) (A) (A) (A) (A) (A)
                 (A) (A) (A) (A) (A) (A) (A) (A) (A) (A) (A) (A)
                 (A) (A) (A) (A) (A) (A) (A) (A) (A) (A) (A) (A)
                 (A) (A) (A) (A) (A) (A) (A) (A) (A) (A) (A) (A)
                 (A) (A) (A) (A) (A) (A)
     4 initial guesses have been made.
 Convergence on wavefunction:    0.001000000000000
 Iteration     1 Dimension     4 NMult     0 NNew      4
 CISAX will form     4 AO SS matrices at one time.
 New state      1 was old state      2
 Iteration     2 Dimension     6 NMult     4 NNew      2
 Iteration     3 Dimension     8 NMult     6 NNew      2
 Iteration     4 Dimension    10 NMult     8 NNew      2
 Iteration     5 Dimension    12 NMult    10 NNew      2
 Iteration     6 Dimension    14 NMult    12 NNew      2
 Iteration     7 Dimension    16 NMult    14 NNew      2
 Iteration     8 Dimension    18 NMult    16 NNew      2
 Iteration     9 Dimension    20 NMult    18 NNew      2
 Iteration    10 Dimension    22 NMult    20 NNew      2
 ***********************************************************************
 Excited states from <AA,BB:AA,BB> singles matrix:
 ***********************************************************************
 
 Ground to excited state transition densities written to RWF  633
 Ground to excited state transition electric dipole moments (Au):
       state          X           Y           Z        Dip. S.      Osc.
         1        -0.4835     -2.4197     -0.4207      6.2657      0.2942
 Ground to excited state transition velocity dipole moments (Au):
       state          X           Y           Z        Dip. S.      Osc.
         1         0.0320      0.1658      0.0286      0.0293      0.2777
 Ground to excited state transition magnetic dipole moments (Au):
       state          X           Y           Z
         1         0.3939      0.5176     -3.3678
 Ground to excited state transition velocity quadrupole moments (Au):
       state          XX          YY          ZZ          XY          XZ          YZ
         1        -0.8081      0.2947      0.0324     -2.1963     -0.3580      0.1272
 <0|del|b> * <b|rxdel|0> + <0|del|b> * <b|delr+rdel|0>
 Rotatory Strengths (R) in cgs (10**-40 erg-esu-cm/Gauss)
       state          XX          YY          ZZ    R(velocity)    E-M Angle
         1       -71.2115    -84.8604    175.6372      6.5218       89.81
 1/2[<0|r|b>*<b|rxdel|0> + (<0|rxdel|b>*<b|r|0>)*]
 Rotatory Strengths (R) in cgs (10**-40 erg-esu-cm/Gauss)
       state          XX          YY          ZZ     R(length)
         1       134.6922    885.6196  -1001.9047      6.1357
  1/2[<0|del|b>*<b|r|0> + (<0|r|b>*<b|del|0>)*] (Au)
       state          X           Y           Z        Dip. S.   Osc.(frdel)
         1        -0.0154     -0.4013     -0.0120      0.4288      0.2858

 Excitation energies and oscillator strengths:
 
 Excited State   1:      Singlet-A      1.9167 eV  646.87 nm  f=0.2942  <S**2>=0.000
     240 -> 243       -0.20562
     241 -> 242        0.67376
 This state for optimization and/or second-order correction.
 Total Energy, E(TD-HF/TD-DFT) =  -2933.40835668    
 Copying the excited state density for this state as the 1-particle RhoCI density.
 SavETr:  write IOETrn=   770 NScale= 10 NData=  16 NLR=1 NState=    1 LETran=      28.
 Hyperfine terms turned off by default for NAtoms > 100.

 **********************************************************************

            Population analysis using the SCF density.

 **********************************************************************

 Orbital symmetries:
       Occupied  (A) (A) (A) (A) (A) (A) (A) (A) (A) (A) (A) (A)
                 (A) (A) (A) (A) (A) (A) (A) (A) (A) (A) (A) (A)
                 (A) (A) (A) (A) (A) (A) (A) (A) (A) (A) (A) (A)
                 (A) (A) (A) (A) (A) (A) (A) (A) (A) (A) (A) (A)
                 (A) (A) (A) (A) (A) (A) (A) (A) (A) (A) (A) (A)
                 (A) (A) (A) (A) (A) (A) (A) (A) (A) (A) (A) (A)
                 (A) (A) (A) (A) (A) (A) (A) (A) (A) (A) (A) (A)
                 (A) (A) (A) (A) (A) (A) (A) (A) (A) (A) (A) (A)
                 (A) (A) (A) (A) (A) (A) (A) (A) (A) (A) (A) (A)
                 (A) (A) (A) (A) (A) (A) (A) (A) (A) (A) (A) (A)
                 (A) (A) (A) (A) (A) (A) (A) (A) (A) (A) (A) (A)
                 (A) (A) (A) (A) (A) (A) (A) (A) (A) (A) (A) (A)
                 (A) (A) (A) (A) (A) (A) (A) (A) (A) (A) (A) (A)
                 (A) (A) (A) (A) (A) (A) (A) (A) (A) (A) (A) (A)
                 (A) (A) (A) (A) (A) (A) (A) (A) (A) (A) (A) (A)
                 (A) (A) (A) (A) (A) (A) (A) (A) (A) (A) (A) (A)
                 (A) (A) (A) (A) (A) (A) (A) (A) (A) (A) (A) (A)
                 (A) (A) (A) (A) (A) (A) (A) (A) (A) (A) (A) (A)
                 (A) (A) (A) (A) (A) (A) (A) (A) (A) (A) (A) (A)
                 (A) (A) (A) (A) (A) (A) (A) (A) (A) (A) (A) (A)
                 (A)
       Virtual   (A) (A) (A) (A) (A) (A) (A) (A) (A) (A) (A) (A)
                 (A) (A) (A) (A) (A) (A) (A) (A) (A) (A) (A) (A)
                 (A) (A) (A) (A) (A) (A) (A) (A) (A) (A) (A) (A)
                 (A) (A) (A) (A) (A) (A) (A) (A) (A) (A) (A) (A)
                 (A) (A) (A) (A) (A) (A) (A) (A) (A) (A) (A) (A)
                 (A) (A) (A) (A) (A) (A) (A) (A) (A) (A) (A) (A)
                 (A) (A) (A) (A) (A) (A) (A) (A) (A) (A) (A) (A)
                 (A) (A) (A) (A) (A) (A) (A) (A) (A) (A) (A) (A)
                 (A) (A) (A) (A) (A) (A) (A) (A) (A) (A) (A) (A)
                 (A) (A) (A) (A) (A) (A) (A) (A) (A) (A) (A) (A)
                 (A) (A) (A) (A) (A) (A) (A) (A) (A) (A) (A) (A)
                 (A) (A) (A) (A) (A) (A) (A) (A) (A) (A) (A) (A)
                 (A) (A) (A) (A) (A) (A) (A) (A) (A) (A) (A) (A)
                 (A) (A) (A) (A) (A) (A) (A) (A) (A) (A) (A) (A)
                 (A) (A) (A) (A) (A) (A) (A) (A) (A) (A) (A) (A)
                 (A) (A) (A) (A) (A) (A) (A) (A) (A) (A) (A) (A)
                 (A) (A) (A) (A) (A) (A) (A) (A) (A) (A) (A) (A)
                 (A) (A) (A) (A) (A) (A) (A) (A) (A) (A) (A) (A)
                 (A) (A) (A) (A) (A) (A) (A) (A) (A) (A) (A) (A)
                 (A) (A) (A) (A) (A) (A) (A) (A) (A) (A) (A) (A)
                 (A) (A) (A) (A) (A) (A) (A) (A) (A) (A) (A) (A)
                 (A) (A) (A) (A) (A) (A) (A) (A) (A) (A) (A) (A)
                 (A) (A) (A) (A) (A) (A) (A) (A) (A) (A) (A) (A)
                 (A) (A) (A) (A) (A) (A) (A) (A) (A) (A) (A) (A)
                 (A) (A) (A) (A) (A) (A) (A) (A) (A) (A) (A) (A)
                 (A) (A) (A) (A) (A) (A) (A) (A) (A) (A) (A) (A)
                 (A) (A) (A) (A) (A) (A) (A) (A) (A) (A) (A) (A)
                 (A) (A) (A) (A) (A) (A) (A) (A) (A) (A) (A) (A)
                 (A) (A) (A) (A) (A) (A) (A) (A) (A) (A) (A) (A)
                 (A) (A) (A) (A) (A) (A) (A) (A) (A) (A) (A) (A)
                 (A) (A) (A) (A) (A) (A) (A) (A) (A) (A) (A) (A)
                 (A) (A) (A) (A) (A) (A) (A) (A) (A) (A) (A) (A)
                 (A) (A) (A) (A) (A) (A) (A) (A) (A) (A) (A) (A)
                 (A) (A) (A) (A) (A) (A) (A) (A) (A) (A) (A) (A)
                 (A) (A) (A) (A) (A) (A) (A) (A) (A) (A) (A) (A)
                 (A) (A) (A) (A) (A) (A) (A) (A) (A) (A) (A) (A)
                 (A) (A) (A) (A) (A) (A) (A) (A) (A) (A) (A) (A)
                 (A) (A) (A) (A) (A) (A) (A) (A) (A) (A) (A) (A)
                 (A) (A) (A) (A) (A) (A) (A) (A) (A) (A) (A) (A)
                 (A) (A) (A) (A) (A) (A) (A) (A) (A) (A) (A) (A)
                 (A) (A) (A) (A) (A) (A) (A) (A) (A) (A) (A) (A)
                 (A) (A) (A) (A) (A) (A) (A) (A) (A) (A) (A) (A)
                 (A) (A) (A) (A) (A) (A) (A) (A) (A) (A) (A) (A)
                 (A) (A) (A) (A) (A) (A) (A) (A) (A) (A) (A) (A)
                 (A) (A) (A) (A) (A) (A) (A) (A) (A) (A) (A) (A)
                 (A) (A) (A) (A) (A) (A) (A) (A) (A) (A) (A) (A)
                 (A) (A) (A) (A) (A) (A) (A) (A) (A) (A) (A) (A)
                 (A) (A) (A) (A) (A) (A) (A) (A) (A) (A) (A) (A)
                 (A) (A) (A) (A) (A) (A) (A) (A) (A) (A) (A) (A)
                 (A) (A) (A) (A) (A) (A) (A) (A) (A) (A) (A) (A)
                 (A) (A) (A) (A) (A) (A) (A) (A) (A) (A) (A) (A)
                 (A) (A) (A) (A) (A) (A) (A) (A) (A) (A) (A) (A)
                 (A) (A) (A) (A) (A) (A) (A) (A) (A) (A) (A) (A)
                 (A) (A) (A) (A) (A) (A) (A) (A) (A) (A) (A) (A)
                 (A) (A) (A) (A) (A) (A) (A) (A) (A) (A) (A) (A)
                 (A) (A) (A) (A) (A) (A) (A) (A) (A) (A) (A) (A)
                 (A) (A) (A) (A) (A) (A) (A) (A) (A) (A) (A) (A)
                 (A) (A) (A) (A) (A) (A) (A) (A) (A) (A) (A) (A)
                 (A) (A) (A) (A) (A) (A) (A) (A) (A) (A) (A) (A)
                 (A) (A) (A) (A) (A) (A) (A) (A) (A) (A) (A) (A)
                 (A) (A) (A) (A) (A) (A) (A) (A) (A) (A) (A) (A)
                 (A) (A) (A) (A) (A) (A) (A) (A) (A) (A) (A) (A)
                 (A) (A) (A) (A) (A) (A) (A) (A) (A) (A) (A) (A)
                 (A) (A) (A) (A) (A) (A) (A) (A) (A) (A) (A) (A)
                 (A) (A) (A) (A) (A) (A) (A) (A) (A) (A) (A) (A)
                 (A) (A) (A) (A) (A) (A) (A) (A) (A) (A) (A) (A)
                 (A) (A) (A) (A) (A) (A) (A) (A) (A) (A) (A) (A)
                 (A) (A) (A) (A) (A) (A) (A) (A) (A) (A) (A) (A)
                 (A) (A) (A) (A) (A) (A) (A) (A) (A) (A) (A) (A)
                 (A) (A) (A) (A) (A) (A) (A) (A) (A) (A) (A) (A)
                 (A) (A) (A) (A) (A) (A) (A) (A) (A) (A) (A) (A)
                 (A) (A) (A) (A) (A) (A) (A) (A) (A) (A) (A) (A)
                 (A) (A) (A) (A) (A) (A) (A) (A) (A) (A) (A) (A)
                 (A) (A) (A) (A) (A) (A) (A) (A) (A) (A) (A) (A)
                 (A) (A) (A) (A) (A) (A) (A) (A) (A) (A) (A) (A)
                 (A) (A) (A) (A) (A) (A) (A) (A) (A) (A) (A) (A)
                 (A) (A) (A) (A) (A) (A) (A) (A) (A) (A) (A) (A)
                 (A) (A) (A) (A) (A) (A) (A) (A) (A) (A) (A) (A)
                 (A) (A) (A) (A) (A) (A) (A) (A) (A) (A) (A) (A)
                 (A) (A) (A) (A) (A) (A) (A) (A) (A) (A) (A) (A)
                 (A) (A) (A) (A) (A) (A) (A) (A) (A) (A) (A) (A)
                 (A) (A) (A) (A) (A) (A) (A) (A) (A) (A) (A) (A)
                 (A) (A) (A) (A) (A) (A) (A) (A) (A) (A) (A) (A)
                 (A) (A) (A) (A) (A) (A) (A) (A) (A) (A) (A) (A)
                 (A) (A) (A) (A) (A) (A) (A) (A) (A) (A) (A) (A)
                 (A) (A) (A) (A) (A) (A) (A) (A) (A) (A) (A) (A)
                 (A) (A) (A) (A) (A) (A) (A) (A) (A) (A) (A) (A)
                 (A) (A) (A) (A) (A) (A) (A) (A) (A) (A) (A) (A)
                 (A) (A) (A) (A) (A) (A) (A) (A) (A) (A) (A) (A)
                 (A) (A) (A) (A) (A) (A) (A) (A) (A) (A) (A) (A)
                 (A) (A) (A) (A) (A) (A) (A) (A) (A) (A) (A) (A)
                 (A) (A) (A) (A) (A) (A)
 The electronic state is 1-A.
 Alpha  occ. eigenvalues --  -46.81048 -19.23285 -19.21852 -19.15071 -19.14855
 Alpha  occ. eigenvalues --  -19.14622 -14.38710 -14.35700 -14.35394 -14.35202
 Alpha  occ. eigenvalues --  -10.34105 -10.33685 -10.28797 -10.27700 -10.27284
 Alpha  occ. eigenvalues --  -10.26426 -10.25948 -10.25842 -10.25762 -10.25658
 Alpha  occ. eigenvalues --  -10.25108 -10.24897 -10.24883 -10.24778 -10.24631
 Alpha  occ. eigenvalues --  -10.24503 -10.24488 -10.24296 -10.24178 -10.23986
 Alpha  occ. eigenvalues --  -10.23924 -10.23821 -10.23451 -10.23371 -10.23328
 Alpha  occ. eigenvalues --  -10.23217 -10.22967 -10.22875 -10.22842 -10.22775
 Alpha  occ. eigenvalues --  -10.22747 -10.22706 -10.22582 -10.22526 -10.22457
 Alpha  occ. eigenvalues --  -10.22383 -10.22320 -10.22155 -10.21968 -10.21935
 Alpha  occ. eigenvalues --  -10.21702 -10.21691 -10.21652 -10.21607 -10.21536
 Alpha  occ. eigenvalues --  -10.21403 -10.21279 -10.21046 -10.20717 -10.20361
 Alpha  occ. eigenvalues --  -10.20124 -10.19583 -10.19517 -10.19352 -10.19231
 Alpha  occ. eigenvalues --   -3.09481  -1.84429  -1.83956  -1.83876  -1.14107
 Alpha  occ. eigenvalues --   -1.12473  -1.03158  -1.01513  -1.00808  -0.99529
 Alpha  occ. eigenvalues --   -0.98820  -0.97622  -0.96811  -0.87782  -0.86244
 Alpha  occ. eigenvalues --   -0.85656  -0.84510  -0.84436  -0.83974  -0.83705
 Alpha  occ. eigenvalues --   -0.83092  -0.82445  -0.81952  -0.81270  -0.80760
 Alpha  occ. eigenvalues --   -0.79743  -0.78994  -0.78806  -0.77881  -0.77403
 Alpha  occ. eigenvalues --   -0.76762  -0.76394  -0.75708  -0.74644  -0.73053
 Alpha  occ. eigenvalues --   -0.72749  -0.72631  -0.71712  -0.71500  -0.70985
 Alpha  occ. eigenvalues --   -0.70253  -0.70096  -0.69395  -0.68395  -0.67287
 Alpha  occ. eigenvalues --   -0.66380  -0.65918  -0.64703  -0.64315  -0.63587
 Alpha  occ. eigenvalues --   -0.63192  -0.62630  -0.61402  -0.60811  -0.60540
 Alpha  occ. eigenvalues --   -0.59646  -0.59481  -0.58810  -0.58422  -0.58353
 Alpha  occ. eigenvalues --   -0.58146  -0.56500  -0.56086  -0.55860  -0.55033
 Alpha  occ. eigenvalues --   -0.54355  -0.53953  -0.53772  -0.52501  -0.52188
 Alpha  occ. eigenvalues --   -0.51888  -0.51650  -0.51199  -0.50964  -0.50806
 Alpha  occ. eigenvalues --   -0.50256  -0.50031  -0.49436  -0.49254  -0.49001
 Alpha  occ. eigenvalues --   -0.48802  -0.48553  -0.48404  -0.48285  -0.47693
 Alpha  occ. eigenvalues --   -0.47358  -0.47169  -0.46773  -0.46700  -0.46325
 Alpha  occ. eigenvalues --   -0.46164  -0.45985  -0.45727  -0.45629  -0.45549
 Alpha  occ. eigenvalues --   -0.45313  -0.45130  -0.44918  -0.44859  -0.44494
 Alpha  occ. eigenvalues --   -0.44399  -0.44318  -0.43896  -0.43648  -0.43476
 Alpha  occ. eigenvalues --   -0.42684  -0.42643  -0.42423  -0.42410  -0.42112
 Alpha  occ. eigenvalues --   -0.41916  -0.41858  -0.41585  -0.41436  -0.41286
 Alpha  occ. eigenvalues --   -0.41229  -0.40878  -0.40611  -0.40569  -0.40445
 Alpha  occ. eigenvalues --   -0.40147  -0.40115  -0.39960  -0.39491  -0.39355
 Alpha  occ. eigenvalues --   -0.39294  -0.39162  -0.39044  -0.38933  -0.38761
 Alpha  occ. eigenvalues --   -0.38588  -0.38416  -0.38254  -0.38136  -0.37619
 Alpha  occ. eigenvalues --   -0.37513  -0.37412  -0.37198  -0.37042  -0.36825
 Alpha  occ. eigenvalues --   -0.36710  -0.36318  -0.36144  -0.35902  -0.35407
 Alpha  occ. eigenvalues --   -0.35357  -0.35114  -0.35074  -0.34947  -0.34790
 Alpha  occ. eigenvalues --   -0.34785  -0.34455  -0.34044  -0.33932  -0.33778
 Alpha  occ. eigenvalues --   -0.33277  -0.33130  -0.32944  -0.32553  -0.32100
 Alpha  occ. eigenvalues --   -0.32027  -0.31633  -0.31504  -0.30757  -0.30193
 Alpha  occ. eigenvalues --   -0.29312  -0.28718  -0.28582  -0.28072  -0.26406
 Alpha  occ. eigenvalues --   -0.26326  -0.26033  -0.25730  -0.24868  -0.21512
 Alpha  occ. eigenvalues --   -0.19955
 Alpha virt. eigenvalues --   -0.07921  -0.03425  -0.00513   0.01575   0.02685
 Alpha virt. eigenvalues --    0.03624   0.04252   0.04548   0.05140   0.05477
 Alpha virt. eigenvalues --    0.06587   0.08262   0.08390   0.09390   0.09754
 Alpha virt. eigenvalues --    0.09835   0.10321   0.10514   0.10595   0.11212
 Alpha virt. eigenvalues --    0.11277   0.11685   0.12030   0.12112   0.12201
 Alpha virt. eigenvalues --    0.12278   0.12676   0.13082   0.13300   0.13543
 Alpha virt. eigenvalues --    0.13666   0.13689   0.13900   0.14169   0.14268
 Alpha virt. eigenvalues --    0.14489   0.14669   0.14865   0.14991   0.15127
 Alpha virt. eigenvalues --    0.15215   0.15393   0.15716   0.15770   0.15792
 Alpha virt. eigenvalues --    0.16106   0.16249   0.16500   0.16779   0.16954
 Alpha virt. eigenvalues --    0.16973   0.16991   0.17002   0.17291   0.17343
 Alpha virt. eigenvalues --    0.17488   0.17511   0.17849   0.18063   0.18192
 Alpha virt. eigenvalues --    0.18380   0.18477   0.18597   0.18969   0.19159
 Alpha virt. eigenvalues --    0.19276   0.19550   0.19671   0.19936   0.20039
 Alpha virt. eigenvalues --    0.20297   0.20561   0.20618   0.20642   0.20947
 Alpha virt. eigenvalues --    0.20998   0.21230   0.21353   0.21537   0.21993
 Alpha virt. eigenvalues --    0.22164   0.22324   0.22541   0.22656   0.22732
 Alpha virt. eigenvalues --    0.22875   0.23141   0.23206   0.23417   0.23657
 Alpha virt. eigenvalues --    0.24137   0.24219   0.24347   0.24545   0.24591
 Alpha virt. eigenvalues --    0.24989   0.25213   0.25294   0.25354   0.25528
 Alpha virt. eigenvalues --    0.25585   0.26137   0.26224   0.26634   0.26846
 Alpha virt. eigenvalues --    0.26881   0.27080   0.27173   0.27375   0.27557
 Alpha virt. eigenvalues --    0.27673   0.27992   0.28187   0.28359   0.28423
 Alpha virt. eigenvalues --    0.28681   0.28947   0.29353   0.29489   0.29951
 Alpha virt. eigenvalues --    0.30414   0.30557   0.30674   0.31015   0.31753
 Alpha virt. eigenvalues --    0.32173   0.32548   0.32854   0.33082   0.33511
 Alpha virt. eigenvalues --    0.33689   0.34003   0.34154   0.35258   0.35887
 Alpha virt. eigenvalues --    0.36242   0.36839   0.36976   0.37236   0.37852
 Alpha virt. eigenvalues --    0.38317   0.38780   0.39229   0.39299   0.40412
 Alpha virt. eigenvalues --    0.40588   0.40633   0.41807   0.42242   0.42806
 Alpha virt. eigenvalues --    0.43216   0.43287   0.43841   0.44942   0.45920
 Alpha virt. eigenvalues --    0.46413   0.47036   0.47559   0.48899   0.49647
 Alpha virt. eigenvalues --    0.49805   0.49949   0.50971   0.51112   0.51243
 Alpha virt. eigenvalues --    0.51611   0.51769   0.52183   0.52444   0.52572
 Alpha virt. eigenvalues --    0.52898   0.53197   0.53322   0.53548   0.53711
 Alpha virt. eigenvalues --    0.54295   0.54448   0.54560   0.54723   0.55231
 Alpha virt. eigenvalues --    0.55525   0.55598   0.55738   0.56019   0.56327
 Alpha virt. eigenvalues --    0.56548   0.56817   0.56945   0.57099   0.57351
 Alpha virt. eigenvalues --    0.57600   0.57706   0.57946   0.58095   0.58220
 Alpha virt. eigenvalues --    0.58312   0.58538   0.58800   0.58837   0.59244
 Alpha virt. eigenvalues --    0.59443   0.60115   0.60312   0.60508   0.60610
 Alpha virt. eigenvalues --    0.60955   0.61289   0.61635   0.62000   0.62026
 Alpha virt. eigenvalues --    0.62535   0.62747   0.63007   0.63131   0.63455
 Alpha virt. eigenvalues --    0.63503   0.63706   0.63890   0.64092   0.64611
 Alpha virt. eigenvalues --    0.64646   0.64926   0.65078   0.65555   0.65806
 Alpha virt. eigenvalues --    0.66047   0.66114   0.66271   0.66720   0.67095
 Alpha virt. eigenvalues --    0.67140   0.67237   0.67565   0.68106   0.68355
 Alpha virt. eigenvalues --    0.68438   0.68608   0.68932   0.69281   0.69354
 Alpha virt. eigenvalues --    0.69774   0.70170   0.70318   0.70764   0.70906
 Alpha virt. eigenvalues --    0.71022   0.71177   0.71528   0.71923   0.72029
 Alpha virt. eigenvalues --    0.72356   0.72711   0.72784   0.73040   0.73409
 Alpha virt. eigenvalues --    0.73665   0.74466   0.74589   0.74807   0.74977
 Alpha virt. eigenvalues --    0.75134   0.75342   0.75724   0.76062   0.76339
 Alpha virt. eigenvalues --    0.76590   0.76843   0.77054   0.77290   0.77505
 Alpha virt. eigenvalues --    0.77636   0.77891   0.77994   0.78264   0.78413
 Alpha virt. eigenvalues --    0.78578   0.78690   0.79163   0.79214   0.79328
 Alpha virt. eigenvalues --    0.79869   0.80096   0.80317   0.80512   0.80885
 Alpha virt. eigenvalues --    0.81139   0.81366   0.81475   0.81745   0.82266
 Alpha virt. eigenvalues --    0.82348   0.82352   0.82577   0.82686   0.82924
 Alpha virt. eigenvalues --    0.83130   0.83286   0.83639   0.84116   0.84257
 Alpha virt. eigenvalues --    0.84286   0.84475   0.84595   0.84917   0.85183
 Alpha virt. eigenvalues --    0.85288   0.85359   0.85821   0.85876   0.85984
 Alpha virt. eigenvalues --    0.86114   0.86377   0.86759   0.86897   0.87036
 Alpha virt. eigenvalues --    0.87352   0.87595   0.87723   0.87800   0.87990
 Alpha virt. eigenvalues --    0.88266   0.88466   0.88657   0.88812   0.89326
 Alpha virt. eigenvalues --    0.89466   0.89714   0.89921   0.89997   0.90083
 Alpha virt. eigenvalues --    0.90171   0.90389   0.90925   0.91025   0.91292
 Alpha virt. eigenvalues --    0.91562   0.91754   0.91796   0.91983   0.92120
 Alpha virt. eigenvalues --    0.92536   0.92616   0.92760   0.93154   0.93308
 Alpha virt. eigenvalues --    0.93682   0.93891   0.93958   0.94110   0.94352
 Alpha virt. eigenvalues --    0.94428   0.94766   0.94964   0.95359   0.95457
 Alpha virt. eigenvalues --    0.95602   0.95773   0.96172   0.96429   0.96613
 Alpha virt. eigenvalues --    0.96734   0.96889   0.97129   0.97270   0.97583
 Alpha virt. eigenvalues --    0.97672   0.97925   0.98361   0.98419   0.98853
 Alpha virt. eigenvalues --    0.98936   0.99039   0.99275   0.99433   0.99738
 Alpha virt. eigenvalues --    1.00084   1.00214   1.00389   1.00555   1.00844
 Alpha virt. eigenvalues --    1.01108   1.01260   1.01486   1.01723   1.02196
 Alpha virt. eigenvalues --    1.02838   1.03168   1.03343   1.03375   1.03726
 Alpha virt. eigenvalues --    1.04000   1.04113   1.04265   1.04576   1.05110
 Alpha virt. eigenvalues --    1.06122   1.06176   1.06518   1.06575   1.07082
 Alpha virt. eigenvalues --    1.07624   1.08024   1.08179   1.08293   1.08924
 Alpha virt. eigenvalues --    1.09182   1.09781   1.10765   1.11096   1.11170
 Alpha virt. eigenvalues --    1.11993   1.12357   1.12672   1.13245   1.13601
 Alpha virt. eigenvalues --    1.14141   1.14369   1.14561   1.15873   1.16405
 Alpha virt. eigenvalues --    1.16685   1.16872   1.17646   1.18485   1.18724
 Alpha virt. eigenvalues --    1.18875   1.19395   1.19739   1.20468   1.21134
 Alpha virt. eigenvalues --    1.21611   1.21826   1.22631   1.23083   1.23661
 Alpha virt. eigenvalues --    1.24109   1.24809   1.25301   1.25857   1.26230
 Alpha virt. eigenvalues --    1.27088   1.27640   1.27962   1.28830   1.28939
 Alpha virt. eigenvalues --    1.29822   1.30046   1.30123   1.30654   1.30890
 Alpha virt. eigenvalues --    1.32290   1.32864   1.32936   1.33403   1.33954
 Alpha virt. eigenvalues --    1.34836   1.35150   1.35687   1.35909   1.36250
 Alpha virt. eigenvalues --    1.36852   1.37648   1.37915   1.38452   1.38576
 Alpha virt. eigenvalues --    1.39012   1.39426   1.40058   1.40626   1.40807
 Alpha virt. eigenvalues --    1.41026   1.41697   1.41907   1.42276   1.43696
 Alpha virt. eigenvalues --    1.43813   1.44291   1.44643   1.44873   1.46278
 Alpha virt. eigenvalues --    1.46748   1.46975   1.47247   1.48080   1.48365
 Alpha virt. eigenvalues --    1.48657   1.49031   1.49610   1.49977   1.50576
 Alpha virt. eigenvalues --    1.50766   1.51308   1.52243   1.52544   1.52792
 Alpha virt. eigenvalues --    1.53131   1.53528   1.53991   1.54496   1.55041
 Alpha virt. eigenvalues --    1.55078   1.55829   1.55858   1.56883   1.57354
 Alpha virt. eigenvalues --    1.57581   1.57899   1.58049   1.58493   1.58817
 Alpha virt. eigenvalues --    1.58948   1.59963   1.60388   1.60808   1.60980
 Alpha virt. eigenvalues --    1.61947   1.62037   1.62837   1.63080   1.63393
 Alpha virt. eigenvalues --    1.63796   1.64471   1.65487   1.65600   1.65825
 Alpha virt. eigenvalues --    1.66018   1.66694   1.67106   1.67389   1.67880
 Alpha virt. eigenvalues --    1.68376   1.68765   1.69017   1.69281   1.69632
 Alpha virt. eigenvalues --    1.70241   1.70340   1.71195   1.71698   1.71822
 Alpha virt. eigenvalues --    1.72294   1.72713   1.73431   1.73668   1.73863
 Alpha virt. eigenvalues --    1.74059   1.74178   1.74969   1.75627   1.76187
 Alpha virt. eigenvalues --    1.76394   1.77009   1.77292   1.77337   1.77557
 Alpha virt. eigenvalues --    1.77847   1.78149   1.78490   1.78739   1.78851
 Alpha virt. eigenvalues --    1.79367   1.79749   1.80144   1.80392   1.80740
 Alpha virt. eigenvalues --    1.80904   1.81396   1.81680   1.81938   1.82359
 Alpha virt. eigenvalues --    1.82517   1.82948   1.83087   1.83456   1.83736
 Alpha virt. eigenvalues --    1.83885   1.84314   1.84768   1.84808   1.84942
 Alpha virt. eigenvalues --    1.85420   1.85577   1.85789   1.86131   1.86777
 Alpha virt. eigenvalues --    1.86867   1.86906   1.87135   1.87489   1.87754
 Alpha virt. eigenvalues --    1.87848   1.88084   1.88417   1.88705   1.88938
 Alpha virt. eigenvalues --    1.89237   1.89364   1.89666   1.90037   1.90114
 Alpha virt. eigenvalues --    1.90224   1.90330   1.90489   1.90942   1.91312
 Alpha virt. eigenvalues --    1.91467   1.91826   1.91941   1.92362   1.93025
 Alpha virt. eigenvalues --    1.93099   1.93238   1.93441   1.93560   1.93682
 Alpha virt. eigenvalues --    1.93952   1.94139   1.94412   1.94518   1.95058
 Alpha virt. eigenvalues --    1.95340   1.95626   1.95919   1.96021   1.96335
 Alpha virt. eigenvalues --    1.96447   1.96678   1.96876   1.97124   1.97340
 Alpha virt. eigenvalues --    1.97534   1.98223   1.98599   1.98682   1.98903
 Alpha virt. eigenvalues --    1.99319   1.99684   1.99915   2.00149   2.00517
 Alpha virt. eigenvalues --    2.00833   2.01045   2.01415   2.01879   2.02271
 Alpha virt. eigenvalues --    2.02387   2.02503   2.02954   2.03221   2.03760
 Alpha virt. eigenvalues --    2.04071   2.04554   2.04638   2.05029   2.05126
 Alpha virt. eigenvalues --    2.05344   2.05656   2.06130   2.06550   2.06771
 Alpha virt. eigenvalues --    2.07664   2.07863   2.08070   2.08178   2.08315
 Alpha virt. eigenvalues --    2.08350   2.08638   2.09019   2.09628   2.09648
 Alpha virt. eigenvalues --    2.10212   2.10570   2.10844   2.11173   2.11460
 Alpha virt. eigenvalues --    2.11847   2.12286   2.12759   2.13119   2.13370
 Alpha virt. eigenvalues --    2.13490   2.13797   2.14022   2.14176   2.14728
 Alpha virt. eigenvalues --    2.14789   2.15024   2.15488   2.15940   2.16669
 Alpha virt. eigenvalues --    2.17099   2.17830   2.18045   2.18447   2.18649
 Alpha virt. eigenvalues --    2.18747   2.19135   2.19283   2.19438   2.19903
 Alpha virt. eigenvalues --    2.20484   2.21041   2.21274   2.21348   2.22152
 Alpha virt. eigenvalues --    2.22367   2.22959   2.23085   2.23370   2.23466
 Alpha virt. eigenvalues --    2.23663   2.24010   2.24139   2.24530   2.24783
 Alpha virt. eigenvalues --    2.25204   2.25315   2.25416   2.26100   2.26227
 Alpha virt. eigenvalues --    2.26279   2.27126   2.27522   2.28151   2.28342
 Alpha virt. eigenvalues --    2.28801   2.29196   2.29420   2.29537   2.29762
 Alpha virt. eigenvalues --    2.29954   2.30545   2.30595   2.30999   2.31448
 Alpha virt. eigenvalues --    2.31993   2.32157   2.32547   2.32894   2.33392
 Alpha virt. eigenvalues --    2.33525   2.34015   2.34022   2.34115   2.34667
 Alpha virt. eigenvalues --    2.35171   2.35413   2.35459   2.36002   2.36130
 Alpha virt. eigenvalues --    2.36585   2.36841   2.37061   2.37336   2.37835
 Alpha virt. eigenvalues --    2.38078   2.38568   2.39087   2.39181   2.39349
 Alpha virt. eigenvalues --    2.39384   2.39536   2.39908   2.40264   2.40547
 Alpha virt. eigenvalues --    2.40707   2.41628   2.41714   2.41863   2.42267
 Alpha virt. eigenvalues --    2.42362   2.42967   2.43328   2.43708   2.44126
 Alpha virt. eigenvalues --    2.44254   2.44397   2.44595   2.44942   2.45171
 Alpha virt. eigenvalues --    2.45452   2.45697   2.46106   2.46487   2.47100
 Alpha virt. eigenvalues --    2.47524   2.48688   2.48819   2.48890   2.49252
 Alpha virt. eigenvalues --    2.49707   2.50232   2.50332   2.50794   2.50898
 Alpha virt. eigenvalues --    2.51534   2.51769   2.51937   2.52472   2.52723
 Alpha virt. eigenvalues --    2.52921   2.53081   2.53205   2.53558   2.54012
 Alpha virt. eigenvalues --    2.54212   2.54329   2.54965   2.55080   2.55240
 Alpha virt. eigenvalues --    2.55616   2.56380   2.56540   2.57703   2.57814
 Alpha virt. eigenvalues --    2.58005   2.58201   2.58508   2.59209   2.59477
 Alpha virt. eigenvalues --    2.59931   2.59947   2.60684   2.60860   2.61550
 Alpha virt. eigenvalues --    2.61667   2.62155   2.62216   2.62523   2.63043
 Alpha virt. eigenvalues --    2.63364   2.63853   2.63904   2.64327   2.65022
 Alpha virt. eigenvalues --    2.65288   2.65476   2.66061   2.66448   2.67102
 Alpha virt. eigenvalues --    2.67473   2.67506   2.67544   2.68013   2.68276
 Alpha virt. eigenvalues --    2.68807   2.68924   2.69086   2.69410   2.69991
 Alpha virt. eigenvalues --    2.70068   2.70480   2.70994   2.71150   2.71544
 Alpha virt. eigenvalues --    2.71622   2.72039   2.72529   2.72908   2.73133
 Alpha virt. eigenvalues --    2.73534   2.73602   2.73838   2.74287   2.74568
 Alpha virt. eigenvalues --    2.75218   2.75687   2.75829   2.76245   2.76453
 Alpha virt. eigenvalues --    2.76806   2.76999   2.77112   2.77797   2.78050
 Alpha virt. eigenvalues --    2.78275   2.78712   2.78802   2.79465   2.80026
 Alpha virt. eigenvalues --    2.80263   2.80341   2.80536   2.80731   2.81174
 Alpha virt. eigenvalues --    2.81432   2.81490   2.82090   2.82604   2.82751
 Alpha virt. eigenvalues --    2.83188   2.83666   2.83941   2.84601   2.84674
 Alpha virt. eigenvalues --    2.84824   2.85236   2.85883   2.85943   2.86456
 Alpha virt. eigenvalues --    2.87232   2.87389   2.88118   2.88857   2.89093
 Alpha virt. eigenvalues --    2.89514   2.89599   2.90280   2.90506   2.90870
 Alpha virt. eigenvalues --    2.91088   2.91329   2.91764   2.92074   2.92381
 Alpha virt. eigenvalues --    2.93088   2.93404   2.93591   2.93808   2.93889
 Alpha virt. eigenvalues --    2.94447   2.94511   2.94845   2.95374   2.95522
 Alpha virt. eigenvalues --    2.95918   2.96020   2.96576   2.96882   2.97279
 Alpha virt. eigenvalues --    2.97641   2.98156   2.98560   2.99545   2.99633
 Alpha virt. eigenvalues --    3.00504   3.00765   3.01471   3.01796   3.02640
 Alpha virt. eigenvalues --    3.03245   3.04192   3.05202   3.05948   3.06822
 Alpha virt. eigenvalues --    3.07746   3.07776   3.08151   3.09094   3.09354
 Alpha virt. eigenvalues --    3.09776   3.10075   3.10964   3.12678   3.13086
 Alpha virt. eigenvalues --    3.13242   3.15697   3.16250   3.16767   3.17699
 Alpha virt. eigenvalues --    3.17832   3.18482   3.18564   3.19920   3.20631
 Alpha virt. eigenvalues --    3.21043   3.22123   3.23075   3.23939   3.24890
 Alpha virt. eigenvalues --    3.25317   3.25362   3.25832   3.27417   3.27624
 Alpha virt. eigenvalues --    3.28254   3.29144   3.29340   3.30432   3.30607
 Alpha virt. eigenvalues --    3.30619   3.31206   3.32531   3.33467   3.34147
 Alpha virt. eigenvalues --    3.34246   3.34913   3.35723   3.36945   3.37346
 Alpha virt. eigenvalues --    3.37425   3.37611   3.38285   3.39339   3.39917
 Alpha virt. eigenvalues --    3.40172   3.41769   3.42039   3.42675   3.42727
 Alpha virt. eigenvalues --    3.44270   3.44568   3.44649   3.44925   3.45935
 Alpha virt. eigenvalues --    3.46147   3.47152   3.47534   3.47940   3.48098
 Alpha virt. eigenvalues --    3.49971   3.50317   3.50635   3.51205   3.51801
 Alpha virt. eigenvalues --    3.51990   3.53635   3.54035   3.54404   3.55673
 Alpha virt. eigenvalues --    3.56983   3.57879   3.58064   3.59548   3.60643
 Alpha virt. eigenvalues --    3.60969   3.61065   3.61086   3.65606   3.66184
 Alpha virt. eigenvalues --    3.71631   3.72630   3.77768   4.03347   4.04058
 Alpha virt. eigenvalues --    4.05032   4.12690   4.15387   4.16105   4.17203
 Alpha virt. eigenvalues --    4.18273   4.19446   4.21578   4.22219   4.23018
 Alpha virt. eigenvalues --    4.23340   4.24713   4.27043   4.27707   4.28651
 Alpha virt. eigenvalues --    4.30437   4.32477   4.33026   4.33896   4.34324
 Alpha virt. eigenvalues --    4.36004   4.36906   4.37876   4.38386   4.39372
 Alpha virt. eigenvalues --    4.40618   4.42961   4.43062   4.44865   4.45733
 Alpha virt. eigenvalues --    4.46758   4.47362   4.48904   4.50192   4.51330
 Alpha virt. eigenvalues --    4.51535   4.53411   4.53782   4.55214   4.56053
 Alpha virt. eigenvalues --    4.56358   4.56772   4.58394   4.59896   4.62981
 Alpha virt. eigenvalues --    4.63990   4.64420   4.65059   4.66913   4.67389
 Alpha virt. eigenvalues --    4.68851   4.71095   4.71837   4.75750   4.76330
 Alpha virt. eigenvalues --    4.78042   4.81872   4.81904   4.83022   4.84303
 Alpha virt. eigenvalues --    4.86114   4.91600   5.01798
          Condensed to atoms (all electrons):
 Mulliken charges:
               1
     1  Mg   0.831039
     2  C    0.125288
     3  C   -0.210632
     4  C   -0.189852
     5  C   -0.202715
     6  N   -0.611361
     7  C    0.339727
     8  C   -0.150329
     9  C   -0.153243
    10  C    0.284372
    11  C   -0.288890
    12  C   -0.179589
    13  C   -0.257919
    14  C    0.580283
    15  O   -0.509554
    16  O   -0.460932
    17  N   -0.669439
    18  C    0.314781
    19  C    0.027954
    20  C    0.046458
    21  C    0.270455
    22  C   -0.384890
    23  C   -0.092779
    24  C   -0.259931
    25  N   -0.683187
    26  C    0.274596
    27  C    0.089006
    28  C   -0.026553
    29  C    0.378367
    30  C   -0.400045
    31  C   -0.226827
    32  C   -0.265125
    33  N   -0.726423
    34  C    0.267684
    35  C    0.069285
    36  C    0.037364
    37  C    0.247907
    38  C   -0.372889
    39  C    0.338400
    40  O   -0.504595
    41  C   -0.365141
    42  C    0.613457
    43  O   -0.539685
    44  O   -0.405403
    45  C   -0.099467
    46  C    0.013289
    47  C   -0.154383
    48  C    0.145735
    49  C   -0.356101
    50  C   -0.237778
    51  C   -0.179957
    52  C   -0.162774
    53  C   -0.064748
    54  C   -0.333920
    55  C   -0.156056
    56  C   -0.167885
    57  C   -0.166748
    58  C   -0.055973
    59  C   -0.301197
    60  C   -0.178013
    61  C   -0.158933
    62  C   -0.153910
    63  C   -0.068812
    64  C   -0.306719
    65  C   -0.294547
    66  H    0.086750
    67  H    0.083603
    68  H    0.081940
    69  H    0.139435
    70  H    0.094223
    71  H    0.127877
    72  H    0.077934
    73  H    0.145815
    74  H    0.120448
    75  H    0.114261
    76  H    0.130442
    77  H    0.128486
    78  H    0.124677
    79  H    0.127880
    80  H    0.103227
    81  H    0.097571
    82  H    0.101644
    83  H    0.097144
    84  H    0.128504
    85  H    0.124256
    86  H    0.126989
    87  H    0.113857
    88  H    0.097713
    89  H    0.081450
    90  H    0.094323
    91  H    0.060661
    92  H    0.115419
    93  H    0.140907
    94  H    0.116913
    95  H    0.161569
    96  H    0.155003
    97  H    0.123097
    98  H    0.127516
    99  H    0.139678
   100  H    0.128089
   101  H    0.091348
   102  H    0.122770
   103  H    0.112227
   104  H    0.112877
   105  H    0.100410
   106  H    0.105372
   107  H    0.102303
   108  H    0.091381
   109  H    0.080356
   110  H    0.091763
   111  H    0.074901
   112  H    0.086950
   113  H    0.113743
   114  H    0.118097
   115  H    0.083034
   116  H    0.072552
   117  H    0.112492
   118  H    0.076007
   119  H    0.086768
   120  H    0.078333
   121  H    0.089765
   122  H    0.099968
   123  H    0.105706
   124  H    0.054540
   125  H    0.084838
   126  H    0.077655
   127  H    0.092702
   128  H    0.086678
   129  H    0.064956
   130  H    0.092563
   131  H    0.078529
   132  H    0.103541
   133  H    0.071961
   134  H    0.104987
   135  H    0.106376
   136  H    0.105780
   137  H    0.086871
 Sum of Mulliken charges =  -0.00000
 Mulliken charges with hydrogens summed into heavy atoms:
               1
     1  Mg   0.831039
     2  C    0.125288
     3  C   -0.123883
     4  C   -0.106249
     5  C   -0.120774
     6  N   -0.611361
     7  C    0.339727
     8  C   -0.010894
     9  C   -0.059020
    10  C    0.284372
    11  C    0.062735
    12  C    0.055120
    13  C    0.001008
    14  C    0.580283
    15  O   -0.509554
    16  O   -0.460932
    17  N   -0.669439
    18  C    0.314781
    19  C    0.027954
    20  C    0.046458
    21  C    0.270455
    22  C   -0.029106
    23  C    0.004791
    24  C   -0.061142
    25  N   -0.683187
    26  C    0.274596
    27  C    0.089006
    28  C   -0.026553
    29  C    0.378367
    30  C   -0.020295
    31  C   -0.015257
    32  C   -0.028690
    33  N   -0.726423
    34  C    0.267684
    35  C    0.069285
    36  C    0.037364
    37  C    0.247907
    38  C    0.000351
    39  C    0.338400
    40  O   -0.504595
    41  C   -0.203572
    42  C    0.613457
    43  O   -0.539685
    44  O   -0.405403
    45  C    0.306149
    46  C    0.281057
    47  C   -0.063035
    48  C    0.145735
    49  C   -0.008227
    50  C   -0.031996
    51  C    0.013727
    52  C    0.009345
    53  C    0.010153
    54  C   -0.015131
    55  C   -0.000470
    56  C    0.020613
    57  C   -0.001647
    58  C    0.033792
    59  C   -0.040984
    60  C   -0.015520
    61  C    0.020446
    62  C    0.003610
    63  C    0.009717
    64  C   -0.026230
    65  C    0.004480
 Electronic spatial extent (au):  <R**2>=         180572.7703
 Charge=             -0.0000 electrons
 Dipole moment (field-independent basis, Debye):
    X=              2.8256    Y=              5.2461    Z=              0.6569  Tot=              5.9948
 Quadrupole moment (field-independent basis, Debye-Ang):
   XX=           -354.7743   YY=           -394.5717   ZZ=           -397.5372
   XY=            -36.2120   XZ=              2.9778   YZ=             -5.4084
 Traceless Quadrupole moment (field-independent basis, Debye-Ang):
   XX=             27.5201   YY=            -12.2773   ZZ=            -15.2428
   XY=            -36.2120   XZ=              2.9778   YZ=             -5.4084
 Octapole moment (field-independent basis, Debye-Ang**2):
  XXX=           -745.2361  YYY=            169.2872  ZZZ=             19.6857  XYY=            -47.7219
  XXY=            121.7338  XXZ=           -166.8594  XZZ=             27.9230  YZZ=            -29.6890
  YYZ=             73.1801  XYZ=            -35.9680
 Hexadecapole moment (field-independent basis, Debye-Ang**3):
 XXXX=        -225678.5383 YYYY=         -17609.7058 ZZZZ=          -4530.8163 XXXY=          -4141.5159
 XXXZ=           1498.4884 YYYX=          -1609.6805 YYYZ=           -169.2860 ZZZX=           -150.0196
 ZZZY=           -165.7544 XXYY=         -40956.0811 XXZZ=         -39260.2309 YYZZ=          -3559.0530
 XXYZ=           -642.5701 YYXZ=           -267.8418 ZZXY=             -4.9893
 N-N= 8.707757089463D+03 E-N=-2.423870608133D+04  KE= 2.905073729636D+03

 Test job not archived.
 1\1\GINC-RYZEN-SSD3\SP\RCAM-B3LYP TD-FC\6-31G(d,p)\C55H72Mg1N4O5\PADAW
 AN\11-Sep-2019\0\\# td=(NStates=1) iop(3/107=0140000000,3/108=01400000
 00) CAM-B3LYP/6-31G(d,p)\\TD\\0,1\Mg,0,-7.1184465364,0.5273111146,0.13
 2359606\C,0,-4.864365253,-1.9744346741,0.7167570781\C,0,-4.78009404,2.
 8394026582,1.2545355588\C,0,-9.4193687014,3.1569832513,-0.3862911044\C
 ,0,-9.5228883868,-1.6785496207,-0.937300535\N,0,-5.1444414753,0.376503
 741,0.823810205\C,0,-4.4144936967,-0.6952706703,0.9193298277\C,0,-2.96
 17223928,-0.5240007981,1.3673824073\C,0,-2.9609493218,1.0040491065,1.7
 786941487\C,0,-4.3716273974,1.441338785,1.2103554294\C,0,-2.8756337442
 ,1.3351463339,3.3437696916\C,0,-1.9345791876,-0.7577317624,0.185922402
 5\C,0,-0.4715928685,-0.5374169897,0.6914025226\C,0,0.557857709,-0.7816
 047824,-0.4293627264\O,0,0.1734175586,-1.1261563933,-1.5704544385\O,0,
 1.8156201604,-0.5399439328,-0.1406694545\N,0,-7.0744250859,2.658219031
 8,0.2592868528\C,0,-6.01746189,3.3755813255,0.8207879549\C,0,-6.306285
 537,4.8179086545,0.7177000287\C,0,-7.6162664119,4.9275145567,0.2508012
 065\C,0,-8.1266321907,3.5665535942,0.1293209307\C,0,-5.4740494388,5.89
 62991036,1.2653566909\C,0,-8.4558855966,6.041294399,0.1285034628\C,0,-
 8.3402424342,7.2932484745,0.5962036797\N,0,-9.1323622773,0.6237493693,
 -0.4968662605\C,0,-9.8400314894,1.8475680811,-0.6671395275\C,0,-11.219
 9959523,1.5363730818,-1.1547903387\C,0,-11.2048099682,0.1991874645,-1.
 2645064789\C,0,-9.8523728409,-0.354505644,-0.9649686982\C,0,-12.330884
 0261,2.5394291843,-1.3755170044\C,0,-12.4233561285,-0.5737134951,-1.68
 08074113\C,0,-12.4063825472,-0.9194221345,-3.1379044416\N,0,-7.3121941
 818,-1.4170365394,-0.2369763727\C,0,-8.3077851048,-2.2798465302,-0.542
 1457945\C,0,-7.8789299328,-3.6857491263,-0.6970400038\C,0,-6.467924583
 ,-3.5440173838,-0.2193740191\C,0,-6.2079145232,-2.1965376096,0.0580076
 362\C,0,-8.6040227418,-4.9155676552,-0.8665100341\C,0,-5.3899444573,-4
 .3327568391,0.0780027744\O,0,-5.2377347658,-5.5674736044,-0.0262766791
 \C,0,-4.298354338,-3.3109285403,0.5672850501\C,0,-3.6637705539,-3.7457
 32516,1.9163276013\O,0,-3.7566084442,-3.1179391518,3.0545088091\O,0,-2
 .9213174845,-4.7993685554,1.7817072082\C,0,-2.3671356706,-5.2284680527
 ,3.0624436448\C,0,2.8279191123,-0.7815564445,-1.2071442316\C,0,4.19831
 07163,-0.5472899969,-0.6078533481\C,0,5.2039758889,0.2607025983,-1.128
 4257196\C,0,5.0848022058,1.0708947648,-2.4972638614\C,0,6.3918254612,0
 .3602966457,-0.3254430687\C,0,7.6317046231,-0.1756061086,-1.1466149902
 \C,0,8.9946071723,-0.1112229384,-0.3103871411\C,0,10.2413795986,-0.626
 0142646,-1.0015558756\C,0,10.2688101576,-2.2362715071,-1.1592628923\C,
 0,11.4927339372,-0.2149763887,-0.1202799905\C,0,12.7535330888,-0.50185
 02185,-0.8386913742\C,0,13.9716484366,0.0677210578,0.0178481964\C,0,15
 .4071967107,-0.0205211357,-0.6047661291\C,0,15.6627325443,-1.561274515
 8,-0.9455463809\C,0,16.45657265,0.4190584231,0.4000747422\C,0,17.85616
 3204,0.6269064202,-0.13382991\C,0,18.7456049791,1.3321712956,0.7653197
 887\C,0,20.2050633107,1.3467641089,0.4268793939\C,0,20.4137042162,2.10
 09874038,-0.9409587918\C,0,21.0687519422,2.1030420041,1.5437283128\H,0
 ,-3.9066310266,3.6156448159,1.5461107069\H,0,-10.0737394972,4.02774504
 9,-0.5656410903\H,0,-10.2373181559,-2.3936649016,-1.4678045999\H,0,-2.
 7167389611,-1.0975999627,2.2916656573\H,0,-2.2077042367,1.4516072218,0
 .961199769\H,0,-1.9006531517,1.2444635528,3.7880491423\H,0,-3.19769687
 88,2.5640156244,3.3862466469\H,0,-3.720374838,0.7992350778,3.638685553
 8\H,0,-1.9030054195,-1.8082915,-0.3487028774\H,0,-2.0216485339,-0.0199
 043706,-0.7174784824\H,0,-0.2443098597,0.5308026676,0.8899428573\H,0,-
 0.1256809884,-1.1505758242,1.5547989382\H,0,-5.6522794056,6.8884063526
 ,0.8259624275\H,0,-5.6031017815,6.0251853999,2.3779698095\H,0,-4.37847
 26919,5.6811123792,1.1033410667\H,0,-9.1746577256,5.9569190739,-0.6650
 678595\H,0,-8.9864777115,8.2209118122,0.5680765834\H,0,-7.6889168238,7
 .7609129277,1.3657355339\H,0,-12.0187023432,3.3108402311,-2.0413699685
 \H,0,-13.3126385616,2.2881775602,-1.7893646647\H,0,-12.521493182,3.182
 4155757,-0.5162820677\H,0,-12.6127132362,-1.4317240952,-1.0612296239\H
 ,0,-13.269049204,0.1614134308,-1.5354993043\H,0,-13.5207672759,-1.1843
 720993,-3.6504760057\H,0,-12.0163120369,0.011892718,-3.8095599344\H,0,
 -11.4595707965,-1.8199130185,-3.396487927\H,0,-9.2392185405,-4.7978162
 824,-1.8284889119\H,0,-7.6816025455,-5.6833442877,-1.1651164667\H,0,-9
 .1735915382,-5.2933477832,0.2317509064\H,0,-3.3343009486,-3.5057071763
 ,0.0217344353\H,0,-2.0002834159,-4.4822704404,3.6592776454\H,0,-3.2700
 034376,-5.518301355,3.722893327\H,0,-1.8563061511,-6.1689876836,2.8761
 209732\H,0,2.7201200668,-1.755012124,-1.5363450832\H,0,2.4197984211,-0
 .1500869239,-2.0001510726\H,0,4.5434948362,-1.2450129151,0.1897503752\
 H,0,4.0777530868,1.171822725,-3.0421346992\H,0,5.3442813603,2.18289871
 38,-2.3190893473\H,0,5.9934589144,0.5558667776,-3.1293691938\H,0,6.643
 3325172,1.439623943,-0.0796183479\H,0,6.4495028224,-0.1747848152,0.616
 2278183\H,0,7.4783999628,-1.0008807611,-1.5138061378\H,0,7.622104769,0
 .4940585089,-1.9733681597\H,0,9.2854245868,0.9418236799,-0.0549730692\
 H,0,8.7634794687,-0.7098293356,0.5438505085\H,0,10.4319178236,-0.02446
 62988,-1.950830241\H,0,9.3404536545,-2.7110593894,-1.5855069326\H,0,10
 .8860177424,-2.4782712264,-2.0276481229\H,0,10.2830805052,-2.759940108
 7,-0.2384912428\H,0,11.3766393055,0.895515985,0.0204098118\H,0,11.4204
 096365,-0.8011614137,0.9077970998\H,0,12.8375917117,-1.4513225516,-1.1
 548377553\H,0,12.6731131412,0.1584007761,-1.7737217059\H,0,13.87337875
 82,1.1309784611,0.2928141101\H,0,14.1128195926,-0.4865450334,1.0216445
 385\H,0,15.4716775692,0.5312565227,-1.4802792967\H,0,15.9351973165,-2.
 184867828,0.0083927038\H,0,14.9677584202,-1.9409186119,-1.736375011\H,
 0,16.7657248521,-1.7820190989,-1.5228287962\H,0,16.213584632,1.3173300
 667,0.90613653\H,0,16.4684709249,-0.2899352783,1.2959680915\H,0,18.400
 9668344,-0.2540719212,-0.4313033259\H,0,17.7728745971,1.1561845126,-1.
 080833827\H,0,18.1617552324,2.2934606141,1.0606380106\H,0,18.646000562
 6,0.9831031498,1.7249957451\H,0,20.6898488172,0.2919301906,0.235569449
 1\H,0,20.1131881373,3.0907698535,-1.0419663813\H,0,21.5727710779,1.911
 3622783,-1.197137695\H,0,19.8342918268,1.8702873189,-1.7581541998\H,0,
 21.1381876723,1.4704026812,2.4403777066\H,0,22.040151908,2.1510755783,
 1.070023656\H,0,20.5404441229,3.2253586531,1.5960867454\\Version=ES64L
 -G16RevA.03\State=1-A\HF=-2933.4787929\RMSD=7.259e-09\PG=C01 [X(C55H72
 Mg1N4O5)]\\@


 GOD DOES NOT PLAY WITH DICE.
               -- A. EINSTEIN
 Job cpu time:       1 days  5 hours 23 minutes 49.9 seconds.
 Elapsed time:       0 days  7 hours 21 minutes 53.4 seconds.
 File lengths (MBytes):  RWF=   6809 Int=      0 D2E=      0 Chk=    181 Scr=      1
 Normal termination of Gaussian 16 at Wed Sep 11 04:05:12 2019.
