 Entering Gaussian System, Link 0=g16
 Input=Geometria-185-.com
 Output=Geometria-185-.log
 Initial command:
 /usr/local/g16/l1.exe "/home/padawan/israel-mol/chlorophyll-a/spectra/emi/Gau-11289.inp" -scrdir="/home/padawan/israel-mol/chlorophyll-a/spectra/emi/"
 Entering Link 1 = /usr/local/g16/l1.exe PID=     11291.
  
 Copyright (c) 1988,1990,1992,1993,1995,1998,2003,2009,2016,
            Gaussian, Inc.  All Rights Reserved.
  
 This is part of the Gaussian(R) 16 program.  It is based on
 the Gaussian(R) 09 system (copyright 2009, Gaussian, Inc.),
 the Gaussian(R) 03 system (copyright 2003, Gaussian, Inc.),
 the Gaussian(R) 98 system (copyright 1998, Gaussian, Inc.),
 the Gaussian(R) 94 system (copyright 1995, Gaussian, Inc.),
 the Gaussian 92(TM) system (copyright 1992, Gaussian, Inc.),
 the Gaussian 90(TM) system (copyright 1990, Gaussian, Inc.),
 the Gaussian 88(TM) system (copyright 1988, Gaussian, Inc.),
 the Gaussian 86(TM) system (copyright 1986, Carnegie Mellon
 University), and the Gaussian 82(TM) system (copyright 1983,
 Carnegie Mellon University). Gaussian is a federally registered
 trademark of Gaussian, Inc.
  
 This software contains proprietary and confidential information,
 including trade secrets, belonging to Gaussian, Inc.
  
 This software is provided under written license and may be
 used, copied, transmitted, or stored only in accord with that
 written license.
  
 The following legend is applicable only to US Government
 contracts under FAR:
  
                    RESTRICTED RIGHTS LEGEND
  
 Use, reproduction and disclosure by the US Government is
 subject to restrictions as set forth in subparagraphs (a)
 and (c) of the Commercial Computer Software - Restricted
 Rights clause in FAR 52.227-19.
  
 Gaussian, Inc.
 340 Quinnipiac St., Bldg. 40, Wallingford CT 06492
  
  
 ---------------------------------------------------------------
 Warning -- This program may not be used in any manner that
 competes with the business of Gaussian, Inc. or will provide
 assistance to any competitor of Gaussian, Inc.  The licensee
 of this program is prohibited from giving any competitor of
 Gaussian, Inc. access to this program.  By using this program,
 the user acknowledges that Gaussian, Inc. is engaged in the
 business of creating and licensing software in the field of
 computational chemistry and represents and warrants to the
 licensee that it is not a competitor of Gaussian, Inc. and that
 it will not use this program in any manner prohibited above.
 ---------------------------------------------------------------
  

 Cite this work as:
 Gaussian 16, Revision A.03,
 M. J. Frisch, G. W. Trucks, H. B. Schlegel, G. E. Scuseria, 
 M. A. Robb, J. R. Cheeseman, G. Scalmani, V. Barone, 
 G. A. Petersson, H. Nakatsuji, X. Li, M. Caricato, A. V. Marenich, 
 J. Bloino, B. G. Janesko, R. Gomperts, B. Mennucci, H. P. Hratchian, 
 J. V. Ortiz, A. F. Izmaylov, J. L. Sonnenberg, D. Williams-Young, 
 F. Ding, F. Lipparini, F. Egidi, J. Goings, B. Peng, A. Petrone, 
 T. Henderson, D. Ranasinghe, V. G. Zakrzewski, J. Gao, N. Rega, 
 G. Zheng, W. Liang, M. Hada, M. Ehara, K. Toyota, R. Fukuda, 
 J. Hasegawa, M. Ishida, T. Nakajima, Y. Honda, O. Kitao, H. Nakai, 
 T. Vreven, K. Throssell, J. A. Montgomery, Jr., J. E. Peralta, 
 F. Ogliaro, M. J. Bearpark, J. J. Heyd, E. N. Brothers, K. N. Kudin, 
 V. N. Staroverov, T. A. Keith, R. Kobayashi, J. Normand, 
 K. Raghavachari, A. P. Rendell, J. C. Burant, S. S. Iyengar, 
 J. Tomasi, M. Cossi, J. M. Millam, M. Klene, C. Adamo, R. Cammi, 
 J. W. Ochterski, R. L. Martin, K. Morokuma, O. Farkas, 
 J. B. Foresman, and D. J. Fox, Gaussian, Inc., Wallingford CT, 2016.
 
 ******************************************
 Gaussian 16:  ES64L-G16RevA.03 25-Dec-2016
                10-Sep-2019 
 ******************************************
 %nproc=4
 Will use up to    4 processors via shared memory.
 %Mem=3GB
 ----------------------------------------------------------------------
 # td=(NStates=1) iop(3/107=0140000000,3/108=0140000000) CAM-B3LYP/6-31
 G(d,p)
 ----------------------------------------------------------------------
 1/38=1,172=1/1;
 2/12=2,17=6,18=5,40=1/2;
 3/5=1,6=6,7=101,11=9,25=1,30=1,74=-40,107=140000000,108=140000000/1,2,3,8;
 4//1;
 5/5=2,38=5/2;
 8/6=1,10=2,108=1/1;
 9/41=1,42=1,70=2/14;
 6/7=2,8=2,9=2,10=2/1;
 99/5=1,9=1/99;
 --
 TD
 --
 Symbolic Z-matrix:
 Charge =  0 Multiplicity = 1
 12                   -7.19729   0.66035   0.10389 
 6                    -4.83402  -1.9141    0.41536 
 6                    -4.74372   2.75922   1.1829 
 6                    -9.3591    3.09479  -0.25708 
 6                    -9.61431  -1.77284  -0.79586 
 7                    -5.15854   0.44114   0.68927 
 6                    -4.39918  -0.69374   0.7516 
 6                    -2.93923  -0.41681   1.25385 
 6                    -3.06851   1.07617   1.73486 
 6                    -4.40592   1.54064   1.11582 
 6                    -2.9208    1.19086   3.30121 
 6                    -1.97195  -0.67882   0.09756 
 6                    -0.45799  -0.53854   0.5188 
 6                     0.53337  -0.5934   -0.58983 
 8                     0.23717  -1.06762  -1.73927 
 8                     1.76396  -0.3428   -0.26492 
 7                    -7.00257   2.59456   0.39273 
 6                    -5.91443   3.35178   0.86373 
 6                    -6.39541   4.76568   0.80258 
 6                    -7.70036   4.80826   0.46542 
 6                    -8.04547   3.43955   0.19713 
 6                    -5.41178   5.88477   1.12019 
 6                    -8.46416   6.02058   0.14632 
 6                    -8.34788   7.21419   0.86798 
 7                    -9.14206   0.65257  -0.42057 
 6                    -9.88463   1.77982  -0.72102 
 6                    -11.12379   1.57323  -1.14551 
 6                    -11.20347   0.26032  -1.3805 
 6                    -9.87994  -0.38525  -0.89574 
 6                    -12.17952   2.56931  -1.56942 
 6                    -12.27807  -0.57455  -1.95788 
 6                    -12.19287  -1.1584   -3.3504 
 7                    -7.2714   -1.36169  -0.23038 
 6                    -8.28066  -2.20115  -0.58321 
 6                    -7.87205  -3.62169  -0.55807 
 6                    -6.56982  -3.55321  -0.16915 
 6                    -6.26386  -2.18148   0.04689 
 6                    -8.63868  -4.85251  -0.85288 
 6                    -5.32309  -4.42501   0.16573 
 8                    -5.26135  -5.60403   0.26909 
 6                    -4.1698   -3.34144   0.56682 
 6                    -3.59105  -3.60387   1.889 
 8                    -3.81377  -3.03303   2.93584 
 8                    -2.8553   -4.76027   1.83689 
 6                    -2.3887   -5.30622   3.04694 
 6                     2.76911  -0.751    -1.18423 
 6                     4.12744  -0.50331  -0.56365 
 6                     5.09654   0.31977  -0.9916 
 6                     5.01898   1.26495  -2.15037 
 6                     6.44409   0.31289  -0.23061 
 6                     7.61921  -0.21549  -1.02356 
 6                     8.93072  -0.19746  -0.08903 
 6                     10.17019  -0.66479  -0.82204 
 6                     10.18494  -2.17563  -1.17596 
 6                     11.46203  -0.29086  -0.01975 
 6                     12.83424  -0.41465  -0.75236 
 6                     13.95268  -0.18702   0.27066 
 6                     15.36167  -0.15992  -0.44191 
 6                     15.68136  -1.67481  -0.82886 
 6                     16.44957   0.43709   0.44374 
 6                     17.85461   0.66515  -0.1906 
 6                     18.82496   1.28902   0.7815 
 6                     20.21132   1.39255   0.12983 
 6                     20.2252   2.3077   -1.1516 
 6                     21.24443   2.00423   1.04542 
 1                    -3.93015   3.57377   1.46395 
 1                    -10.10649   3.92372  -0.20336 
 1                    -10.47677  -2.32408  -1.14966 
 1                    -2.84455  -1.08483   2.10077 
 1                    -2.28694   1.71147   1.50703 
 1                    -1.8666    1.16861   3.473 
 1                    -2.95737   2.15029   3.70083 
 1                    -3.57247   0.57024   3.76986 
 1                    -1.97149  -1.60077  -0.38822 
 1                    -2.19576   0.18548  -0.79437 
 1                    -0.25085   0.437     0.92587 
 1                    -0.1394   -1.29417   1.35772 
 1                    -5.63902   6.91213   0.63823 
 1                    -5.36236   5.94392   2.18287 
 1                    -4.42351   5.47037   0.64008 
 1                    -9.24473   5.88252  -0.66122 
 1                    -8.98205   7.93582   0.30421 
 1                    -7.56891   7.30643   1.50224 
 1                    -12.05705   3.14953  -2.34827 
 1                    -13.07101   1.85195  -1.68224 
 1                    -12.3185   3.34826  -0.79184 
 1                    -12.63155  -1.48148  -1.27045 
 1                    -13.24039   0.18824  -1.64398 
 1                    -12.99529  -2.05744  -3.47831 
 1                    -12.32175  -0.49629  -4.25204 
 1                    -11.2522  -1.77697  -3.37408 
 1                    -9.0365   -4.91715  -1.87004 
 1                    -7.9418   -5.79929  -0.8881 
 1                    -9.53548  -5.04982  -0.38934 
 1                    -3.64182  -3.70905  -0.37008 
 1                    -1.67102  -4.58961   3.70008 
 1                    -3.21633  -5.55373   3.9743 
 1                    -1.98311  -6.10686   2.79617 
 1                     2.51904  -1.75032  -1.57158 
 1                     2.61249   0.05171  -1.88437 
 1                     4.02224  -1.19823   0.30629 
 1                     3.83918   1.67085  -2.40332 
 1                     5.6402    2.30012  -1.93691 
 1                     5.70506   0.73727  -2.84665 
 1                     6.46172   1.23954  -0.04023 
 1                     6.19347  -0.36121   0.807 
 1                     7.55603  -1.28134  -1.41193 
 1                     7.90291   0.40332  -1.88397 
 1                     9.06377   0.68144   0.564 
 1                     8.65724  -0.96454   0.78783 
 1                     10.32907  -0.12169  -1.74058 
 1                     9.35389  -2.59367  -1.91221 
 1                     11.1654  -2.58804  -1.71709 
 1                     10.02419  -2.78752  -0.27252 
 1                     11.27688   0.71298   0.44517 
 1                     11.4954  -1.05304   0.81752 
 1                     13.02233  -1.47577  -1.27212 
 1                     12.68141   0.33308  -1.66404 
 1                     13.75937   0.75038   1.01639 
 1                     14.16437  -1.04454   1.0634 
 1                     15.42816   0.40245  -1.42622 
 1                     15.81909  -2.33084   0.10088 
 1                     14.80359  -2.06327  -1.51667 
 1                     16.60888  -1.96865  -1.43256 
 1                     15.96964   1.22714   0.80426 
 1                     16.79062  -0.1651    1.36435 
 1                     18.34371  -0.24597  -0.59175 
 1                     17.66572   1.48474  -1.05333 
 1                     18.47014   2.41518   1.00163 
 1                     18.95904   0.76134   1.7958 
 1                     20.26758   0.46347  -0.09403 
 1                     19.93418   3.385    -0.84913 
 1                     21.21004   2.39042  -1.78124 
 1                     19.41567   1.86632  -1.90151 
 1                     21.28507   1.71629   2.12996 
 1                     22.20379   1.83791   0.63428 
 1                     21.21817   3.04921   1.31875 
 
 Stoichiometry    C55H72MgN4O5
 Framework group  C1[X(C55H72MgN4O5)]
 Deg. of freedom   405
 Full point group                 C1      NOp   1
 Largest Abelian subgroup         C1      NOp   1
 Largest concise Abelian subgroup C1      NOp   1
                         Standard orientation:                         
 ---------------------------------------------------------------------
 Center     Atomic      Atomic             Coordinates (Angstroms)
 Number     Number       Type             X           Y           Z
 ---------------------------------------------------------------------
      1         12           0       -7.196943    0.671646    0.104976
      2          6           0       -4.837082   -1.905934    0.416446
      3          6           0       -4.740593    2.767266    1.183987
      4          6           0       -9.355527    3.108938   -0.255989
      5          6           0       -9.617176   -1.758346   -0.794768
      6          7           0       -5.158484    0.449733    0.690356
      7          6           0       -4.400626   -0.686153    0.752692
      8          6           0       -2.940309   -0.411155    1.254940
      9          6           0       -3.067612    1.081991    1.735949
     10          6           0       -4.404407    1.548234    1.116905
     11          6           0       -2.919749    1.196491    3.302294
     12          6           0       -1.973379   -0.674449    0.098652
     13          6           0       -0.459234   -0.536167    0.519884
     14          6           0        0.532050   -0.592338   -0.588740
     15          8           0        0.235231   -1.066170   -1.738182
     16          8           0        1.762980   -0.343376   -0.263833
     17          7           0       -6.999656    2.605594    0.393819
     18          6           0       -5.910518    3.361369    0.864821
     19          6           0       -6.389629    4.775909    0.803667
     20          6           0       -7.694522    4.820216    0.466512
     21          6           0       -8.041443    3.451963    0.198217
     22          6           0       -5.404517    5.893691    1.121281
     23          6           0       -8.456708    6.033546    0.147404
     24          6           0       -8.338854    7.226999    0.869070
     25          7           0       -9.141721    0.666438   -0.419480
     26          6           0       -9.882790    1.794669   -0.719936
     27          6           0      -11.122223    1.589716   -1.144421
     28          6           0      -11.203645    0.276919   -1.379409
     29          6           0       -9.880966   -0.370405   -0.894653
     30          6           0      -12.176636    2.587198   -1.568328
     31          6           0      -12.279351   -0.556535   -1.956786
     32          6           0      -12.194924   -1.140490   -3.349307
     33          7           0       -7.273726   -1.350300   -0.229287
     34          6           0       -8.284099   -2.188421   -0.582121
     35          6           0       -7.877367   -3.609504   -0.556977
     36          6           0       -6.575053   -3.542744   -0.168060
     37          6           0       -6.267272   -2.171418    0.047975
     38          6           0       -8.645622   -4.839307   -0.851790
     39          6           0       -5.329471   -4.416192    0.166820
     40          8           0       -5.269291   -5.595294    0.270182
     41          6           0       -4.174751   -3.334155    0.567904
     42          6           0       -3.596351   -3.597348    1.890094
     43          8           0       -3.818316   -3.026216    2.936926
     44          8           0       -2.862130   -4.754727    1.837982
     45          6           0       -2.396250   -5.301285    3.048031
     46          6           0        2.767587   -0.752905   -1.183143
     47          6           0        4.126244   -0.507006   -0.562560
     48          6           0        5.096425    0.314784   -0.990513
     49          6           0        5.020116    1.260072   -2.149280
     50          6           0        6.443970    0.306124   -0.229525
     51          6           0        7.618392   -0.223814   -1.022474
     52          6           0        8.929922   -0.207522   -0.087936
     53          6           0       10.168774   -0.676489   -0.820949
     54          6           0       10.181523   -2.187344   -1.174876
     55          6           0       11.461106   -0.304275   -0.018661
     56          6           0       12.833151   -0.429879   -0.751274
     57          6           0       13.951887   -0.203733    0.271752
     58          6           0       15.360918   -0.178489   -0.440821
     59          6           0       15.678604   -1.693802   -0.827776
     60          6           0       16.449607    0.417075    0.444828
     61          6           0       17.854949    0.643275   -0.189507
     62          6           0       18.826123    1.265857    0.782590
     63          6           0       20.212620    1.367553    0.130919
     64          6           0       20.227703    2.282683   -1.150511
     65          6           0       21.246535    1.977868    1.046507
     66          1           0       -3.925948    3.580734    1.465041
     67          1           0      -10.101819    3.938865   -0.202276
     68          1           0      -10.480369   -2.308442   -1.148574
     69          1           0       -2.846515   -1.079299    2.101855
     70          1           0       -2.285204    1.716263    1.508123
     71          1           0       -1.865580    1.172839    3.474086
     72          1           0       -2.955053    2.155971    3.701917
     73          1           0       -3.572241    0.576735    3.770948
     74          1           0       -1.974139   -1.596396   -0.387128
     75          1           0       -2.196038    0.190146   -0.793277
     76          1           0       -0.250801    0.439098    0.926955
     77          1           0       -0.141645   -1.292221    1.358808
     78          1           0       -5.630392    6.921351    0.639322
     79          1           0       -5.355013    5.952775    2.183959
     80          1           0       -4.416791    5.477986    0.641174
     81          1           0       -9.237468    5.896519   -0.660129
     82          1           0       -8.972063    7.949471    0.305299
     83          1           0       -7.559765    7.318205    1.503328
     84          1           0      -12.053395    3.167257   -2.347182
     85          1           0      -13.069081    1.871020   -1.681155
     86          1           0      -12.314589    3.366331   -0.790751
     87          1           0      -12.634025   -1.462991   -1.269362
     88          1           0      -13.240655    0.207528   -1.642891
     89          1           0      -12.998537   -2.038470   -3.477220
     90          1           0      -12.322928   -0.478212   -4.250955
     91          1           0      -11.255072   -1.760307   -3.372987
     92          1           0       -9.043530   -4.903417   -1.868954
     93          1           0       -7.949999   -5.787003   -0.887010
     94          1           0       -9.542684   -5.035432   -0.388252
     95          1           0       -3.647258   -3.702460   -0.368996
     96          1           0       -1.677625   -4.585632    3.701171
     97          1           0       -3.224207   -5.547709    3.975387
     98          1           0       -1.991721   -6.102467    2.797262
     99          1           0        2.516191   -1.751892   -1.570490
    100          1           0        2.612024    0.050018   -1.883281
    101          1           0        4.020123   -1.201789    0.307381
    102          1           0        3.840858    1.667532   -2.402232
    103          1           0        5.642712    2.294415   -1.935822
    104          1           0        5.705502    0.731485   -2.845562
    105          1           0        6.462830    1.232751   -0.039146
    106          1           0        6.192454   -0.367649    0.808086
    107          1           0        7.553795   -1.289578   -1.410837
    108          1           0        7.902910    0.394620   -1.882880
    109          1           0        9.064137    0.671201    0.565088
    110          1           0        8.655425   -0.974242    0.788924
    111          1           0       10.328368   -0.133597   -1.739490
    112          1           0        9.349924   -2.604286   -1.911121
    113          1           0       11.161430   -2.601059   -1.715998
    114          1           0       10.019966   -2.799028   -0.271436
    115          1           0       11.277284    0.699811    0.446261
    116          1           0       11.493463   -1.066491    0.818607
    117          1           0       13.019836   -1.491251   -1.271031
    118          1           0       12.681314    0.318052   -1.662952
    119          1           0       13.759819    0.733927    1.017475
    120          1           0       14.162450   -1.061529    1.064488
    121          1           0       15.428153    0.383791   -1.425135
    122          1           0       15.815457   -2.350020    0.101971
    123          1           0       14.800318   -2.081104   -1.515584
    124          1           0       16.605729   -1.988871   -1.431471
    125          1           0       15.970721    1.207761    0.805345
    126          1           0       16.789860   -0.185569    1.365444
    127          1           0       18.342840   -0.268493   -0.590661
    128          1           0       17.667145    1.463112   -1.052242
    129          1           0       18.472788    2.392491    1.002721
    130          1           0       18.959504    0.738004    1.796892
    131          1           0       20.267643    0.438398   -0.092945
    132          1           0       19.938115    3.360369   -0.848038
    133          1           0       21.212661    2.364101   -1.780147
    134          1           0       19.417594    1.842374   -1.900420
    135          1           0       21.286796    1.689870    2.131045
    136          1           0       22.205673    1.810280    0.635369
    137          1           0       21.221661    3.022881    1.319838
 ---------------------------------------------------------------------
 Rotational constants (GHZ):           0.0638073           0.0060877           0.0057342
 Standard basis: 6-31G(d,p) (6D, 7F)
 There are  1339 symmetry adapted cartesian basis functions of A   symmetry.
 There are  1339 symmetry adapted basis functions of A   symmetry.
  1339 basis functions,  2348 primitive gaussians,  1339 cartesian basis functions
   241 alpha electrons      241 beta electrons
       nuclear repulsion energy      8736.6719796096 Hartrees.
 NAtoms=  137 NActive=  137 NUniq=  137 SFac= 1.00D+00 NAtFMM=   60 NAOKFM=T Big=T
 Integral buffers will be    131072 words long.
 Raffenetti 1 integral format.
 Two-electron integral symmetry is turned on.
 One-electron integrals computed using PRISM.
 NBasis=  1339 RedAO= T EigKep=  3.17D-04  NBF=  1339
 NBsUse=  1339 1.00D-06 EigRej= -1.00D+00 NBFU=  1339
 ExpMin= 4.21D-02 ExpMax= 1.17D+04 ExpMxC= 1.76D+03 IAcc=3 IRadAn=         5 AccDes= 0.00D+00
 Harris functional with IExCor=20419 and IRadAn=       5 diagonalized for initial guess.
 HarFok:  IExCor=20419 AccDes= 0.00D+00 IRadAn=         5 IDoV= 1 UseB2=F ITyADJ=14
 ICtDFT=  3500011 ScaDFX=  1.000000  1.000000  1.000000  1.000000
 FoFCou: FMM=F IPFlag=           0 FMFlag=      100000 FMFlg1=        2001
         NFxFlg=           0 DoJE=T BraDBF=F KetDBF=T FulRan=T
         wScrn=  0.000000 ICntrl=       500 IOpCl=  0 I1Cent=   200000004 NGrid=           0
         NMat0=    1 NMatS0=      1 NMatT0=    0 NMatD0=    1 NMtDS0=    0 NMtDT0=    0
 Petite list used in FoFCou.
 Requested convergence on RMS density matrix=1.00D-08 within 128 cycles.
 Requested convergence on MAX density matrix=1.00D-06.
 Requested convergence on             energy=1.00D-06.
 No special actions if energy rises.
 SCF Done:  E(RCAM-B3LYP) =  -2933.43185253     A.U. after   15 cycles
            NFock= 15  Conv=0.94D-08     -V/T= 2.0094
 DoSCS=F DFT=T ScalE2(SS,OS)=  1.000000  1.000000
 ExpMin= 4.21D-02 ExpMax= 1.17D+04 ExpMxC= 1.76D+03 IAcc=3 IRadAn=         5 AccDes= 0.00D+00
 HarFok:  IExCor=  205 AccDes= 0.00D+00 IRadAn=         5 IDoV=-2 UseB2=F ITyADJ=14
 ICtDFT= 12500011 ScaDFX=  1.000000  1.000000  1.000000  1.000000
 GSVD:  LWork=       -5313 too small for GESVD, short by       24840 words or       24840 for optimal perf.
 Range of M.O.s used for correlation:    70  1339
 NBasis=  1339 NAE=   241 NBE=   241 NFC=    69 NFV=     0
 NROrb=   1270 NOA=   172 NOB=   172 NVA=  1098 NVB=  1098
 Orbital symmetries:
       Occupied  (A) (A) (A) (A) (A) (A) (A) (A) (A) (A) (A) (A)
                 (A) (A) (A) (A) (A) (A) (A) (A) (A) (A) (A) (A)
                 (A) (A) (A) (A) (A) (A) (A) (A) (A) (A) (A) (A)
                 (A) (A) (A) (A) (A) (A) (A) (A) (A) (A) (A) (A)
                 (A) (A) (A) (A) (A) (A) (A) (A) (A) (A) (A) (A)
                 (A) (A) (A) (A) (A) (A) (A) (A) (A) (A) (A) (A)
                 (A) (A) (A) (A) (A) (A) (A) (A) (A) (A) (A) (A)
                 (A) (A) (A) (A) (A) (A) (A) (A) (A) (A) (A) (A)
                 (A) (A) (A) (A) (A) (A) (A) (A) (A) (A) (A) (A)
                 (A) (A) (A) (A) (A) (A) (A) (A) (A) (A) (A) (A)
                 (A) (A) (A) (A) (A) (A) (A) (A) (A) (A) (A) (A)
                 (A) (A) (A) (A) (A) (A) (A) (A) (A) (A) (A) (A)
                 (A) (A) (A) (A) (A) (A) (A) (A) (A) (A) (A) (A)
                 (A) (A) (A) (A) (A) (A) (A) (A) (A) (A) (A) (A)
                 (A) (A) (A) (A) (A) (A) (A) (A) (A) (A) (A) (A)
                 (A) (A) (A) (A) (A) (A) (A) (A) (A) (A) (A) (A)
                 (A) (A) (A) (A) (A) (A) (A) (A) (A) (A) (A) (A)
                 (A) (A) (A) (A) (A) (A) (A) (A) (A) (A) (A) (A)
                 (A) (A) (A) (A) (A) (A) (A) (A) (A) (A) (A) (A)
                 (A) (A) (A) (A) (A) (A) (A) (A) (A) (A) (A) (A)
                 (A)
       Virtual   (A) (A) (A) (A) (A) (A) (A) (A) (A) (A) (A) (A)
                 (A) (A) (A) (A) (A) (A) (A) (A) (A) (A) (A) (A)
                 (A) (A) (A) (A) (A) (A) (A) (A) (A) (A) (A) (A)
                 (A) (A) (A) (A) (A) (A) (A) (A) (A) (A) (A) (A)
                 (A) (A) (A) (A) (A) (A) (A) (A) (A) (A) (A) (A)
                 (A) (A) (A) (A) (A) (A) (A) (A) (A) (A) (A) (A)
                 (A) (A) (A) (A) (A) (A) (A) (A) (A) (A) (A) (A)
                 (A) (A) (A) (A) (A) (A) (A) (A) (A) (A) (A) (A)
                 (A) (A) (A) (A) (A) (A) (A) (A) (A) (A) (A) (A)
                 (A) (A) (A) (A) (A) (A) (A) (A) (A) (A) (A) (A)
                 (A) (A) (A) (A) (A) (A) (A) (A) (A) (A) (A) (A)
                 (A) (A) (A) (A) (A) (A) (A) (A) (A) (A) (A) (A)
                 (A) (A) (A) (A) (A) (A) (A) (A) (A) (A) (A) (A)
                 (A) (A) (A) (A) (A) (A) (A) (A) (A) (A) (A) (A)
                 (A) (A) (A) (A) (A) (A) (A) (A) (A) (A) (A) (A)
                 (A) (A) (A) (A) (A) (A) (A) (A) (A) (A) (A) (A)
                 (A) (A) (A) (A) (A) (A) (A) (A) (A) (A) (A) (A)
                 (A) (A) (A) (A) (A) (A) (A) (A) (A) (A) (A) (A)
                 (A) (A) (A) (A) (A) (A) (A) (A) (A) (A) (A) (A)
                 (A) (A) (A) (A) (A) (A) (A) (A) (A) (A) (A) (A)
                 (A) (A) (A) (A) (A) (A) (A) (A) (A) (A) (A) (A)
                 (A) (A) (A) (A) (A) (A) (A) (A) (A) (A) (A) (A)
                 (A) (A) (A) (A) (A) (A) (A) (A) (A) (A) (A) (A)
                 (A) (A) (A) (A) (A) (A) (A) (A) (A) (A) (A) (A)
                 (A) (A) (A) (A) (A) (A) (A) (A) (A) (A) (A) (A)
                 (A) (A) (A) (A) (A) (A) (A) (A) (A) (A) (A) (A)
                 (A) (A) (A) (A) (A) (A) (A) (A) (A) (A) (A) (A)
                 (A) (A) (A) (A) (A) (A) (A) (A) (A) (A) (A) (A)
                 (A) (A) (A) (A) (A) (A) (A) (A) (A) (A) (A) (A)
                 (A) (A) (A) (A) (A) (A) (A) (A) (A) (A) (A) (A)
                 (A) (A) (A) (A) (A) (A) (A) (A) (A) (A) (A) (A)
                 (A) (A) (A) (A) (A) (A) (A) (A) (A) (A) (A) (A)
                 (A) (A) (A) (A) (A) (A) (A) (A) (A) (A) (A) (A)
                 (A) (A) (A) (A) (A) (A) (A) (A) (A) (A) (A) (A)
                 (A) (A) (A) (A) (A) (A) (A) (A) (A) (A) (A) (A)
                 (A) (A) (A) (A) (A) (A) (A) (A) (A) (A) (A) (A)
                 (A) (A) (A) (A) (A) (A) (A) (A) (A) (A) (A) (A)
                 (A) (A) (A) (A) (A) (A) (A) (A) (A) (A) (A) (A)
                 (A) (A) (A) (A) (A) (A) (A) (A) (A) (A) (A) (A)
                 (A) (A) (A) (A) (A) (A) (A) (A) (A) (A) (A) (A)
                 (A) (A) (A) (A) (A) (A) (A) (A) (A) (A) (A) (A)
                 (A) (A) (A) (A) (A) (A) (A) (A) (A) (A) (A) (A)
                 (A) (A) (A) (A) (A) (A) (A) (A) (A) (A) (A) (A)
                 (A) (A) (A) (A) (A) (A) (A) (A) (A) (A) (A) (A)
                 (A) (A) (A) (A) (A) (A) (A) (A) (A) (A) (A) (A)
                 (A) (A) (A) (A) (A) (A) (A) (A) (A) (A) (A) (A)
                 (A) (A) (A) (A) (A) (A) (A) (A) (A) (A) (A) (A)
                 (A) (A) (A) (A) (A) (A) (A) (A) (A) (A) (A) (A)
                 (A) (A) (A) (A) (A) (A) (A) (A) (A) (A) (A) (A)
                 (A) (A) (A) (A) (A) (A) (A) (A) (A) (A) (A) (A)
                 (A) (A) (A) (A) (A) (A) (A) (A) (A) (A) (A) (A)
                 (A) (A) (A) (A) (A) (A) (A) (A) (A) (A) (A) (A)
                 (A) (A) (A) (A) (A) (A) (A) (A) (A) (A) (A) (A)
                 (A) (A) (A) (A) (A) (A) (A) (A) (A) (A) (A) (A)
                 (A) (A) (A) (A) (A) (A) (A) (A) (A) (A) (A) (A)
                 (A) (A) (A) (A) (A) (A) (A) (A) (A) (A) (A) (A)
                 (A) (A) (A) (A) (A) (A) (A) (A) (A) (A) (A) (A)
                 (A) (A) (A) (A) (A) (A) (A) (A) (A) (A) (A) (A)
                 (A) (A) (A) (A) (A) (A) (A) (A) (A) (A) (A) (A)
                 (A) (A) (A) (A) (A) (A) (A) (A) (A) (A) (A) (A)
                 (A) (A) (A) (A) (A) (A) (A) (A) (A) (A) (A) (A)
                 (A) (A) (A) (A) (A) (A) (A) (A) (A) (A) (A) (A)
                 (A) (A) (A) (A) (A) (A) (A) (A) (A) (A) (A) (A)
                 (A) (A) (A) (A) (A) (A) (A) (A) (A) (A) (A) (A)
                 (A) (A) (A) (A) (A) (A) (A) (A) (A) (A) (A) (A)
                 (A) (A) (A) (A) (A) (A) (A) (A) (A) (A) (A) (A)
                 (A) (A) (A) (A) (A) (A) (A) (A) (A) (A) (A) (A)
                 (A) (A) (A) (A) (A) (A) (A) (A) (A) (A) (A) (A)
                 (A) (A) (A) (A) (A) (A) (A) (A) (A) (A) (A) (A)
                 (A) (A) (A) (A) (A) (A) (A) (A) (A) (A) (A) (A)
                 (A) (A) (A) (A) (A) (A) (A) (A) (A) (A) (A) (A)
                 (A) (A) (A) (A) (A) (A) (A) (A) (A) (A) (A) (A)
                 (A) (A) (A) (A) (A) (A) (A) (A) (A) (A) (A) (A)
                 (A) (A) (A) (A) (A) (A) (A) (A) (A) (A) (A) (A)
                 (A) (A) (A) (A) (A) (A) (A) (A) (A) (A) (A) (A)
                 (A) (A) (A) (A) (A) (A) (A) (A) (A) (A) (A) (A)
                 (A) (A) (A) (A) (A) (A) (A) (A) (A) (A) (A) (A)
                 (A) (A) (A) (A) (A) (A) (A) (A) (A) (A) (A) (A)
                 (A) (A) (A) (A) (A) (A) (A) (A) (A) (A) (A) (A)
                 (A) (A) (A) (A) (A) (A) (A) (A) (A) (A) (A) (A)
                 (A) (A) (A) (A) (A) (A) (A) (A) (A) (A) (A) (A)
                 (A) (A) (A) (A) (A) (A) (A) (A) (A) (A) (A) (A)
                 (A) (A) (A) (A) (A) (A) (A) (A) (A) (A) (A) (A)
                 (A) (A) (A) (A) (A) (A) (A) (A) (A) (A) (A) (A)
                 (A) (A) (A) (A) (A) (A) (A) (A) (A) (A) (A) (A)
                 (A) (A) (A) (A) (A) (A) (A) (A) (A) (A) (A) (A)
                 (A) (A) (A) (A) (A) (A) (A) (A) (A) (A) (A) (A)
                 (A) (A) (A) (A) (A) (A) (A) (A) (A) (A) (A) (A)
                 (A) (A) (A) (A) (A) (A) (A) (A) (A) (A) (A) (A)
                 (A) (A) (A) (A) (A) (A) (A) (A) (A) (A) (A) (A)
                 (A) (A) (A) (A) (A) (A) (A) (A) (A) (A) (A) (A)
                 (A) (A) (A) (A) (A) (A)
     4 initial guesses have been made.
 Convergence on wavefunction:    0.001000000000000
 Iteration     1 Dimension     4 NMult     0 NNew      4
 CISAX will form     4 AO SS matrices at one time.
 Iteration     2 Dimension     6 NMult     4 NNew      2
 Iteration     3 Dimension     8 NMult     6 NNew      2
 Iteration     4 Dimension    10 NMult     8 NNew      2
 Iteration     5 Dimension    12 NMult    10 NNew      2
 Iteration     6 Dimension    14 NMult    12 NNew      2
 Iteration     7 Dimension    16 NMult    14 NNew      2
 Iteration     8 Dimension    18 NMult    16 NNew      2
 ***********************************************************************
 Excited states from <AA,BB:AA,BB> singles matrix:
 ***********************************************************************
 
 Ground to excited state transition densities written to RWF  633
 Ground to excited state transition electric dipole moments (Au):
       state          X           Y           Z        Dip. S.      Osc.
         1         0.1632     -2.1491     -0.1803      4.6777      0.2364
 Ground to excited state transition velocity dipole moments (Au):
       state          X           Y           Z        Dip. S.      Osc.
         1        -0.0129      0.1585      0.0149      0.0255      0.2243
 Ground to excited state transition magnetic dipole moments (Au):
       state          X           Y           Z
         1         0.4585      0.3780     -3.6168
 Ground to excited state transition velocity quadrupole moments (Au):
       state          XX          YY          ZZ          XY          XZ          YZ
         1         0.4125      0.2322      0.0368     -2.0304     -0.1381      0.1436
 <0|del|b> * <b|rxdel|0> + <0|del|b> * <b|delr+rdel|0>
 Rotatory Strengths (R) in cgs (10**-40 erg-esu-cm/Gauss)
       state          XX          YY          ZZ    R(velocity)    E-M Angle
         1       -11.5717   -146.5223    158.4855      0.1305       90.00
 1/2[<0|r|b>*<b|rxdel|0> + (<0|rxdel|b>*<b|r|0>)*]
 Rotatory Strengths (R) in cgs (10**-40 erg-esu-cm/Gauss)
       state          XX          YY          ZZ     R(length)
         1       -52.9244    574.5045   -461.0793     20.1669
  1/2[<0|del|b>*<b|r|0> + (<0|r|b>*<b|del|0>)*] (Au)
       state          X           Y           Z        Dip. S.   Osc.(frdel)
         1        -0.0021     -0.3407     -0.0027      0.3454      0.2303

 Excitation energies and oscillator strengths:
 
 Excited State   1:      Singlet-A      2.0631 eV  600.97 nm  f=0.2364  <S**2>=0.000
     240 -> 243       -0.23289
     241 -> 242        0.66462
 This state for optimization and/or second-order correction.
 Total Energy, E(TD-HF/TD-DFT) =  -2933.35603648    
 Copying the excited state density for this state as the 1-particle RhoCI density.
 SavETr:  write IOETrn=   770 NScale= 10 NData=  16 NLR=1 NState=    1 LETran=      28.
 Hyperfine terms turned off by default for NAtoms > 100.

 **********************************************************************

            Population analysis using the SCF density.

 **********************************************************************

 Orbital symmetries:
       Occupied  (A) (A) (A) (A) (A) (A) (A) (A) (A) (A) (A) (A)
                 (A) (A) (A) (A) (A) (A) (A) (A) (A) (A) (A) (A)
                 (A) (A) (A) (A) (A) (A) (A) (A) (A) (A) (A) (A)
                 (A) (A) (A) (A) (A) (A) (A) (A) (A) (A) (A) (A)
                 (A) (A) (A) (A) (A) (A) (A) (A) (A) (A) (A) (A)
                 (A) (A) (A) (A) (A) (A) (A) (A) (A) (A) (A) (A)
                 (A) (A) (A) (A) (A) (A) (A) (A) (A) (A) (A) (A)
                 (A) (A) (A) (A) (A) (A) (A) (A) (A) (A) (A) (A)
                 (A) (A) (A) (A) (A) (A) (A) (A) (A) (A) (A) (A)
                 (A) (A) (A) (A) (A) (A) (A) (A) (A) (A) (A) (A)
                 (A) (A) (A) (A) (A) (A) (A) (A) (A) (A) (A) (A)
                 (A) (A) (A) (A) (A) (A) (A) (A) (A) (A) (A) (A)
                 (A) (A) (A) (A) (A) (A) (A) (A) (A) (A) (A) (A)
                 (A) (A) (A) (A) (A) (A) (A) (A) (A) (A) (A) (A)
                 (A) (A) (A) (A) (A) (A) (A) (A) (A) (A) (A) (A)
                 (A) (A) (A) (A) (A) (A) (A) (A) (A) (A) (A) (A)
                 (A) (A) (A) (A) (A) (A) (A) (A) (A) (A) (A) (A)
                 (A) (A) (A) (A) (A) (A) (A) (A) (A) (A) (A) (A)
                 (A) (A) (A) (A) (A) (A) (A) (A) (A) (A) (A) (A)
                 (A) (A) (A) (A) (A) (A) (A) (A) (A) (A) (A) (A)
                 (A)
       Virtual   (A) (A) (A) (A) (A) (A) (A) (A) (A) (A) (A) (A)
                 (A) (A) (A) (A) (A) (A) (A) (A) (A) (A) (A) (A)
                 (A) (A) (A) (A) (A) (A) (A) (A) (A) (A) (A) (A)
                 (A) (A) (A) (A) (A) (A) (A) (A) (A) (A) (A) (A)
                 (A) (A) (A) (A) (A) (A) (A) (A) (A) (A) (A) (A)
                 (A) (A) (A) (A) (A) (A) (A) (A) (A) (A) (A) (A)
                 (A) (A) (A) (A) (A) (A) (A) (A) (A) (A) (A) (A)
                 (A) (A) (A) (A) (A) (A) (A) (A) (A) (A) (A) (A)
                 (A) (A) (A) (A) (A) (A) (A) (A) (A) (A) (A) (A)
                 (A) (A) (A) (A) (A) (A) (A) (A) (A) (A) (A) (A)
                 (A) (A) (A) (A) (A) (A) (A) (A) (A) (A) (A) (A)
                 (A) (A) (A) (A) (A) (A) (A) (A) (A) (A) (A) (A)
                 (A) (A) (A) (A) (A) (A) (A) (A) (A) (A) (A) (A)
                 (A) (A) (A) (A) (A) (A) (A) (A) (A) (A) (A) (A)
                 (A) (A) (A) (A) (A) (A) (A) (A) (A) (A) (A) (A)
                 (A) (A) (A) (A) (A) (A) (A) (A) (A) (A) (A) (A)
                 (A) (A) (A) (A) (A) (A) (A) (A) (A) (A) (A) (A)
                 (A) (A) (A) (A) (A) (A) (A) (A) (A) (A) (A) (A)
                 (A) (A) (A) (A) (A) (A) (A) (A) (A) (A) (A) (A)
                 (A) (A) (A) (A) (A) (A) (A) (A) (A) (A) (A) (A)
                 (A) (A) (A) (A) (A) (A) (A) (A) (A) (A) (A) (A)
                 (A) (A) (A) (A) (A) (A) (A) (A) (A) (A) (A) (A)
                 (A) (A) (A) (A) (A) (A) (A) (A) (A) (A) (A) (A)
                 (A) (A) (A) (A) (A) (A) (A) (A) (A) (A) (A) (A)
                 (A) (A) (A) (A) (A) (A) (A) (A) (A) (A) (A) (A)
                 (A) (A) (A) (A) (A) (A) (A) (A) (A) (A) (A) (A)
                 (A) (A) (A) (A) (A) (A) (A) (A) (A) (A) (A) (A)
                 (A) (A) (A) (A) (A) (A) (A) (A) (A) (A) (A) (A)
                 (A) (A) (A) (A) (A) (A) (A) (A) (A) (A) (A) (A)
                 (A) (A) (A) (A) (A) (A) (A) (A) (A) (A) (A) (A)
                 (A) (A) (A) (A) (A) (A) (A) (A) (A) (A) (A) (A)
                 (A) (A) (A) (A) (A) (A) (A) (A) (A) (A) (A) (A)
                 (A) (A) (A) (A) (A) (A) (A) (A) (A) (A) (A) (A)
                 (A) (A) (A) (A) (A) (A) (A) (A) (A) (A) (A) (A)
                 (A) (A) (A) (A) (A) (A) (A) (A) (A) (A) (A) (A)
                 (A) (A) (A) (A) (A) (A) (A) (A) (A) (A) (A) (A)
                 (A) (A) (A) (A) (A) (A) (A) (A) (A) (A) (A) (A)
                 (A) (A) (A) (A) (A) (A) (A) (A) (A) (A) (A) (A)
                 (A) (A) (A) (A) (A) (A) (A) (A) (A) (A) (A) (A)
                 (A) (A) (A) (A) (A) (A) (A) (A) (A) (A) (A) (A)
                 (A) (A) (A) (A) (A) (A) (A) (A) (A) (A) (A) (A)
                 (A) (A) (A) (A) (A) (A) (A) (A) (A) (A) (A) (A)
                 (A) (A) (A) (A) (A) (A) (A) (A) (A) (A) (A) (A)
                 (A) (A) (A) (A) (A) (A) (A) (A) (A) (A) (A) (A)
                 (A) (A) (A) (A) (A) (A) (A) (A) (A) (A) (A) (A)
                 (A) (A) (A) (A) (A) (A) (A) (A) (A) (A) (A) (A)
                 (A) (A) (A) (A) (A) (A) (A) (A) (A) (A) (A) (A)
                 (A) (A) (A) (A) (A) (A) (A) (A) (A) (A) (A) (A)
                 (A) (A) (A) (A) (A) (A) (A) (A) (A) (A) (A) (A)
                 (A) (A) (A) (A) (A) (A) (A) (A) (A) (A) (A) (A)
                 (A) (A) (A) (A) (A) (A) (A) (A) (A) (A) (A) (A)
                 (A) (A) (A) (A) (A) (A) (A) (A) (A) (A) (A) (A)
                 (A) (A) (A) (A) (A) (A) (A) (A) (A) (A) (A) (A)
                 (A) (A) (A) (A) (A) (A) (A) (A) (A) (A) (A) (A)
                 (A) (A) (A) (A) (A) (A) (A) (A) (A) (A) (A) (A)
                 (A) (A) (A) (A) (A) (A) (A) (A) (A) (A) (A) (A)
                 (A) (A) (A) (A) (A) (A) (A) (A) (A) (A) (A) (A)
                 (A) (A) (A) (A) (A) (A) (A) (A) (A) (A) (A) (A)
                 (A) (A) (A) (A) (A) (A) (A) (A) (A) (A) (A) (A)
                 (A) (A) (A) (A) (A) (A) (A) (A) (A) (A) (A) (A)
                 (A) (A) (A) (A) (A) (A) (A) (A) (A) (A) (A) (A)
                 (A) (A) (A) (A) (A) (A) (A) (A) (A) (A) (A) (A)
                 (A) (A) (A) (A) (A) (A) (A) (A) (A) (A) (A) (A)
                 (A) (A) (A) (A) (A) (A) (A) (A) (A) (A) (A) (A)
                 (A) (A) (A) (A) (A) (A) (A) (A) (A) (A) (A) (A)
                 (A) (A) (A) (A) (A) (A) (A) (A) (A) (A) (A) (A)
                 (A) (A) (A) (A) (A) (A) (A) (A) (A) (A) (A) (A)
                 (A) (A) (A) (A) (A) (A) (A) (A) (A) (A) (A) (A)
                 (A) (A) (A) (A) (A) (A) (A) (A) (A) (A) (A) (A)
                 (A) (A) (A) (A) (A) (A) (A) (A) (A) (A) (A) (A)
                 (A) (A) (A) (A) (A) (A) (A) (A) (A) (A) (A) (A)
                 (A) (A) (A) (A) (A) (A) (A) (A) (A) (A) (A) (A)
                 (A) (A) (A) (A) (A) (A) (A) (A) (A) (A) (A) (A)
                 (A) (A) (A) (A) (A) (A) (A) (A) (A) (A) (A) (A)
                 (A) (A) (A) (A) (A) (A) (A) (A) (A) (A) (A) (A)
                 (A) (A) (A) (A) (A) (A) (A) (A) (A) (A) (A) (A)
                 (A) (A) (A) (A) (A) (A) (A) (A) (A) (A) (A) (A)
                 (A) (A) (A) (A) (A) (A) (A) (A) (A) (A) (A) (A)
                 (A) (A) (A) (A) (A) (A) (A) (A) (A) (A) (A) (A)
                 (A) (A) (A) (A) (A) (A) (A) (A) (A) (A) (A) (A)
                 (A) (A) (A) (A) (A) (A) (A) (A) (A) (A) (A) (A)
                 (A) (A) (A) (A) (A) (A) (A) (A) (A) (A) (A) (A)
                 (A) (A) (A) (A) (A) (A) (A) (A) (A) (A) (A) (A)
                 (A) (A) (A) (A) (A) (A) (A) (A) (A) (A) (A) (A)
                 (A) (A) (A) (A) (A) (A) (A) (A) (A) (A) (A) (A)
                 (A) (A) (A) (A) (A) (A) (A) (A) (A) (A) (A) (A)
                 (A) (A) (A) (A) (A) (A) (A) (A) (A) (A) (A) (A)
                 (A) (A) (A) (A) (A) (A) (A) (A) (A) (A) (A) (A)
                 (A) (A) (A) (A) (A) (A) (A) (A) (A) (A) (A) (A)
                 (A) (A) (A) (A) (A) (A) (A) (A) (A) (A) (A) (A)
                 (A) (A) (A) (A) (A) (A) (A) (A) (A) (A) (A) (A)
                 (A) (A) (A) (A) (A) (A)
 The electronic state is 1-A.
 Alpha  occ. eigenvalues --  -46.79020 -19.22021 -19.22014 -19.18039 -19.16916
 Alpha  occ. eigenvalues --  -19.14374 -14.36684 -14.35535 -14.35047 -14.34965
 Alpha  occ. eigenvalues --  -10.34704 -10.33497 -10.32300 -10.26982 -10.26323
 Alpha  occ. eigenvalues --  -10.25333 -10.25294 -10.25202 -10.25158 -10.25092
 Alpha  occ. eigenvalues --  -10.24939 -10.24801 -10.24718 -10.24361 -10.24245
 Alpha  occ. eigenvalues --  -10.24049 -10.23724 -10.23677 -10.23616 -10.23537
 Alpha  occ. eigenvalues --  -10.23468 -10.23363 -10.23288 -10.23240 -10.23108
 Alpha  occ. eigenvalues --  -10.23060 -10.22782 -10.22722 -10.22635 -10.22596
 Alpha  occ. eigenvalues --  -10.22572 -10.22484 -10.22425 -10.22412 -10.22293
 Alpha  occ. eigenvalues --  -10.22155 -10.22105 -10.22103 -10.21945 -10.21841
 Alpha  occ. eigenvalues --  -10.21800 -10.21700 -10.21666 -10.21635 -10.21611
 Alpha  occ. eigenvalues --  -10.21515 -10.21468 -10.21178 -10.21102 -10.20780
 Alpha  occ. eigenvalues --  -10.20697 -10.20519 -10.19955 -10.19561 -10.19375
 Alpha  occ. eigenvalues --   -3.07817  -1.82746  -1.82310  -1.82220  -1.14283
 Alpha  occ. eigenvalues --   -1.12926  -1.09127  -1.04509  -1.00295  -0.99919
 Alpha  occ. eigenvalues --   -0.98360  -0.97891  -0.96616  -0.86392  -0.86231
 Alpha  occ. eigenvalues --   -0.85212  -0.84470  -0.84355  -0.84188  -0.83712
 Alpha  occ. eigenvalues --   -0.83416  -0.82873  -0.82427  -0.82182  -0.81218
 Alpha  occ. eigenvalues --   -0.79834  -0.79112  -0.78747  -0.78073  -0.77289
 Alpha  occ. eigenvalues --   -0.76589  -0.76316  -0.75445  -0.74612  -0.73482
 Alpha  occ. eigenvalues --   -0.73329  -0.72729  -0.72177  -0.70929  -0.70686
 Alpha  occ. eigenvalues --   -0.70510  -0.69347  -0.69146  -0.68698  -0.68027
 Alpha  occ. eigenvalues --   -0.67707  -0.65787  -0.64878  -0.64199  -0.63504
 Alpha  occ. eigenvalues --   -0.63028  -0.62576  -0.61096  -0.60335  -0.60041
 Alpha  occ. eigenvalues --   -0.59208  -0.59007  -0.58764  -0.58228  -0.58110
 Alpha  occ. eigenvalues --   -0.57777  -0.56431  -0.56036  -0.55681  -0.55543
 Alpha  occ. eigenvalues --   -0.55072  -0.54481  -0.53947  -0.53445  -0.53208
 Alpha  occ. eigenvalues --   -0.52695  -0.51145  -0.50966  -0.50438  -0.50302
 Alpha  occ. eigenvalues --   -0.50164  -0.49986  -0.49864  -0.49061  -0.48976
 Alpha  occ. eigenvalues --   -0.48945  -0.48367  -0.48157  -0.48015  -0.47818
 Alpha  occ. eigenvalues --   -0.47593  -0.47251  -0.47195  -0.47146  -0.46975
 Alpha  occ. eigenvalues --   -0.46766  -0.46395  -0.46207  -0.45835  -0.45638
 Alpha  occ. eigenvalues --   -0.45318  -0.45126  -0.44970  -0.44771  -0.44533
 Alpha  occ. eigenvalues --   -0.44171  -0.44085  -0.43871  -0.43710  -0.43499
 Alpha  occ. eigenvalues --   -0.43374  -0.43144  -0.42877  -0.42716  -0.42706
 Alpha  occ. eigenvalues --   -0.42435  -0.42413  -0.42009  -0.41731  -0.41435
 Alpha  occ. eigenvalues --   -0.41297  -0.40965  -0.40659  -0.40366  -0.40251
 Alpha  occ. eigenvalues --   -0.40179  -0.39980  -0.39752  -0.39605  -0.39437
 Alpha  occ. eigenvalues --   -0.39302  -0.39187  -0.39051  -0.38765  -0.38734
 Alpha  occ. eigenvalues --   -0.38590  -0.38473  -0.38289  -0.38153  -0.37764
 Alpha  occ. eigenvalues --   -0.37526  -0.37359  -0.37236  -0.37083  -0.36783
 Alpha  occ. eigenvalues --   -0.36572  -0.36511  -0.36147  -0.36008  -0.35855
 Alpha  occ. eigenvalues --   -0.35636  -0.35448  -0.34644  -0.34555  -0.34493
 Alpha  occ. eigenvalues --   -0.34283  -0.34157  -0.33897  -0.33860  -0.33667
 Alpha  occ. eigenvalues --   -0.33443  -0.33010  -0.32018  -0.31982  -0.31860
 Alpha  occ. eigenvalues --   -0.31679  -0.31422  -0.31090  -0.30722  -0.30350
 Alpha  occ. eigenvalues --   -0.30235  -0.29956  -0.28513  -0.28157  -0.27671
 Alpha  occ. eigenvalues --   -0.27172  -0.26945  -0.26564  -0.25125  -0.21567
 Alpha  occ. eigenvalues --   -0.19807
 Alpha virt. eigenvalues --   -0.06679  -0.03853   0.00707   0.01830   0.03010
 Alpha virt. eigenvalues --    0.03513   0.04613   0.04881   0.05578   0.05904
 Alpha virt. eigenvalues --    0.06780   0.08940   0.09009   0.09534   0.09569
 Alpha virt. eigenvalues --    0.09723   0.10501   0.10568   0.10702   0.10850
 Alpha virt. eigenvalues --    0.11156   0.11994   0.12059   0.12114   0.12123
 Alpha virt. eigenvalues --    0.12403   0.12424   0.12736   0.12967   0.13300
 Alpha virt. eigenvalues --    0.13606   0.13712   0.13976   0.14050   0.14234
 Alpha virt. eigenvalues --    0.14256   0.14630   0.14911   0.15123   0.15283
 Alpha virt. eigenvalues --    0.15601   0.15689   0.15838   0.16058   0.16147
 Alpha virt. eigenvalues --    0.16284   0.16333   0.16580   0.16671   0.16687
 Alpha virt. eigenvalues --    0.16799   0.17008   0.17123   0.17194   0.17394
 Alpha virt. eigenvalues --    0.17612   0.17873   0.18138   0.18206   0.18292
 Alpha virt. eigenvalues --    0.18418   0.18653   0.18812   0.19105   0.19231
 Alpha virt. eigenvalues --    0.19316   0.19613   0.19682   0.19916   0.20223
 Alpha virt. eigenvalues --    0.20528   0.20761   0.21122   0.21231   0.21540
 Alpha virt. eigenvalues --    0.21736   0.21774   0.21872   0.22365   0.22415
 Alpha virt. eigenvalues --    0.22510   0.22672   0.22809   0.23045   0.23185
 Alpha virt. eigenvalues --    0.23285   0.23291   0.23515   0.23698   0.23886
 Alpha virt. eigenvalues --    0.24197   0.24267   0.24524   0.24746   0.24831
 Alpha virt. eigenvalues --    0.25084   0.25284   0.25389   0.25606   0.25723
 Alpha virt. eigenvalues --    0.26084   0.26219   0.26411   0.26482   0.26952
 Alpha virt. eigenvalues --    0.27190   0.27387   0.27575   0.27596   0.27990
 Alpha virt. eigenvalues --    0.28463   0.28744   0.28798   0.29000   0.29124
 Alpha virt. eigenvalues --    0.29344   0.29545   0.29603   0.29737   0.30266
 Alpha virt. eigenvalues --    0.30568   0.30768   0.30927   0.31449   0.31582
 Alpha virt. eigenvalues --    0.31818   0.32200   0.32445   0.32673   0.33022
 Alpha virt. eigenvalues --    0.33165   0.33341   0.34078   0.34876   0.35881
 Alpha virt. eigenvalues --    0.35928   0.36557   0.37099   0.37666   0.38079
 Alpha virt. eigenvalues --    0.38540   0.38701   0.38932   0.39468   0.39574
 Alpha virt. eigenvalues --    0.40302   0.40382   0.41197   0.42055   0.43403
 Alpha virt. eigenvalues --    0.43897   0.44357   0.44840   0.45826   0.46869
 Alpha virt. eigenvalues --    0.47007   0.47806   0.48550   0.49362   0.50193
 Alpha virt. eigenvalues --    0.50580   0.51029   0.51149   0.51306   0.51897
 Alpha virt. eigenvalues --    0.52089   0.52251   0.52465   0.52489   0.52795
 Alpha virt. eigenvalues --    0.52976   0.53529   0.53749   0.54130   0.54271
 Alpha virt. eigenvalues --    0.54373   0.54606   0.54790   0.55276   0.55500
 Alpha virt. eigenvalues --    0.55527   0.55767   0.56211   0.56281   0.56519
 Alpha virt. eigenvalues --    0.56792   0.56995   0.57027   0.57128   0.57332
 Alpha virt. eigenvalues --    0.57576   0.57615   0.57745   0.57967   0.58329
 Alpha virt. eigenvalues --    0.58805   0.59014   0.59207   0.59463   0.59727
 Alpha virt. eigenvalues --    0.60026   0.60203   0.60557   0.60753   0.60847
 Alpha virt. eigenvalues --    0.61141   0.61180   0.61695   0.61885   0.62166
 Alpha virt. eigenvalues --    0.62257   0.62718   0.62834   0.63022   0.63503
 Alpha virt. eigenvalues --    0.63690   0.63734   0.64095   0.64316   0.65117
 Alpha virt. eigenvalues --    0.65192   0.65242   0.65688   0.65779   0.66046
 Alpha virt. eigenvalues --    0.66358   0.66397   0.66849   0.67094   0.67363
 Alpha virt. eigenvalues --    0.67465   0.67678   0.68020   0.68343   0.68437
 Alpha virt. eigenvalues --    0.68539   0.68596   0.68956   0.69187   0.69613
 Alpha virt. eigenvalues --    0.69797   0.69986   0.70217   0.70589   0.70710
 Alpha virt. eigenvalues --    0.71055   0.71267   0.71327   0.71512   0.72202
 Alpha virt. eigenvalues --    0.72419   0.72548   0.72735   0.73586   0.73634
 Alpha virt. eigenvalues --    0.73665   0.74007   0.74448   0.74490   0.74750
 Alpha virt. eigenvalues --    0.74954   0.75075   0.75454   0.75683   0.75862
 Alpha virt. eigenvalues --    0.76337   0.76555   0.76875   0.77194   0.77386
 Alpha virt. eigenvalues --    0.77494   0.77632   0.78097   0.78179   0.78625
 Alpha virt. eigenvalues --    0.78805   0.79171   0.79360   0.79549   0.79919
 Alpha virt. eigenvalues --    0.79995   0.80323   0.80531   0.80599   0.80789
 Alpha virt. eigenvalues --    0.80875   0.81017   0.81323   0.81411   0.81600
 Alpha virt. eigenvalues --    0.82140   0.82349   0.82516   0.82781   0.82988
 Alpha virt. eigenvalues --    0.83135   0.83345   0.83731   0.84014   0.84164
 Alpha virt. eigenvalues --    0.84243   0.84453   0.84620   0.84815   0.85046
 Alpha virt. eigenvalues --    0.85395   0.85490   0.85842   0.86080   0.86286
 Alpha virt. eigenvalues --    0.86584   0.86671   0.86964   0.87202   0.87468
 Alpha virt. eigenvalues --    0.87770   0.87886   0.87998   0.88200   0.88250
 Alpha virt. eigenvalues --    0.88271   0.88729   0.88930   0.89094   0.89157
 Alpha virt. eigenvalues --    0.89459   0.89545   0.89571   0.90060   0.90202
 Alpha virt. eigenvalues --    0.90474   0.90583   0.90682   0.90744   0.91041
 Alpha virt. eigenvalues --    0.91289   0.91585   0.91823   0.92013   0.92207
 Alpha virt. eigenvalues --    0.92439   0.92533   0.92822   0.92971   0.93203
 Alpha virt. eigenvalues --    0.93230   0.93722   0.94058   0.94223   0.94340
 Alpha virt. eigenvalues --    0.94374   0.94753   0.94892   0.94981   0.95265
 Alpha virt. eigenvalues --    0.95826   0.96282   0.96670   0.96761   0.97150
 Alpha virt. eigenvalues --    0.97315   0.97591   0.97669   0.97824   0.97879
 Alpha virt. eigenvalues --    0.98007   0.98178   0.98445   0.98980   0.99159
 Alpha virt. eigenvalues --    0.99381   0.99680   0.99928   1.00024   1.00260
 Alpha virt. eigenvalues --    1.00416   1.00438   1.00825   1.01196   1.01440
 Alpha virt. eigenvalues --    1.01607   1.02110   1.02372   1.02604   1.02779
 Alpha virt. eigenvalues --    1.03096   1.03319   1.03606   1.03952   1.04081
 Alpha virt. eigenvalues --    1.04183   1.04797   1.04924   1.05131   1.05606
 Alpha virt. eigenvalues --    1.05680   1.06328   1.06564   1.06934   1.07326
 Alpha virt. eigenvalues --    1.07685   1.08164   1.08668   1.09018   1.09113
 Alpha virt. eigenvalues --    1.09550   1.09907   1.10817   1.11089   1.12349
 Alpha virt. eigenvalues --    1.12651   1.12725   1.13176   1.13548   1.14518
 Alpha virt. eigenvalues --    1.14873   1.15593   1.15829   1.16668   1.16890
 Alpha virt. eigenvalues --    1.17273   1.18034   1.18607   1.18781   1.19325
 Alpha virt. eigenvalues --    1.19808   1.19939   1.20402   1.21434   1.21648
 Alpha virt. eigenvalues --    1.21994   1.22079   1.22815   1.22875   1.23141
 Alpha virt. eigenvalues --    1.23796   1.24825   1.25430   1.25580   1.25832
 Alpha virt. eigenvalues --    1.26365   1.27664   1.28526   1.29391   1.29904
 Alpha virt. eigenvalues --    1.30075   1.30173   1.30849   1.31179   1.32502
 Alpha virt. eigenvalues --    1.32758   1.33098   1.33318   1.33872   1.34174
 Alpha virt. eigenvalues --    1.34452   1.34795   1.35835   1.35970   1.36342
 Alpha virt. eigenvalues --    1.36673   1.37500   1.37942   1.38075   1.38553
 Alpha virt. eigenvalues --    1.38751   1.39593   1.39750   1.40315   1.40853
 Alpha virt. eigenvalues --    1.41181   1.41559   1.41852   1.42755   1.43069
 Alpha virt. eigenvalues --    1.43783   1.44017   1.44516   1.44912   1.45296
 Alpha virt. eigenvalues --    1.45919   1.47033   1.47653   1.47847   1.48069
 Alpha virt. eigenvalues --    1.49231   1.49735   1.49762   1.50453   1.50695
 Alpha virt. eigenvalues --    1.50820   1.51265   1.51740   1.51969   1.52565
 Alpha virt. eigenvalues --    1.53019   1.53613   1.53970   1.54813   1.55566
 Alpha virt. eigenvalues --    1.55680   1.55804   1.56672   1.56999   1.57402
 Alpha virt. eigenvalues --    1.57873   1.58367   1.58895   1.59041   1.59686
 Alpha virt. eigenvalues --    1.60134   1.60740   1.61346   1.61628   1.61737
 Alpha virt. eigenvalues --    1.62206   1.62586   1.62872   1.63023   1.63531
 Alpha virt. eigenvalues --    1.63701   1.63992   1.64816   1.65246   1.65372
 Alpha virt. eigenvalues --    1.65779   1.65994   1.66248   1.66501   1.67097
 Alpha virt. eigenvalues --    1.67443   1.68323   1.68573   1.69173   1.69515
 Alpha virt. eigenvalues --    1.70149   1.70509   1.70555   1.70803   1.71802
 Alpha virt. eigenvalues --    1.72136   1.72408   1.73136   1.73344   1.73515
 Alpha virt. eigenvalues --    1.73861   1.74279   1.74932   1.75452   1.75818
 Alpha virt. eigenvalues --    1.76312   1.76601   1.77019   1.77661   1.77960
 Alpha virt. eigenvalues --    1.78258   1.78696   1.78792   1.79076   1.79310
 Alpha virt. eigenvalues --    1.79432   1.79766   1.80250   1.80485   1.80915
 Alpha virt. eigenvalues --    1.81218   1.81440   1.81505   1.82148   1.82187
 Alpha virt. eigenvalues --    1.82804   1.82947   1.83113   1.83607   1.84017
 Alpha virt. eigenvalues --    1.84277   1.84440   1.84907   1.84971   1.85376
 Alpha virt. eigenvalues --    1.85535   1.85632   1.86034   1.86186   1.86555
 Alpha virt. eigenvalues --    1.86725   1.86773   1.86857   1.87106   1.87159
 Alpha virt. eigenvalues --    1.87893   1.88048   1.88192   1.88301   1.89255
 Alpha virt. eigenvalues --    1.89447   1.89812   1.90215   1.90272   1.90652
 Alpha virt. eigenvalues --    1.90687   1.91248   1.91398   1.91635   1.91758
 Alpha virt. eigenvalues --    1.92072   1.92209   1.92499   1.92947   1.93124
 Alpha virt. eigenvalues --    1.93427   1.93593   1.93811   1.94239   1.94294
 Alpha virt. eigenvalues --    1.94425   1.94769   1.95198   1.95386   1.95497
 Alpha virt. eigenvalues --    1.95861   1.95919   1.96397   1.96470   1.96814
 Alpha virt. eigenvalues --    1.97053   1.97506   1.98141   1.98239   1.98650
 Alpha virt. eigenvalues --    1.98917   1.99758   1.99892   2.00153   2.00484
 Alpha virt. eigenvalues --    2.00572   2.00820   2.01023   2.01107   2.01222
 Alpha virt. eigenvalues --    2.01681   2.01973   2.02245   2.02619   2.03043
 Alpha virt. eigenvalues --    2.03369   2.03774   2.03887   2.04013   2.04609
 Alpha virt. eigenvalues --    2.04631   2.04912   2.05322   2.05365   2.05877
 Alpha virt. eigenvalues --    2.06097   2.06267   2.06593   2.07212   2.07580
 Alpha virt. eigenvalues --    2.07644   2.07821   2.09014   2.09037   2.09159
 Alpha virt. eigenvalues --    2.09730   2.09787   2.09868   2.10084   2.10299
 Alpha virt. eigenvalues --    2.10425   2.10572   2.11179   2.11271   2.11672
 Alpha virt. eigenvalues --    2.11907   2.12132   2.12354   2.12778   2.12941
 Alpha virt. eigenvalues --    2.13045   2.13679   2.14093   2.14169   2.14653
 Alpha virt. eigenvalues --    2.14941   2.15518   2.15605   2.15700   2.15988
 Alpha virt. eigenvalues --    2.16491   2.16677   2.17246   2.17487   2.18045
 Alpha virt. eigenvalues --    2.18326   2.18889   2.19467   2.19623   2.20119
 Alpha virt. eigenvalues --    2.20554   2.21157   2.21305   2.21667   2.21982
 Alpha virt. eigenvalues --    2.22122   2.22327   2.22686   2.23178   2.23790
 Alpha virt. eigenvalues --    2.24136   2.24337   2.24645   2.24887   2.25561
 Alpha virt. eigenvalues --    2.26225   2.26278   2.26569   2.26823   2.27124
 Alpha virt. eigenvalues --    2.27556   2.27575   2.27815   2.28262   2.28786
 Alpha virt. eigenvalues --    2.28832   2.29167   2.29825   2.29882   2.30160
 Alpha virt. eigenvalues --    2.30633   2.30731   2.31256   2.31341   2.31457
 Alpha virt. eigenvalues --    2.31531   2.32148   2.32350   2.32665   2.32763
 Alpha virt. eigenvalues --    2.33029   2.33229   2.33667   2.33768   2.34141
 Alpha virt. eigenvalues --    2.34332   2.34591   2.34716   2.34913   2.35303
 Alpha virt. eigenvalues --    2.36253   2.36615   2.36677   2.37166   2.37443
 Alpha virt. eigenvalues --    2.37836   2.38672   2.38725   2.38853   2.39293
 Alpha virt. eigenvalues --    2.39614   2.39689   2.40371   2.40430   2.40663
 Alpha virt. eigenvalues --    2.40760   2.41161   2.41720   2.42095   2.42311
 Alpha virt. eigenvalues --    2.42498   2.42828   2.42881   2.43478   2.44045
 Alpha virt. eigenvalues --    2.44380   2.44405   2.44597   2.45035   2.45385
 Alpha virt. eigenvalues --    2.46011   2.46222   2.46488   2.46681   2.47058
 Alpha virt. eigenvalues --    2.47236   2.48203   2.48386   2.48665   2.49172
 Alpha virt. eigenvalues --    2.49372   2.50154   2.50591   2.50827   2.51182
 Alpha virt. eigenvalues --    2.51547   2.52194   2.52657   2.52777   2.52867
 Alpha virt. eigenvalues --    2.53282   2.53782   2.54036   2.54214   2.55035
 Alpha virt. eigenvalues --    2.55725   2.56303   2.56691   2.57063   2.57422
 Alpha virt. eigenvalues --    2.57692   2.58212   2.58267   2.58300   2.58672
 Alpha virt. eigenvalues --    2.59132   2.59353   2.59730   2.60111   2.60462
 Alpha virt. eigenvalues --    2.61020   2.61133   2.61544   2.61984   2.62252
 Alpha virt. eigenvalues --    2.62759   2.62819   2.63132   2.63452   2.64005
 Alpha virt. eigenvalues --    2.64425   2.64951   2.65236   2.65502   2.65613
 Alpha virt. eigenvalues --    2.66194   2.66450   2.66974   2.67024   2.67255
 Alpha virt. eigenvalues --    2.68003   2.68333   2.68717   2.68795   2.68976
 Alpha virt. eigenvalues --    2.69222   2.69541   2.70141   2.70195   2.70493
 Alpha virt. eigenvalues --    2.70755   2.71335   2.71469   2.72155   2.72575
 Alpha virt. eigenvalues --    2.73093   2.73183   2.73337   2.73804   2.73937
 Alpha virt. eigenvalues --    2.73980   2.74070   2.74750   2.74870   2.75424
 Alpha virt. eigenvalues --    2.75519   2.76400   2.76528   2.76655   2.76694
 Alpha virt. eigenvalues --    2.77003   2.77287   2.77384   2.77944   2.78253
 Alpha virt. eigenvalues --    2.78686   2.78937   2.79162   2.79551   2.79918
 Alpha virt. eigenvalues --    2.80368   2.80517   2.80829   2.80929   2.81148
 Alpha virt. eigenvalues --    2.81570   2.82491   2.82574   2.82892   2.83227
 Alpha virt. eigenvalues --    2.83532   2.83668   2.84754   2.85184   2.85318
 Alpha virt. eigenvalues --    2.85695   2.86225   2.86284   2.86370   2.86529
 Alpha virt. eigenvalues --    2.86801   2.87301   2.87679   2.87748   2.88153
 Alpha virt. eigenvalues --    2.88237   2.88482   2.88909   2.89067   2.89119
 Alpha virt. eigenvalues --    2.89335   2.89355   2.90000   2.90198   2.90859
 Alpha virt. eigenvalues --    2.91054   2.91251   2.91673   2.92684   2.92929
 Alpha virt. eigenvalues --    2.93079   2.93597   2.94453   2.94588   2.95094
 Alpha virt. eigenvalues --    2.96052   2.96666   2.97221   2.97741   2.97964
 Alpha virt. eigenvalues --    2.98577   2.99098   3.00081   3.00455   3.01090
 Alpha virt. eigenvalues --    3.01137   3.02683   3.03134   3.03587   3.04221
 Alpha virt. eigenvalues --    3.04407   3.04892   3.06028   3.06528   3.06918
 Alpha virt. eigenvalues --    3.07317   3.07486   3.08196   3.08333   3.08564
 Alpha virt. eigenvalues --    3.08603   3.09609   3.10205   3.10425   3.12029
 Alpha virt. eigenvalues --    3.12539   3.13613   3.14753   3.14813   3.16302
 Alpha virt. eigenvalues --    3.17058   3.17678   3.18226   3.18416   3.18552
 Alpha virt. eigenvalues --    3.19354   3.21119   3.21783   3.21853   3.23638
 Alpha virt. eigenvalues --    3.24417   3.24606   3.25782   3.26320   3.27363
 Alpha virt. eigenvalues --    3.28029   3.28187   3.29174   3.30544   3.31141
 Alpha virt. eigenvalues --    3.31507   3.31652   3.31677   3.32565   3.34289
 Alpha virt. eigenvalues --    3.34463   3.35488   3.35756   3.36584   3.36898
 Alpha virt. eigenvalues --    3.37862   3.38071   3.38241   3.38303   3.39729
 Alpha virt. eigenvalues --    3.39798   3.40537   3.41325   3.41413   3.42538
 Alpha virt. eigenvalues --    3.42965   3.43947   3.44072   3.44898   3.45219
 Alpha virt. eigenvalues --    3.45416   3.45894   3.46045   3.48304   3.48572
 Alpha virt. eigenvalues --    3.48680   3.49180   3.50563   3.51582   3.52762
 Alpha virt. eigenvalues --    3.54858   3.55592   3.55714   3.58292   3.58365
 Alpha virt. eigenvalues --    3.58531   3.60433   3.60603   3.60774   3.63858
 Alpha virt. eigenvalues --    3.64108   3.64423   3.69638   3.71041   3.74580
 Alpha virt. eigenvalues --    3.74956   3.86202   3.88135   3.91202   4.03399
 Alpha virt. eigenvalues --    4.05001   4.10243   4.17348   4.17560   4.18736
 Alpha virt. eigenvalues --    4.19985   4.20285   4.20986   4.23622   4.24124
 Alpha virt. eigenvalues --    4.25182   4.25475   4.27131   4.27930   4.27966
 Alpha virt. eigenvalues --    4.31034   4.31931   4.32336   4.33753   4.35303
 Alpha virt. eigenvalues --    4.36982   4.39673   4.39849   4.40253   4.41383
 Alpha virt. eigenvalues --    4.42575   4.43009   4.44225   4.45687   4.45993
 Alpha virt. eigenvalues --    4.47393   4.48232   4.48307   4.50470   4.53218
 Alpha virt. eigenvalues --    4.53713   4.54123   4.54336   4.54751   4.56070
 Alpha virt. eigenvalues --    4.56712   4.57451   4.58064   4.59636   4.63497
 Alpha virt. eigenvalues --    4.63614   4.64882   4.65723   4.66865   4.69209
 Alpha virt. eigenvalues --    4.70169   4.71803   4.73525   4.74406   4.76369
 Alpha virt. eigenvalues --    4.79067   4.79891   4.80432   4.82559   4.84204
 Alpha virt. eigenvalues --    4.86112   4.88187   4.94003
          Condensed to atoms (all electrons):
 Mulliken charges:
               1
     1  Mg   0.811789
     2  C    0.033995
     3  C   -0.223072
     4  C   -0.189510
     5  C   -0.145913
     6  N   -0.657700
     7  C    0.296019
     8  C   -0.153336
     9  C   -0.138746
    10  C    0.393905
    11  C   -0.320159
    12  C   -0.146772
    13  C   -0.261678
    14  C    0.580969
    15  O   -0.520994
    16  O   -0.434988
    17  N   -0.739512
    18  C    0.317937
    19  C   -0.000760
    20  C    0.039217
    21  C    0.319588
    22  C   -0.375469
    23  C   -0.103145
    24  C   -0.223232
    25  N   -0.666752
    26  C    0.246332
    27  C    0.099822
    28  C   -0.000253
    29  C    0.278251
    30  C   -0.348249
    31  C   -0.255861
    32  C   -0.296998
    33  N   -0.673009
    34  C    0.242613
    35  C    0.035113
    36  C    0.003199
    37  C    0.289904
    38  C   -0.409161
    39  C    0.357450
    40  O   -0.406131
    41  C   -0.304666
    42  C    0.647279
    43  O   -0.474107
    44  O   -0.443422
    45  C   -0.049208
    46  C    0.005780
    47  C   -0.119458
    48  C    0.083549
    49  C   -0.351151
    50  C   -0.175322
    51  C   -0.183886
    52  C   -0.178854
    53  C   -0.044274
    54  C   -0.311671
    55  C   -0.180250
    56  C   -0.161748
    57  C   -0.161646
    58  C   -0.059563
    59  C   -0.311754
    60  C   -0.150641
    61  C   -0.180950
    62  C   -0.162850
    63  C   -0.018886
    64  C   -0.305154
    65  C   -0.321889
    66  H    0.070999
    67  H    0.081491
    68  H    0.089421
    69  H    0.131803
    70  H    0.092046
    71  H    0.107888
    72  H    0.106658
    73  H    0.135910
    74  H    0.135581
    75  H    0.084624
    76  H    0.122075
    77  H    0.125721
    78  H    0.114050
    79  H    0.137591
    80  H    0.103752
    81  H    0.093140
    82  H    0.104607
    83  H    0.101601
    84  H    0.139638
    85  H    0.097134
    86  H    0.107325
    87  H    0.098374
    88  H    0.064174
    89  H    0.085371
    90  H    0.118293
    91  H    0.114132
    92  H    0.121374
    93  H    0.133264
    94  H    0.136471
    95  H    0.169794
    96  H    0.097820
    97  H    0.089168
    98  H    0.125851
    99  H    0.138314
   100  H    0.105790
   101  H    0.087267
   102  H    0.112071
   103  H    0.092636
   104  H    0.142290
   105  H    0.114491
   106  H    0.076499
   107  H    0.107367
   108  H    0.098068
   109  H    0.094982
   110  H    0.071109
   111  H    0.085092
   112  H    0.083581
   113  H    0.089802
   114  H    0.108568
   115  H    0.087296
   116  H    0.084746
   117  H    0.091074
   118  H    0.082291
   119  H    0.071995
   120  H    0.094224
   121  H    0.083602
   122  H    0.094756
   123  H    0.082441
   124  H    0.093261
   125  H    0.098953
   126  H    0.068462
   127  H    0.094211
   128  H    0.081323
   129  H    0.064780
   130  H    0.084136
   131  H    0.092818
   132  H    0.096734
   133  H    0.091797
   134  H    0.083194
   135  H    0.080745
   136  H    0.106716
   137  H    0.105414
 Sum of Mulliken charges =  -0.00000
 Mulliken charges with hydrogens summed into heavy atoms:
               1
     1  Mg   0.811789
     2  C    0.033995
     3  C   -0.152073
     4  C   -0.108019
     5  C   -0.056492
     6  N   -0.657700
     7  C    0.296019
     8  C   -0.021533
     9  C   -0.046700
    10  C    0.393905
    11  C    0.030297
    12  C    0.073432
    13  C   -0.013882
    14  C    0.580969
    15  O   -0.520994
    16  O   -0.434988
    17  N   -0.739512
    18  C    0.317937
    19  C   -0.000760
    20  C    0.039217
    21  C    0.319588
    22  C   -0.020077
    23  C   -0.010005
    24  C   -0.017024
    25  N   -0.666752
    26  C    0.246332
    27  C    0.099822
    28  C   -0.000253
    29  C    0.278251
    30  C   -0.004152
    31  C   -0.093312
    32  C    0.020799
    33  N   -0.673009
    34  C    0.242613
    35  C    0.035113
    36  C    0.003199
    37  C    0.289904
    38  C   -0.018051
    39  C    0.357450
    40  O   -0.406131
    41  C   -0.134873
    42  C    0.647279
    43  O   -0.474107
    44  O   -0.443422
    45  C    0.263631
    46  C    0.249884
    47  C   -0.032191
    48  C    0.083549
    49  C   -0.004154
    50  C    0.015668
    51  C    0.021548
    52  C   -0.012763
    53  C    0.040818
    54  C   -0.029720
    55  C   -0.008209
    56  C    0.011617
    57  C    0.004573
    58  C    0.024039
    59  C   -0.041296
    60  C    0.016774
    61  C   -0.005416
    62  C   -0.013934
    63  C    0.073932
    64  C   -0.033428
    65  C   -0.029013
 Electronic spatial extent (au):  <R**2>=         179884.8028
 Charge=             -0.0000 electrons
 Dipole moment (field-independent basis, Debye):
    X=              2.3755    Y=              3.5752    Z=             -0.0649  Tot=              4.2929
 Quadrupole moment (field-independent basis, Debye-Ang):
   XX=           -349.1393   YY=           -388.9048   ZZ=           -398.8869
   XY=            -12.6337   XZ=             18.4554   YZ=              0.2737
 Traceless Quadrupole moment (field-independent basis, Debye-Ang):
   XX=             29.8377   YY=             -9.9278   ZZ=            -19.9099
   XY=            -12.6337   XZ=             18.4554   YZ=              0.2737
 Octapole moment (field-independent basis, Debye-Ang**2):
  XXX=           -368.5711  YYY=             63.5236  ZZZ=             26.9112  XYY=            -70.2418
  XXY=            -19.3396  XXZ=           -226.7304  XZZ=            -15.2384  YZZ=            -23.5457
  YYZ=             15.9995  XYZ=            -14.2235
 Hexadecapole moment (field-independent basis, Debye-Ang**3):
 XXXX=        -221527.5887 YYYY=         -17717.6020 ZZZZ=          -4359.9734 XXXY=           -204.9162
 XXXZ=           2833.4880 YYYX=           -594.4914 YYYZ=           -188.1757 ZZZX=             83.3774
 ZZZY=           -117.8044 XXYY=         -40285.9962 XXZZ=         -38979.0798 YYZZ=          -3528.0702
 XXYZ=            232.5435 YYXZ=            332.3577 ZZXY=             84.8316
 N-N= 8.736671979610D+03 E-N=-2.429710145997D+04  KE= 2.905989481521D+03

 Test job not archived.
 1\1\GINC-RYZEN-SSD3\SP\RCAM-B3LYP TD-FC\6-31G(d,p)\C55H72Mg1N4O5\PADAW
 AN\10-Sep-2019\0\\# td=(NStates=1) iop(3/107=0140000000,3/108=01400000
 00) CAM-B3LYP/6-31G(d,p)\\TD\\0,1\Mg,0,-7.1972944211,0.6603544189,0.10
 38867587\C,0,-4.8340222187,-1.9140986405,0.4153569381\C,0,-4.743720402
 6,2.7592246404,1.182898395\C,0,-9.3591026748,3.0947870317,-0.257078183
 1\C,0,-9.6143075288,-1.7728390496,-0.7958563905\N,0,-5.1585428855,0.44
 11402046,0.6892667507\C,0,-4.3991821655,-0.6937405173,0.751603055\C,0,
 -2.9392301436,-0.416810079,1.2538510542\C,0,-3.0685100779,1.0761663182
 ,1.7348597653\C,0,-4.4059208268,1.540638715,1.1158159755\C,0,-2.920798
 2606,1.1908619055,3.3012054351\C,0,-1.971952925,-0.6788238716,0.097563
 5667\C,0,-0.4579915084,-0.5385371017,0.5187952618\C,0,0.5333652597,-0.
 5933959615,-0.589828773\O,0,0.2371739342,-1.0676205398,-1.7392713202\O
 ,0,1.7639649949,-0.3428042188,-0.2649218798\N,0,-7.0025679002,2.594562
 6662,0.3927301971\C,0,-5.914431587,3.3517789453,0.8637322493\C,0,-6.39
 54144498,4.7656834319,0.8025785166\C,0,-7.7003648218,4.8082626315,0.46
 54226687\C,0,-8.0454740749,3.4395508939,0.1971277114\C,0,-5.4117832122
 ,5.8847679505,1.1201921744\C,0,-8.4641564236,6.0205823278,0.146315244\
 C,0,-8.3478831983,7.2141905688,0.8679808574\N,0,-9.1420632474,0.652572
 2516,-0.4205686308\C,0,-9.8846259489,1.7798213064,-0.721024916\C,0,-11
 .1237863313,1.5732267672,-1.1455094106\C,0,-11.2034698342,0.2603235782
 ,-1.3804980781\C,0,-9.8799355972,-0.3852487183,-0.8957417755\C,0,-12.1
 795188896,2.5693121726,-1.5694163943\C,0,-12.2780716001,-0.5745535792,
 -1.9578751181\C,0,-12.192871196,-1.1583960319,-3.3503956908\N,0,-7.271
 4001024,-1.3616910048,-0.2303757127\C,0,-8.2806623925,-2.2011486604,-0
 .5832099009\C,0,-7.8720492447,-3.6216927207,-0.5580661064\C,0,-6.56982
 4773,-3.5532083029,-0.1691489966\C,0,-6.2638601177,-2.1814761034,0.046
 8865241\C,0,-8.6386762071,-4.8525113495,-0.852878671\C,0,-5.3230877717
 ,-4.425006064,0.1657315473\O,0,-5.261347127,-5.6040272597,0.2690928579
 \C,0,-4.1698014827,-3.3414415916,0.5668150031\C,0,-3.5910532821,-3.603
 8683295,1.889004869\O,0,-3.8137741608,-3.033030661,2.9358369419\O,0,-2
 .8553008829,-4.760274646,1.8368927268\C,0,-2.3886978268,-5.3062158275,
 3.0469420946\C,0,2.7691132317,-0.7510033892,-1.1842319404\C,0,4.127443
 6296,-0.5033055985,-0.5636489277\C,0,5.0965351448,0.3197685049,-0.9916
 020372\C,0,5.0189756232,1.2649541707,-2.1503691719\C,0,6.4440906878,0.
 3128919052,-0.2306135858\C,0,7.6192133739,-0.215490097,-1.023562685\C,
 0,8.9307207837,-0.1974615623,-0.0890250049\C,0,10.1701924798,-0.664788
 142,-0.8220379238\C,0,10.1849417708,-2.1756254424,-1.1759645625\C,0,11
 .4620308669,-0.2908639775,-0.0197499375\C,0,12.8342411596,-0.414651498
 6,-0.7523627414\C,0,13.9526765395,-0.1870244167,0.2706634779\C,0,15.36
 16721582,-0.1599150751,-0.4419098435\C,0,15.6813644074,-1.6748058689,-
 0.8288647128\C,0,16.4495719499,0.4370902263,0.4437391086\C,0,17.854613
 049,0.6651502446,-0.1905955866\C,0,18.8249629149,1.2890169802,0.781501
 4068\C,0,20.2113239368,1.3925486874,0.129829689\C,0,20.2251953653,2.30
 76980749,-1.1515998559\C,0,21.24442951,2.0042321231,1.0454184818\H,0,-
 3.9301533788,3.5737706285,1.463952491\H,0,-10.1064927726,3.923724647,-
 0.2033648627\H,0,-10.4767721013,-2.3240779429,-1.1496627857\H,0,-2.844
 5517424,-1.0848286856,2.1007665674\H,0,-2.2869421605,1.7114732084,1.50
 70343524\H,0,-1.8665997464,1.168605967,3.4729976372\H,0,-2.9573728464,
 2.1502942522,3.700828105\H,0,-3.5724700475,0.5702421785,3.7698586711\H
 ,0,-1.9714922682,-1.6007707479,-0.3882168288\H,0,-2.1957559446,0.18547
 61674,-0.7943661712\H,0,-0.2508505138,0.4370032876,0.9258664496\H,0,-0
 .1394023605,-1.2941701836,1.3577192302\H,0,-5.6390180795,6.9121287249,
 0.6382336547\H,0,-5.3623577071,5.9439172731,2.1828702995\H,0,-4.423507
 1953,5.4703713051,0.6400847411\H,0,-9.2447347333,5.8825216342,-0.66121
 74744\H,0,-8.9820472684,7.9358233033,0.3042101967\H,0,-7.5689148236,7.
 3064274791,1.5022391842\H,0,-12.0570461776,3.1495341005,-2.3482706586\
 H,0,-13.0710143991,1.8519539378,-1.6822439526\H,0,-12.318502883,3.3482
 621603,-0.7918396235\H,0,-12.6315451194,-1.4814790707,-1.270450546\H,0
 ,-13.2403863377,0.1882361131,-1.6439801524\H,0,-12.9952947287,-2.05743
 9406,-3.478308789\H,0,-12.321752581,-0.4962881001,-4.2520441828\H,0,-1
 1.2522000594,-1.7769687241,-3.3740756858\H,0,-9.0364982684,-4.91714821
 56,-1.8700430673\H,0,-7.9417985651,-5.7992858819,-0.888098765\H,0,-9.5
 354777268,-5.0498234307,-0.3893412028\H,0,-3.6418217007,-3.7090475104,
 -0.3700847466\H,0,-1.6710204896,-4.5896111745,3.7000817258\H,0,-3.2163
 280701,-5.5537348984,3.9742984675\H,0,-1.9831088314,-6.1068614709,2.79
 61729784\H,0,2.5190399588,-1.750321655,-1.5715786066\H,0,2.6124876901,
 0.0517132561,-1.8843694944\H,0,4.022242711,-1.1982282366,0.3062920294\
 H,0,3.8391792294,1.670852628,-2.4033208178\H,0,5.6402009523,2.30012043
 59,-1.9369111295\H,0,5.7050600745,0.7372749184,-2.846650922\H,0,6.4617
 243563,1.239543935,-0.0402344095\H,0,6.1934672188,-0.361213458,0.80699
 68952\H,0,7.5560277256,-1.2813388069,-1.4119259498\H,0,7.9029128498,0.
 4033194349,-1.8839692198\H,0,9.0637724215,0.6814376413,0.563998828\H,0
 ,8.6572388447,-0.9645448072,0.7878349069\H,0,10.3290675386,-0.12168602
 08,-1.7405792159\H,0,9.3538949986,-2.5936676503,-1.9122096029\H,0,11.1
 653956802,-2.5880422035,-1.7170870668\H,0,10.0241946166,-2.787522867,-
 0.2725246462\H,0,11.2768793295,0.7129777312,0.445172288\H,0,11.4953971
 352,-1.0530366013,0.8175180719\H,0,13.0223301855,-1.4757749968,-1.2721
 194834\H,0,12.6814139713,0.3330782438,-1.6640407378\H,0,13.759367357,0
 .7503804013,1.0163864673\H,0,14.1643747481,-1.044540833,1.0633987139\H
 ,0,15.4281632177,0.4024536424,-1.4262238912\H,0,15.8190857054,-2.33084
 24254,0.1008819527\H,0,14.8035920036,-2.0632708471,-1.5166730408\H,0,1
 6.6088791675,-1.9686477618,-1.4325597693\H,0,15.9696402375,1.227141047
 8,0.8042563419\H,0,16.7906231401,-0.1651027951,1.3643549302\H,0,18.343
 7111088,-0.2459711111,-0.5917493705\H,0,17.665723882,1.4847373678,-1.0
 533310767\H,0,18.4701360705,2.4151827863,1.00163211\H,0,18.9590418667,
 0.7613409736,1.7958028258\H,0,20.26757659,0.4634673443,-0.0940335112\H
 ,0,19.9341802365,3.3849992764,-0.8491270974\H,0,21.2100448053,2.390420
 1841,-1.7812361048\H,0,19.4156699646,1.8663169219,-1.9015085353\H,0,21
 .2850723607,1.7162872696,2.1299566645\H,0,22.2037882716,1.8379142621,0
 .6342800816\H,0,21.2181718957,3.0492110383,1.3187490116\\Version=ES64L
 -G16RevA.03\State=1-A\HF=-2933.4318525\RMSD=9.426e-09\PG=C01 [X(C55H72
 Mg1N4O5)]\\@


 FROM WHENCE IT HAPPENS, THAT THEY WHICH TRUST TO BOOKS, DO AS THEY THAT CAST UP MANY LITTLE SUMMS INTO GREATER,
 WITHOUT CONSIDERING WETHER THOSE LITTLE SUMMES WERE RIGHTLY CAST UP OR NOT...
 AND AT LAST FINDING THE ERROUR VISIBLE, AND NOT MISTRUSTING THEIR FIRST GROUNDS,
 KNOW NOT WHICH WAY TO CLEERE THEMSELVES...
 BUT SPEND TIME IN FLUTTERING OVER THEIR BOOKES....
 AS BIRDS THAT ENTERING BY THE CHIMNEY, AND FINDING THEMSELVES INCLOSED IN A CHAMBER,
 FLUTTER AT THE FALSE LIGHT OF A GLASSE WINDOW,
 FOR WANT OF WIT TO CONSIDER WHICH WAY THEY CAME IN....
           LEVIATHAN
 Job cpu time:       1 days  0 hours 43 minutes 49.1 seconds.
 Elapsed time:       0 days  6 hours 11 minutes 43.9 seconds.
 File lengths (MBytes):  RWF=   6809 Int=      0 D2E=      0 Chk=    181 Scr=      1
 Normal termination of Gaussian 16 at Tue Sep 10 17:36:15 2019.
