 Entering Gaussian System, Link 0=g16
 Input=Geometria-182-.com
 Output=Geometria-182-.log
 Initial command:
 /usr/local/g09/l1.exe "/home/padawan/israel-mol/chlorophyll-a/spectra/emi/Gau-117036.inp" -scrdir="/home/padawan/israel-mol/chlorophyll-a/spectra/emi/"
 Entering Link 1 = /usr/local/g09/l1.exe PID=    117038.
  
 Copyright (c) 1988,1990,1992,1993,1995,1998,2003,2009,2013,
            Gaussian, Inc.  All Rights Reserved.
  
 This is part of the Gaussian(R) 09 program.  It is based on
 the Gaussian(R) 03 system (copyright 2003, Gaussian, Inc.),
 the Gaussian(R) 98 system (copyright 1998, Gaussian, Inc.),
 the Gaussian(R) 94 system (copyright 1995, Gaussian, Inc.),
 the Gaussian 92(TM) system (copyright 1992, Gaussian, Inc.),
 the Gaussian 90(TM) system (copyright 1990, Gaussian, Inc.),
 the Gaussian 88(TM) system (copyright 1988, Gaussian, Inc.),
 the Gaussian 86(TM) system (copyright 1986, Carnegie Mellon
 University), and the Gaussian 82(TM) system (copyright 1983,
 Carnegie Mellon University). Gaussian is a federally registered
 trademark of Gaussian, Inc.
  
 This software contains proprietary and confidential information,
 including trade secrets, belonging to Gaussian, Inc.
  
 This software is provided under written license and may be
 used, copied, transmitted, or stored only in accord with that
 written license.
  
 The following legend is applicable only to US Government
 contracts under FAR:
  
                    RESTRICTED RIGHTS LEGEND
  
 Use, reproduction and disclosure by the US Government is
 subject to restrictions as set forth in subparagraphs (a)
 and (c) of the Commercial Computer Software - Restricted
 Rights clause in FAR 52.227-19.
  
 Gaussian, Inc.
 340 Quinnipiac St., Bldg. 40, Wallingford CT 06492
  
  
 ---------------------------------------------------------------
 Warning -- This program may not be used in any manner that
 competes with the business of Gaussian, Inc. or will provide
 assistance to any competitor of Gaussian, Inc.  The licensee
 of this program is prohibited from giving any competitor of
 Gaussian, Inc. access to this program.  By using this program,
 the user acknowledges that Gaussian, Inc. is engaged in the
 business of creating and licensing software in the field of
 computational chemistry and represents and warrants to the
 licensee that it is not a competitor of Gaussian, Inc. and that
 it will not use this program in any manner prohibited above.
 ---------------------------------------------------------------
  

 Cite this work as:
 Gaussian 09, Revision D.01,
 M. J. Frisch, G. W. Trucks, H. B. Schlegel, G. E. Scuseria, 
 M. A. Robb, J. R. Cheeseman, G. Scalmani, V. Barone, B. Mennucci, 
 G. A. Petersson, H. Nakatsuji, M. Caricato, X. Li, H. P. Hratchian, 
 A. F. Izmaylov, J. Bloino, G. Zheng, J. L. Sonnenberg, M. Hada, 
 M. Ehara, K. Toyota, R. Fukuda, J. Hasegawa, M. Ishida, T. Nakajima, 
 Y. Honda, O. Kitao, H. Nakai, T. Vreven, J. A. Montgomery, Jr., 
 J. E. Peralta, F. Ogliaro, M. Bearpark, J. J. Heyd, E. Brothers, 
 K. N. Kudin, V. N. Staroverov, T. Keith, R. Kobayashi, J. Normand, 
 K. Raghavachari, A. Rendell, J. C. Burant, S. S. Iyengar, J. Tomasi, 
 M. Cossi, N. Rega, J. M. Millam, M. Klene, J. E. Knox, J. B. Cross, 
 V. Bakken, C. Adamo, J. Jaramillo, R. Gomperts, R. E. Stratmann, 
 O. Yazyev, A. J. Austin, R. Cammi, C. Pomelli, J. W. Ochterski, 
 R. L. Martin, K. Morokuma, V. G. Zakrzewski, G. A. Voth, 
 P. Salvador, J. J. Dannenberg, S. Dapprich, A. D. Daniels, 
 O. Farkas, J. B. Foresman, J. V. Ortiz, J. Cioslowski, 
 and D. J. Fox, Gaussian, Inc., Wallingford CT, 2013.
 
 ******************************************
 Gaussian 09:  ES64L-G09RevD.01 24-Apr-2013
                 4-Jul-2019 
 ******************************************
 %nproc=4
 Will use up to    4 processors via shared memory.
 %Mem=2GB
 -------------------------------------
 # td=(NStates=1) CAM-B3LYP/6-31G(d,p)
 -------------------------------------
 1/38=1/1;
 2/12=2,17=6,18=5,40=1/2;
 3/5=1,6=6,7=101,11=9,16=1,25=1,30=1,74=-40/1,2,8,3;
 4//1;
 5/5=2,38=5/2;
 8/6=1,10=2,108=1/1;
 9/41=1,42=1,70=2/14;
 6/7=2,8=2,9=2,10=2/1;
 99/5=1,9=1/99;
 --
 TD
 --
 Symbolic Z-matrix:
 Charge =  0 Multiplicity = 1
 12                   -7.10427   0.59207   0.10466 
 6                    -4.88032  -1.99211   0.59783 
 6                    -4.76466   2.79164   1.16283 
 6                    -9.38806   3.14644  -0.48174 
 6                    -9.51067  -1.7053   -0.7109 
 7                    -5.15388   0.44588   0.74059 
 6                    -4.35544  -0.7439    0.8769 
 6                    -2.88043  -0.47116   1.07836 
 6                    -2.99726   1.00059   1.61154 
 6                    -4.37118   1.43678   1.19902 
 6                    -2.89916   1.2273    3.10812 
 6                    -1.98566  -0.80206  -0.04642 
 6                    -0.59673  -0.48729   0.44767 
 6                     0.41539  -0.65694  -0.67959 
 8                     0.24965  -1.36444  -1.73517 
 8                     1.66037  -0.47748  -0.30269 
 7                    -7.09308   2.56198   0.39167 
 6                    -6.05892   3.33552   0.8822 
 6                    -6.4354    4.70393   0.79641 
 6                    -7.65453   4.79035   0.38233 
 6                    -8.15557   3.43814   0.08931 
 6                    -5.48186   5.74401   1.20236 
 6                    -8.57076   6.01913   0.33963 
 6                    -8.39756   7.21678   0.80271 
 7                    -9.03075   0.66148  -0.60407 
 6                    -9.82686   1.84573  -0.75547 
 6                    -11.11238   1.46103  -1.26897 
 6                    -11.21173   0.11466  -1.33559 
 6                    -9.92005  -0.44057  -0.91111 
 6                    -12.13203   2.54887  -1.52535 
 6                    -12.41987  -0.70827  -1.8026 
 6                    -12.26709  -0.97365  -3.29273 
 7                    -7.25166  -1.33381  -0.07907 
 6                    -8.31255  -2.20465  -0.47891 
 6                    -7.84079  -3.59905  -0.50316 
 6                    -6.5669   -3.58031  -0.04747 
 6                    -6.26729  -2.17834   0.16795 
 6                    -8.73808  -4.79818  -0.82135 
 6                    -5.36498  -4.41777   0.2605 
 8                    -5.18458  -5.55105   0.17434 
 6                    -4.23459  -3.37771   0.69048 
 6                    -3.63866  -3.70127   2.05599 
 8                    -3.88222  -3.10084   3.07183 
 8                    -2.67165  -4.71601   1.96462 
 6                    -2.36371  -5.2908    3.18898 
 6                     2.80459  -0.57467  -1.27311 
 6                     4.13227  -0.31411  -0.67683 
 6                     5.1648    0.43624  -1.13887 
 6                     5.18379   1.15391  -2.4227 
 6                     6.42156   0.64292  -0.30582 
 6                     7.6934   -0.11746  -1.03387 
 6                     8.92807  -0.10217  -0.10404 
 6                     10.21187  -0.4768   -0.94901 
 6                     10.20053  -1.98085  -1.50848 
 6                     11.40661  -0.17846  -0.0164 
 6                     12.82518  -0.46653  -0.60155 
 6                     13.98314  -0.03897   0.27627 
 6                     15.36712  -0.18468  -0.4266 
 6                     15.64905  -1.69633  -0.72201 
 6                     16.38768   0.54899   0.40318 
 6                     17.78414   0.59816  -0.21875 
 6                     18.86797   1.26628   0.70203 
 6                     20.20565   1.42294   0.22279 
 6                     20.40906   2.27113  -1.027 
 6                     21.2349   1.73556   1.39343 
 1                    -3.83074   3.37429   1.28803 
 1                    -9.99905   4.13303  -0.52021 
 1                    -10.32756  -2.31011  -0.94875 
 1                    -2.81528  -1.01592   2.01078 
 1                    -2.28563   1.73613   0.92076 
 1                    -1.91762   0.80198   3.50504 
 1                    -3.1015    2.28564   3.30203 
 1                    -3.54377   0.62426   3.7645 
 1                    -1.92307  -1.86865  -0.6639 
 1                    -2.18067  -0.03109  -0.84802 
 1                    -0.53997   0.69459   0.75409 
 1                    -0.20367  -1.16854   1.28924 
 1                    -5.8872    6.88143   1.05153 
 1                    -5.45428   5.56553   2.35536 
 1                    -4.40848   5.84002   0.65845 
 1                    -9.55181   5.85002  -0.22525 
 1                    -9.31092   7.89121   0.61039 
 1                    -7.65232   7.55909   1.63811 
 1                    -11.77106   3.41278  -2.12221 
 1                    -13.05154   2.15399  -2.13742 
 1                    -12.25722   2.95125  -0.4149 
 1                    -12.35527  -1.61685  -1.26913 
 1                    -13.28315  -0.21986  -1.5297 
 1                    -12.9778  -1.74415  -3.69791 
 1                    -12.4702  -0.2509   -4.04261 
 1                    -11.43586  -1.50467  -3.60722 
 1                    -9.10861  -4.82189  -2.02832 
 1                    -8.23894  -5.83807  -0.70634 
 1                    -9.54951  -4.69438  -0.08828 
 1                    -3.31512  -3.53843  -0.00991 
 1                    -1.75686  -4.57201   3.89932 
 1                    -3.06984  -5.67008   3.93244 
 1                    -1.82271  -6.0336    2.76625 
 1                     2.9201   -1.52766  -1.44906 
 1                     2.47009   0.21789  -1.99494 
 1                     4.47966  -1.07938   0.1448 
 1                     4.23367   1.53688  -3.00414 
 1                     5.84708   2.07483  -2.79503 
 1                     5.72487   0.25159  -3.21265 
 1                     6.73971   1.66869  -0.13252 
 1                     6.40269   0.18861   0.73149 
 1                     7.45285  -0.97631  -1.41423 
 1                     7.95114   0.38579  -1.87255 
 1                     9.0237    0.87786   0.27868 
 1                     8.99016  -0.90061   0.68111 
 1                     10.3856   0.26468  -1.88976 
 1                     9.33516  -2.17591  -2.03115 
 1                     10.98447  -1.98607  -2.297 
 1                     10.03924  -2.53     -0.67485 
 1                     11.36785   0.80377   0.17813 
 1                     11.27197  -0.67332   0.7954 
 1                     13.04109  -1.54612  -0.91406 
 1                     12.95996   0.16816  -1.47976 
 1                     13.84938   0.9209    0.63614 
 1                     14.07262  -0.75985   1.02207 
 1                     15.33678   0.29107  -1.51567 
 1                     15.77616  -2.40779   0.26088 
 1                     14.97146  -2.28951  -1.27097 
 1                     16.77342  -1.82947  -1.14362 
 1                     15.97281   1.36488   0.65492 
 1                     16.3204   0.07137   1.44896 
 1                     18.0812  -0.45017  -0.54177 
 1                     17.70196   1.13353  -1.1721 
 1                     18.53814   2.3455    0.84358 
 1                     18.8016   0.75849   1.67653 
 1                     20.27626   0.31446  -0.01705 
 1                     20.16556   3.24497  -0.92636 
 1                     21.32253   2.10615  -1.31193 
 1                     19.59216   1.86138  -1.84162 
 1                     21.01815   1.06418   2.23286 
 1                     22.15273   1.68066   1.1063 
 1                     21.02565   2.77212   1.6307 
 
 Stoichiometry    C55H72MgN4O5
 Framework group  C1[X(C55H72MgN4O5)]
 Deg. of freedom   405
 Full point group                 C1      NOp   1
 Largest Abelian subgroup         C1      NOp   1
 Largest concise Abelian subgroup C1      NOp   1
                         Standard orientation:                         
 ---------------------------------------------------------------------
 Center     Atomic      Atomic             Coordinates (Angstroms)
 Number     Number       Type             X           Y           Z
 ---------------------------------------------------------------------
      1         12           0       -7.104188    0.603917    0.109567
      2          6           0       -4.885122   -1.990309    0.570948
      3          6           0       -4.761359    2.785597    1.197254
      4          6           0       -9.383093    3.169640   -0.445455
      5          6           0       -9.514129   -1.678538   -0.736814
      6          7           0       -5.154460    0.446139    0.744766
      7          6           0       -4.358206   -0.746714    0.866302
      8          6           0       -2.882846   -0.479187    1.072140
      9          6           0       -2.997418    0.985817    1.624061
     10          6           0       -4.370305    1.429695    1.216320
     11          6           0       -2.899864    1.193158    3.123482
     12          6           0       -1.987957   -0.797241   -0.056240
     13          6           0       -0.598780   -0.491298    0.442687
     14          6           0        0.413750   -0.648289   -0.686040
     15          8           0        0.247421   -1.341918   -1.750693
     16          8           0        1.658802   -0.475877   -0.306107
     17          7           0       -7.089697    2.569970    0.421793
     18          6           0       -6.054477    3.335330    0.922825
     19          6           0       -6.428490    4.705393    0.854339
     20          6           0       -7.647201    4.799268    0.440654
     21          6           0       -8.150446    3.451817    0.130037
     22          6           0       -5.473366    5.738486    1.274164
     23          6           0       -8.561238    6.030122    0.413144
     24          6           0       -8.386213    7.221428    0.891628
     25          7           0       -9.030089    0.685819   -0.599391
     26          6           0       -9.824013    1.873328   -0.736091
     27          6           0      -11.109887    1.497519   -1.255256
     28          6           0      -11.211578    0.152284   -1.339181
     29          6           0       -9.921143   -0.410622   -0.921055
     30          6           0      -12.127453    2.590353   -1.498303
     31          6           0      -12.420868   -0.662447   -1.817428
     32          6           0      -12.267623   -0.908992   -3.310745
     33          7           0       -7.254869   -1.319188   -0.098907
     34          6           0       -8.317040   -2.182944   -0.510515
     35          6           0       -7.847729   -3.577756   -0.552332
     36          6           0       -6.574096   -3.567120   -0.095662
     37          6           0       -6.272144   -2.168552    0.137877
     38          6           0       -8.746936   -4.771122   -0.886405
     39          6           0       -5.373853   -4.410581    0.202283
     40          8           0       -5.195398   -5.542987    0.101729
     41          6           0       -4.241894   -3.378130    0.646238
     42          6           0       -3.647407   -3.720202    2.007851
     43          8           0       -3.890543   -3.132402    3.031154
     44          8           0       -2.682128   -4.735404    1.904078
     45          6           0       -2.375976   -5.326381    3.121171
     46          6           0        2.803467   -0.562661   -1.276997
     47          6           0        4.131220   -0.312121   -0.676620
     48          6           0        5.165371    0.442251   -1.128388
     49          6           0        5.186437    1.176269   -2.402901
     50          6           0        6.421964    0.636009   -0.291987
     51          6           0        7.692919   -0.117238   -1.028946
     52          6           0        8.927034   -0.116043   -0.098246
     53          6           0       10.210701   -0.482108   -0.947158
     54          6           0       10.197051   -1.978841   -1.525862
     55          6           0       11.405378   -0.197855   -0.010080
     56          6           0       12.823800   -0.480924   -0.598008
     57          6           0       13.981960   -0.066693    0.285927
     58          6           0       15.366129   -0.205852   -0.417915
     59          6           0       15.645567   -1.714087   -0.732492
     60          6           0       16.387460    0.515319    0.421822
     61          6           0       17.784397    0.569974   -0.198579
     62          6           0       18.868818    1.224324    0.731341
     63          6           0       20.207077    1.384733    0.254958
     64          6           0       20.412778    2.248491   -0.983741
     65          6           0       21.236144    1.680500    1.430141
     66          1           0       -3.826499    3.364942    1.330476
     67          1           0       -9.992311    4.157729   -0.471653
     68          1           0      -10.331931   -2.278805   -0.982893
     69          1           0       -2.819248   -1.035963    1.997549
     70          1           0       -2.284052    1.728875    0.943193
     71          1           0       -1.919319    0.761053    3.515521
     72          1           0       -3.100446    2.249293    3.330809
     73          1           0       -3.545946    0.582908    3.771687
     74          1           0       -1.926864   -1.855945   -0.687293
     75          1           0       -2.181095   -0.015722   -0.848021
     76          1           0       -0.540125    0.686465    0.764252
     77          1           0       -0.207457   -1.183966    1.275705
     78          1           0       -5.876601    6.878462    1.137664
     79          1           0       -5.446836    5.545207    2.424796
     80          1           0       -4.399483    5.839547    0.732176
     81          1           0       -9.542221    5.870001   -0.154457
     82          1           0       -9.298257    7.899888    0.707410
     83          1           0       -7.640898    7.551691    1.731803
     84          1           0      -11.764579    3.461200   -2.083824
     85          1           0      -13.047276    2.204981   -2.115946
     86          1           0      -12.252629    2.978707   -0.382869
     87          1           0      -12.358214   -1.577901   -1.295601
     88          1           0      -13.283456   -0.176041   -1.538817
     89          1           0      -12.979438   -1.672975   -3.726189
     90          1           0      -12.468979   -0.176337   -4.051423
     91          1           0      -11.437130   -1.437410   -3.631500
     92          1           0       -9.116744   -4.778714   -2.093800
     93          1           0       -8.249709   -5.813286   -0.784420
     94          1           0       -9.558648   -4.675282   -0.152559
     95          1           0       -3.322273   -3.531491   -0.055589
     96          1           0       -1.768313   -4.617827    3.841029
     97          1           0       -3.083245   -5.713894    3.859274
     98          1           0       -1.836026   -6.064664    2.689288
     99          1           0        2.917402   -1.513532   -1.465070
    100          1           0        2.470825    0.239663   -1.988824
    101          1           0        4.476742   -1.088467    0.135347
    102          1           0        4.237368    1.568345   -2.979968
    103          1           0        5.851592    2.100703   -2.762999
    104          1           0        5.726423    0.283180   -3.204018
    105          1           0        6.741817    1.658914   -0.105372
    106          1           0        6.401644    0.168490    0.739407
    107          1           0        7.451098   -0.970712   -1.420424
    108          1           0        7.952078    0.396258   -1.860953
    109          1           0        9.024154    0.858824    0.297051
    110          1           0        8.987210   -0.924583    0.676648
    111          1           0       10.386329    0.271055   -1.878235
    112          1           0        9.331670   -2.165650   -2.051510
    113          1           0       10.981483   -1.975349   -2.313907
    114          1           0       10.034265   -2.538341   -0.699426
    115          1           0       11.368232    0.781874    0.196992
    116          1           0       11.269348   -0.702834    0.795233
    117          1           0       13.038000   -1.556806   -0.924188
    118          1           0       12.960259    0.164720   -1.467935
    119          1           0       13.849668    0.888725    0.657977
    120          1           0       14.069697   -0.797224    1.022480
    121          1           0       15.337312    0.283862   -1.500815
    122          1           0       15.770798   -2.438306    0.241287
    123          1           0       14.967281   -2.298988   -1.289421
    124          1           0       16.769967   -1.843813   -1.155083
    125          1           0       15.973873    1.328658    0.683737
    126          1           0       16.318669    0.024463    1.461350
    127          1           0       18.079804   -0.474661   -0.534820
    128          1           0       17.703759    1.117655   -1.145046
    129          1           0       18.540814    2.302220    0.886505
    130          1           0       18.800936    0.704208    1.699214
    131          1           0       20.275883    0.279287    0.000981
    132          1           0       20.170934    3.221395   -0.870776
    133          1           0       21.326129    2.085555   -1.270204
    134          1           0       19.595671    1.850661   -1.804038
    135          1           0       21.017671    0.998817    2.260768
    136          1           0       22.154049    1.627656    1.142881
    137          1           0       21.028574    2.714306    1.680540
 ---------------------------------------------------------------------
 Rotational constants (GHZ):      0.0639158      0.0060720      0.0057290
 Standard basis: 6-31G(d,p) (6D, 7F)
 There are  1339 symmetry adapted cartesian basis functions of A   symmetry.
 There are  1339 symmetry adapted basis functions of A   symmetry.
  1339 basis functions,  2348 primitive gaussians,  1339 cartesian basis functions
   241 alpha electrons      241 beta electrons
       nuclear repulsion energy      8742.7894881446 Hartrees.
 NAtoms=  137 NActive=  137 NUniq=  137 SFac= 1.00D+00 NAtFMM=   60 NAOKFM=T Big=T
 Integral buffers will be    131072 words long.
 Raffenetti 1 integral format.
 Two-electron integral symmetry is turned on.
 One-electron integrals computed using PRISM.
 NBasis=  1339 RedAO= T EigKep=  2.69D-04  NBF=  1339
 NBsUse=  1339 1.00D-06 EigRej= -1.00D+00 NBFU=  1339
 ExpMin= 4.21D-02 ExpMax= 1.17D+04 ExpMxC= 1.76D+03 IAcc=2 IRadAn=         4 AccDes= 0.00D+00
 Harris functional with IExCor=20419 and IRadAn=       4 diagonalized for initial guess.
 HarFok:  IExCor=20419 AccDes= 0.00D+00 IRadAn=         4 IDoV= 1 UseB2=F ITyADJ=14
 ICtDFT=  3500011 ScaDFX=  1.000000  1.000000  1.000000  1.000000
 FoFCou: FMM=F IPFlag=           0 FMFlag=      100000 FMFlg1=        2001
         NFxFlg=           0 DoJE=T BraDBF=F KetDBF=T FulRan=T
         wScrn=  0.000000 ICntrl=     500 IOpCl=  0 I1Cent=   200000004 NGrid=           0
         NMat0=    1 NMatS0=      1 NMatT0=    0 NMatD0=    1 NMtDS0=    0 NMtDT0=    0
 Petite list used in FoFCou.
 Requested convergence on RMS density matrix=1.00D-08 within 128 cycles.
 Requested convergence on MAX density matrix=1.00D-06.
 Requested convergence on             energy=1.00D-06.
 No special actions if energy rises.
 SCF Done:  E(RCAM-B3LYP) =  -2932.58698791     A.U. after   17 cycles
            NFock= 17  Conv=0.96D-08     -V/T= 2.0090
 DoSCS=F DFT=T ScalE2(SS,OS)=  1.000000  1.000000
 ExpMin= 4.21D-02 ExpMax= 1.17D+04 ExpMxC= 1.76D+03 IAcc=3 IRadAn=         5 AccDes= 0.00D+00
 HarFok:  IExCor=  205 AccDes= 0.00D+00 IRadAn=         5 IDoV=-2 UseB2=F ITyADJ=14
 ICtDFT= 12500011 ScaDFX=  1.000000  1.000000  1.000000  1.000000
 Range of M.O.s used for correlation:    70  1339
 NBasis=  1339 NAE=   241 NBE=   241 NFC=    69 NFV=     0
 NROrb=   1270 NOA=   172 NOB=   172 NVA=  1098 NVB=  1098
 Would need an additional       2415464100000 words for in-memory AO integral storage.
 Orbital symmetries:
       Occupied  (A) (A) (A) (A) (A) (A) (A) (A) (A) (A) (A) (A)
                 (A) (A) (A) (A) (A) (A) (A) (A) (A) (A) (A) (A)
                 (A) (A) (A) (A) (A) (A) (A) (A) (A) (A) (A) (A)
                 (A) (A) (A) (A) (A) (A) (A) (A) (A) (A) (A) (A)
                 (A) (A) (A) (A) (A) (A) (A) (A) (A) (A) (A) (A)
                 (A) (A) (A) (A) (A) (A) (A) (A) (A) (A) (A) (A)
                 (A) (A) (A) (A) (A) (A) (A) (A) (A) (A) (A) (A)
                 (A) (A) (A) (A) (A) (A) (A) (A) (A) (A) (A) (A)
                 (A) (A) (A) (A) (A) (A) (A) (A) (A) (A) (A) (A)
                 (A) (A) (A) (A) (A) (A) (A) (A) (A) (A) (A) (A)
                 (A) (A) (A) (A) (A) (A) (A) (A) (A) (A) (A) (A)
                 (A) (A) (A) (A) (A) (A) (A) (A) (A) (A) (A) (A)
                 (A) (A) (A) (A) (A) (A) (A) (A) (A) (A) (A) (A)
                 (A) (A) (A) (A) (A) (A) (A) (A) (A) (A) (A) (A)
                 (A) (A) (A) (A) (A) (A) (A) (A) (A) (A) (A) (A)
                 (A) (A) (A) (A) (A) (A) (A) (A) (A) (A) (A) (A)
                 (A) (A) (A) (A) (A) (A) (A) (A) (A) (A) (A) (A)
                 (A) (A) (A) (A) (A) (A) (A) (A) (A) (A) (A) (A)
                 (A) (A) (A) (A) (A) (A) (A) (A) (A) (A) (A) (A)
                 (A) (A) (A) (A) (A) (A) (A) (A) (A) (A) (A) (A)
                 (A)
       Virtual   (A) (A) (A) (A) (A) (A) (A) (A) (A) (A) (A) (A)
                 (A) (A) (A) (A) (A) (A) (A) (A) (A) (A) (A) (A)
                 (A) (A) (A) (A) (A) (A) (A) (A) (A) (A) (A) (A)
                 (A) (A) (A) (A) (A) (A) (A) (A) (A) (A) (A) (A)
                 (A) (A) (A) (A) (A) (A) (A) (A) (A) (A) (A) (A)
                 (A) (A) (A) (A) (A) (A) (A) (A) (A) (A) (A) (A)
                 (A) (A) (A) (A) (A) (A) (A) (A) (A) (A) (A) (A)
                 (A) (A) (A) (A) (A) (A) (A) (A) (A) (A) (A) (A)
                 (A) (A) (A) (A) (A) (A) (A) (A) (A) (A) (A) (A)
                 (A) (A) (A) (A) (A) (A) (A) (A) (A) (A) (A) (A)
                 (A) (A) (A) (A) (A) (A) (A) (A) (A) (A) (A) (A)
                 (A) (A) (A) (A) (A) (A) (A) (A) (A) (A) (A) (A)
                 (A) (A) (A) (A) (A) (A) (A) (A) (A) (A) (A) (A)
                 (A) (A) (A) (A) (A) (A) (A) (A) (A) (A) (A) (A)
                 (A) (A) (A) (A) (A) (A) (A) (A) (A) (A) (A) (A)
                 (A) (A) (A) (A) (A) (A) (A) (A) (A) (A) (A) (A)
                 (A) (A) (A) (A) (A) (A) (A) (A) (A) (A) (A) (A)
                 (A) (A) (A) (A) (A) (A) (A) (A) (A) (A) (A) (A)
                 (A) (A) (A) (A) (A) (A) (A) (A) (A) (A) (A) (A)
                 (A) (A) (A) (A) (A) (A) (A) (A) (A) (A) (A) (A)
                 (A) (A) (A) (A) (A) (A) (A) (A) (A) (A) (A) (A)
                 (A) (A) (A) (A) (A) (A) (A) (A) (A) (A) (A) (A)
                 (A) (A) (A) (A) (A) (A) (A) (A) (A) (A) (A) (A)
                 (A) (A) (A) (A) (A) (A) (A) (A) (A) (A) (A) (A)
                 (A) (A) (A) (A) (A) (A) (A) (A) (A) (A) (A) (A)
                 (A) (A) (A) (A) (A) (A) (A) (A) (A) (A) (A) (A)
                 (A) (A) (A) (A) (A) (A) (A) (A) (A) (A) (A) (A)
                 (A) (A) (A) (A) (A) (A) (A) (A) (A) (A) (A) (A)
                 (A) (A) (A) (A) (A) (A) (A) (A) (A) (A) (A) (A)
                 (A) (A) (A) (A) (A) (A) (A) (A) (A) (A) (A) (A)
                 (A) (A) (A) (A) (A) (A) (A) (A) (A) (A) (A) (A)
                 (A) (A) (A) (A) (A) (A) (A) (A) (A) (A) (A) (A)
                 (A) (A) (A) (A) (A) (A) (A) (A) (A) (A) (A) (A)
                 (A) (A) (A) (A) (A) (A) (A) (A) (A) (A) (A) (A)
                 (A) (A) (A) (A) (A) (A) (A) (A) (A) (A) (A) (A)
                 (A) (A) (A) (A) (A) (A) (A) (A) (A) (A) (A) (A)
                 (A) (A) (A) (A) (A) (A) (A) (A) (A) (A) (A) (A)
                 (A) (A) (A) (A) (A) (A) (A) (A) (A) (A) (A) (A)
                 (A) (A) (A) (A) (A) (A) (A) (A) (A) (A) (A) (A)
                 (A) (A) (A) (A) (A) (A) (A) (A) (A) (A) (A) (A)
                 (A) (A) (A) (A) (A) (A) (A) (A) (A) (A) (A) (A)
                 (A) (A) (A) (A) (A) (A) (A) (A) (A) (A) (A) (A)
                 (A) (A) (A) (A) (A) (A) (A) (A) (A) (A) (A) (A)
                 (A) (A) (A) (A) (A) (A) (A) (A) (A) (A) (A) (A)
                 (A) (A) (A) (A) (A) (A) (A) (A) (A) (A) (A) (A)
                 (A) (A) (A) (A) (A) (A) (A) (A) (A) (A) (A) (A)
                 (A) (A) (A) (A) (A) (A) (A) (A) (A) (A) (A) (A)
                 (A) (A) (A) (A) (A) (A) (A) (A) (A) (A) (A) (A)
                 (A) (A) (A) (A) (A) (A) (A) (A) (A) (A) (A) (A)
                 (A) (A) (A) (A) (A) (A) (A) (A) (A) (A) (A) (A)
                 (A) (A) (A) (A) (A) (A) (A) (A) (A) (A) (A) (A)
                 (A) (A) (A) (A) (A) (A) (A) (A) (A) (A) (A) (A)
                 (A) (A) (A) (A) (A) (A) (A) (A) (A) (A) (A) (A)
                 (A) (A) (A) (A) (A) (A) (A) (A) (A) (A) (A) (A)
                 (A) (A) (A) (A) (A) (A) (A) (A) (A) (A) (A) (A)
                 (A) (A) (A) (A) (A) (A) (A) (A) (A) (A) (A) (A)
                 (A) (A) (A) (A) (A) (A) (A) (A) (A) (A) (A) (A)
                 (A) (A) (A) (A) (A) (A) (A) (A) (A) (A) (A) (A)
                 (A) (A) (A) (A) (A) (A) (A) (A) (A) (A) (A) (A)
                 (A) (A) (A) (A) (A) (A) (A) (A) (A) (A) (A) (A)
                 (A) (A) (A) (A) (A) (A) (A) (A) (A) (A) (A) (A)
                 (A) (A) (A) (A) (A) (A) (A) (A) (A) (A) (A) (A)
                 (A) (A) (A) (A) (A) (A) (A) (A) (A) (A) (A) (A)
                 (A) (A) (A) (A) (A) (A) (A) (A) (A) (A) (A) (A)
                 (A) (A) (A) (A) (A) (A) (A) (A) (A) (A) (A) (A)
                 (A) (A) (A) (A) (A) (A) (A) (A) (A) (A) (A) (A)
                 (A) (A) (A) (A) (A) (A) (A) (A) (A) (A) (A) (A)
                 (A) (A) (A) (A) (A) (A) (A) (A) (A) (A) (A) (A)
                 (A) (A) (A) (A) (A) (A) (A) (A) (A) (A) (A) (A)
                 (A) (A) (A) (A) (A) (A) (A) (A) (A) (A) (A) (A)
                 (A) (A) (A) (A) (A) (A) (A) (A) (A) (A) (A) (A)
                 (A) (A) (A) (A) (A) (A) (A) (A) (A) (A) (A) (A)
                 (A) (A) (A) (A) (A) (A) (A) (A) (A) (A) (A) (A)
                 (A) (A) (A) (A) (A) (A) (A) (A) (A) (A) (A) (A)
                 (A) (A) (A) (A) (A) (A) (A) (A) (A) (A) (A) (A)
                 (A) (A) (A) (A) (A) (A) (A) (A) (A) (A) (A) (A)
                 (A) (A) (A) (A) (A) (A) (A) (A) (A) (A) (A) (A)
                 (A) (A) (A) (A) (A) (A) (A) (A) (A) (A) (A) (A)
                 (A) (A) (A) (A) (A) (A) (A) (A) (A) (A) (A) (A)
                 (A) (A) (A) (A) (A) (A) (A) (A) (A) (A) (A) (A)
                 (A) (A) (A) (A) (A) (A) (A) (A) (A) (A) (A) (A)
                 (A) (A) (A) (A) (A) (A) (A) (A) (A) (A) (A) (A)
                 (A) (A) (A) (A) (A) (A) (A) (A) (A) (A) (A) (A)
                 (A) (A) (A) (A) (A) (A) (A) (A) (A) (A) (A) (A)
                 (A) (A) (A) (A) (A) (A) (A) (A) (A) (A) (A) (A)
                 (A) (A) (A) (A) (A) (A) (A) (A) (A) (A) (A) (A)
                 (A) (A) (A) (A) (A) (A) (A) (A) (A) (A) (A) (A)
                 (A) (A) (A) (A) (A) (A) (A) (A) (A) (A) (A) (A)
                 (A) (A) (A) (A) (A) (A) (A) (A) (A) (A) (A) (A)
                 (A) (A) (A) (A) (A) (A) (A) (A) (A) (A) (A) (A)
                 (A) (A) (A) (A) (A) (A) (A) (A) (A) (A) (A) (A)
                 (A) (A) (A) (A) (A) (A)
     8 initial guesses have been made.
 Convergence on wavefunction:    0.001000000000000
 Iteration     1 Dimension     8 NMult     0 NNew      8
 CISAX will form     8 AO SS matrices at one time.
 Iteration     2 Dimension    12 NMult     8 NNew      4
 Iteration     3 Dimension    16 NMult    12 NNew      4
 Iteration     4 Dimension    20 NMult    16 NNew      4
 Iteration     5 Dimension    24 NMult    20 NNew      4
 Iteration     6 Dimension    28 NMult    24 NNew      4
 ***********************************************************************
 Excited states from <AA,BB:AA,BB> singles matrix:
 ***********************************************************************
 
 Ground to excited state transition densities written to RWF  633
 Ground to excited state transition electric dipole moments (Au):
       state          X           Y           Z        Dip. S.      Osc.
         1         0.1993      2.1225      0.3368      4.6582      0.2338
 Ground to excited state transition velocity dipole moments (Au):
       state          X           Y           Z        Dip. S.      Osc.
         1        -0.0143     -0.1546     -0.0244      0.0247      0.2187
 Ground to excited state transition magnetic dipole moments (Au):
       state          X           Y           Z
         1        -0.6236     -0.5196      3.9562
 Ground to excited state transition velocity quadrupole moments (Au):
       state          XX          YY          ZZ          XY          XZ          YZ
         1         0.3447     -0.1841     -0.0392      1.9687      0.2879     -0.1437
 <0|del|b> * <b|rxdel|0> + <0|del|b> * <b|delr+rdel|0>
 Rotatory Strengths (R) in cgs (10**-40 erg-esu-cm/Gauss)
       state          XX          YY          ZZ    R(velocity)    E-M Angle
         1       -91.6467   -176.0102    200.3305    -22.4421       90.65
 1/2[<0|r|b>*<b|rxdel|0> + (<0|rxdel|b>*<b|r|0>)*]
 Rotatory Strengths (R) in cgs (10**-40 erg-esu-cm/Gauss)
       state          XX          YY          ZZ     R(length)
         1        87.9042    779.8440   -942.2959    -24.8493
  1/2[<0|del|b>*<b|r|0> + (<0|r|b>*<b|del|0>)*] (Au)
       state          X           Y           Z        Dip. S.   Osc.(frdel)
         1        -0.0028     -0.3282     -0.0082      0.3392      0.2261

 Excitation energies and oscillator strengths:
 
 Excited State   1:      Singlet-A      2.0489 eV  605.13 nm  f=0.2338  <S**2>=0.000
     240 -> 243       -0.23506
     241 -> 242        0.66136
 This state for optimization and/or second-order correction.
 Total Energy, E(TD-HF/TD-KS) =  -2932.51169324    
 Copying the excited state density for this state as the 1-particle RhoCI density.
 SavETr:  write IOETrn=   770 NScale= 10 NData=  16 NLR=1 NState=    1 LETran=      28.

 **********************************************************************

            Population analysis using the SCF density.

 **********************************************************************

 Orbital symmetries:
       Occupied  (A) (A) (A) (A) (A) (A) (A) (A) (A) (A) (A) (A)
                 (A) (A) (A) (A) (A) (A) (A) (A) (A) (A) (A) (A)
                 (A) (A) (A) (A) (A) (A) (A) (A) (A) (A) (A) (A)
                 (A) (A) (A) (A) (A) (A) (A) (A) (A) (A) (A) (A)
                 (A) (A) (A) (A) (A) (A) (A) (A) (A) (A) (A) (A)
                 (A) (A) (A) (A) (A) (A) (A) (A) (A) (A) (A) (A)
                 (A) (A) (A) (A) (A) (A) (A) (A) (A) (A) (A) (A)
                 (A) (A) (A) (A) (A) (A) (A) (A) (A) (A) (A) (A)
                 (A) (A) (A) (A) (A) (A) (A) (A) (A) (A) (A) (A)
                 (A) (A) (A) (A) (A) (A) (A) (A) (A) (A) (A) (A)
                 (A) (A) (A) (A) (A) (A) (A) (A) (A) (A) (A) (A)
                 (A) (A) (A) (A) (A) (A) (A) (A) (A) (A) (A) (A)
                 (A) (A) (A) (A) (A) (A) (A) (A) (A) (A) (A) (A)
                 (A) (A) (A) (A) (A) (A) (A) (A) (A) (A) (A) (A)
                 (A) (A) (A) (A) (A) (A) (A) (A) (A) (A) (A) (A)
                 (A) (A) (A) (A) (A) (A) (A) (A) (A) (A) (A) (A)
                 (A) (A) (A) (A) (A) (A) (A) (A) (A) (A) (A) (A)
                 (A) (A) (A) (A) (A) (A) (A) (A) (A) (A) (A) (A)
                 (A) (A) (A) (A) (A) (A) (A) (A) (A) (A) (A) (A)
                 (A) (A) (A) (A) (A) (A) (A) (A) (A) (A) (A) (A)
                 (A)
       Virtual   (A) (A) (A) (A) (A) (A) (A) (A) (A) (A) (A) (A)
                 (A) (A) (A) (A) (A) (A) (A) (A) (A) (A) (A) (A)
                 (A) (A) (A) (A) (A) (A) (A) (A) (A) (A) (A) (A)
                 (A) (A) (A) (A) (A) (A) (A) (A) (A) (A) (A) (A)
                 (A) (A) (A) (A) (A) (A) (A) (A) (A) (A) (A) (A)
                 (A) (A) (A) (A) (A) (A) (A) (A) (A) (A) (A) (A)
                 (A) (A) (A) (A) (A) (A) (A) (A) (A) (A) (A) (A)
                 (A) (A) (A) (A) (A) (A) (A) (A) (A) (A) (A) (A)
                 (A) (A) (A) (A) (A) (A) (A) (A) (A) (A) (A) (A)
                 (A) (A) (A) (A) (A) (A) (A) (A) (A) (A) (A) (A)
                 (A) (A) (A) (A) (A) (A) (A) (A) (A) (A) (A) (A)
                 (A) (A) (A) (A) (A) (A) (A) (A) (A) (A) (A) (A)
                 (A) (A) (A) (A) (A) (A) (A) (A) (A) (A) (A) (A)
                 (A) (A) (A) (A) (A) (A) (A) (A) (A) (A) (A) (A)
                 (A) (A) (A) (A) (A) (A) (A) (A) (A) (A) (A) (A)
                 (A) (A) (A) (A) (A) (A) (A) (A) (A) (A) (A) (A)
                 (A) (A) (A) (A) (A) (A) (A) (A) (A) (A) (A) (A)
                 (A) (A) (A) (A) (A) (A) (A) (A) (A) (A) (A) (A)
                 (A) (A) (A) (A) (A) (A) (A) (A) (A) (A) (A) (A)
                 (A) (A) (A) (A) (A) (A) (A) (A) (A) (A) (A) (A)
                 (A) (A) (A) (A) (A) (A) (A) (A) (A) (A) (A) (A)
                 (A) (A) (A) (A) (A) (A) (A) (A) (A) (A) (A) (A)
                 (A) (A) (A) (A) (A) (A) (A) (A) (A) (A) (A) (A)
                 (A) (A) (A) (A) (A) (A) (A) (A) (A) (A) (A) (A)
                 (A) (A) (A) (A) (A) (A) (A) (A) (A) (A) (A) (A)
                 (A) (A) (A) (A) (A) (A) (A) (A) (A) (A) (A) (A)
                 (A) (A) (A) (A) (A) (A) (A) (A) (A) (A) (A) (A)
                 (A) (A) (A) (A) (A) (A) (A) (A) (A) (A) (A) (A)
                 (A) (A) (A) (A) (A) (A) (A) (A) (A) (A) (A) (A)
                 (A) (A) (A) (A) (A) (A) (A) (A) (A) (A) (A) (A)
                 (A) (A) (A) (A) (A) (A) (A) (A) (A) (A) (A) (A)
                 (A) (A) (A) (A) (A) (A) (A) (A) (A) (A) (A) (A)
                 (A) (A) (A) (A) (A) (A) (A) (A) (A) (A) (A) (A)
                 (A) (A) (A) (A) (A) (A) (A) (A) (A) (A) (A) (A)
                 (A) (A) (A) (A) (A) (A) (A) (A) (A) (A) (A) (A)
                 (A) (A) (A) (A) (A) (A) (A) (A) (A) (A) (A) (A)
                 (A) (A) (A) (A) (A) (A) (A) (A) (A) (A) (A) (A)
                 (A) (A) (A) (A) (A) (A) (A) (A) (A) (A) (A) (A)
                 (A) (A) (A) (A) (A) (A) (A) (A) (A) (A) (A) (A)
                 (A) (A) (A) (A) (A) (A) (A) (A) (A) (A) (A) (A)
                 (A) (A) (A) (A) (A) (A) (A) (A) (A) (A) (A) (A)
                 (A) (A) (A) (A) (A) (A) (A) (A) (A) (A) (A) (A)
                 (A) (A) (A) (A) (A) (A) (A) (A) (A) (A) (A) (A)
                 (A) (A) (A) (A) (A) (A) (A) (A) (A) (A) (A) (A)
                 (A) (A) (A) (A) (A) (A) (A) (A) (A) (A) (A) (A)
                 (A) (A) (A) (A) (A) (A) (A) (A) (A) (A) (A) (A)
                 (A) (A) (A) (A) (A) (A) (A) (A) (A) (A) (A) (A)
                 (A) (A) (A) (A) (A) (A) (A) (A) (A) (A) (A) (A)
                 (A) (A) (A) (A) (A) (A) (A) (A) (A) (A) (A) (A)
                 (A) (A) (A) (A) (A) (A) (A) (A) (A) (A) (A) (A)
                 (A) (A) (A) (A) (A) (A) (A) (A) (A) (A) (A) (A)
                 (A) (A) (A) (A) (A) (A) (A) (A) (A) (A) (A) (A)
                 (A) (A) (A) (A) (A) (A) (A) (A) (A) (A) (A) (A)
                 (A) (A) (A) (A) (A) (A) (A) (A) (A) (A) (A) (A)
                 (A) (A) (A) (A) (A) (A) (A) (A) (A) (A) (A) (A)
                 (A) (A) (A) (A) (A) (A) (A) (A) (A) (A) (A) (A)
                 (A) (A) (A) (A) (A) (A) (A) (A) (A) (A) (A) (A)
                 (A) (A) (A) (A) (A) (A) (A) (A) (A) (A) (A) (A)
                 (A) (A) (A) (A) (A) (A) (A) (A) (A) (A) (A) (A)
                 (A) (A) (A) (A) (A) (A) (A) (A) (A) (A) (A) (A)
                 (A) (A) (A) (A) (A) (A) (A) (A) (A) (A) (A) (A)
                 (A) (A) (A) (A) (A) (A) (A) (A) (A) (A) (A) (A)
                 (A) (A) (A) (A) (A) (A) (A) (A) (A) (A) (A) (A)
                 (A) (A) (A) (A) (A) (A) (A) (A) (A) (A) (A) (A)
                 (A) (A) (A) (A) (A) (A) (A) (A) (A) (A) (A) (A)
                 (A) (A) (A) (A) (A) (A) (A) (A) (A) (A) (A) (A)
                 (A) (A) (A) (A) (A) (A) (A) (A) (A) (A) (A) (A)
                 (A) (A) (A) (A) (A) (A) (A) (A) (A) (A) (A) (A)
                 (A) (A) (A) (A) (A) (A) (A) (A) (A) (A) (A) (A)
                 (A) (A) (A) (A) (A) (A) (A) (A) (A) (A) (A) (A)
                 (A) (A) (A) (A) (A) (A) (A) (A) (A) (A) (A) (A)
                 (A) (A) (A) (A) (A) (A) (A) (A) (A) (A) (A) (A)
                 (A) (A) (A) (A) (A) (A) (A) (A) (A) (A) (A) (A)
                 (A) (A) (A) (A) (A) (A) (A) (A) (A) (A) (A) (A)
                 (A) (A) (A) (A) (A) (A) (A) (A) (A) (A) (A) (A)
                 (A) (A) (A) (A) (A) (A) (A) (A) (A) (A) (A) (A)
                 (A) (A) (A) (A) (A) (A) (A) (A) (A) (A) (A) (A)
                 (A) (A) (A) (A) (A) (A) (A) (A) (A) (A) (A) (A)
                 (A) (A) (A) (A) (A) (A) (A) (A) (A) (A) (A) (A)
                 (A) (A) (A) (A) (A) (A) (A) (A) (A) (A) (A) (A)
                 (A) (A) (A) (A) (A) (A) (A) (A) (A) (A) (A) (A)
                 (A) (A) (A) (A) (A) (A) (A) (A) (A) (A) (A) (A)
                 (A) (A) (A) (A) (A) (A) (A) (A) (A) (A) (A) (A)
                 (A) (A) (A) (A) (A) (A) (A) (A) (A) (A) (A) (A)
                 (A) (A) (A) (A) (A) (A) (A) (A) (A) (A) (A) (A)
                 (A) (A) (A) (A) (A) (A) (A) (A) (A) (A) (A) (A)
                 (A) (A) (A) (A) (A) (A) (A) (A) (A) (A) (A) (A)
                 (A) (A) (A) (A) (A) (A) (A) (A) (A) (A) (A) (A)
                 (A) (A) (A) (A) (A) (A) (A) (A) (A) (A) (A) (A)
                 (A) (A) (A) (A) (A) (A) (A) (A) (A) (A) (A) (A)
                 (A) (A) (A) (A) (A) (A) (A) (A) (A) (A) (A) (A)
                 (A) (A) (A) (A) (A) (A)
 The electronic state is 1-A.
 Alpha  occ. eigenvalues --  -46.82004 -19.26271 -19.25151 -19.21925 -19.21428
 Alpha  occ. eigenvalues --  -19.18897 -14.41314 -14.39542 -14.39041 -14.38623
 Alpha  occ. eigenvalues --  -10.39612 -10.38678 -10.35711 -10.31893 -10.30655
 Alpha  occ. eigenvalues --  -10.30317 -10.30191 -10.30146 -10.29967 -10.29478
 Alpha  occ. eigenvalues --  -10.29416 -10.29206 -10.29199 -10.29187 -10.28976
 Alpha  occ. eigenvalues --  -10.28533 -10.28491 -10.28274 -10.28245 -10.28235
 Alpha  occ. eigenvalues --  -10.28179 -10.27899 -10.27704 -10.27499 -10.27442
 Alpha  occ. eigenvalues --  -10.27248 -10.27187 -10.27133 -10.27000 -10.26928
 Alpha  occ. eigenvalues --  -10.26789 -10.26746 -10.26655 -10.26517 -10.26161
 Alpha  occ. eigenvalues --  -10.25797 -10.25725 -10.25664 -10.25659 -10.25624
 Alpha  occ. eigenvalues --  -10.25524 -10.25520 -10.25194 -10.25175 -10.25126
 Alpha  occ. eigenvalues --  -10.24742 -10.24535 -10.24054 -10.23981 -10.23811
 Alpha  occ. eigenvalues --  -10.23806 -10.23615 -10.23342 -10.23247 -10.22611
 Alpha  occ. eigenvalues --   -3.11484  -1.86157  -1.85747  -1.85685  -1.17976
 Alpha  occ. eigenvalues --   -1.16801  -1.15594  -1.10332  -1.04365  -1.04037
 Alpha  occ. eigenvalues --   -1.03177  -1.02457  -0.99318  -0.91744  -0.91386
 Alpha  occ. eigenvalues --   -0.90942  -0.90785  -0.89865  -0.89095  -0.88754
 Alpha  occ. eigenvalues --   -0.88683  -0.87737  -0.87584  -0.86929  -0.86257
 Alpha  occ. eigenvalues --   -0.85441  -0.84409  -0.83661  -0.83332  -0.82729
 Alpha  occ. eigenvalues --   -0.81723  -0.80992  -0.80361  -0.79673  -0.77935
 Alpha  occ. eigenvalues --   -0.77295  -0.77205  -0.76781  -0.76528  -0.75839
 Alpha  occ. eigenvalues --   -0.75628  -0.75224  -0.74090  -0.73549  -0.71964
 Alpha  occ. eigenvalues --   -0.71618  -0.71123  -0.70666  -0.69819  -0.68670
 Alpha  occ. eigenvalues --   -0.68103  -0.66087  -0.65396  -0.65207  -0.64489
 Alpha  occ. eigenvalues --   -0.63679  -0.63206  -0.62624  -0.62164  -0.61652
 Alpha  occ. eigenvalues --   -0.61248  -0.60044  -0.59886  -0.59549  -0.58887
 Alpha  occ. eigenvalues --   -0.58158  -0.57996  -0.57805  -0.57046  -0.56670
 Alpha  occ. eigenvalues --   -0.56091  -0.55524  -0.55020  -0.54950  -0.54493
 Alpha  occ. eigenvalues --   -0.54295  -0.54165  -0.53947  -0.53568  -0.53309
 Alpha  occ. eigenvalues --   -0.52829  -0.52572  -0.51886  -0.51670  -0.51499
 Alpha  occ. eigenvalues --   -0.51302  -0.51066  -0.50929  -0.50680  -0.50635
 Alpha  occ. eigenvalues --   -0.50348  -0.50074  -0.49979  -0.49901  -0.49691
 Alpha  occ. eigenvalues --   -0.49411  -0.49261  -0.48993  -0.48952  -0.48854
 Alpha  occ. eigenvalues --   -0.48588  -0.47988  -0.47906  -0.47184  -0.47137
 Alpha  occ. eigenvalues --   -0.46757  -0.46297  -0.46158  -0.45928  -0.45856
 Alpha  occ. eigenvalues --   -0.45633  -0.45450  -0.45247  -0.45092  -0.44916
 Alpha  occ. eigenvalues --   -0.44738  -0.44536  -0.44455  -0.44238  -0.44030
 Alpha  occ. eigenvalues --   -0.43890  -0.43796  -0.43544  -0.43413  -0.43348
 Alpha  occ. eigenvalues --   -0.43058  -0.42987  -0.42703  -0.42423  -0.42306
 Alpha  occ. eigenvalues --   -0.42231  -0.42182  -0.41740  -0.41562  -0.41472
 Alpha  occ. eigenvalues --   -0.41343  -0.41294  -0.41155  -0.40882  -0.40700
 Alpha  occ. eigenvalues --   -0.40408  -0.40110  -0.39944  -0.39468  -0.38933
 Alpha  occ. eigenvalues --   -0.38571  -0.38254  -0.38038  -0.37683  -0.37540
 Alpha  occ. eigenvalues --   -0.37408  -0.37274  -0.37036  -0.36915  -0.36639
 Alpha  occ. eigenvalues --   -0.36408  -0.36252  -0.35832  -0.35721  -0.35468
 Alpha  occ. eigenvalues --   -0.35215  -0.34356  -0.34094  -0.33748  -0.33514
 Alpha  occ. eigenvalues --   -0.33402  -0.31869  -0.31603  -0.30994  -0.30463
 Alpha  occ. eigenvalues --   -0.30186  -0.28802  -0.28426  -0.27197  -0.23271
 Alpha  occ. eigenvalues --   -0.20612
 Alpha virt. eigenvalues --   -0.05732  -0.02419   0.02358   0.03845   0.04568
 Alpha virt. eigenvalues --    0.04766   0.05601   0.06414   0.07403   0.07719
 Alpha virt. eigenvalues --    0.08220   0.10088   0.11273   0.11352   0.11664
 Alpha virt. eigenvalues --    0.11951   0.12468   0.12742   0.12829   0.13295
 Alpha virt. eigenvalues --    0.13334   0.13524   0.13768   0.13912   0.14241
 Alpha virt. eigenvalues --    0.14713   0.14920   0.15161   0.15353   0.15500
 Alpha virt. eigenvalues --    0.15849   0.15870   0.16105   0.16360   0.16623
 Alpha virt. eigenvalues --    0.16753   0.16896   0.16925   0.17428   0.17537
 Alpha virt. eigenvalues --    0.17692   0.17862   0.18148   0.18243   0.18375
 Alpha virt. eigenvalues --    0.18824   0.18943   0.19202   0.19512   0.19687
 Alpha virt. eigenvalues --    0.19736   0.19829   0.19864   0.20111   0.20233
 Alpha virt. eigenvalues --    0.20262   0.20417   0.20711   0.20804   0.20871
 Alpha virt. eigenvalues --    0.20968   0.21177   0.21396   0.21538   0.21636
 Alpha virt. eigenvalues --    0.21930   0.21993   0.22085   0.22215   0.22369
 Alpha virt. eigenvalues --    0.23067   0.23129   0.23334   0.23534   0.23695
 Alpha virt. eigenvalues --    0.23920   0.24022   0.24031   0.24401   0.24782
 Alpha virt. eigenvalues --    0.24887   0.25200   0.25329   0.25447   0.25559
 Alpha virt. eigenvalues --    0.25697   0.25876   0.25986   0.26451   0.26523
 Alpha virt. eigenvalues --    0.26765   0.26904   0.27162   0.27304   0.27350
 Alpha virt. eigenvalues --    0.27808   0.27955   0.28392   0.28431   0.28710
 Alpha virt. eigenvalues --    0.28808   0.29072   0.29262   0.29583   0.29661
 Alpha virt. eigenvalues --    0.29923   0.30145   0.30299   0.30394   0.30806
 Alpha virt. eigenvalues --    0.31055   0.31169   0.31587   0.31794   0.31996
 Alpha virt. eigenvalues --    0.32057   0.32278   0.32586   0.33001   0.33193
 Alpha virt. eigenvalues --    0.33451   0.33839   0.33934   0.34478   0.34796
 Alpha virt. eigenvalues --    0.35153   0.35374   0.35518   0.35748   0.36102
 Alpha virt. eigenvalues --    0.36512   0.36716   0.36859   0.37928   0.38538
 Alpha virt. eigenvalues --    0.39321   0.40102   0.40446   0.40930   0.41296
 Alpha virt. eigenvalues --    0.41588   0.42290   0.43046   0.43245   0.43589
 Alpha virt. eigenvalues --    0.43886   0.44091   0.44396   0.44962   0.45156
 Alpha virt. eigenvalues --    0.46409   0.47196   0.47908   0.48318   0.49186
 Alpha virt. eigenvalues --    0.50386   0.50812   0.51829   0.52252   0.52834
 Alpha virt. eigenvalues --    0.52929   0.53383   0.53804   0.53848   0.54290
 Alpha virt. eigenvalues --    0.54656   0.54795   0.54975   0.55177   0.55402
 Alpha virt. eigenvalues --    0.55628   0.56159   0.56318   0.56500   0.56703
 Alpha virt. eigenvalues --    0.56900   0.57069   0.57314   0.57456   0.57802
 Alpha virt. eigenvalues --    0.57827   0.58206   0.58427   0.58534   0.58833
 Alpha virt. eigenvalues --    0.59014   0.59310   0.59467   0.59712   0.59778
 Alpha virt. eigenvalues --    0.59960   0.60053   0.60528   0.60618   0.61160
 Alpha virt. eigenvalues --    0.61412   0.61589   0.62036   0.62428   0.62786
 Alpha virt. eigenvalues --    0.63027   0.63264   0.63480   0.64165   0.64416
 Alpha virt. eigenvalues --    0.64597   0.64672   0.64835   0.64985   0.65569
 Alpha virt. eigenvalues --    0.65805   0.66183   0.66362   0.66511   0.66892
 Alpha virt. eigenvalues --    0.66985   0.67077   0.67236   0.67688   0.68129
 Alpha virt. eigenvalues --    0.68427   0.68698   0.68830   0.68936   0.68961
 Alpha virt. eigenvalues --    0.69146   0.69464   0.69800   0.69927   0.70094
 Alpha virt. eigenvalues --    0.70536   0.71060   0.71462   0.71687   0.71939
 Alpha virt. eigenvalues --    0.72102   0.72503   0.72643   0.72899   0.73542
 Alpha virt. eigenvalues --    0.73604   0.73713   0.73958   0.74076   0.74520
 Alpha virt. eigenvalues --    0.74673   0.75248   0.75500   0.75649   0.75812
 Alpha virt. eigenvalues --    0.76143   0.76746   0.76891   0.77075   0.77179
 Alpha virt. eigenvalues --    0.77302   0.77694   0.78005   0.78237   0.78351
 Alpha virt. eigenvalues --    0.78615   0.78627   0.78947   0.79181   0.79602
 Alpha virt. eigenvalues --    0.79813   0.80040   0.80357   0.80671   0.80901
 Alpha virt. eigenvalues --    0.81052   0.81246   0.81699   0.81810   0.82037
 Alpha virt. eigenvalues --    0.82318   0.82638   0.82908   0.83035   0.83455
 Alpha virt. eigenvalues --    0.83509   0.83626   0.83949   0.84352   0.84449
 Alpha virt. eigenvalues --    0.84763   0.84916   0.85007   0.85306   0.85755
 Alpha virt. eigenvalues --    0.85873   0.86025   0.86417   0.86644   0.86752
 Alpha virt. eigenvalues --    0.86956   0.87034   0.87427   0.87668   0.88106
 Alpha virt. eigenvalues --    0.88202   0.88315   0.88511   0.88622   0.88781
 Alpha virt. eigenvalues --    0.89249   0.89274   0.89633   0.89826   0.90092
 Alpha virt. eigenvalues --    0.90349   0.90535   0.90683   0.90737   0.91061
 Alpha virt. eigenvalues --    0.91195   0.91278   0.91402   0.91545   0.91689
 Alpha virt. eigenvalues --    0.91791   0.92054   0.92375   0.92494   0.92753
 Alpha virt. eigenvalues --    0.93307   0.93502   0.93688   0.93799   0.94303
 Alpha virt. eigenvalues --    0.94478   0.94725   0.94771   0.95006   0.95200
 Alpha virt. eigenvalues --    0.95555   0.95588   0.95741   0.96048   0.96315
 Alpha virt. eigenvalues --    0.96495   0.96615   0.96946   0.97092   0.97277
 Alpha virt. eigenvalues --    0.97552   0.97710   0.97855   0.98101   0.98461
 Alpha virt. eigenvalues --    0.98573   0.98655   0.99066   0.99189   0.99610
 Alpha virt. eigenvalues --    0.99623   0.99740   0.99976   1.00375   1.00561
 Alpha virt. eigenvalues --    1.00686   1.00798   1.00972   1.01148   1.01522
 Alpha virt. eigenvalues --    1.01879   1.02127   1.02379   1.03273   1.03400
 Alpha virt. eigenvalues --    1.03607   1.04030   1.04214   1.04529   1.04990
 Alpha virt. eigenvalues --    1.05058   1.05258   1.05347   1.05655   1.05838
 Alpha virt. eigenvalues --    1.05949   1.06662   1.06830   1.07032   1.07457
 Alpha virt. eigenvalues --    1.07577   1.07637   1.07771   1.08084   1.08209
 Alpha virt. eigenvalues --    1.08399   1.08669   1.09587   1.10091   1.10215
 Alpha virt. eigenvalues --    1.10544   1.10762   1.10997   1.11139   1.11548
 Alpha virt. eigenvalues --    1.11666   1.12834   1.13090   1.13273   1.13753
 Alpha virt. eigenvalues --    1.14454   1.14592   1.15224   1.15726   1.15843
 Alpha virt. eigenvalues --    1.16160   1.16862   1.17049   1.17904   1.18155
 Alpha virt. eigenvalues --    1.18623   1.18919   1.19643   1.20097   1.21145
 Alpha virt. eigenvalues --    1.21729   1.21895   1.21956   1.22813   1.23810
 Alpha virt. eigenvalues --    1.23902   1.24451   1.24773   1.25003   1.25201
 Alpha virt. eigenvalues --    1.25427   1.26145   1.26955   1.27020   1.28142
 Alpha virt. eigenvalues --    1.29365   1.29833   1.30326   1.30454   1.31768
 Alpha virt. eigenvalues --    1.32085   1.32443   1.32984   1.33434   1.33633
 Alpha virt. eigenvalues --    1.34302   1.34545   1.34940   1.35950   1.36320
 Alpha virt. eigenvalues --    1.36636   1.37332   1.38360   1.38544   1.38926
 Alpha virt. eigenvalues --    1.38957   1.39084   1.39393   1.39842   1.40532
 Alpha virt. eigenvalues --    1.41186   1.41480   1.42118   1.42428   1.43040
 Alpha virt. eigenvalues --    1.43213   1.43472   1.43779   1.44167   1.44667
 Alpha virt. eigenvalues --    1.45030   1.45923   1.46747   1.47001   1.47448
 Alpha virt. eigenvalues --    1.47841   1.48041   1.48434   1.48916   1.49633
 Alpha virt. eigenvalues --    1.50878   1.51475   1.51628   1.51908   1.52524
 Alpha virt. eigenvalues --    1.52764   1.53515   1.54147   1.54657   1.54938
 Alpha virt. eigenvalues --    1.55219   1.55858   1.56674   1.56852   1.56997
 Alpha virt. eigenvalues --    1.57541   1.58006   1.58238   1.58283   1.59234
 Alpha virt. eigenvalues --    1.59423   1.59911   1.60408   1.60711   1.61190
 Alpha virt. eigenvalues --    1.61926   1.62259   1.62425   1.63024   1.63376
 Alpha virt. eigenvalues --    1.64305   1.64475   1.64515   1.64889   1.65405
 Alpha virt. eigenvalues --    1.65733   1.65933   1.66480   1.66595   1.66895
 Alpha virt. eigenvalues --    1.67253   1.67521   1.67705   1.68024   1.68721
 Alpha virt. eigenvalues --    1.69356   1.69664   1.69867   1.70682   1.71183
 Alpha virt. eigenvalues --    1.71508   1.72504   1.73093   1.73349   1.73846
 Alpha virt. eigenvalues --    1.73881   1.74628   1.74771   1.75298   1.75763
 Alpha virt. eigenvalues --    1.76312   1.76449   1.76738   1.77926   1.78157
 Alpha virt. eigenvalues --    1.78582   1.78705   1.79005   1.79526   1.79835
 Alpha virt. eigenvalues --    1.80526   1.80997   1.81428   1.81746   1.81903
 Alpha virt. eigenvalues --    1.82428   1.82550   1.82791   1.83198   1.83763
 Alpha virt. eigenvalues --    1.83922   1.84815   1.85075   1.85390   1.85840
 Alpha virt. eigenvalues --    1.86256   1.86620   1.86679   1.86948   1.87197
 Alpha virt. eigenvalues --    1.87343   1.87391   1.87618   1.87787   1.88375
 Alpha virt. eigenvalues --    1.88744   1.89115   1.89262   1.89686   1.89950
 Alpha virt. eigenvalues --    1.90036   1.90311   1.90672   1.90852   1.90953
 Alpha virt. eigenvalues --    1.91076   1.91643   1.91839   1.92155   1.92454
 Alpha virt. eigenvalues --    1.92742   1.92789   1.92914   1.93255   1.93564
 Alpha virt. eigenvalues --    1.93623   1.93727   1.94231   1.94259   1.94562
 Alpha virt. eigenvalues --    1.94759   1.94910   1.95353   1.95399   1.95541
 Alpha virt. eigenvalues --    1.96104   1.96224   1.96901   1.97308   1.97501
 Alpha virt. eigenvalues --    1.98006   1.98124   1.98400   1.98630   1.98889
 Alpha virt. eigenvalues --    1.99051   1.99124   1.99453   1.99706   1.99973
 Alpha virt. eigenvalues --    2.00176   2.00641   2.00778   2.01142   2.01327
 Alpha virt. eigenvalues --    2.01906   2.02172   2.02490   2.02679   2.02869
 Alpha virt. eigenvalues --    2.03067   2.03514   2.03686   2.04114   2.04452
 Alpha virt. eigenvalues --    2.04890   2.04954   2.05333   2.05644   2.05931
 Alpha virt. eigenvalues --    2.06300   2.06696   2.06993   2.07340   2.07627
 Alpha virt. eigenvalues --    2.07671   2.07823   2.08026   2.08466   2.08913
 Alpha virt. eigenvalues --    2.09178   2.10051   2.10202   2.10274   2.10855
 Alpha virt. eigenvalues --    2.11032   2.11478   2.11653   2.11874   2.12472
 Alpha virt. eigenvalues --    2.12958   2.13064   2.13578   2.13953   2.14205
 Alpha virt. eigenvalues --    2.14375   2.14497   2.14792   2.14900   2.15161
 Alpha virt. eigenvalues --    2.15305   2.15485   2.16401   2.16628   2.17017
 Alpha virt. eigenvalues --    2.17052   2.17730   2.17962   2.18919   2.19445
 Alpha virt. eigenvalues --    2.19749   2.20209   2.20365   2.20470   2.20669
 Alpha virt. eigenvalues --    2.21303   2.21550   2.22138   2.22385   2.22803
 Alpha virt. eigenvalues --    2.23031   2.23286   2.23445   2.23679   2.24012
 Alpha virt. eigenvalues --    2.24395   2.24578   2.24847   2.25053   2.25363
 Alpha virt. eigenvalues --    2.26033   2.26339   2.26582   2.26614   2.26965
 Alpha virt. eigenvalues --    2.27443   2.27811   2.27910   2.28255   2.28814
 Alpha virt. eigenvalues --    2.29081   2.29352   2.29507   2.29772   2.29993
 Alpha virt. eigenvalues --    2.30598   2.30792   2.31222   2.31912   2.32179
 Alpha virt. eigenvalues --    2.32285   2.32557   2.32741   2.32895   2.33292
 Alpha virt. eigenvalues --    2.33367   2.34074   2.34307   2.34840   2.35162
 Alpha virt. eigenvalues --    2.35171   2.35952   2.36089   2.36160   2.36326
 Alpha virt. eigenvalues --    2.36493   2.37121   2.37318   2.37864   2.38498
 Alpha virt. eigenvalues --    2.38621   2.39075   2.39314   2.40084   2.40350
 Alpha virt. eigenvalues --    2.40772   2.40834   2.41070   2.41138   2.41248
 Alpha virt. eigenvalues --    2.41423   2.41936   2.42224   2.42475   2.42684
 Alpha virt. eigenvalues --    2.43027   2.43413   2.43473   2.43942   2.44301
 Alpha virt. eigenvalues --    2.44608   2.44649   2.44952   2.45263   2.46097
 Alpha virt. eigenvalues --    2.46252   2.46404   2.46580   2.46988   2.47323
 Alpha virt. eigenvalues --    2.47431   2.47866   2.48706   2.48948   2.49293
 Alpha virt. eigenvalues --    2.49583   2.49845   2.50042   2.50342   2.50515
 Alpha virt. eigenvalues --    2.51104   2.51561   2.51639   2.51657   2.52044
 Alpha virt. eigenvalues --    2.52321   2.52544   2.52987   2.53386   2.53504
 Alpha virt. eigenvalues --    2.54278   2.54299   2.54635   2.54801   2.55256
 Alpha virt. eigenvalues --    2.55637   2.56184   2.56301   2.56655   2.56869
 Alpha virt. eigenvalues --    2.56990   2.57595   2.58133   2.58633   2.58909
 Alpha virt. eigenvalues --    2.59085   2.60085   2.60322   2.60374   2.60616
 Alpha virt. eigenvalues --    2.61279   2.61715   2.62212   2.62657   2.63216
 Alpha virt. eigenvalues --    2.63443   2.63938   2.64162   2.64400   2.64848
 Alpha virt. eigenvalues --    2.65373   2.65730   2.65755   2.66315   2.66456
 Alpha virt. eigenvalues --    2.66817   2.66903   2.68118   2.68488   2.68857
 Alpha virt. eigenvalues --    2.69147   2.69564   2.69727   2.70020   2.70070
 Alpha virt. eigenvalues --    2.70621   2.70902   2.71486   2.71807   2.71896
 Alpha virt. eigenvalues --    2.72259   2.72620   2.72860   2.73159   2.73417
 Alpha virt. eigenvalues --    2.73867   2.74097   2.74342   2.75059   2.75196
 Alpha virt. eigenvalues --    2.75794   2.75916   2.76193   2.76371   2.76750
 Alpha virt. eigenvalues --    2.76958   2.77254   2.77439   2.78031   2.78343
 Alpha virt. eigenvalues --    2.78432   2.78758   2.78857   2.79173   2.79889
 Alpha virt. eigenvalues --    2.80148   2.80322   2.80799   2.80960   2.81318
 Alpha virt. eigenvalues --    2.81520   2.81939   2.82097   2.82416   2.82839
 Alpha virt. eigenvalues --    2.83488   2.83728   2.84390   2.84577   2.85105
 Alpha virt. eigenvalues --    2.85724   2.86091   2.86570   2.86817   2.87301
 Alpha virt. eigenvalues --    2.87512   2.87830   2.88135   2.88517   2.89090
 Alpha virt. eigenvalues --    2.89319   2.89859   2.90032   2.90564   2.90625
 Alpha virt. eigenvalues --    2.91022   2.91321   2.91626   2.91929   2.92018
 Alpha virt. eigenvalues --    2.92617   2.92965   2.93717   2.94072   2.94144
 Alpha virt. eigenvalues --    2.94413   2.94740   2.94854   2.95681   2.95869
 Alpha virt. eigenvalues --    2.96902   2.97350   2.97755   2.98222   2.98970
 Alpha virt. eigenvalues --    2.99207   2.99279   2.99559   2.99812   2.99930
 Alpha virt. eigenvalues --    3.00433   3.00687   3.00974   3.01680   3.02348
 Alpha virt. eigenvalues --    3.03523   3.04195   3.04339   3.04842   3.05167
 Alpha virt. eigenvalues --    3.05543   3.05609   3.06148   3.06293   3.07096
 Alpha virt. eigenvalues --    3.07408   3.08834   3.09823   3.10124   3.10333
 Alpha virt. eigenvalues --    3.11167   3.11252   3.11725   3.12135   3.13001
 Alpha virt. eigenvalues --    3.13727   3.14203   3.14438   3.14998   3.15690
 Alpha virt. eigenvalues --    3.16183   3.17548   3.17597   3.17954   3.19268
 Alpha virt. eigenvalues --    3.20087   3.20681   3.21257   3.23019   3.24861
 Alpha virt. eigenvalues --    3.25051   3.25072   3.26612   3.27133   3.27967
 Alpha virt. eigenvalues --    3.28475   3.28833   3.29446   3.29560   3.30364
 Alpha virt. eigenvalues --    3.30674   3.31220   3.31657   3.32131   3.32390
 Alpha virt. eigenvalues --    3.33115   3.33896   3.34362   3.35177   3.35599
 Alpha virt. eigenvalues --    3.36488   3.37659   3.38038   3.38284   3.39168
 Alpha virt. eigenvalues --    3.39989   3.40295   3.41140   3.41170   3.42973
 Alpha virt. eigenvalues --    3.44320   3.44781   3.45206   3.45240   3.46777
 Alpha virt. eigenvalues --    3.47102   3.47528   3.48396   3.50066   3.50402
 Alpha virt. eigenvalues --    3.51270   3.51647   3.52237   3.52845   3.53162
 Alpha virt. eigenvalues --    3.53707   3.53902   3.55319   3.56099   3.58438
 Alpha virt. eigenvalues --    3.58973   3.59975   3.60685   3.60876   3.61407
 Alpha virt. eigenvalues --    3.61821   3.62730   3.62970   3.66925   3.67991
 Alpha virt. eigenvalues --    3.68143   3.68216   3.70135   3.71450   3.71749
 Alpha virt. eigenvalues --    3.74234   3.76423   3.76978   3.80122   3.81709
 Alpha virt. eigenvalues --    3.84953   3.86985   3.90823   3.95283   4.06429
 Alpha virt. eigenvalues --    4.08532   4.11349   4.17124   4.18921   4.22687
 Alpha virt. eigenvalues --    4.24977   4.25619   4.25936   4.26707   4.27221
 Alpha virt. eigenvalues --    4.28965   4.30595   4.31171   4.31790   4.32603
 Alpha virt. eigenvalues --    4.34596   4.34759   4.37232   4.38930   4.39137
 Alpha virt. eigenvalues --    4.41025   4.42091   4.42399   4.43967   4.44484
 Alpha virt. eigenvalues --    4.46579   4.46900   4.47572   4.48652   4.49350
 Alpha virt. eigenvalues --    4.50338   4.53411   4.54017   4.54394   4.56342
 Alpha virt. eigenvalues --    4.57363   4.57895   4.58194   4.58786   4.58944
 Alpha virt. eigenvalues --    4.61316   4.62080   4.64508   4.64909   4.68663
 Alpha virt. eigenvalues --    4.69651   4.70363   4.71112   4.72066   4.73469
 Alpha virt. eigenvalues --    4.74599   4.76348   4.76610   4.79213   4.80211
 Alpha virt. eigenvalues --    4.84954   4.85181   4.88352   4.89391   4.89964
 Alpha virt. eigenvalues --    4.89969   4.93321   5.04539
          Condensed to atoms (all electrons):
 Mulliken charges:
               1
     1  Mg   0.799897
     2  C    0.064564
     3  C   -0.225423
     4  C   -0.168406
     5  C   -0.187387
     6  N   -0.614716
     7  C    0.223443
     8  C   -0.122531
     9  C   -0.171908
    10  C    0.367427
    11  C   -0.313721
    12  C   -0.163095
    13  C   -0.250120
    14  C    0.569094
    15  O   -0.510624
    16  O   -0.483306
    17  N   -0.712817
    18  C    0.314480
    19  C    0.041354
    20  C    0.021114
    21  C    0.293465
    22  C   -0.377382
    23  C   -0.036392
    24  C   -0.265323
    25  N   -0.678119
    26  C    0.287674
    27  C    0.032652
    28  C    0.003817
    29  C    0.254680
    30  C   -0.366037
    31  C   -0.212032
    32  C   -0.323241
    33  N   -0.718323
    34  C    0.270492
    35  C    0.014922
    36  C   -0.003709
    37  C    0.316815
    38  C   -0.364215
    39  C    0.387834
    40  O   -0.393167
    41  C   -0.341283
    42  C    0.622661
    43  O   -0.450277
    44  O   -0.459385
    45  C   -0.077071
    46  C    0.082936
    47  C   -0.185515
    48  C    0.162960
    49  C   -0.363114
    50  C   -0.241437
    51  C   -0.184680
    52  C   -0.176625
    53  C   -0.097605
    54  C   -0.311817
    55  C   -0.146843
    56  C   -0.196391
    57  C   -0.176867
    58  C   -0.058307
    59  C   -0.311806
    60  C   -0.142543
    61  C   -0.188359
    62  C   -0.151784
    63  C   -0.069292
    64  C   -0.294731
    65  C   -0.305784
    66  H    0.079823
    67  H    0.090143
    68  H    0.075730
    69  H    0.137737
    70  H    0.087891
    71  H    0.103814
    72  H    0.123757
    73  H    0.137199
    74  H    0.143218
    75  H    0.117006
    76  H    0.113460
    77  H    0.148645
    78  H    0.097518
    79  H    0.119296
    80  H    0.110254
    81  H    0.086398
    82  H    0.093628
    83  H    0.111026
    84  H    0.121054
    85  H    0.100092
    86  H    0.114740
    87  H    0.110550
    88  H    0.115016
    89  H    0.082102
    90  H    0.117079
    91  H    0.122201
    92  H    0.098990
    93  H    0.136634
    94  H    0.133625
    95  H    0.155329
    96  H    0.093856
    97  H    0.126590
    98  H    0.128680
    99  H    0.141013
   100  H    0.125101
   101  H    0.088703
   102  H    0.114933
   103  H    0.116334
   104  H    0.084183
   105  H    0.114202
   106  H    0.101283
   107  H    0.104728
   108  H    0.109346
   109  H    0.098794
   110  H    0.087724
   111  H    0.048095
   112  H    0.104664
   113  H    0.116891
   114  H    0.109634
   115  H    0.096052
   116  H    0.093033
   117  H    0.085620
   118  H    0.084957
   119  H    0.088046
   120  H    0.102664
   121  H    0.062061
   122  H    0.067547
   123  H    0.119813
   124  H    0.080942
   125  H    0.101345
   126  H    0.069745
   127  H    0.086639
   128  H    0.094442
   129  H    0.061504
   130  H    0.089844
   131  H    0.067349
   132  H    0.112034
   133  H    0.116742
   134  H    0.073451
   135  H    0.099846
   136  H    0.110769
   137  H    0.098077
 Sum of Mulliken charges =   0.00000
 Mulliken charges with hydrogens summed into heavy atoms:
               1
     1  Mg   0.799897
     2  C    0.064564
     3  C   -0.145600
     4  C   -0.078264
     5  C   -0.111657
     6  N   -0.614716
     7  C    0.223443
     8  C    0.015206
     9  C   -0.084016
    10  C    0.367427
    11  C    0.051048
    12  C    0.097129
    13  C    0.011985
    14  C    0.569094
    15  O   -0.510624
    16  O   -0.483306
    17  N   -0.712817
    18  C    0.314480
    19  C    0.041354
    20  C    0.021114
    21  C    0.293465
    22  C   -0.050314
    23  C    0.050006
    24  C   -0.060669
    25  N   -0.678119
    26  C    0.287674
    27  C    0.032652
    28  C    0.003817
    29  C    0.254680
    30  C   -0.030151
    31  C    0.013535
    32  C   -0.001859
    33  N   -0.718323
    34  C    0.270492
    35  C    0.014922
    36  C   -0.003709
    37  C    0.316815
    38  C    0.005034
    39  C    0.387834
    40  O   -0.393167
    41  C   -0.185954
    42  C    0.622661
    43  O   -0.450277
    44  O   -0.459385
    45  C    0.272055
    46  C    0.349050
    47  C   -0.096812
    48  C    0.162960
    49  C   -0.047664
    50  C   -0.025952
    51  C    0.029394
    52  C    0.009892
    53  C   -0.049509
    54  C    0.019372
    55  C    0.042242
    56  C   -0.025814
    57  C    0.013843
    58  C    0.003754
    59  C   -0.043503
    60  C    0.028547
    61  C   -0.007279
    62  C   -0.000436
    63  C   -0.001944
    64  C    0.007496
    65  C    0.002909
 Electronic spatial extent (au):  <R**2>=         180134.7400
 Charge=              0.0000 electrons
 Dipole moment (field-independent basis, Debye):
    X=              2.5756    Y=              4.1228    Z=              0.6624  Tot=              4.9061
 Quadrupole moment (field-independent basis, Debye-Ang):
   XX=           -349.7600   YY=           -390.1448   ZZ=           -395.7229
   XY=             -6.7008   XZ=              6.2006   YZ=             -3.9222
 Traceless Quadrupole moment (field-independent basis, Debye-Ang):
   XX=             28.7826   YY=            -11.6022   ZZ=            -17.1804
   XY=             -6.7008   XZ=              6.2006   YZ=             -3.9222
 Octapole moment (field-independent basis, Debye-Ang**2):
  XXX=           -358.8084  YYY=             69.8280  ZZZ=             12.4012  XYY=            -46.3846
  XXY=            134.4821  XXZ=           -150.8381  XZZ=            -17.8096  YZZ=            -30.7557
  YYZ=             56.2514  XYZ=            -50.0728
 Hexadecapole moment (field-independent basis, Debye-Ang**3):
 XXXX=        -217594.7156 YYYY=         -17512.9255 ZZZZ=          -4446.2870 XXXY=           1954.7750
 XXXZ=           1834.4212 YYYX=           -569.3147 YYYZ=           -150.8755 ZZZX=             53.4001
 ZZZY=           -156.1689 XXYY=         -39713.1567 XXZZ=         -38985.7475 YYZZ=          -3506.9394
 XXYZ=            -61.1289 YYXZ=           -155.7881 ZZXY=            115.3321
 N-N= 8.742789488145D+03 E-N=-2.430942337610D+04  KE= 2.906291960582D+03
 1\1\GINC-PEDRO-RYZENSSD\SP\RCAM-B3LYP TD-FC\6-31G(d,p)\C55H72Mg1N4O5\P
 ADAWAN\04-Jul-2019\0\\# td=(NStates=1) CAM-B3LYP/6-31G(d,p)\\TD\\0,1\M
 g,0,-7.1042710001,0.5920679549,0.1046581532\C,0,-4.8803226503,-1.99211
 03894,0.5978263153\C,0,-4.7646563945,2.7916376111,1.1628326482\C,0,-9.
 3880635419,3.1464401395,-0.4817410338\C,0,-9.5106713808,-1.7052960406,
 -0.7108975189\N,0,-5.1538788125,0.4458844065,0.7405944777\C,0,-4.35543
 52496,-0.7439042124,0.8768957128\C,0,-2.8804270481,-0.4711565414,1.078
 35819\C,0,-2.9972631647,1.0005927276,1.6115418849\C,0,-4.3711841133,1.
 4367844272,1.1990169316\C,0,-2.8991649986,1.2272950176,3.1081222211\C,
 0,-1.9856620272,-0.8020554669,-0.0464206838\C,0,-0.5967270953,-0.48729
 30765,0.4476688962\C,0,0.4153926765,-0.6569392068,-0.6795933398\O,0,0.
 2496462047,-1.3644418518,-1.7351698487\O,0,1.6603678473,-0.4774751439,
 -0.3026870576\N,0,-7.0930797559,2.561981788,0.3916678623\C,0,-6.058915
 1705,3.3355245283,0.8822017538\C,0,-6.4354007932,4.7039346829,0.796410
 3282\C,0,-7.6545281598,4.7903496665,0.382326624\C,0,-8.1555698286,3.43
 81430096,0.0893114774\C,0,-5.4818561423,5.7440068666,1.202364997\C,0,-
 8.5707648741,6.019132947,0.3396309485\C,0,-8.3975636477,7.2167777964,0
 .8027065205\N,0,-9.0307453471,0.661479009,-0.6040744411\C,0,-9.8268589
 456,1.8457345266,-0.7554718713\C,0,-11.1123803346,1.4610344425,-1.2689
 686164\C,0,-11.2117335773,0.1146568298,-1.3355922732\C,0,-9.9200476855
 ,-0.4405660309,-0.9111061267\C,0,-12.1320320269,2.5488654575,-1.525349
 3097\C,0,-12.419866533,-0.7082682369,-1.8026010686\C,0,-12.2670941978,
 -0.9736497762,-3.292734392\N,0,-7.2516646348,-1.3338129949,-0.07907258
 43\C,0,-8.3125514949,-2.2046456367,-0.4789128465\C,0,-7.8407902246,-3.
 5990481723,-0.5031575931\C,0,-6.5669005742,-3.5803123682,-0.0474664785
 \C,0,-6.2672893253,-2.1783361149,0.1679495992\C,0,-8.7380812755,-4.798
 1826607,-0.8213506135\C,0,-5.3649809684,-4.4177656601,0.2604989225\O,0
 ,-5.1845772956,-5.5510495884,0.1743444651\C,0,-4.2345870381,-3.3777135
 612,0.6904789132\C,0,-3.6386644973,-3.7012653478,2.0559859715\O,0,-3.8
 822198226,-3.1008368199,3.0718298641\O,0,-2.6716483585,-4.716006323,1.
 9646150424\C,0,-2.3637069586,-5.2908033094,3.1889838339\C,0,2.80459297
 1,-0.5746652611,-1.2731085113\C,0,4.1322653155,-0.3141095873,-0.676827
 8318\C,0,5.1647999644,0.4362398894,-1.1388736601\C,0,5.1837868017,1.15
 39080401,-2.4226964349\C,0,6.4215564884,0.6429161418,-0.3058170669\C,0
 ,7.6933968776,-0.1174620931,-1.0338703375\C,0,8.9280746801,-0.10216534
 69,-0.104042217\C,0,10.2118718117,-0.4768047522,-0.9490058711\C,0,10.2
 005267529,-1.980849021,-1.5084843134\C,0,11.4066135383,-0.178461627,-0
 .0164007715\C,0,12.8251774254,-0.4665307042,-0.6015501779\C,0,13.98313
 77822,-0.0389650993,0.276274695\C,0,15.3671228372,-0.1846821973,-0.426
 6008999\C,0,15.6490465736,-1.6963272665,-0.7220118189\C,0,16.387682874
 2,0.5489892589,0.4031848257\C,0,17.7841430037,0.5981612145,-0.21874768
 94\C,0,18.8679671662,1.2662848455,0.7020306361\C,0,20.2056492341,1.422
 9426278,0.2227870419\C,0,20.40906226,2.2711254097,-1.0270036931\C,0,21
 .2349044212,1.7355564919,1.3934347069\H,0,-3.830744559,3.3742929507,1.
 2880333902\H,0,-9.9990502977,4.1330341384,-0.5202074122\H,0,-10.327556
 045,-2.3101103518,-0.9487515274\H,0,-2.8152779847,-1.0159199059,2.0107
 817694\H,0,-2.2856321684,1.7361271953,0.9207627267\H,0,-1.9176162191,0
 .801980651,3.5050442179\H,0,-3.1014952095,2.2856426218,3.3020323686\H,
 0,-3.5437678195,0.6242571097,3.7644988627\H,0,-1.9230747924,-1.8686468
 251,-0.6639002992\H,0,-2.1806697395,-0.0310858582,-0.8480248421\H,0,-0
 .5399675142,0.6945940733,0.7540858077\H,0,-0.2036681688,-1.1685413693,
 1.2892428795\H,0,-5.8871974951,6.8814267868,1.0515308623\H,0,-5.454282
 4176,5.5655299161,2.3553618333\H,0,-4.4084848045,5.8400151679,0.658449
 0205\H,0,-9.5518072332,5.8500211502,-0.2252527535\H,0,-9.3109223081,7.
 8912098599,0.6103906609\H,0,-7.6523246983,7.5590923087,1.6381121967\H,
 0,-11.7710612112,3.4127816042,-2.1222052252\H,0,-13.0515448237,2.15398
 92901,-2.137424934\H,0,-12.2572174528,2.9512537801,-0.4149027343\H,0,-
 12.3552703054,-1.6168511302,-1.2691318681\H,0,-13.2831470336,-0.219858
 7227,-1.5296984973\H,0,-12.977804133,-1.7441491011,-3.6979096755\H,0,-
 12.4702005843,-0.2508996276,-4.0426077565\H,0,-11.4358598653,-1.504665
 3336,-3.6072193419\H,0,-9.108610464,-4.8218929322,-2.0283160957\H,0,-8
 .2389432591,-5.8380738116,-0.706340247\H,0,-9.5495148364,-4.6943844597
 ,-0.0882806507\H,0,-3.3151222081,-3.5384270934,-0.0099062621\H,0,-1.75
 68638529,-4.5720136411,3.8993228476\H,0,-3.0698365923,-5.6700786255,3.
 9324360825\H,0,-1.8227103825,-6.0336026335,2.766250578\H,0,2.920101314
 2,-1.5276646024,-1.4490588709\H,0,2.470094487,0.2178860682,-1.99494264
 65\H,0,4.4796588715,-1.0793801532,0.1447976958\H,0,4.2336723307,1.5368
 823986,-3.0041387836\H,0,5.8470801197,2.0748277417,-2.7950259708\H,0,5
 .7248697946,0.2515862661,-3.212649996\H,0,6.7397060335,1.6686908691,-0
 .1325206093\H,0,6.4026943888,0.1886108237,0.731492866\H,0,7.45285267,-
 0.9763068659,-1.4142327469\H,0,7.9511375497,0.3857917873,-1.8725501786
 \H,0,9.023704422,0.8778556706,0.2786754997\H,0,8.9901575045,-0.9006055
 668,0.6811059743\H,0,10.385596111,0.2646790056,-1.8897638659\H,0,9.335
 1585014,-2.1759055671,-2.0311490397\H,0,10.9844710028,-1.9860653904,-2
 .2970039443\H,0,10.0392368097,-2.5300049425,-0.6748469244\H,0,11.36785
 44663,0.8037726075,0.1781293004\H,0,11.2719702504,-0.6733232936,0.7954
 001616\H,0,13.0410874276,-1.5461227735,-0.9140590735\H,0,12.9599597485
 ,0.1681575068,-1.4797613374\H,0,13.8493763743,0.9209046465,0.636140957
 1\H,0,14.0726200151,-0.7598455893,1.0220687234\H,0,15.3367769662,0.291
 0685919,-1.5156659246\H,0,15.7761550584,-2.4077910712,0.2608846346\H,0
 ,14.9714601967,-2.2895113267,-1.2709745126\H,0,16.7734169711,-1.829468
 4717,-1.1436158311\H,0,15.9728124819,1.3648843221,0.6549220365\H,0,16.
 3203964868,0.0713679617,1.448957657\H,0,18.0811990586,-0.4501715646,-0
 .5417675172\H,0,17.7019572602,1.133530672,-1.1721007859\H,0,18.5381446
 071,2.3454987076,0.8435823635\H,0,18.80159732,0.75849003,1.6765276531\
 H,0,20.276262539,0.314457594,-0.0170546415\H,0,20.1655606627,3.2449680
 587,-0.926356229\H,0,21.3225265048,2.1061472675,-1.3119325566\H,0,19.5
 921631207,1.8613779486,-1.8416211311\H,0,21.01814779,1.0641845276,2.23
 28629035\H,0,22.152726979,1.6806592956,1.1062955959\H,0,21.0256522951,
 2.772117295,1.6307035109\\Version=ES64L-G09RevD.01\State=1-A\HF=-2932.
 5869879\RMSD=9.560e-09\PG=C01 [X(C55H72Mg1N4O5)]\\@


 I WANT TO KNOW HOW GOD CREATED THE WORLD.  I AM NOT INTERESTED IN
 THIS OR THAT PHENOMENON, IN THE SPECTRUM OF THIS OR THAT ELEMENT.
 I WANT TO KNOW HIS THOUGHTS, THE REST ARE DETAILS.
     -- ALBERT EINSTEIN
 Job cpu time:       0 days  6 hours 49 minutes 11.9 seconds.
 File lengths (MBytes):  RWF=   2106 Int=      0 D2E=      0 Chk=    163 Scr=      1
 Normal termination of Gaussian 09 at Thu Jul  4 03:55:13 2019.
