 Entering Gaussian System, Link 0=g16
 Input=Geometria-123-.com
 Output=Geometria-123-.log
 Initial command:
 /usr/local/g16/l1.exe "/home/padawan/israel-mol/chlorophyll-a/spectra/emi/Gau-57422.inp" -scrdir="/home/padawan/israel-mol/chlorophyll-a/spectra/emi/"
 Entering Link 1 = /usr/local/g16/l1.exe PID=     57424.
  
 Copyright (c) 1988,1990,1992,1993,1995,1998,2003,2009,2016,
            Gaussian, Inc.  All Rights Reserved.
  
 This is part of the Gaussian(R) 16 program.  It is based on
 the Gaussian(R) 09 system (copyright 2009, Gaussian, Inc.),
 the Gaussian(R) 03 system (copyright 2003, Gaussian, Inc.),
 the Gaussian(R) 98 system (copyright 1998, Gaussian, Inc.),
 the Gaussian(R) 94 system (copyright 1995, Gaussian, Inc.),
 the Gaussian 92(TM) system (copyright 1992, Gaussian, Inc.),
 the Gaussian 90(TM) system (copyright 1990, Gaussian, Inc.),
 the Gaussian 88(TM) system (copyright 1988, Gaussian, Inc.),
 the Gaussian 86(TM) system (copyright 1986, Carnegie Mellon
 University), and the Gaussian 82(TM) system (copyright 1983,
 Carnegie Mellon University). Gaussian is a federally registered
 trademark of Gaussian, Inc.
  
 This software contains proprietary and confidential information,
 including trade secrets, belonging to Gaussian, Inc.
  
 This software is provided under written license and may be
 used, copied, transmitted, or stored only in accord with that
 written license.
  
 The following legend is applicable only to US Government
 contracts under FAR:
  
                    RESTRICTED RIGHTS LEGEND
  
 Use, reproduction and disclosure by the US Government is
 subject to restrictions as set forth in subparagraphs (a)
 and (c) of the Commercial Computer Software - Restricted
 Rights clause in FAR 52.227-19.
  
 Gaussian, Inc.
 340 Quinnipiac St., Bldg. 40, Wallingford CT 06492
  
  
 ---------------------------------------------------------------
 Warning -- This program may not be used in any manner that
 competes with the business of Gaussian, Inc. or will provide
 assistance to any competitor of Gaussian, Inc.  The licensee
 of this program is prohibited from giving any competitor of
 Gaussian, Inc. access to this program.  By using this program,
 the user acknowledges that Gaussian, Inc. is engaged in the
 business of creating and licensing software in the field of
 computational chemistry and represents and warrants to the
 licensee that it is not a competitor of Gaussian, Inc. and that
 it will not use this program in any manner prohibited above.
 ---------------------------------------------------------------
  

 Cite this work as:
 Gaussian 16, Revision A.03,
 M. J. Frisch, G. W. Trucks, H. B. Schlegel, G. E. Scuseria, 
 M. A. Robb, J. R. Cheeseman, G. Scalmani, V. Barone, 
 G. A. Petersson, H. Nakatsuji, X. Li, M. Caricato, A. V. Marenich, 
 J. Bloino, B. G. Janesko, R. Gomperts, B. Mennucci, H. P. Hratchian, 
 J. V. Ortiz, A. F. Izmaylov, J. L. Sonnenberg, D. Williams-Young, 
 F. Ding, F. Lipparini, F. Egidi, J. Goings, B. Peng, A. Petrone, 
 T. Henderson, D. Ranasinghe, V. G. Zakrzewski, J. Gao, N. Rega, 
 G. Zheng, W. Liang, M. Hada, M. Ehara, K. Toyota, R. Fukuda, 
 J. Hasegawa, M. Ishida, T. Nakajima, Y. Honda, O. Kitao, H. Nakai, 
 T. Vreven, K. Throssell, J. A. Montgomery, Jr., J. E. Peralta, 
 F. Ogliaro, M. J. Bearpark, J. J. Heyd, E. N. Brothers, K. N. Kudin, 
 V. N. Staroverov, T. A. Keith, R. Kobayashi, J. Normand, 
 K. Raghavachari, A. P. Rendell, J. C. Burant, S. S. Iyengar, 
 J. Tomasi, M. Cossi, J. M. Millam, M. Klene, C. Adamo, R. Cammi, 
 J. W. Ochterski, R. L. Martin, K. Morokuma, O. Farkas, 
 J. B. Foresman, and D. J. Fox, Gaussian, Inc., Wallingford CT, 2016.
 
 ******************************************
 Gaussian 16:  ES64L-G16RevA.03 25-Dec-2016
                 7-Sep-2019 
 ******************************************
 %nproc=4
 Will use up to    4 processors via shared memory.
 %Mem=3GB
 ----------------------------------------------------------------------
 # td=(NStates=1) iop(3/107=0140000000,3/108=0140000000) CAM-B3LYP/6-31
 G(d,p)
 ----------------------------------------------------------------------
 1/38=1,172=1/1;
 2/12=2,17=6,18=5,40=1/2;
 3/5=1,6=6,7=101,11=9,25=1,30=1,74=-40,107=140000000,108=140000000/1,2,3,8;
 4//1;
 5/5=2,38=5/2;
 8/6=1,10=2,108=1/1;
 9/41=1,42=1,70=2/14;
 6/7=2,8=2,9=2,10=2/1;
 99/5=1,9=1/99;
 --
 TD
 --
 Symbolic Z-matrix:
 Charge =  0 Multiplicity = 1
 12                   -7.13405   0.61925   0.17078 
 6                    -4.88095  -1.95082   0.49642 
 6                    -4.72868   2.82232   1.06673 
 6                    -9.38555   3.16779  -0.36211 
 6                    -9.57532  -1.6668   -0.75083 
 7                    -5.12182   0.34998   0.6903 
 6                    -4.37053  -0.76378   0.73083 
 6                    -2.90227  -0.387     1.16346 
 6                    -3.01995   1.02921   1.58943 
 6                    -4.34057   1.48577   1.03874 
 6                    -2.89889   1.19788   3.10754 
 6                    -1.84507  -0.51732  -0.04309 
 6                    -0.43876  -0.42905   0.40014 
 6                     0.54813  -0.78583  -0.59542 
 8                     0.36486  -1.19712  -1.72531 
 8                     1.7978   -0.37229  -0.22762 
 7                    -7.01888   2.57802   0.34607 
 6                    -5.98902   3.40414   0.71767 
 6                    -6.33671   4.75429   0.81739 
 6                    -7.63613   4.75651   0.36548 
 6                    -8.09112   3.46518   0.06847 
 6                    -5.44775   5.75056   1.33118 
 6                    -8.44049   6.03186   0.0557 
 6                    -8.31944   7.16217   0.65418 
 7                    -9.12504   0.68518  -0.48615 
 6                    -9.90326   1.84639  -0.5358 
 6                    -11.22613   1.4801   -0.94229 
 6                    -11.26015   0.15718  -1.14265 
 6                    -9.93539  -0.3229   -0.79209 
 6                    -12.28489   2.64798  -1.36851 
 6                    -12.44137  -0.70885  -1.55571 
 6                    -12.32973  -1.11887  -3.10045 
 7                    -7.2359   -1.33597  -0.15373 
 6                    -8.2399   -2.20144  -0.53164 
 6                    -7.77949  -3.52434  -0.56746 
 6                    -6.4656   -3.51604  -0.30021 
 6                    -6.2079   -2.15129   0.06747 
 6                    -8.72275  -4.776    -0.87597 
 6                    -5.2832   -4.20096   0.19935 
 8                    -5.36233  -5.4864    0.20493 
 6                    -4.14236  -3.26202   0.51045 
 6                    -3.60427  -3.6286    1.82031 
 8                    -3.77865  -3.20098   2.88144 
 8                    -2.67527  -4.63932   1.62884 
 6                    -2.12436  -5.18618   2.82704 
 6                     2.83957  -0.74351  -1.22273 
 6                     4.17299  -0.60946  -0.59029 
 6                     5.05221   0.25516  -1.09737 
 6                     5.01199   1.10144  -2.36582 
 6                     6.42299   0.26651  -0.28667 
 6                     7.63938  -0.15454  -1.00003 
 6                     8.96901  -0.18543  -0.0451 
 6                     10.18481  -0.45369  -0.81451 
 6                     10.14414  -2.00739  -1.27123 
 6                     11.33106  -0.36592   0.10712 
 6                     12.778   -0.70276  -0.5761 
 6                     13.96899  -0.1223    0.22274 
 6                     15.40216  -0.30911  -0.39743 
 6                     15.68403  -1.74013  -0.70044 
 6                     16.34683   0.34675   0.62801 
 6                     17.75394   0.53557  -0.11486 
 6                     18.64173   1.4551    0.78718 
 6                     20.0864   1.46192   0.25587 
 6                     20.18172   2.09165  -1.1094 
 6                     21.07525   2.22407   1.12494 
 1                    -3.91041   3.48125   1.39285 
 1                    -10.05065   4.07389  -0.29635 
 1                    -10.6107  -2.41234  -0.81415 
 1                    -2.56678  -1.06545   1.98169 
 1                    -2.1212    1.54553   1.05718 
 1                    -1.76987   0.82856   3.3355 
 1                    -2.83735   2.2037    3.5603 
 1                    -3.50877   0.46089   3.61812 
 1                    -2.04436  -1.47897  -0.42245 
 1                    -2.16583   0.07906  -0.85513 
 1                    -0.24462   0.72127   0.82263 
 1                    -0.21036  -1.32993   1.20322 
 1                    -5.62557   6.61219   0.77492 
 1                    -5.66065   6.0974    2.47113 
 1                    -4.55826   5.45002   1.20171 
 1                    -9.11497   6.09015  -0.83319 
 1                    -9.03134   7.99718   0.5117 
 1                    -7.57614   7.50574   1.42895 
 1                    -12.00501   3.42287  -2.11388 
 1                    -13.12946   2.32247  -1.86292 
 1                    -12.65439   3.1956   -0.55506 
 1                    -12.32304  -1.54941  -0.98115 
 1                    -13.46922  -0.36014  -1.4479 
 1                    -13.30756  -1.62621  -3.30746 
 1                    -12.17393  -0.18028  -3.70815 
 1                    -11.48609  -2.00052  -3.24452 
 1                    -8.9703   -4.85585  -2.01751 
 1                    -8.05059  -5.88639  -0.5108 
 1                    -9.72115  -4.74154  -0.46576 
 1                    -3.60996  -3.4459   -0.33237 
 1                    -1.73632  -4.3009    3.43905 
 1                    -2.88423  -5.64935   3.47935 
 1                    -1.47489  -5.96595   2.42896 
 1                     2.7553   -1.68278  -1.73204 
 1                     2.51286  -0.12944  -1.97264 
 1                     4.49592  -1.15205   0.20825 
 1                     4.00479   1.188    -2.81809 
 1                     5.32209   2.16354  -2.10302 
 1                     5.76123   0.73799  -3.10814 
 1                     6.63628   1.40281   0.06444 
 1                     6.17202  -0.09679   0.72876 
 1                     7.51505  -1.22642  -1.34733 
 1                     7.80263   0.61766  -1.99487 
 1                     9.0393    0.78503   0.38036 
 1                     8.91522  -1.02374   0.80477 
 1                     10.39123   0.43389  -1.53643 
 1                     9.17592  -2.05694  -1.96905 
 1                     11.05532  -2.30582  -1.77821 
 1                     9.76818  -2.61054  -0.21499 
 1                     11.41173   0.69296   0.27071 
 1                     11.09616  -0.91982   1.16889 
 1                     12.93601  -1.63806  -0.84957 
 1                     12.74662  -0.13664  -1.52648 
 1                     13.84742   0.88716   0.36337 
 1                     13.92361  -0.74259   1.19618 
 1                     15.62233   0.32991  -1.31571 
 1                     15.72163  -2.30463   0.14526 
 1                     14.93986  -2.19452  -1.37056 
 1                     16.6843  -1.75434  -1.1884 
 1                     16.00049   1.33084   0.97759 
 1                     16.43902  -0.24198   1.5072 
 1                     18.39961  -0.45253  -0.49159 
 1                     17.39198   1.09164  -1.09089 
 1                     18.34304   2.47647   0.66381 
 1                     18.71901   1.11014   1.79345 
 1                     20.45689   0.54494   0.16535 
 1                     19.91706   3.15128  -1.27176 
 1                     21.18026   2.35653  -1.32567 
 1                     19.83053   1.46129  -1.95441 
 1                     21.0268   1.86878   2.20746 
 1                     22.22466   1.98145   0.86157 
 1                     20.83395   3.26731   1.17568 
 
 Stoichiometry    C55H72MgN4O5
 Framework group  C1[X(C55H72MgN4O5)]
 Deg. of freedom   405
 Full point group                 C1      NOp   1
 Largest Abelian subgroup         C1      NOp   1
 Largest concise Abelian subgroup C1      NOp   1
                         Standard orientation:                         
 ---------------------------------------------------------------------
 Center     Atomic      Atomic             Coordinates (Angstroms)
 Number     Number       Type             X           Y           Z
 ---------------------------------------------------------------------
      1         12           0       -7.133855    0.616740    0.169728
      2          6           0       -4.880134   -1.950853    0.510284
      3          6           0       -4.728505    2.825758    1.050957
      4          6           0       -9.386059    3.161522   -0.377952
      5          6           0       -9.575107   -1.675421   -0.736643
      6          7           0       -5.121350    0.351063    0.690018
      7          6           0       -4.369835   -0.762286    0.737120
      8          6           0       -2.901453   -0.382564    1.166767
      9          6           0       -3.019210    1.036234    1.584002
     10          6           0       -4.340164    1.489134    1.031076
     11          6           0       -2.897519    1.214326    3.100986
     12          6           0       -1.844760   -0.520161   -0.039418
     13          6           0       -0.438272   -0.428888    0.402645
     14          6           0        0.548246   -0.791645   -0.591121
     15          8           0        0.364559   -1.209966   -1.718362
     16          8           0        1.798001   -0.375607   -0.226435
     17          7           0       -7.018975    2.576580    0.332825
     18          6           0       -5.989106    3.405177    0.698853
     19          6           0       -6.337003    4.755853    0.790364
     20          6           0       -7.636621    4.755031    0.339020
     21          6           0       -8.091500    3.461809    0.050215
     22          6           0       -5.448003    5.755452    1.297588
     23          6           0       -8.441359    6.028297    0.021693
     24          6           0       -8.320254    7.162306    0.613112
     25          7           0       -9.125147    0.678230   -0.486725
     26          6           0       -9.903602    1.838970   -0.543226
     27          6           0      -11.226579    1.469926   -0.946863
     28          6           0      -11.260440    0.145790   -1.139017
     29          6           0       -9.935443   -0.331872   -0.786067
     30          6           0      -12.285746    2.634952   -1.379842
     31          6           0      -12.441681   -0.722998   -1.546189
     32          6           0      -12.330646   -1.142562   -3.088404
     33          7           0       -7.235481   -1.340470   -0.142624
     34          6           0       -8.239487   -2.208448   -0.514733
     35          6           0       -7.778848   -3.531464   -0.542553
     36          6           0       -6.464847   -3.521270   -0.275940
     37          6           0       -6.207241   -2.154220    0.083168
     38          6           0       -8.722014   -4.785185   -0.842897
     39          6           0       -5.282101   -4.202865    0.227341
     40          8           0       -5.360983   -5.488252    0.240909
     41          6           0       -4.141295   -3.261807    0.532115
     42          6           0       -3.602571   -3.620166    1.843983
     43          8           0       -3.776563   -3.186011    2.902524
     44          8           0       -2.673465   -4.631884    1.658374
     45          6           0       -2.121928   -5.171213    2.859695
     46          6           0        2.839407   -0.752798   -1.219681
     47          6           0        4.173076   -0.614582   -0.588673
     48          6           0        5.051916    0.247040   -1.101484
     49          6           0        5.010989    1.085436   -2.375131
     50          6           0        6.423046    0.263658   -0.291466
     51          6           0        7.639200   -0.161581   -1.002738
     52          6           0        8.969261   -0.186308   -0.048218
     53          6           0       10.184774   -0.459102   -0.816480
     54          6           0       10.144188   -2.015610   -1.263558
     55          6           0       11.331404   -0.365420    0.104086
     56          6           0       12.778106   -0.706218   -0.577666
     57          6           0       13.969339   -0.120601    0.217036
     58          6           0       15.402271   -0.310987   -0.402586
     59          6           0       15.684284   -1.743807   -0.696857
     60          6           0       16.347272    0.351385    0.618352
     61          6           0       17.754024    0.535855   -0.126285
     62          6           0       18.642038    1.461123    0.769654
     63          6           0       20.086472    1.464910    0.237680
     64          6           0       20.181078    2.086190   -1.131504
     65          6           0       21.075560    2.232617    1.101574
     66          1           0       -3.910218    3.486846    1.372630
     67          1           0      -10.051301    4.067885   -0.317519
     68          1           0      -10.610368   -2.421527   -0.794888
     69          1           0       -2.565487   -1.055871    1.989039
     70          1           0       -2.120789    1.549408    1.048176
     71          1           0       -1.768335    0.846632    3.330743
     72          1           0       -2.835973    2.222939    3.547489
     73          1           0       -3.507046    0.480400    3.616395
     74          1           0       -2.044036   -1.484179   -0.412728
     75          1           0       -2.165988    0.071113   -0.854997
     76          1           0       -0.244162    0.724060    0.817910
     77          1           0       -0.209354   -1.324742    1.211189
     78          1           0       -5.626226    6.613582    0.736074
     79          1           0       -5.660470    6.109304    2.435457
     80          1           0       -4.558517    5.454274    1.169590
     81          1           0       -9.116235    6.080956   -0.867246
     82          1           0       -9.032374    7.996291    0.465776
     83          1           0       -7.576675    7.510806    1.385416
     84          1           0      -12.006337    3.405264   -2.130120
     85          1           0      -13.130472    2.306233   -1.871862
     86          1           0      -12.654989    3.187529   -0.569637
     87          1           0      -12.322950   -1.559961   -0.966482
     88          1           0      -13.469550   -0.373818   -1.440086
     89          1           0      -13.308463   -1.651348   -3.291841
     90          1           0      -12.175279   -0.207720   -3.701973
     91          1           0      -11.486904   -2.024932   -3.227382
     92          1           0       -8.970045   -4.872147   -1.983809
     93          1           0       -8.049483   -5.893170   -0.471151
     94          1           0       -9.720233   -4.748367   -0.432469
     95          1           0       -3.609229   -3.450803   -0.309783
     96          1           0       -1.733782   -4.282087    3.466036
     97          1           0       -2.881431   -5.630474    3.515192
     98          1           0       -1.472484   -5.953308    2.466164
     99          1           0        2.755093   -1.695222   -1.723136
    100          1           0        2.512253   -0.143446   -1.973239
    101          1           0        4.496458   -1.152164    0.213075
    102          1           0        4.003567    1.169015   -2.827489
    103          1           0        5.321000    2.149199   -2.119047
    104          1           0        5.759963    0.717541   -3.115510
    105          1           0        6.636281    1.402152    0.052502
    106          1           0        6.172583   -0.093387    0.726302
    107          1           0        7.514926   -1.235613   -1.343338
    108          1           0        7.801879    0.604478   -2.002413
    109          1           0        9.039552    0.786779    0.371194
    110          1           0        8.915998   -1.019349    0.806848
    111          1           0       10.390714    0.424024   -1.543976
    112          1           0        9.175672   -2.069664   -1.960625
    113          1           0       11.055209   -2.317012   -1.769078
    114          1           0        9.768803   -2.612272   -0.203433
    115          1           0       11.411954    0.694465    0.261082
    116          1           0       11.097070   -0.912778    1.169370
    117          1           0       12.936177   -1.643166   -0.845409
    118          1           0       12.746211   -0.145999   -1.531522
    119          1           0       13.847641    0.889690    0.351468
    120          1           0       13.924502   -0.734861    1.194322
    121          1           0       15.621928    0.322370   -1.324910
    122          1           0       15.722349   -2.303049    0.152304
    123          1           0       14.939897   -2.202477   -1.363821
    124          1           0       16.684335   -1.760849   -1.185151
    125          1           0       16.000903    1.337558    0.961988
    126          1           0       16.439952   -0.231873    1.501132
    127          1           0       18.399707   -0.454440   -0.497172
    128          1           0       17.391528    1.085804   -1.105589
    129          1           0       18.343103    2.481650    0.640088
    130          1           0       18.719815    1.122409    1.778008
    131          1           0       20.457087    0.547455    0.152679
    132          1           0       19.916147    3.144745   -1.300311
    133          1           0       21.179475    2.349909   -1.349852
    134          1           0       19.829637    1.450545   -1.972448
    135          1           0       21.027643    1.884028    2.186303
    136          1           0       22.224898    1.988576    0.839215
    137          1           0       20.834089    3.276106    1.145966
 ---------------------------------------------------------------------
 Rotational constants (GHZ):           0.0658340           0.0061207           0.0057627
 Standard basis: 6-31G(d,p) (6D, 7F)
 There are  1339 symmetry adapted cartesian basis functions of A   symmetry.
 There are  1339 symmetry adapted basis functions of A   symmetry.
  1339 basis functions,  2348 primitive gaussians,  1339 cartesian basis functions
   241 alpha electrons      241 beta electrons
       nuclear repulsion energy      8776.4544843451 Hartrees.
 NAtoms=  137 NActive=  137 NUniq=  137 SFac= 1.00D+00 NAtFMM=   60 NAOKFM=T Big=T
 Integral buffers will be    131072 words long.
 Raffenetti 1 integral format.
 Two-electron integral symmetry is turned on.
 One-electron integrals computed using PRISM.
 NBasis=  1339 RedAO= T EigKep=  2.97D-04  NBF=  1339
 NBsUse=  1339 1.00D-06 EigRej= -1.00D+00 NBFU=  1339
 ExpMin= 4.21D-02 ExpMax= 1.17D+04 ExpMxC= 1.76D+03 IAcc=3 IRadAn=         5 AccDes= 0.00D+00
 Harris functional with IExCor=20419 and IRadAn=       5 diagonalized for initial guess.
 HarFok:  IExCor=20419 AccDes= 0.00D+00 IRadAn=         5 IDoV= 1 UseB2=F ITyADJ=14
 ICtDFT=  3500011 ScaDFX=  1.000000  1.000000  1.000000  1.000000
 FoFCou: FMM=F IPFlag=           0 FMFlag=      100000 FMFlg1=        2001
         NFxFlg=           0 DoJE=T BraDBF=F KetDBF=T FulRan=T
         wScrn=  0.000000 ICntrl=       500 IOpCl=  0 I1Cent=   200000004 NGrid=           0
         NMat0=    1 NMatS0=      1 NMatT0=    0 NMatD0=    1 NMtDS0=    0 NMtDT0=    0
 Petite list used in FoFCou.
 Requested convergence on RMS density matrix=1.00D-08 within 128 cycles.
 Requested convergence on MAX density matrix=1.00D-06.
 Requested convergence on             energy=1.00D-06.
 No special actions if energy rises.
 SCF Done:  E(RCAM-B3LYP) =  -2933.50361406     A.U. after   15 cycles
            NFock= 15  Conv=0.97D-08     -V/T= 2.0089
 DoSCS=F DFT=T ScalE2(SS,OS)=  1.000000  1.000000
 ExpMin= 4.21D-02 ExpMax= 1.17D+04 ExpMxC= 1.76D+03 IAcc=3 IRadAn=         5 AccDes= 0.00D+00
 HarFok:  IExCor=  205 AccDes= 0.00D+00 IRadAn=         5 IDoV=-2 UseB2=F ITyADJ=14
 ICtDFT= 12500011 ScaDFX=  1.000000  1.000000  1.000000  1.000000
 GSVD:  LWork=       -5313 too small for GESVD, short by       24840 words or       24840 for optimal perf.
 Range of M.O.s used for correlation:    70  1339
 NBasis=  1339 NAE=   241 NBE=   241 NFC=    69 NFV=     0
 NROrb=   1270 NOA=   172 NOB=   172 NVA=  1098 NVB=  1098

 **** Warning!!: The largest alpha MO coefficient is  0.10386688D+02

 Orbital symmetries:
       Occupied  (A) (A) (A) (A) (A) (A) (A) (A) (A) (A) (A) (A)
                 (A) (A) (A) (A) (A) (A) (A) (A) (A) (A) (A) (A)
                 (A) (A) (A) (A) (A) (A) (A) (A) (A) (A) (A) (A)
                 (A) (A) (A) (A) (A) (A) (A) (A) (A) (A) (A) (A)
                 (A) (A) (A) (A) (A) (A) (A) (A) (A) (A) (A) (A)
                 (A) (A) (A) (A) (A) (A) (A) (A) (A) (A) (A) (A)
                 (A) (A) (A) (A) (A) (A) (A) (A) (A) (A) (A) (A)
                 (A) (A) (A) (A) (A) (A) (A) (A) (A) (A) (A) (A)
                 (A) (A) (A) (A) (A) (A) (A) (A) (A) (A) (A) (A)
                 (A) (A) (A) (A) (A) (A) (A) (A) (A) (A) (A) (A)
                 (A) (A) (A) (A) (A) (A) (A) (A) (A) (A) (A) (A)
                 (A) (A) (A) (A) (A) (A) (A) (A) (A) (A) (A) (A)
                 (A) (A) (A) (A) (A) (A) (A) (A) (A) (A) (A) (A)
                 (A) (A) (A) (A) (A) (A) (A) (A) (A) (A) (A) (A)
                 (A) (A) (A) (A) (A) (A) (A) (A) (A) (A) (A) (A)
                 (A) (A) (A) (A) (A) (A) (A) (A) (A) (A) (A) (A)
                 (A) (A) (A) (A) (A) (A) (A) (A) (A) (A) (A) (A)
                 (A) (A) (A) (A) (A) (A) (A) (A) (A) (A) (A) (A)
                 (A) (A) (A) (A) (A) (A) (A) (A) (A) (A) (A) (A)
                 (A) (A) (A) (A) (A) (A) (A) (A) (A) (A) (A) (A)
                 (A)
       Virtual   (A) (A) (A) (A) (A) (A) (A) (A) (A) (A) (A) (A)
                 (A) (A) (A) (A) (A) (A) (A) (A) (A) (A) (A) (A)
                 (A) (A) (A) (A) (A) (A) (A) (A) (A) (A) (A) (A)
                 (A) (A) (A) (A) (A) (A) (A) (A) (A) (A) (A) (A)
                 (A) (A) (A) (A) (A) (A) (A) (A) (A) (A) (A) (A)
                 (A) (A) (A) (A) (A) (A) (A) (A) (A) (A) (A) (A)
                 (A) (A) (A) (A) (A) (A) (A) (A) (A) (A) (A) (A)
                 (A) (A) (A) (A) (A) (A) (A) (A) (A) (A) (A) (A)
                 (A) (A) (A) (A) (A) (A) (A) (A) (A) (A) (A) (A)
                 (A) (A) (A) (A) (A) (A) (A) (A) (A) (A) (A) (A)
                 (A) (A) (A) (A) (A) (A) (A) (A) (A) (A) (A) (A)
                 (A) (A) (A) (A) (A) (A) (A) (A) (A) (A) (A) (A)
                 (A) (A) (A) (A) (A) (A) (A) (A) (A) (A) (A) (A)
                 (A) (A) (A) (A) (A) (A) (A) (A) (A) (A) (A) (A)
                 (A) (A) (A) (A) (A) (A) (A) (A) (A) (A) (A) (A)
                 (A) (A) (A) (A) (A) (A) (A) (A) (A) (A) (A) (A)
                 (A) (A) (A) (A) (A) (A) (A) (A) (A) (A) (A) (A)
                 (A) (A) (A) (A) (A) (A) (A) (A) (A) (A) (A) (A)
                 (A) (A) (A) (A) (A) (A) (A) (A) (A) (A) (A) (A)
                 (A) (A) (A) (A) (A) (A) (A) (A) (A) (A) (A) (A)
                 (A) (A) (A) (A) (A) (A) (A) (A) (A) (A) (A) (A)
                 (A) (A) (A) (A) (A) (A) (A) (A) (A) (A) (A) (A)
                 (A) (A) (A) (A) (A) (A) (A) (A) (A) (A) (A) (A)
                 (A) (A) (A) (A) (A) (A) (A) (A) (A) (A) (A) (A)
                 (A) (A) (A) (A) (A) (A) (A) (A) (A) (A) (A) (A)
                 (A) (A) (A) (A) (A) (A) (A) (A) (A) (A) (A) (A)
                 (A) (A) (A) (A) (A) (A) (A) (A) (A) (A) (A) (A)
                 (A) (A) (A) (A) (A) (A) (A) (A) (A) (A) (A) (A)
                 (A) (A) (A) (A) (A) (A) (A) (A) (A) (A) (A) (A)
                 (A) (A) (A) (A) (A) (A) (A) (A) (A) (A) (A) (A)
                 (A) (A) (A) (A) (A) (A) (A) (A) (A) (A) (A) (A)
                 (A) (A) (A) (A) (A) (A) (A) (A) (A) (A) (A) (A)
                 (A) (A) (A) (A) (A) (A) (A) (A) (A) (A) (A) (A)
                 (A) (A) (A) (A) (A) (A) (A) (A) (A) (A) (A) (A)
                 (A) (A) (A) (A) (A) (A) (A) (A) (A) (A) (A) (A)
                 (A) (A) (A) (A) (A) (A) (A) (A) (A) (A) (A) (A)
                 (A) (A) (A) (A) (A) (A) (A) (A) (A) (A) (A) (A)
                 (A) (A) (A) (A) (A) (A) (A) (A) (A) (A) (A) (A)
                 (A) (A) (A) (A) (A) (A) (A) (A) (A) (A) (A) (A)
                 (A) (A) (A) (A) (A) (A) (A) (A) (A) (A) (A) (A)
                 (A) (A) (A) (A) (A) (A) (A) (A) (A) (A) (A) (A)
                 (A) (A) (A) (A) (A) (A) (A) (A) (A) (A) (A) (A)
                 (A) (A) (A) (A) (A) (A) (A) (A) (A) (A) (A) (A)
                 (A) (A) (A) (A) (A) (A) (A) (A) (A) (A) (A) (A)
                 (A) (A) (A) (A) (A) (A) (A) (A) (A) (A) (A) (A)
                 (A) (A) (A) (A) (A) (A) (A) (A) (A) (A) (A) (A)
                 (A) (A) (A) (A) (A) (A) (A) (A) (A) (A) (A) (A)
                 (A) (A) (A) (A) (A) (A) (A) (A) (A) (A) (A) (A)
                 (A) (A) (A) (A) (A) (A) (A) (A) (A) (A) (A) (A)
                 (A) (A) (A) (A) (A) (A) (A) (A) (A) (A) (A) (A)
                 (A) (A) (A) (A) (A) (A) (A) (A) (A) (A) (A) (A)
                 (A) (A) (A) (A) (A) (A) (A) (A) (A) (A) (A) (A)
                 (A) (A) (A) (A) (A) (A) (A) (A) (A) (A) (A) (A)
                 (A) (A) (A) (A) (A) (A) (A) (A) (A) (A) (A) (A)
                 (A) (A) (A) (A) (A) (A) (A) (A) (A) (A) (A) (A)
                 (A) (A) (A) (A) (A) (A) (A) (A) (A) (A) (A) (A)
                 (A) (A) (A) (A) (A) (A) (A) (A) (A) (A) (A) (A)
                 (A) (A) (A) (A) (A) (A) (A) (A) (A) (A) (A) (A)
                 (A) (A) (A) (A) (A) (A) (A) (A) (A) (A) (A) (A)
                 (A) (A) (A) (A) (A) (A) (A) (A) (A) (A) (A) (A)
                 (A) (A) (A) (A) (A) (A) (A) (A) (A) (A) (A) (A)
                 (A) (A) (A) (A) (A) (A) (A) (A) (A) (A) (A) (A)
                 (A) (A) (A) (A) (A) (A) (A) (A) (A) (A) (A) (A)
                 (A) (A) (A) (A) (A) (A) (A) (A) (A) (A) (A) (A)
                 (A) (A) (A) (A) (A) (A) (A) (A) (A) (A) (A) (A)
                 (A) (A) (A) (A) (A) (A) (A) (A) (A) (A) (A) (A)
                 (A) (A) (A) (A) (A) (A) (A) (A) (A) (A) (A) (A)
                 (A) (A) (A) (A) (A) (A) (A) (A) (A) (A) (A) (A)
                 (A) (A) (A) (A) (A) (A) (A) (A) (A) (A) (A) (A)
                 (A) (A) (A) (A) (A) (A) (A) (A) (A) (A) (A) (A)
                 (A) (A) (A) (A) (A) (A) (A) (A) (A) (A) (A) (A)
                 (A) (A) (A) (A) (A) (A) (A) (A) (A) (A) (A) (A)
                 (A) (A) (A) (A) (A) (A) (A) (A) (A) (A) (A) (A)
                 (A) (A) (A) (A) (A) (A) (A) (A) (A) (A) (A) (A)
                 (A) (A) (A) (A) (A) (A) (A) (A) (A) (A) (A) (A)
                 (A) (A) (A) (A) (A) (A) (A) (A) (A) (A) (A) (A)
                 (A) (A) (A) (A) (A) (A) (A) (A) (A) (A) (A) (A)
                 (A) (A) (A) (A) (A) (A) (A) (A) (A) (A) (A) (A)
                 (A) (A) (A) (A) (A) (A) (A) (A) (A) (A) (A) (A)
                 (A) (A) (A) (A) (A) (A) (A) (A) (A) (A) (A) (A)
                 (A) (A) (A) (A) (A) (A) (A) (A) (A) (A) (A) (A)
                 (A) (A) (A) (A) (A) (A) (A) (A) (A) (A) (A) (A)
                 (A) (A) (A) (A) (A) (A) (A) (A) (A) (A) (A) (A)
                 (A) (A) (A) (A) (A) (A) (A) (A) (A) (A) (A) (A)
                 (A) (A) (A) (A) (A) (A) (A) (A) (A) (A) (A) (A)
                 (A) (A) (A) (A) (A) (A) (A) (A) (A) (A) (A) (A)
                 (A) (A) (A) (A) (A) (A) (A) (A) (A) (A) (A) (A)
                 (A) (A) (A) (A) (A) (A) (A) (A) (A) (A) (A) (A)
                 (A) (A) (A) (A) (A) (A) (A) (A) (A) (A) (A) (A)
                 (A) (A) (A) (A) (A) (A) (A) (A) (A) (A) (A) (A)
                 (A) (A) (A) (A) (A) (A) (A) (A) (A) (A) (A) (A)
                 (A) (A) (A) (A) (A) (A)
     4 initial guesses have been made.
 Convergence on wavefunction:    0.001000000000000
 Iteration     1 Dimension     4 NMult     0 NNew      4
 CISAX will form     4 AO SS matrices at one time.
 New state      1 was old state      2
 Iteration     2 Dimension     6 NMult     4 NNew      2
 Iteration     3 Dimension     8 NMult     6 NNew      2
 Iteration     4 Dimension    10 NMult     8 NNew      2
 Iteration     5 Dimension    12 NMult    10 NNew      2
 Iteration     6 Dimension    14 NMult    12 NNew      2
 Iteration     7 Dimension    16 NMult    14 NNew      2
 Iteration     8 Dimension    18 NMult    16 NNew      2
 Iteration     9 Dimension    20 NMult    18 NNew      2
 Iteration    10 Dimension    22 NMult    20 NNew      2
 Iteration    11 Dimension    24 NMult    22 NNew      2
 ***********************************************************************
 Excited states from <AA,BB:AA,BB> singles matrix:
 ***********************************************************************
 
 Ground to excited state transition densities written to RWF  633
 Ground to excited state transition electric dipole moments (Au):
       state          X           Y           Z        Dip. S.      Osc.
         1         0.1844     -2.2384     -0.2038      5.0860      0.2577
 Ground to excited state transition velocity dipole moments (Au):
       state          X           Y           Z        Dip. S.      Osc.
         1        -0.0133      0.1654      0.0157      0.0278      0.2436
 Ground to excited state transition magnetic dipole moments (Au):
       state          X           Y           Z
         1         0.4049      0.3367     -3.6029
 Ground to excited state transition velocity quadrupole moments (Au):
       state          XX          YY          ZZ          XY          XZ          YZ
         1         0.3404      0.2312      0.0338     -2.0832     -0.1732      0.1515
 <0|del|b> * <b|rxdel|0> + <0|del|b> * <b|delr+rdel|0>
 Rotatory Strengths (R) in cgs (10**-40 erg-esu-cm/Gauss)
       state          XX          YY          ZZ    R(velocity)    E-M Angle
         1       -23.0052   -145.3278    110.1201    -19.4043       90.59
 1/2[<0|r|b>*<b|rxdel|0> + (<0|rxdel|b>*<b|r|0>)*]
 Rotatory Strengths (R) in cgs (10**-40 erg-esu-cm/Gauss)
       state          XX          YY          ZZ     R(length)
         1       -52.7988    532.9175   -519.2875    -13.0563
  1/2[<0|del|b>*<b|r|0> + (<0|r|b>*<b|del|0>)*] (Au)
       state          X           Y           Z        Dip. S.   Osc.(frdel)
         1        -0.0024     -0.3702     -0.0032      0.3759      0.2506

 Excitation energies and oscillator strengths:
 
 Excited State   1:      Singlet-A      2.0685 eV  599.38 nm  f=0.2577  <S**2>=0.000
     240 -> 243        0.23812
     241 -> 242        0.65895
 This state for optimization and/or second-order correction.
 Total Energy, E(TD-HF/TD-DFT) =  -2933.42759703    
 Copying the excited state density for this state as the 1-particle RhoCI density.
 SavETr:  write IOETrn=   770 NScale= 10 NData=  16 NLR=1 NState=    1 LETran=      28.
 Hyperfine terms turned off by default for NAtoms > 100.

 **********************************************************************

            Population analysis using the SCF density.

 **********************************************************************

 Orbital symmetries:
       Occupied  (A) (A) (A) (A) (A) (A) (A) (A) (A) (A) (A) (A)
                 (A) (A) (A) (A) (A) (A) (A) (A) (A) (A) (A) (A)
                 (A) (A) (A) (A) (A) (A) (A) (A) (A) (A) (A) (A)
                 (A) (A) (A) (A) (A) (A) (A) (A) (A) (A) (A) (A)
                 (A) (A) (A) (A) (A) (A) (A) (A) (A) (A) (A) (A)
                 (A) (A) (A) (A) (A) (A) (A) (A) (A) (A) (A) (A)
                 (A) (A) (A) (A) (A) (A) (A) (A) (A) (A) (A) (A)
                 (A) (A) (A) (A) (A) (A) (A) (A) (A) (A) (A) (A)
                 (A) (A) (A) (A) (A) (A) (A) (A) (A) (A) (A) (A)
                 (A) (A) (A) (A) (A) (A) (A) (A) (A) (A) (A) (A)
                 (A) (A) (A) (A) (A) (A) (A) (A) (A) (A) (A) (A)
                 (A) (A) (A) (A) (A) (A) (A) (A) (A) (A) (A) (A)
                 (A) (A) (A) (A) (A) (A) (A) (A) (A) (A) (A) (A)
                 (A) (A) (A) (A) (A) (A) (A) (A) (A) (A) (A) (A)
                 (A) (A) (A) (A) (A) (A) (A) (A) (A) (A) (A) (A)
                 (A) (A) (A) (A) (A) (A) (A) (A) (A) (A) (A) (A)
                 (A) (A) (A) (A) (A) (A) (A) (A) (A) (A) (A) (A)
                 (A) (A) (A) (A) (A) (A) (A) (A) (A) (A) (A) (A)
                 (A) (A) (A) (A) (A) (A) (A) (A) (A) (A) (A) (A)
                 (A) (A) (A) (A) (A) (A) (A) (A) (A) (A) (A) (A)
                 (A)
       Virtual   (A) (A) (A) (A) (A) (A) (A) (A) (A) (A) (A) (A)
                 (A) (A) (A) (A) (A) (A) (A) (A) (A) (A) (A) (A)
                 (A) (A) (A) (A) (A) (A) (A) (A) (A) (A) (A) (A)
                 (A) (A) (A) (A) (A) (A) (A) (A) (A) (A) (A) (A)
                 (A) (A) (A) (A) (A) (A) (A) (A) (A) (A) (A) (A)
                 (A) (A) (A) (A) (A) (A) (A) (A) (A) (A) (A) (A)
                 (A) (A) (A) (A) (A) (A) (A) (A) (A) (A) (A) (A)
                 (A) (A) (A) (A) (A) (A) (A) (A) (A) (A) (A) (A)
                 (A) (A) (A) (A) (A) (A) (A) (A) (A) (A) (A) (A)
                 (A) (A) (A) (A) (A) (A) (A) (A) (A) (A) (A) (A)
                 (A) (A) (A) (A) (A) (A) (A) (A) (A) (A) (A) (A)
                 (A) (A) (A) (A) (A) (A) (A) (A) (A) (A) (A) (A)
                 (A) (A) (A) (A) (A) (A) (A) (A) (A) (A) (A) (A)
                 (A) (A) (A) (A) (A) (A) (A) (A) (A) (A) (A) (A)
                 (A) (A) (A) (A) (A) (A) (A) (A) (A) (A) (A) (A)
                 (A) (A) (A) (A) (A) (A) (A) (A) (A) (A) (A) (A)
                 (A) (A) (A) (A) (A) (A) (A) (A) (A) (A) (A) (A)
                 (A) (A) (A) (A) (A) (A) (A) (A) (A) (A) (A) (A)
                 (A) (A) (A) (A) (A) (A) (A) (A) (A) (A) (A) (A)
                 (A) (A) (A) (A) (A) (A) (A) (A) (A) (A) (A) (A)
                 (A) (A) (A) (A) (A) (A) (A) (A) (A) (A) (A) (A)
                 (A) (A) (A) (A) (A) (A) (A) (A) (A) (A) (A) (A)
                 (A) (A) (A) (A) (A) (A) (A) (A) (A) (A) (A) (A)
                 (A) (A) (A) (A) (A) (A) (A) (A) (A) (A) (A) (A)
                 (A) (A) (A) (A) (A) (A) (A) (A) (A) (A) (A) (A)
                 (A) (A) (A) (A) (A) (A) (A) (A) (A) (A) (A) (A)
                 (A) (A) (A) (A) (A) (A) (A) (A) (A) (A) (A) (A)
                 (A) (A) (A) (A) (A) (A) (A) (A) (A) (A) (A) (A)
                 (A) (A) (A) (A) (A) (A) (A) (A) (A) (A) (A) (A)
                 (A) (A) (A) (A) (A) (A) (A) (A) (A) (A) (A) (A)
                 (A) (A) (A) (A) (A) (A) (A) (A) (A) (A) (A) (A)
                 (A) (A) (A) (A) (A) (A) (A) (A) (A) (A) (A) (A)
                 (A) (A) (A) (A) (A) (A) (A) (A) (A) (A) (A) (A)
                 (A) (A) (A) (A) (A) (A) (A) (A) (A) (A) (A) (A)
                 (A) (A) (A) (A) (A) (A) (A) (A) (A) (A) (A) (A)
                 (A) (A) (A) (A) (A) (A) (A) (A) (A) (A) (A) (A)
                 (A) (A) (A) (A) (A) (A) (A) (A) (A) (A) (A) (A)
                 (A) (A) (A) (A) (A) (A) (A) (A) (A) (A) (A) (A)
                 (A) (A) (A) (A) (A) (A) (A) (A) (A) (A) (A) (A)
                 (A) (A) (A) (A) (A) (A) (A) (A) (A) (A) (A) (A)
                 (A) (A) (A) (A) (A) (A) (A) (A) (A) (A) (A) (A)
                 (A) (A) (A) (A) (A) (A) (A) (A) (A) (A) (A) (A)
                 (A) (A) (A) (A) (A) (A) (A) (A) (A) (A) (A) (A)
                 (A) (A) (A) (A) (A) (A) (A) (A) (A) (A) (A) (A)
                 (A) (A) (A) (A) (A) (A) (A) (A) (A) (A) (A) (A)
                 (A) (A) (A) (A) (A) (A) (A) (A) (A) (A) (A) (A)
                 (A) (A) (A) (A) (A) (A) (A) (A) (A) (A) (A) (A)
                 (A) (A) (A) (A) (A) (A) (A) (A) (A) (A) (A) (A)
                 (A) (A) (A) (A) (A) (A) (A) (A) (A) (A) (A) (A)
                 (A) (A) (A) (A) (A) (A) (A) (A) (A) (A) (A) (A)
                 (A) (A) (A) (A) (A) (A) (A) (A) (A) (A) (A) (A)
                 (A) (A) (A) (A) (A) (A) (A) (A) (A) (A) (A) (A)
                 (A) (A) (A) (A) (A) (A) (A) (A) (A) (A) (A) (A)
                 (A) (A) (A) (A) (A) (A) (A) (A) (A) (A) (A) (A)
                 (A) (A) (A) (A) (A) (A) (A) (A) (A) (A) (A) (A)
                 (A) (A) (A) (A) (A) (A) (A) (A) (A) (A) (A) (A)
                 (A) (A) (A) (A) (A) (A) (A) (A) (A) (A) (A) (A)
                 (A) (A) (A) (A) (A) (A) (A) (A) (A) (A) (A) (A)
                 (A) (A) (A) (A) (A) (A) (A) (A) (A) (A) (A) (A)
                 (A) (A) (A) (A) (A) (A) (A) (A) (A) (A) (A) (A)
                 (A) (A) (A) (A) (A) (A) (A) (A) (A) (A) (A) (A)
                 (A) (A) (A) (A) (A) (A) (A) (A) (A) (A) (A) (A)
                 (A) (A) (A) (A) (A) (A) (A) (A) (A) (A) (A) (A)
                 (A) (A) (A) (A) (A) (A) (A) (A) (A) (A) (A) (A)
                 (A) (A) (A) (A) (A) (A) (A) (A) (A) (A) (A) (A)
                 (A) (A) (A) (A) (A) (A) (A) (A) (A) (A) (A) (A)
                 (A) (A) (A) (A) (A) (A) (A) (A) (A) (A) (A) (A)
                 (A) (A) (A) (A) (A) (A) (A) (A) (A) (A) (A) (A)
                 (A) (A) (A) (A) (A) (A) (A) (A) (A) (A) (A) (A)
                 (A) (A) (A) (A) (A) (A) (A) (A) (A) (A) (A) (A)
                 (A) (A) (A) (A) (A) (A) (A) (A) (A) (A) (A) (A)
                 (A) (A) (A) (A) (A) (A) (A) (A) (A) (A) (A) (A)
                 (A) (A) (A) (A) (A) (A) (A) (A) (A) (A) (A) (A)
                 (A) (A) (A) (A) (A) (A) (A) (A) (A) (A) (A) (A)
                 (A) (A) (A) (A) (A) (A) (A) (A) (A) (A) (A) (A)
                 (A) (A) (A) (A) (A) (A) (A) (A) (A) (A) (A) (A)
                 (A) (A) (A) (A) (A) (A) (A) (A) (A) (A) (A) (A)
                 (A) (A) (A) (A) (A) (A) (A) (A) (A) (A) (A) (A)
                 (A) (A) (A) (A) (A) (A) (A) (A) (A) (A) (A) (A)
                 (A) (A) (A) (A) (A) (A) (A) (A) (A) (A) (A) (A)
                 (A) (A) (A) (A) (A) (A) (A) (A) (A) (A) (A) (A)
                 (A) (A) (A) (A) (A) (A) (A) (A) (A) (A) (A) (A)
                 (A) (A) (A) (A) (A) (A) (A) (A) (A) (A) (A) (A)
                 (A) (A) (A) (A) (A) (A) (A) (A) (A) (A) (A) (A)
                 (A) (A) (A) (A) (A) (A) (A) (A) (A) (A) (A) (A)
                 (A) (A) (A) (A) (A) (A) (A) (A) (A) (A) (A) (A)
                 (A) (A) (A) (A) (A) (A) (A) (A) (A) (A) (A) (A)
                 (A) (A) (A) (A) (A) (A) (A) (A) (A) (A) (A) (A)
                 (A) (A) (A) (A) (A) (A) (A) (A) (A) (A) (A) (A)
                 (A) (A) (A) (A) (A) (A) (A) (A) (A) (A) (A) (A)
                 (A) (A) (A) (A) (A) (A) (A) (A) (A) (A) (A) (A)
                 (A) (A) (A) (A) (A) (A)
 The electronic state is 1-A.
 Alpha  occ. eigenvalues --  -46.79010 -19.20719 -19.20325 -19.17682 -19.16140
 Alpha  occ. eigenvalues --  -19.15192 -14.37139 -14.35303 -14.35232 -14.35029
 Alpha  occ. eigenvalues --  -10.34329 -10.33753 -10.30509 -10.26392 -10.26309
 Alpha  occ. eigenvalues --  -10.25608 -10.25566 -10.25322 -10.25268 -10.25141
 Alpha  occ. eigenvalues --  -10.25098 -10.24964 -10.24698 -10.24523 -10.24095
 Alpha  occ. eigenvalues --  -10.24087 -10.23946 -10.23800 -10.23675 -10.23430
 Alpha  occ. eigenvalues --  -10.23429 -10.23315 -10.23092 -10.23013 -10.23004
 Alpha  occ. eigenvalues --  -10.22923 -10.22881 -10.22691 -10.22514 -10.22494
 Alpha  occ. eigenvalues --  -10.22335 -10.22310 -10.22006 -10.21951 -10.21834
 Alpha  occ. eigenvalues --  -10.21766 -10.21706 -10.21699 -10.21692 -10.21658
 Alpha  occ. eigenvalues --  -10.21654 -10.21267 -10.21238 -10.21233 -10.20771
 Alpha  occ. eigenvalues --  -10.20673 -10.20524 -10.20449 -10.20448 -10.20158
 Alpha  occ. eigenvalues --  -10.20014 -10.19840 -10.19806 -10.19111 -10.18908
 Alpha  occ. eigenvalues --   -3.07828  -1.82755  -1.82304  -1.82251  -1.14440
 Alpha  occ. eigenvalues --   -1.11926  -1.05301  -1.02857  -1.02372  -1.00119
 Alpha  occ. eigenvalues --   -0.98774  -0.98360  -0.97554  -0.89384  -0.86001
 Alpha  occ. eigenvalues --   -0.85699  -0.85033  -0.84665  -0.84570  -0.84174
 Alpha  occ. eigenvalues --   -0.83586  -0.82947  -0.82842  -0.81677  -0.81617
 Alpha  occ. eigenvalues --   -0.80248  -0.79416  -0.79207  -0.77805  -0.77466
 Alpha  occ. eigenvalues --   -0.76252  -0.76034  -0.75601  -0.74748  -0.73984
 Alpha  occ. eigenvalues --   -0.73161  -0.72976  -0.72131  -0.71147  -0.70789
 Alpha  occ. eigenvalues --   -0.70346  -0.70205  -0.69141  -0.68784  -0.68257
 Alpha  occ. eigenvalues --   -0.67359  -0.66439  -0.64896  -0.64445  -0.64035
 Alpha  occ. eigenvalues --   -0.62151  -0.61162  -0.61050  -0.60265  -0.60105
 Alpha  occ. eigenvalues --   -0.59702  -0.59673  -0.58513  -0.58317  -0.58312
 Alpha  occ. eigenvalues --   -0.57135  -0.56800  -0.56694  -0.56481  -0.55915
 Alpha  occ. eigenvalues --   -0.55505  -0.54884  -0.54231  -0.53798  -0.52253
 Alpha  occ. eigenvalues --   -0.52056  -0.51670  -0.51523  -0.51143  -0.50697
 Alpha  occ. eigenvalues --   -0.50530  -0.50192  -0.49988  -0.49530  -0.49475
 Alpha  occ. eigenvalues --   -0.49196  -0.48810  -0.48353  -0.48193  -0.48166
 Alpha  occ. eigenvalues --   -0.47606  -0.47484  -0.47332  -0.46671  -0.46577
 Alpha  occ. eigenvalues --   -0.46511  -0.46498  -0.46204  -0.45900  -0.45639
 Alpha  occ. eigenvalues --   -0.45476  -0.45028  -0.44903  -0.44805  -0.44542
 Alpha  occ. eigenvalues --   -0.44344  -0.44251  -0.43894  -0.43653  -0.43234
 Alpha  occ. eigenvalues --   -0.43112  -0.43022  -0.42613  -0.42365  -0.42203
 Alpha  occ. eigenvalues --   -0.42136  -0.41811  -0.41564  -0.41543  -0.41381
 Alpha  occ. eigenvalues --   -0.41343  -0.41106  -0.41053  -0.40815  -0.40630
 Alpha  occ. eigenvalues --   -0.40419  -0.40084  -0.39835  -0.39656  -0.39500
 Alpha  occ. eigenvalues --   -0.39307  -0.39032  -0.38943  -0.38933  -0.38729
 Alpha  occ. eigenvalues --   -0.38464  -0.38327  -0.38105  -0.38015  -0.37966
 Alpha  occ. eigenvalues --   -0.37639  -0.37444  -0.37280  -0.37259  -0.37053
 Alpha  occ. eigenvalues --   -0.36899  -0.36851  -0.36492  -0.36411  -0.36382
 Alpha  occ. eigenvalues --   -0.35992  -0.35616  -0.35498  -0.35443  -0.35005
 Alpha  occ. eigenvalues --   -0.34488  -0.34422  -0.34328  -0.33868  -0.33761
 Alpha  occ. eigenvalues --   -0.33549  -0.33310  -0.33111  -0.32336  -0.32154
 Alpha  occ. eigenvalues --   -0.32027  -0.31983  -0.31384  -0.31209  -0.30993
 Alpha  occ. eigenvalues --   -0.30087  -0.29680  -0.29464  -0.29030  -0.27635
 Alpha  occ. eigenvalues --   -0.27224  -0.26620  -0.25851  -0.25480  -0.21810
 Alpha  occ. eigenvalues --   -0.20624
 Alpha virt. eigenvalues --   -0.07567  -0.03813   0.00190   0.02766   0.03545
 Alpha virt. eigenvalues --    0.04266   0.04739   0.04869   0.05066   0.05993
 Alpha virt. eigenvalues --    0.06366   0.08334   0.08390   0.08988   0.09755
 Alpha virt. eigenvalues --    0.10043   0.10278   0.10332   0.10636   0.10728
 Alpha virt. eigenvalues --    0.11404   0.11673   0.11704   0.11904   0.12609
 Alpha virt. eigenvalues --    0.12622   0.12692   0.12827   0.13215   0.13240
 Alpha virt. eigenvalues --    0.13590   0.13661   0.14029   0.14529   0.14628
 Alpha virt. eigenvalues --    0.14877   0.15204   0.15259   0.15541   0.15632
 Alpha virt. eigenvalues --    0.15704   0.15898   0.16018   0.16413   0.16439
 Alpha virt. eigenvalues --    0.16725   0.16737   0.16762   0.17040   0.17339
 Alpha virt. eigenvalues --    0.17583   0.17605   0.17903   0.17918   0.17939
 Alpha virt. eigenvalues --    0.18096   0.18354   0.18739   0.18799   0.18839
 Alpha virt. eigenvalues --    0.19024   0.19214   0.19269   0.19580   0.19742
 Alpha virt. eigenvalues --    0.19804   0.20042   0.20212   0.20277   0.20434
 Alpha virt. eigenvalues --    0.20667   0.20827   0.21061   0.21252   0.21290
 Alpha virt. eigenvalues --    0.21452   0.21524   0.21851   0.21998   0.22232
 Alpha virt. eigenvalues --    0.22262   0.22543   0.22702   0.22744   0.22758
 Alpha virt. eigenvalues --    0.23054   0.23253   0.23439   0.23492   0.23747
 Alpha virt. eigenvalues --    0.24059   0.24110   0.24201   0.24350   0.24497
 Alpha virt. eigenvalues --    0.24629   0.25033   0.25403   0.25602   0.25690
 Alpha virt. eigenvalues --    0.25847   0.26124   0.26227   0.26299   0.26586
 Alpha virt. eigenvalues --    0.27289   0.27348   0.27513   0.27844   0.28321
 Alpha virt. eigenvalues --    0.28494   0.28754   0.29088   0.29207   0.29306
 Alpha virt. eigenvalues --    0.29518   0.29657   0.30262   0.30340   0.30604
 Alpha virt. eigenvalues --    0.30795   0.31395   0.31724   0.31828   0.31977
 Alpha virt. eigenvalues --    0.32380   0.32546   0.32702   0.33056   0.33386
 Alpha virt. eigenvalues --    0.34145   0.35100   0.35255   0.35465   0.36210
 Alpha virt. eigenvalues --    0.36696   0.37618   0.37885   0.37899   0.38803
 Alpha virt. eigenvalues --    0.38893   0.39195   0.39587   0.39606   0.39881
 Alpha virt. eigenvalues --    0.40480   0.41225   0.41622   0.42580   0.43512
 Alpha virt. eigenvalues --    0.44075   0.44530   0.45302   0.46343   0.46829
 Alpha virt. eigenvalues --    0.48020   0.48431   0.48482   0.48891   0.50098
 Alpha virt. eigenvalues --    0.50653   0.50779   0.51281   0.51596   0.51934
 Alpha virt. eigenvalues --    0.52086   0.52186   0.52515   0.52806   0.53010
 Alpha virt. eigenvalues --    0.53359   0.53538   0.53657   0.54161   0.54390
 Alpha virt. eigenvalues --    0.54740   0.54769   0.54986   0.55191   0.55272
 Alpha virt. eigenvalues --    0.55671   0.55887   0.56055   0.56106   0.56529
 Alpha virt. eigenvalues --    0.56590   0.56760   0.56995   0.57125   0.57329
 Alpha virt. eigenvalues --    0.57777   0.57825   0.58028   0.58099   0.58241
 Alpha virt. eigenvalues --    0.58668   0.58745   0.58925   0.59021   0.59510
 Alpha virt. eigenvalues --    0.60322   0.60633   0.60766   0.61095   0.61254
 Alpha virt. eigenvalues --    0.61684   0.61754   0.62031   0.62496   0.62979
 Alpha virt. eigenvalues --    0.63181   0.63465   0.63525   0.63657   0.63767
 Alpha virt. eigenvalues --    0.64093   0.64293   0.64510   0.64935   0.65207
 Alpha virt. eigenvalues --    0.65395   0.65436   0.65620   0.65821   0.66031
 Alpha virt. eigenvalues --    0.66222   0.66620   0.67010   0.67086   0.67581
 Alpha virt. eigenvalues --    0.67891   0.68066   0.68318   0.68818   0.68871
 Alpha virt. eigenvalues --    0.69139   0.69430   0.69701   0.69892   0.69946
 Alpha virt. eigenvalues --    0.70154   0.70401   0.70649   0.70905   0.71246
 Alpha virt. eigenvalues --    0.71525   0.71685   0.72117   0.72295   0.72442
 Alpha virt. eigenvalues --    0.72771   0.73201   0.73662   0.74162   0.74182
 Alpha virt. eigenvalues --    0.74270   0.74568   0.74750   0.74907   0.74987
 Alpha virt. eigenvalues --    0.75431   0.75480   0.75896   0.76357   0.76466
 Alpha virt. eigenvalues --    0.76908   0.77043   0.77386   0.77399   0.77811
 Alpha virt. eigenvalues --    0.78032   0.78118   0.78193   0.78406   0.78612
 Alpha virt. eigenvalues --    0.78896   0.79532   0.79594   0.79802   0.80015
 Alpha virt. eigenvalues --    0.80531   0.80572   0.80725   0.80893   0.81150
 Alpha virt. eigenvalues --    0.81304   0.81883   0.82022   0.82260   0.82385
 Alpha virt. eigenvalues --    0.82504   0.82796   0.82956   0.83032   0.83339
 Alpha virt. eigenvalues --    0.83475   0.83712   0.83875   0.84458   0.84576
 Alpha virt. eigenvalues --    0.84676   0.84890   0.85115   0.85174   0.85254
 Alpha virt. eigenvalues --    0.85412   0.85891   0.86330   0.86385   0.86511
 Alpha virt. eigenvalues --    0.86776   0.86926   0.87106   0.87157   0.87339
 Alpha virt. eigenvalues --    0.87606   0.87935   0.88085   0.88371   0.88644
 Alpha virt. eigenvalues --    0.88671   0.88732   0.88994   0.89123   0.89267
 Alpha virt. eigenvalues --    0.89410   0.89912   0.90122   0.90214   0.90587
 Alpha virt. eigenvalues --    0.90765   0.90836   0.91164   0.91304   0.91515
 Alpha virt. eigenvalues --    0.91612   0.91693   0.91859   0.92258   0.92422
 Alpha virt. eigenvalues --    0.92697   0.92776   0.93132   0.93297   0.93461
 Alpha virt. eigenvalues --    0.93639   0.93911   0.94231   0.94318   0.94617
 Alpha virt. eigenvalues --    0.94876   0.95205   0.95385   0.95826   0.95972
 Alpha virt. eigenvalues --    0.96069   0.96467   0.96558   0.96780   0.96945
 Alpha virt. eigenvalues --    0.97327   0.97360   0.97514   0.97643   0.97963
 Alpha virt. eigenvalues --    0.98066   0.98345   0.98644   0.98877   0.98956
 Alpha virt. eigenvalues --    0.99216   0.99355   0.99396   0.99530   1.00048
 Alpha virt. eigenvalues --    1.00203   1.00251   1.00762   1.00921   1.01397
 Alpha virt. eigenvalues --    1.01687   1.01938   1.02090   1.02578   1.02764
 Alpha virt. eigenvalues --    1.03012   1.03306   1.03496   1.03696   1.03877
 Alpha virt. eigenvalues --    1.04164   1.04324   1.04685   1.05339   1.05722
 Alpha virt. eigenvalues --    1.06008   1.06352   1.06839   1.07063   1.08209
 Alpha virt. eigenvalues --    1.08813   1.09056   1.09491   1.09907   1.10158
 Alpha virt. eigenvalues --    1.10902   1.11036   1.11315   1.11716   1.11950
 Alpha virt. eigenvalues --    1.12587   1.12976   1.13939   1.14147   1.14585
 Alpha virt. eigenvalues --    1.14976   1.15427   1.15751   1.16111   1.16936
 Alpha virt. eigenvalues --    1.17704   1.18282   1.18506   1.18827   1.19397
 Alpha virt. eigenvalues --    1.19708   1.20050   1.20459   1.20522   1.20776
 Alpha virt. eigenvalues --    1.22192   1.23020   1.23950   1.24361   1.24931
 Alpha virt. eigenvalues --    1.25302   1.25367   1.25865   1.26924   1.27532
 Alpha virt. eigenvalues --    1.28270   1.29047   1.29154   1.29605   1.30332
 Alpha virt. eigenvalues --    1.30643   1.30996   1.31318   1.31480   1.32172
 Alpha virt. eigenvalues --    1.32862   1.32997   1.33597   1.33792   1.34169
 Alpha virt. eigenvalues --    1.34395   1.35325   1.35427   1.36041   1.36326
 Alpha virt. eigenvalues --    1.36566   1.36801   1.36921   1.37958   1.38044
 Alpha virt. eigenvalues --    1.39180   1.39476   1.40004   1.40310   1.40878
 Alpha virt. eigenvalues --    1.41390   1.42067   1.42484   1.43594   1.44324
 Alpha virt. eigenvalues --    1.44473   1.44889   1.45050   1.46301   1.46914
 Alpha virt. eigenvalues --    1.47537   1.47560   1.48336   1.48671   1.49042
 Alpha virt. eigenvalues --    1.49324   1.50436   1.51190   1.51723   1.51852
 Alpha virt. eigenvalues --    1.52200   1.52588   1.52630   1.52901   1.53183
 Alpha virt. eigenvalues --    1.53675   1.53693   1.54381   1.54929   1.55582
 Alpha virt. eigenvalues --    1.56129   1.56453   1.56969   1.57414   1.57559
 Alpha virt. eigenvalues --    1.58541   1.58819   1.59190   1.59739   1.60039
 Alpha virt. eigenvalues --    1.60783   1.61096   1.61449   1.61648   1.61769
 Alpha virt. eigenvalues --    1.62645   1.63175   1.63712   1.63843   1.64200
 Alpha virt. eigenvalues --    1.64424   1.64766   1.65653   1.65765   1.65935
 Alpha virt. eigenvalues --    1.66115   1.66575   1.67153   1.67247   1.67944
 Alpha virt. eigenvalues --    1.68207   1.69015   1.69568   1.69757   1.70520
 Alpha virt. eigenvalues --    1.71015   1.71123   1.71664   1.72296   1.72775
 Alpha virt. eigenvalues --    1.73203   1.73247   1.73381   1.73605   1.74028
 Alpha virt. eigenvalues --    1.74476   1.74855   1.75184   1.75727   1.75796
 Alpha virt. eigenvalues --    1.76737   1.77243   1.77397   1.77532   1.77850
 Alpha virt. eigenvalues --    1.78641   1.78948   1.79355   1.79676   1.79861
 Alpha virt. eigenvalues --    1.80513   1.81060   1.81108   1.81394   1.81806
 Alpha virt. eigenvalues --    1.82096   1.82281   1.82779   1.82821   1.83027
 Alpha virt. eigenvalues --    1.83568   1.84172   1.84551   1.84657   1.85068
 Alpha virt. eigenvalues --    1.85322   1.85442   1.85598   1.85764   1.86051
 Alpha virt. eigenvalues --    1.86303   1.86440   1.86773   1.86812   1.86949
 Alpha virt. eigenvalues --    1.87459   1.87623   1.87955   1.88069   1.88591
 Alpha virt. eigenvalues --    1.88746   1.89043   1.89427   1.89794   1.90094
 Alpha virt. eigenvalues --    1.90118   1.90429   1.90543   1.90775   1.90870
 Alpha virt. eigenvalues --    1.91300   1.91602   1.91845   1.92147   1.92336
 Alpha virt. eigenvalues --    1.92656   1.92948   1.93274   1.93466   1.93668
 Alpha virt. eigenvalues --    1.93698   1.94036   1.94226   1.94443   1.94751
 Alpha virt. eigenvalues --    1.95021   1.95321   1.95536   1.95595   1.95881
 Alpha virt. eigenvalues --    1.96503   1.96888   1.97144   1.97207   1.97888
 Alpha virt. eigenvalues --    1.98030   1.98330   1.98944   1.99073   1.99686
 Alpha virt. eigenvalues --    1.99942   2.00098   2.00378   2.00527   2.01168
 Alpha virt. eigenvalues --    2.01476   2.01647   2.02061   2.02478   2.03050
 Alpha virt. eigenvalues --    2.03225   2.03270   2.03463   2.03703   2.03802
 Alpha virt. eigenvalues --    2.03886   2.04666   2.04770   2.05159   2.05262
 Alpha virt. eigenvalues --    2.05518   2.05780   2.06126   2.06352   2.06611
 Alpha virt. eigenvalues --    2.07115   2.07538   2.07644   2.07808   2.07889
 Alpha virt. eigenvalues --    2.08735   2.09347   2.09585   2.10012   2.10121
 Alpha virt. eigenvalues --    2.10471   2.10774   2.10793   2.11078   2.11297
 Alpha virt. eigenvalues --    2.11702   2.11826   2.12081   2.12536   2.12651
 Alpha virt. eigenvalues --    2.12958   2.13179   2.13393   2.13941   2.14249
 Alpha virt. eigenvalues --    2.14541   2.15121   2.15403   2.15906   2.16058
 Alpha virt. eigenvalues --    2.16741   2.16818   2.16878   2.17271   2.17517
 Alpha virt. eigenvalues --    2.17928   2.18338   2.18597   2.18871   2.19290
 Alpha virt. eigenvalues --    2.19659   2.19911   2.20141   2.20231   2.20641
 Alpha virt. eigenvalues --    2.20831   2.21881   2.22300   2.22585   2.23000
 Alpha virt. eigenvalues --    2.23147   2.23574   2.23847   2.24013   2.24362
 Alpha virt. eigenvalues --    2.24578   2.25106   2.25723   2.25853   2.26310
 Alpha virt. eigenvalues --    2.26679   2.26820   2.26971   2.27328   2.27518
 Alpha virt. eigenvalues --    2.28137   2.28268   2.28372   2.28464   2.28921
 Alpha virt. eigenvalues --    2.29628   2.30460   2.30726   2.30864   2.31656
 Alpha virt. eigenvalues --    2.31775   2.31943   2.32133   2.32491   2.32974
 Alpha virt. eigenvalues --    2.33777   2.34241   2.34444   2.34510   2.34815
 Alpha virt. eigenvalues --    2.35164   2.35558   2.35881   2.35987   2.36055
 Alpha virt. eigenvalues --    2.36252   2.36507   2.36843   2.37196   2.37545
 Alpha virt. eigenvalues --    2.37725   2.37987   2.38100   2.38284   2.38750
 Alpha virt. eigenvalues --    2.39012   2.39307   2.39490   2.40470   2.40791
 Alpha virt. eigenvalues --    2.40941   2.41109   2.41527   2.41791   2.42129
 Alpha virt. eigenvalues --    2.42242   2.42289   2.42658   2.43071   2.43553
 Alpha virt. eigenvalues --    2.43745   2.43802   2.44250   2.44697   2.44976
 Alpha virt. eigenvalues --    2.45176   2.45274   2.45699   2.45889   2.46113
 Alpha virt. eigenvalues --    2.46463   2.46726   2.46910   2.47171   2.47596
 Alpha virt. eigenvalues --    2.48309   2.49043   2.49076   2.49355   2.50002
 Alpha virt. eigenvalues --    2.50223   2.50822   2.51265   2.51466   2.51808
 Alpha virt. eigenvalues --    2.52521   2.53075   2.53361   2.53784   2.53919
 Alpha virt. eigenvalues --    2.54408   2.54634   2.54851   2.55097   2.55400
 Alpha virt. eigenvalues --    2.56182   2.56381   2.56495   2.56789   2.57291
 Alpha virt. eigenvalues --    2.57700   2.58094   2.58357   2.58924   2.59080
 Alpha virt. eigenvalues --    2.59510   2.59763   2.60348   2.60402   2.60675
 Alpha virt. eigenvalues --    2.61057   2.61765   2.61938   2.62225   2.62459
 Alpha virt. eigenvalues --    2.63068   2.63349   2.63749   2.64317   2.64706
 Alpha virt. eigenvalues --    2.64954   2.65220   2.65631   2.65879   2.66368
 Alpha virt. eigenvalues --    2.66920   2.67447   2.67731   2.67782   2.68477
 Alpha virt. eigenvalues --    2.68770   2.69213   2.69583   2.69793   2.70205
 Alpha virt. eigenvalues --    2.70648   2.70752   2.71287   2.71835   2.72184
 Alpha virt. eigenvalues --    2.72326   2.72424   2.72618   2.72837   2.73297
 Alpha virt. eigenvalues --    2.73357   2.73435   2.73935   2.74295   2.74579
 Alpha virt. eigenvalues --    2.74898   2.74941   2.75101   2.75686   2.75937
 Alpha virt. eigenvalues --    2.76000   2.76179   2.76304   2.76483   2.77252
 Alpha virt. eigenvalues --    2.77777   2.78152   2.78548   2.78796   2.78852
 Alpha virt. eigenvalues --    2.79108   2.79607   2.80030   2.80292   2.80535
 Alpha virt. eigenvalues --    2.80737   2.81675   2.81801   2.81974   2.82520
 Alpha virt. eigenvalues --    2.83037   2.83313   2.84044   2.84111   2.84264
 Alpha virt. eigenvalues --    2.84560   2.84878   2.85552   2.85679   2.85947
 Alpha virt. eigenvalues --    2.86390   2.86784   2.87370   2.87642   2.88111
 Alpha virt. eigenvalues --    2.88470   2.88739   2.89042   2.89359   2.90282
 Alpha virt. eigenvalues --    2.91212   2.91264   2.91595   2.91677   2.91933
 Alpha virt. eigenvalues --    2.92547   2.92635   2.92978   2.93288   2.93891
 Alpha virt. eigenvalues --    2.94215   2.94528   2.94573   2.95598   2.96255
 Alpha virt. eigenvalues --    2.96394   2.97075   2.97209   2.97911   2.98050
 Alpha virt. eigenvalues --    2.98908   2.99053   2.99166   2.99517   3.00049
 Alpha virt. eigenvalues --    3.00659   3.01513   3.01780   3.02306   3.03062
 Alpha virt. eigenvalues --    3.03156   3.03702   3.03898   3.04168   3.04242
 Alpha virt. eigenvalues --    3.04885   3.06285   3.06837   3.07415   3.08511
 Alpha virt. eigenvalues --    3.08816   3.09239   3.09860   3.09928   3.10706
 Alpha virt. eigenvalues --    3.12598   3.13109   3.13139   3.13582   3.14544
 Alpha virt. eigenvalues --    3.15428   3.16140   3.16396   3.17988   3.18139
 Alpha virt. eigenvalues --    3.19200   3.20530   3.21193   3.22268   3.22802
 Alpha virt. eigenvalues --    3.23017   3.23941   3.24362   3.25297   3.25456
 Alpha virt. eigenvalues --    3.25640   3.25842   3.26116   3.26646   3.26970
 Alpha virt. eigenvalues --    3.27901   3.28805   3.29189   3.30175   3.30903
 Alpha virt. eigenvalues --    3.31754   3.32856   3.33150   3.33362   3.34104
 Alpha virt. eigenvalues --    3.36375   3.36768   3.37627   3.38774   3.39030
 Alpha virt. eigenvalues --    3.40277   3.40597   3.40928   3.41046   3.42199
 Alpha virt. eigenvalues --    3.43403   3.43992   3.44406   3.44741   3.44797
 Alpha virt. eigenvalues --    3.45292   3.45916   3.46729   3.46781   3.47222
 Alpha virt. eigenvalues --    3.48323   3.48382   3.49392   3.49569   3.49680
 Alpha virt. eigenvalues --    3.51868   3.53084   3.53121   3.53725   3.54540
 Alpha virt. eigenvalues --    3.54787   3.55002   3.56878   3.57233   3.58734
 Alpha virt. eigenvalues --    3.59406   3.61234   3.62153   3.63228   3.64369
 Alpha virt. eigenvalues --    3.64484   3.64849   3.65530   3.66822   3.71607
 Alpha virt. eigenvalues --    3.71977   3.77679   3.79535   3.86024   4.06442
 Alpha virt. eigenvalues --    4.07202   4.11399   4.16587   4.17912   4.18313
 Alpha virt. eigenvalues --    4.19170   4.20166   4.20482   4.21846   4.24454
 Alpha virt. eigenvalues --    4.26663   4.27672   4.28097   4.28804   4.32144
 Alpha virt. eigenvalues --    4.33095   4.33486   4.34535   4.35600   4.35928
 Alpha virt. eigenvalues --    4.37179   4.37939   4.40990   4.41418   4.41955
 Alpha virt. eigenvalues --    4.44179   4.44231   4.45572   4.46241   4.46563
 Alpha virt. eigenvalues --    4.47954   4.49151   4.49496   4.50630   4.51581
 Alpha virt. eigenvalues --    4.53538   4.54979   4.56155   4.56198   4.56915
 Alpha virt. eigenvalues --    4.57332   4.60074   4.60116   4.62682   4.62982
 Alpha virt. eigenvalues --    4.64808   4.65171   4.66166   4.68909   4.69268
 Alpha virt. eigenvalues --    4.70484   4.72880   4.74304   4.76467   4.77901
 Alpha virt. eigenvalues --    4.80814   4.81044   4.82603   4.83630   4.84968
 Alpha virt. eigenvalues --    4.85764   4.88684   5.02786
          Condensed to atoms (all electrons):
 Mulliken charges:
               1
     1  Mg   0.806516
     2  C    0.027199
     3  C   -0.215259
     4  C   -0.163818
     5  C   -0.188590
     6  N   -0.654996
     7  C    0.323628
     8  C   -0.160334
     9  C   -0.124091
    10  C    0.338113
    11  C   -0.304357
    12  C   -0.179790
    13  C   -0.245616
    14  C    0.614406
    15  O   -0.483367
    16  O   -0.492143
    17  N   -0.740910
    18  C    0.312364
    19  C    0.077832
    20  C   -0.045163
    21  C    0.330263
    22  C   -0.349278
    23  C   -0.072836
    24  C   -0.248041
    25  N   -0.679236
    26  C    0.267059
    27  C    0.003545
    28  C    0.035916
    29  C    0.337095
    30  C   -0.383334
    31  C   -0.241281
    32  C   -0.304206
    33  N   -0.719788
    34  C    0.277637
    35  C    0.009334
    36  C    0.043659
    37  C    0.314254
    38  C   -0.363069
    39  C    0.328886
    40  O   -0.499659
    41  C   -0.269598
    42  C    0.638076
    43  O   -0.437173
    44  O   -0.473445
    45  C   -0.083150
    46  C    0.009166
    47  C   -0.113940
    48  C    0.133346
    49  C   -0.370956
    50  C   -0.225255
    51  C   -0.156014
    52  C   -0.152517
    53  C   -0.053695
    54  C   -0.289737
    55  C   -0.148714
    56  C   -0.198509
    57  C   -0.163293
    58  C   -0.062684
    59  C   -0.304384
    60  C   -0.170856
    61  C   -0.182378
    62  C   -0.150762
    63  C   -0.046363
    64  C   -0.320568
    65  C   -0.317823
    66  H    0.075180
    67  H    0.101453
    68  H    0.081800
    69  H    0.108019
    70  H    0.086674
    71  H    0.078744
    72  H    0.115362
    73  H    0.137041
    74  H    0.119552
    75  H    0.125528
    76  H    0.123395
    77  H    0.125166
    78  H    0.126271
    79  H    0.105769
    80  H    0.116136
    81  H    0.100933
    82  H    0.096246
    83  H    0.095595
    84  H    0.114954
    85  H    0.115689
    86  H    0.124980
    87  H    0.112133
    88  H    0.113281
    89  H    0.102024
    90  H    0.117897
    91  H    0.089645
    92  H    0.113063
    93  H    0.112007
    94  H    0.123549
    95  H    0.186672
    96  H    0.114211
    97  H    0.127184
    98  H    0.126957
    99  H    0.132691
   100  H    0.122518
   101  H    0.087329
   102  H    0.115524
   103  H    0.113254
   104  H    0.127914
   105  H    0.063688
   106  H    0.100648
   107  H    0.097370
   108  H    0.065060
   109  H    0.092516
   110  H    0.075194
   111  H    0.079790
   112  H    0.086386
   113  H    0.115153
   114  H    0.074996
   115  H    0.085144
   116  H    0.058244
   117  H    0.102398
   118  H    0.079756
   119  H    0.091051
   120  H    0.076799
   121  H    0.068083
   122  H    0.111025
   123  H    0.100555
   124  H    0.094228
   125  H    0.094591
   126  H    0.096265
   127  H    0.072805
   128  H    0.085435
   129  H    0.097650
   130  H    0.094128
   131  H    0.095285
   132  H    0.089723
   133  H    0.099958
   134  H    0.095400
   135  H    0.080618
   136  H    0.084054
   137  H    0.106342
 Sum of Mulliken charges =  -0.00000
 Mulliken charges with hydrogens summed into heavy atoms:
               1
     1  Mg   0.806516
     2  C    0.027199
     3  C   -0.140078
     4  C   -0.062365
     5  C   -0.106789
     6  N   -0.654996
     7  C    0.323628
     8  C   -0.052315
     9  C   -0.037417
    10  C    0.338113
    11  C    0.026789
    12  C    0.065290
    13  C    0.002946
    14  C    0.614406
    15  O   -0.483367
    16  O   -0.492143
    17  N   -0.740910
    18  C    0.312364
    19  C    0.077832
    20  C   -0.045163
    21  C    0.330263
    22  C   -0.001101
    23  C    0.028097
    24  C   -0.056200
    25  N   -0.679236
    26  C    0.267059
    27  C    0.003545
    28  C    0.035916
    29  C    0.337095
    30  C   -0.027712
    31  C   -0.015866
    32  C    0.005360
    33  N   -0.719788
    34  C    0.277637
    35  C    0.009334
    36  C    0.043659
    37  C    0.314254
    38  C   -0.014450
    39  C    0.328886
    40  O   -0.499659
    41  C   -0.082926
    42  C    0.638076
    43  O   -0.437173
    44  O   -0.473445
    45  C    0.285202
    46  C    0.264374
    47  C   -0.026611
    48  C    0.133346
    49  C   -0.014264
    50  C   -0.060919
    51  C    0.006416
    52  C    0.015193
    53  C    0.026095
    54  C   -0.013201
    55  C   -0.005326
    56  C   -0.016354
    57  C    0.004557
    58  C    0.005399
    59  C    0.001424
    60  C    0.020000
    61  C   -0.024139
    62  C    0.041015
    63  C    0.048922
    64  C   -0.035485
    65  C   -0.046809
 Electronic spatial extent (au):  <R**2>=         178789.8834
 Charge=              0.0000 electrons
 Dipole moment (field-independent basis, Debye):
    X=              1.0220    Y=              5.6380    Z=              0.4502  Tot=              5.7476
 Quadrupole moment (field-independent basis, Debye-Ang):
   XX=           -335.7608   YY=           -395.8624   ZZ=           -398.3848
   XY=            -29.0212   XZ=              9.4168   YZ=             -2.6574
 Traceless Quadrupole moment (field-independent basis, Debye-Ang):
   XX=             40.9086   YY=            -19.1931   ZZ=            -21.7155
   XY=            -29.0212   XZ=              9.4168   YZ=             -2.6574
 Octapole moment (field-independent basis, Debye-Ang**2):
  XXX=           -678.4175  YYY=            192.8933  ZZZ=             19.5611  XYY=            -26.7662
  XXY=            166.9870  XXZ=           -171.9958  XZZ=              1.2171  YZZ=            -14.1111
  YYZ=             42.2115  XYZ=            -37.0015
 Hexadecapole moment (field-independent basis, Debye-Ang**3):
 XXXX=        -215064.6830 YYYY=         -17347.4832 ZZZZ=          -4044.5613 XXXY=          -1334.5316
 XXXZ=           1897.1144 YYYX=          -1462.8640 YYYZ=           -104.4979 ZZZX=            -95.9685
 ZZZY=           -129.2330 XXYY=         -39839.1601 XXZZ=         -38943.0677 YYZZ=          -3448.2257
 XXYZ=           -305.9067 YYXZ=             12.4051 ZZXY=            -26.5148
 N-N= 8.776454484345D+03 E-N=-2.437816805951D+04  KE= 2.907722173275D+03

 Test job not archived.
 1\1\GINC-RYZEN-SSD3\SP\RCAM-B3LYP TD-FC\6-31G(d,p)\C55H72Mg1N4O5\PADAW
 AN\07-Sep-2019\0\\# td=(NStates=1) iop(3/107=0140000000,3/108=01400000
 00) CAM-B3LYP/6-31G(d,p)\\TD\\0,1\Mg,0,-7.1340480965,0.6192503085,0.17
 07834483\C,0,-4.8809469112,-1.9508223128,0.4964150439\C,0,-4.728678898
 5,2.82232095,1.0667267779\C,0,-9.385545319,3.1677943324,-0.3621086862\
 C,0,-9.5753236304,-1.6667984455,-0.7508318881\N,0,-5.1218192131,0.3499
 810887,0.6902968537\C,0,-4.3705293002,-0.763777521,0.7308309778\C,0,-2
 .9022664472,-0.3869970977,1.1634620153\C,0,-3.0199452214,1.0292116228,
 1.5894252218\C,0,-4.3405742921,1.4857732284,1.0387382677\C,0,-2.898886
 0694,1.1978826076,3.1075360682\C,0,-1.8450702367,-0.517317721,-0.04309
 04987\C,0,-0.4387595852,-0.4290461526,0.4001433966\C,0,0.5481267359,-0
 .7858252044,-0.595419332\O,0,0.3648567025,-1.19712349,-1.7253099241\O,
 0,1.7977983782,-0.3722871671,-0.2276181494\N,0,-7.0188795314,2.5780210
 12,0.3460655307\C,0,-5.9890190457,3.4041441818,0.7176676429\C,0,-6.336
 7085793,4.7542922928,0.8173899977\C,0,-7.6361283981,4.7565074559,0.365
 4826747\C,0,-8.0911186394,3.4651834571,0.0684748461\C,0,-5.4477468086,
 5.7505645302,1.3311832735\C,0,-8.4404940574,6.0318634559,0.0556961821\
 C,0,-8.319440354,7.1621653662,0.6541794772\N,0,-9.1250415453,0.6851755
 12,-0.4861451884\C,0,-9.9032578121,1.8463879631,-0.5357963931\C,0,-11.
 2261265654,1.4800974542,-0.9422890886\C,0,-11.2601455018,0.1571832641,
 -1.1426542937\C,0,-9.9353911427,-0.3229024836,-0.7920914104\C,0,-12.28
 48894266,2.6479800394,-1.3685063033\C,0,-12.4413679297,-0.7088470085,-
 1.5557149021\C,0,-12.3297348824,-1.1188720795,-3.1004506963\N,0,-7.235
 8965521,-1.3359684325,-0.1537280479\C,0,-8.2398983161,-2.2014386894,-0
 .5316447444\C,0,-7.7794899888,-3.5243429857,-0.5674570455\C,0,-6.46560
 43509,-3.5160445866,-0.3002121029\C,0,-6.2079045222,-2.1512930851,0.06
 74685823\C,0,-8.722754615,-4.7760036988,-0.8759709802\C,0,-5.283203783
 3,-4.2009636598,0.1993549096\O,0,-5.362327225,-5.4863954965,0.20492644
 12\C,0,-4.1423587385,-3.2620236498,0.5104493665\C,0,-3.6042746043,-3.6
 286008028,1.8203079993\O,0,-3.7786506485,-3.2009774556,2.8814415024\O,
 0,-2.6752728801,-4.6393225508,1.6288419217\C,0,-2.1243613931,-5.186183
 8243,2.8270401044\C,0,2.8395702774,-0.7435126402,-1.2227257898\C,0,4.1
 72988184,-0.6094562135,-0.590291592\C,0,5.0522107124,0.2551620442,-1.0
 973726143\C,0,5.0119949251,1.1014378191,-2.3658207171\C,0,6.4229885776
 ,0.2665072667,-0.2866691913\C,0,7.6393753901,-0.1545440024,-1.00003033
 17\C,0,8.9690146131,-0.1854303591,-0.0451006125\C,0,10.184813942,-0.45
 36870319,-0.8145071707\C,0,10.1441376904,-2.0073886188,-1.2712340894\C
 ,0,11.3310577696,-0.3659214832,0.1071227498\C,0,12.7779955351,-0.70276
 03095,-0.5760951146\C,0,13.9689881706,-0.1222979441,0.2227386855\C,0,1
 5.4021562066,-0.3091099946,-0.397425395\C,0,15.6840346745,-1.740132401
 5,-0.7004418705\C,0,16.3468316759,0.3467511924,0.6280075355\C,0,17.753
 942982,0.5355672863,-0.1148580128\C,0,18.6417345921,1.4551035889,0.787
 1819749\C,0,20.0864014445,1.4619156241,0.2558722932\C,0,20.1817210179,
 2.0916464697,-1.1093956355\C,0,21.0752525923,2.2240741073,1.1249364336
 \H,0,-3.9104114046,3.4812513765,1.3928453803\H,0,-10.050647188,4.07388
 96635,-0.2963541616\H,0,-10.6106954936,-2.4123367688,-0.8141492343\H,0
 ,-2.5667839656,-1.0654467474,1.9816946602\H,0,-2.1211955859,1.54552661
 38,1.0571793669\H,0,-1.7698700734,0.8285619626,3.3355038878\H,0,-2.837
 3508442,2.2036995928,3.5603040526\H,0,-3.5087736779,0.4608912434,3.618
 1234975\H,0,-2.044359555,-1.4789685677,-0.4224502521\H,0,-2.1658329523
 ,0.0790555254,-0.8551322478\H,0,-0.2446198907,0.7212717145,0.822626125
 6\H,0,-0.2103594562,-1.32993376,1.2032237807\H,0,-5.6255667344,6.61218
 87309,0.774917323\H,0,-5.6606475361,6.0974026217,2.4711291254\H,0,-4.5
 582606707,5.4500192699,1.2017109037\H,0,-9.114971757,6.0901523972,-0.8
 331946722\H,0,-9.0313421979,7.9971794389,0.5117009458\H,0,-7.576135545
 7,7.5057374101,1.4289518555\H,0,-12.0050109741,3.4228714342,-2.1138772
 192\H,0,-13.1294602437,2.3224709895,-1.8629220204\H,0,-12.6543864713,3
 .1955968938,-0.5550559451\H,0,-12.3230442693,-1.5494058634,-0.98115161
 61\H,0,-13.469219221,-0.3601387244,-1.4479005445\H,0,-13.3075559548,-1
 .6262062827,-3.3074617043\H,0,-12.1739277985,-0.1802764989,-3.70814979
 34\H,0,-11.4860934487,-2.0005210793,-3.2445227305\H,0,-8.9703016488,-4
 .855852086,-2.0175078138\H,0,-8.0505894441,-5.8863945928,-0.5108010352
 \H,0,-9.7211462936,-4.7415426027,-0.4657588446\H,0,-3.6099585144,-3.44
 59011957,-0.3323709752\H,0,-1.7363170193,-4.3009023036,3.4390456222\H,
 0,-2.8842348608,-5.6493544603,3.4793489726\H,0,-1.4748880093,-5.965947
 3795,2.4289562567\H,0,2.7553035852,-1.6827849013,-1.7320446532\H,0,2.5
 128577271,-0.1294448597,-1.9726383213\H,0,4.4959200787,-1.1520536192,0
 .2082522254\H,0,4.0047857901,1.1880043431,-2.8180922949\H,0,5.32208914
 11,2.1635367776,-2.1030177402\H,0,5.7612256911,0.7379949904,-3.1081370
 706\H,0,6.6362818121,1.4028102616,0.0644360575\H,0,6.1720150736,-0.096
 7870154,0.7287590714\H,0,7.5150536282,-1.2264233153,-1.3473294901\H,0,
 7.8026328218,0.6176608691,-1.9948703099\H,0,9.0392999743,0.7850280003,
 0.3803604641\H,0,8.9152246433,-1.0237407268,0.8047666001\H,0,10.391233
 7552,0.4338895368,-1.5364288009\H,0,9.1759172008,-2.0569439779,-1.9690
 452864\H,0,11.0553246731,-2.3058239817,-1.7782131794\H,0,9.768179015,-
 2.6105351682,-0.2149888926\H,0,11.4117328149,0.692955729,0.2707148423\
 H,0,11.0961572112,-0.9198232799,1.1688932094\H,0,12.9360115537,-1.6380
 612254,-0.8495672282\H,0,12.7466204919,-0.1366387279,-1.5264769814\H,0
 ,13.8474161619,0.8871640797,0.3633711658\H,0,13.9236106717,-0.74259063
 8,1.1961819922\H,0,15.6223326347,0.3299063876,-1.3157128401\H,0,15.721
 6259594,-2.3046298042,0.1452563901\H,0,14.93985563,-2.1945239724,-1.37
 05584293\H,0,16.6842967093,-1.7543363306,-1.1883953528\H,0,16.00049332
 28,1.3308414178,0.9775936757\H,0,16.4390179796,-0.2419804828,1.5071992
 146\H,0,18.3996066984,-0.4525317672,-0.4915893545\H,0,17.3919765073,1.
 0916380579,-1.0908948331\H,0,18.3430433612,2.4764689149,0.6638083276\H
 ,0,18.7190078633,1.1101358531,1.7934525908\H,0,20.4568855209,0.5449354
 911,0.1653524274\H,0,19.9170585244,3.1512759041,-1.2717593606\H,0,21.1
 80261827,2.3565267948,-1.3256705483\H,0,19.8305314507,1.4612864188,-1.
 9544138258\H,0,21.0267965332,1.8687825192,2.2074644152\H,0,22.22466035
 88,1.9814486156,0.8615728109\H,0,20.8339534738,3.2673128485,1.17568470
 52\\Version=ES64L-G16RevA.03\State=1-A\HF=-2933.5036141\RMSD=9.703e-09
 \PG=C01 [X(C55H72Mg1N4O5)]\\@


 GARLIC THEN HAVE POWER TO SAVE FROM DEATH
 BEAR WITH IT THOUGH IT MAKETH UNSAVORY BREATH,
 AND SCORN NOT GARLIC LIKE SOME THAT THINK
 IT ONLY MAKETH MEN WINK AND DRINK AND STINK.
   --  SIR JOHN HARRINGTON,
       "THE ENGLISHMAN'S DOCTOR", 1609
 Job cpu time:       1 days  7 hours 23 minutes 47.2 seconds.
 Elapsed time:       0 days  7 hours 52 minutes 23.8 seconds.
 File lengths (MBytes):  RWF=   6809 Int=      0 D2E=      0 Chk=    181 Scr=      1
 Normal termination of Gaussian 16 at Sat Sep  7 14:18:55 2019.
