 Entering Gaussian System, Link 0=g16
 Input=Geometria-497-.com
 Output=Geometria-497-.log
 Initial command:
 /usr/local/g16/l1.exe "/home/padawan/israel-mol/chlorophyll-a/spectra/emi/Gau-116879.inp" -scrdir="/home/padawan/israel-mol/chlorophyll-a/spectra/emi/"
 Entering Link 1 = /usr/local/g16/l1.exe PID=    116881.
  
 Copyright (c) 1988,1990,1992,1993,1995,1998,2003,2009,2016,
            Gaussian, Inc.  All Rights Reserved.
  
 This is part of the Gaussian(R) 16 program.  It is based on
 the Gaussian(R) 09 system (copyright 2009, Gaussian, Inc.),
 the Gaussian(R) 03 system (copyright 2003, Gaussian, Inc.),
 the Gaussian(R) 98 system (copyright 1998, Gaussian, Inc.),
 the Gaussian(R) 94 system (copyright 1995, Gaussian, Inc.),
 the Gaussian 92(TM) system (copyright 1992, Gaussian, Inc.),
 the Gaussian 90(TM) system (copyright 1990, Gaussian, Inc.),
 the Gaussian 88(TM) system (copyright 1988, Gaussian, Inc.),
 the Gaussian 86(TM) system (copyright 1986, Carnegie Mellon
 University), and the Gaussian 82(TM) system (copyright 1983,
 Carnegie Mellon University). Gaussian is a federally registered
 trademark of Gaussian, Inc.
  
 This software contains proprietary and confidential information,
 including trade secrets, belonging to Gaussian, Inc.
  
 This software is provided under written license and may be
 used, copied, transmitted, or stored only in accord with that
 written license.
  
 The following legend is applicable only to US Government
 contracts under FAR:
  
                    RESTRICTED RIGHTS LEGEND
  
 Use, reproduction and disclosure by the US Government is
 subject to restrictions as set forth in subparagraphs (a)
 and (c) of the Commercial Computer Software - Restricted
 Rights clause in FAR 52.227-19.
  
 Gaussian, Inc.
 340 Quinnipiac St., Bldg. 40, Wallingford CT 06492
  
  
 ---------------------------------------------------------------
 Warning -- This program may not be used in any manner that
 competes with the business of Gaussian, Inc. or will provide
 assistance to any competitor of Gaussian, Inc.  The licensee
 of this program is prohibited from giving any competitor of
 Gaussian, Inc. access to this program.  By using this program,
 the user acknowledges that Gaussian, Inc. is engaged in the
 business of creating and licensing software in the field of
 computational chemistry and represents and warrants to the
 licensee that it is not a competitor of Gaussian, Inc. and that
 it will not use this program in any manner prohibited above.
 ---------------------------------------------------------------
  

 Cite this work as:
 Gaussian 16, Revision A.03,
 M. J. Frisch, G. W. Trucks, H. B. Schlegel, G. E. Scuseria, 
 M. A. Robb, J. R. Cheeseman, G. Scalmani, V. Barone, 
 G. A. Petersson, H. Nakatsuji, X. Li, M. Caricato, A. V. Marenich, 
 J. Bloino, B. G. Janesko, R. Gomperts, B. Mennucci, H. P. Hratchian, 
 J. V. Ortiz, A. F. Izmaylov, J. L. Sonnenberg, D. Williams-Young, 
 F. Ding, F. Lipparini, F. Egidi, J. Goings, B. Peng, A. Petrone, 
 T. Henderson, D. Ranasinghe, V. G. Zakrzewski, J. Gao, N. Rega, 
 G. Zheng, W. Liang, M. Hada, M. Ehara, K. Toyota, R. Fukuda, 
 J. Hasegawa, M. Ishida, T. Nakajima, Y. Honda, O. Kitao, H. Nakai, 
 T. Vreven, K. Throssell, J. A. Montgomery, Jr., J. E. Peralta, 
 F. Ogliaro, M. J. Bearpark, J. J. Heyd, E. N. Brothers, K. N. Kudin, 
 V. N. Staroverov, T. A. Keith, R. Kobayashi, J. Normand, 
 K. Raghavachari, A. P. Rendell, J. C. Burant, S. S. Iyengar, 
 J. Tomasi, M. Cossi, J. M. Millam, M. Klene, C. Adamo, R. Cammi, 
 J. W. Ochterski, R. L. Martin, K. Morokuma, O. Farkas, 
 J. B. Foresman, and D. J. Fox, Gaussian, Inc., Wallingford CT, 2016.
 
 ******************************************
 Gaussian 16:  ES64L-G16RevA.03 25-Dec-2016
                24-Sep-2019 
 ******************************************
 %nproc=4
 Will use up to    4 processors via shared memory.
 %Mem=3GB
 ----------------------------------------------------------------------
 # td=(NStates=1) iop(3/107=0140000000,3/108=0140000000) CAM-B3LYP/6-31
 G(d,p)
 ----------------------------------------------------------------------
 1/38=1,172=1/1;
 2/12=2,17=6,18=5,40=1/2;
 3/5=1,6=6,7=101,11=9,25=1,30=1,74=-40,107=140000000,108=140000000/1,2,3,8;
 4//1;
 5/5=2,38=5/2;
 8/6=1,10=2,108=1/1;
 9/41=1,42=1,70=2/14;
 6/7=2,8=2,9=2,10=2/1;
 99/5=1,9=1/99;
 --
 TD
 --
 Symbolic Z-matrix:
 Charge =  0 Multiplicity = 1
 12                   -7.09746   0.64231  -0.09035 
 6                    -4.87585  -1.95061   0.38519 
 6                    -4.73854   2.8744    0.93414 
 6                    -9.41774   3.16767  -0.35093 
 6                    -9.65867  -1.69961  -0.77393 
 7                    -5.09937   0.51176   0.6122 
 6                    -4.35217  -0.72259   0.77189 
 6                    -2.95176  -0.32815   1.0855 
 6                    -3.00649   1.2046    1.58957 
 6                    -4.3918    1.49278   1.03463 
 6                    -3.07786   1.2177    3.22278 
 6                    -2.00047  -0.43806  -0.03426 
 6                    -0.52704  -0.38698   0.49407 
 6                     0.59138  -0.78681  -0.52712 
 8                     0.34416  -1.28454  -1.64549 
 8                     1.80123  -0.71096  -0.03279 
 7                    -7.13865   2.65455   0.35912 
 6                    -6.09663   3.42084   0.81518 
 6                    -6.39508   4.85128   0.81853 
 6                    -7.70544   4.97498   0.52182 
 6                    -8.16372   3.547     0.0282 
 6                    -5.43951   5.91355   1.2372 
 6                    -8.54737   6.02375   0.24838 
 6                    -8.42733   7.30819   0.70556 
 7                    -9.08072   0.66743  -0.50801 
 6                    -9.85608   1.84464  -0.70838 
 6                    -11.23132   1.49346  -1.01766 
 6                    -11.29366   0.1554   -1.13889 
 6                    -10.02459  -0.30332  -0.83252 
 6                    -12.15502   2.62267  -1.43834 
 6                    -12.42899  -0.68666  -1.65327 
 6                    -12.18115  -1.18806  -3.14577 
 7                    -7.31384  -1.33251  -0.17986 
 6                    -8.38233  -2.16019  -0.57566 
 6                    -7.90734  -3.59653  -0.50225 
 6                    -6.63053  -3.51576  -0.1818 
 6                    -6.2631   -2.16025  -0.03267 
 6                    -8.73651  -4.79826  -0.64163 
 6                    -5.40048  -4.35505   0.08113 
 8                    -5.30103  -5.5835    0.03989 
 6                    -4.17145  -3.32087   0.42843 
 6                    -3.6091   -3.72659   1.75606 
 8                    -3.80465  -3.17978   2.88201 
 8                    -2.83271  -4.79507   1.60446 
 6                    -2.01645  -5.19508   2.75332 
 6                     2.82763  -0.93945  -1.02027 
 6                     4.24087  -0.71746  -0.36233 
 6                     5.20083   0.14229  -0.75908 
 6                     4.95446   1.13792  -1.9073 
 6                     6.39425   0.12942  -0.08559 
 6                     7.67012  -0.38009  -0.76778 
 6                     8.97036  -0.20908   0.00058 
 6                     10.25067  -0.58963  -0.70543 
 6                     10.24935  -1.97485  -1.27369 
 6                     11.52685  -0.30311   0.07794 
 6                     12.87138  -0.49374  -0.6446 
 6                     14.09498   0.10776   0.14401 
 6                     15.39753  -0.15977  -0.55906 
 6                     15.70976  -1.63027  -0.75674 
 6                     16.50969   0.37801   0.38963 
 6                     17.81765   0.55409  -0.30237 
 6                     18.77227   1.3378    0.62385 
 6                     20.17946   1.51841   0.21718 
 6                     20.32979   2.14248  -1.22594 
 6                     21.08466   2.17996   1.06077 
 1                    -3.82626   3.3561    1.22752 
 1                    -10.20284   3.8047   -0.48436 
 1                    -10.45296  -2.44391  -1.20333 
 1                    -2.58452  -1.20924   1.88786 
 1                    -2.10466   1.93647   1.30131 
 1                    -1.99659   0.71058   3.52319 
 1                    -3.08439   2.17609   3.45809 
 1                    -3.92643   0.58174   3.43373 
 1                    -2.05673  -1.39541  -0.67873 
 1                    -2.13313   0.26867  -0.86863 
 1                    -0.39857   0.48689   0.85315 
 1                    -0.6757   -1.23092   1.37126 
 1                    -5.7195    6.89968   0.79631 
 1                    -5.17716   5.90602   2.4167 
 1                    -4.1871    5.69572   0.76106 
 1                    -9.38216   5.74774  -0.39096 
 1                    -8.95797   8.25113   0.3394 
 1                    -7.47956   7.56183   1.48404 
 1                    -11.7619   3.22227  -2.32821 
 1                    -13.23901   2.15761  -1.69875 
 1                    -12.46087   3.33816  -0.65265 
 1                    -12.79429  -1.64136  -1.03477 
 1                    -13.44891  -0.06121  -1.64157 
 1                    -13.19884  -1.7001   -3.34153 
 1                    -11.78925  -0.22042  -3.7404 
 1                    -11.34141  -1.9773   -3.18472 
 1                    -9.24697  -4.76798  -1.38056 
 1                    -7.99796  -5.54472  -0.58183 
 1                    -9.5289   -4.99126   0.18969 
 1                    -3.29842  -3.57906  -0.25335 
 1                    -1.22727  -4.51358   3.09365 
 1                    -2.60003  -5.5073    3.63538 
 1                    -1.53961  -6.08356   2.37691 
 1                     2.90814  -2.00671  -1.34986 
 1                     2.57785  -0.3299   -1.97794 
 1                     4.46532  -1.36976   0.51748 
 1                     3.76496   0.96534  -2.35127 
 1                     4.96876   2.21928  -1.55907 
 1                     5.8338    1.04735  -2.67431 
 1                     6.62788   1.11105   0.23257 
 1                     6.30234  -0.59831   0.77555 
 1                     7.46462  -1.32142  -1.27037 
 1                     7.76341   0.40156  -1.56728 
 1                     9.03534   0.86439   0.31535 
 1                     9.12619  -0.86898   0.96149 
 1                     10.35167  -0.03067  -1.56398 
 1                     9.27836  -2.2352   -1.77611 
 1                     11.08659  -2.12687  -2.10013 
 1                     10.3656  -2.69718  -0.42913 
 1                     11.41377   0.7752    0.51211 
 1                     11.51263  -1.04475   0.99925 
 1                     12.98582  -1.5399   -0.99747 
 1                     12.64705   0.07245  -1.52021 
 1                     13.9912   1.18784   0.47157 
 1                     14.13817  -0.46643   1.19895 
 1                     15.41611   0.41057  -1.54149 
 1                     15.5645  -2.23782   0.096 
 1                     15.12434  -2.10246  -1.64206 
 1                     16.71442  -1.74339  -1.02774 
 1                     16.3113   1.53028   0.67553 
 1                     16.62976  -0.28329   1.27716 
 1                     18.29975  -0.35468  -0.42656 
 1                     18.01532   1.0224   -1.32429 
 1                     18.22162   2.27321   0.93284 
 1                     18.79346   1.07944   1.77276 
 1                     20.75691   0.48574  -0.04132 
 1                     19.66817   3.05823  -1.33623 
 1                     21.33038   2.21072  -1.43839 
 1                     19.85578   1.51719  -1.91744 
 1                     21.01941   1.87748   2.03586 
 1                     22.21426   1.98136   0.78127 
 1                     20.86663   3.34508   1.16873 
 
 Stoichiometry    C55H72MgN4O5
 Framework group  C1[X(C55H72MgN4O5)]
 Deg. of freedom   405
 Full point group                 C1      NOp   1
 Largest Abelian subgroup         C1      NOp   1
 Largest concise Abelian subgroup C1      NOp   1
                         Standard orientation:                         
 ---------------------------------------------------------------------
 Center     Atomic      Atomic             Coordinates (Angstroms)
 Number     Number       Type             X           Y           Z
 ---------------------------------------------------------------------
      1         12           0       -7.099975    0.638942   -0.099988
      2          6           0       -4.877836   -1.948045    0.404580
      3          6           0       -4.741920    2.882723    0.900681
      4          6           0       -9.420816    3.160698   -0.388886
      5          6           0       -9.660385   -1.710991   -0.758619
      6          7           0       -5.102051    0.516606    0.604532
      7          6           0       -4.354584   -0.715729    0.777948
      8          6           0       -2.954370   -0.317513    1.087634
      9          6           0       -3.009641    1.220653    1.574859
     10          6           0       -4.394857    1.502384    1.016395
     11          6           0       -3.081494    1.251630    3.207809
     12          6           0       -2.002718   -0.439436   -0.030582
     13          6           0       -0.529459   -0.382194    0.497588
     14          6           0        0.589362   -0.792891   -0.518841
     15          8           0        0.342601   -1.302913   -1.631763
     16          8           0        1.799045   -0.711324   -0.025016
     17          7           0       -7.141807    2.655970    0.327399
     18          6           0       -6.100114    3.427476    0.775341
     19          6           0       -6.398935    4.857796    0.762937
     20          6           0       -7.709230    4.977897    0.464507
     21          6           0       -8.167001    3.544480   -0.013571
     22          6           0       -5.443750    5.924834    1.170227
     23          6           0       -8.551356    6.023395    0.179347
     24          6           0       -8.431774    7.312794    0.622473
     25          7           0       -9.083111    0.658974   -0.518470
     26          6           0       -9.858718    1.833713   -0.731955
     27          6           0      -11.233772    1.478812   -1.037762
     28          6           0      -11.295737    0.139492   -1.144353
     29          6           0      -10.026642   -0.315520   -0.832599
     30          6           0      -12.157636    2.603106   -1.471062
     31          6           0      -12.430699   -0.708453   -1.649808
     32          6           0      -12.182297   -1.226102   -3.136645
     33          7           0       -7.315825   -1.336797   -0.167921
     34          6           0       -8.383986   -2.169045   -0.554939
     35          6           0       -7.908652   -3.604368   -0.465663
     36          6           0       -6.631955   -3.519767   -0.145745
     37          6           0       -6.264913   -2.162610   -0.011367
     38          6           0       -8.737468   -4.807762   -0.592108
     39          6           0       -5.401763   -4.355804    0.126724
     40          8           0       -5.301993   -5.584602    0.098969
     41          6           0       -4.173105   -3.317565    0.463030
     42          6           0       -3.611035   -3.708573    1.795189
     43          8           0       -3.807063   -3.149507    2.915024
     44          8           0       -2.834331   -4.778447    1.655526
     45          6           0       -2.018309   -5.165643    2.808939
     46          6           0        2.825794   -0.950354   -1.009632
     47          6           0        4.238790   -0.720800   -0.353755
     48          6           0        5.198638    0.134798   -0.759621
     49          6           0        4.952355    1.117727   -1.918756
     50          6           0        6.391863    0.129617   -0.085683
     51          6           0        7.668066   -0.387006   -0.761878
     52          6           0        8.968043   -0.207260    0.004942
     53          6           0       10.248653   -0.595189   -0.696485
     54          6           0       10.247851   -1.986546   -1.249545
     55          6           0       11.524527   -0.299770    0.084066
     56          6           0       12.869325   -0.497961   -0.635953
     57          6           0       14.092536    0.112452    0.146379
     58          6           0       15.395356   -0.162417   -0.553341
     59          6           0       15.708020   -1.634920   -0.734806
     60          6           0       16.507102    0.386009    0.389729
     61          6           0       17.815222    0.554830   -0.303778
     62          6           0       18.769368    1.348888    0.614071
     63          6           0       20.176635    1.525395    0.205859
     64          6           0       20.327224    2.133659   -1.243963
     65          6           0       21.081421    2.196379    1.042416
     66          1           0       -3.829852    3.367846    1.189027
     67          1           0      -10.206043    3.796024   -0.529520
     68          1           0      -10.454357   -2.460154   -1.180065
     69          1           0       -2.587136   -1.189666    1.899696
     70          1           0       -2.107913    1.949550    1.278870
     71          1           0       -2.000182    0.748106    3.514076
     72          1           0       -3.088329    2.212530    3.432610
     73          1           0       -3.929955    0.617798    3.425463
     74          1           0       -2.058550   -1.403803   -0.664538
     75          1           0       -2.135317    0.258081   -0.872686
     76          1           0       -0.401314    0.495591    0.847107
     77          1           0       -0.678159   -1.216514    1.383925
     78          1           0       -5.723862    6.905999    0.718475
     79          1           0       -5.181747    5.930295    2.349815
     80          1           0       -4.191152    5.702127    0.696859
     81          1           0       -9.385882    5.740178   -0.457170
     82          1           0       -8.962551    8.251535    0.245851
     83          1           0       -7.484292    7.575194    1.398396
     84          1           0      -11.764407    3.193027   -2.367328
     85          1           0      -13.241435    2.134949   -1.726670
     86          1           0      -12.463899    3.327085   -0.693339
     87          1           0      -12.795942   -1.656405   -1.020986
     88          1           0      -13.450783   -0.083169   -1.645253
     89          1           0      -13.199794   -1.740523   -3.327080
     90          1           0      -11.790468   -0.264935   -3.741733
     91          1           0      -11.342343   -2.015505   -3.166704
     92          1           0       -9.247722   -4.785718   -1.331480
     93          1           0       -7.998754   -5.553336   -0.523920
     94          1           0       -9.530054   -4.991850    0.241040
     95          1           0       -3.299805   -3.582987   -0.215631
     96          1           0       -1.229398   -4.480251    3.142011
     97          1           0       -2.602064   -5.468328    3.694199
     98          1           0       -1.541136   -6.058065    2.442422
     99          1           0        2.906672   -2.021134   -1.327488
    100          1           0        2.576145   -0.351398   -1.973998
    101          1           0        4.463140   -1.363363    0.533214
    102          1           0        3.763032    0.939988   -2.361145
    103          1           0        4.966282    2.202841   -1.582387
    104          1           0        5.831947    1.018982   -2.684471
    105          1           0        6.625155    1.114731    0.221774
    106          1           0        6.299888   -0.588660    0.783353
    107          1           0        7.462954   -1.333845   -1.254190
    108          1           0        7.761392    0.385859   -1.569866
    109          1           0        9.032652    0.869609    0.307952
    110          1           0        9.123750   -0.856547    0.973066
    111          1           0       10.349762   -0.045637   -1.561083
    112          1           0        9.277074   -2.252641   -1.749357
    113          1           0       11.085372   -2.147394   -2.074018
    114          1           0       10.364037   -2.699559   -0.397085
    115          1           0       11.411050    0.783201    0.506364
    116          1           0       11.510227   -1.031277    1.013438
    117          1           0       12.984127   -1.547896   -0.977308
    118          1           0       12.645104    0.058547   -1.517772
    119          1           0       13.988384    1.196038    0.462059
    120          1           0       14.135564   -0.450134    1.207560
    121          1           0       15.414085    0.397131   -1.541949
    122          1           0       15.562667   -2.233132    0.124495
    123          1           0       15.122987   -2.116935   -1.615069
    124          1           0       16.712791   -1.750737   -1.004260
    125          1           0       16.308341    1.541288    0.662932
    126          1           0       16.627079   -0.265507    1.284478
    127          1           0       18.297587   -0.355122   -0.417872
    128          1           0       18.013072    1.011971   -1.330711
    129          1           0       18.218393    2.287482    0.912635
    130          1           0       18.790284    1.103136    1.765753
    131          1           0       20.754418    0.490103   -0.041142
    132          1           0       19.665411    3.047970   -1.364469
    133          1           0       21.327860    2.199826   -1.456861
    134          1           0       19.853585    1.500709   -1.928712
    135          1           0       21.015954    1.904585    2.020739
    136          1           0       22.211149    1.995019    0.765442
    137          1           0       20.863056    3.362556    1.137547
 ---------------------------------------------------------------------
 Rotational constants (GHZ):           0.0647199           0.0060719           0.0057030
 Standard basis: 6-31G(d,p) (6D, 7F)
 There are  1339 symmetry adapted cartesian basis functions of A   symmetry.
 There are  1339 symmetry adapted basis functions of A   symmetry.
  1339 basis functions,  2348 primitive gaussians,  1339 cartesian basis functions
   241 alpha electrons      241 beta electrons
       nuclear repulsion energy      8737.5479118437 Hartrees.
 NAtoms=  137 NActive=  137 NUniq=  137 SFac= 1.00D+00 NAtFMM=   60 NAOKFM=T Big=T
 Integral buffers will be    131072 words long.
 Raffenetti 1 integral format.
 Two-electron integral symmetry is turned on.
 One-electron integrals computed using PRISM.
 NBasis=  1339 RedAO= T EigKep=  3.12D-04  NBF=  1339
 NBsUse=  1339 1.00D-06 EigRej= -1.00D+00 NBFU=  1339
 ExpMin= 4.21D-02 ExpMax= 1.17D+04 ExpMxC= 1.76D+03 IAcc=3 IRadAn=         5 AccDes= 0.00D+00
 Harris functional with IExCor=20419 and IRadAn=       5 diagonalized for initial guess.
 HarFok:  IExCor=20419 AccDes= 0.00D+00 IRadAn=         5 IDoV= 1 UseB2=F ITyADJ=14
 ICtDFT=  3500011 ScaDFX=  1.000000  1.000000  1.000000  1.000000
 FoFCou: FMM=F IPFlag=           0 FMFlag=      100000 FMFlg1=        2001
         NFxFlg=           0 DoJE=T BraDBF=F KetDBF=T FulRan=T
         wScrn=  0.000000 ICntrl=       500 IOpCl=  0 I1Cent=   200000004 NGrid=           0
         NMat0=    1 NMatS0=      1 NMatT0=    0 NMatD0=    1 NMtDS0=    0 NMtDT0=    0
 Petite list used in FoFCou.
 Requested convergence on RMS density matrix=1.00D-08 within 128 cycles.
 Requested convergence on MAX density matrix=1.00D-06.
 Requested convergence on             energy=1.00D-06.
 No special actions if energy rises.
 SCF Done:  E(RCAM-B3LYP) =  -2933.48167194     A.U. after   16 cycles
            NFock= 16  Conv=0.41D-08     -V/T= 2.0096
 DoSCS=F DFT=T ScalE2(SS,OS)=  1.000000  1.000000
 ExpMin= 4.21D-02 ExpMax= 1.17D+04 ExpMxC= 1.76D+03 IAcc=3 IRadAn=         5 AccDes= 0.00D+00
 HarFok:  IExCor=  205 AccDes= 0.00D+00 IRadAn=         5 IDoV=-2 UseB2=F ITyADJ=14
 ICtDFT= 12500011 ScaDFX=  1.000000  1.000000  1.000000  1.000000
 GSVD:  LWork=       -5313 too small for GESVD, short by       24840 words or       24840 for optimal perf.
 Range of M.O.s used for correlation:    70  1339
 NBasis=  1339 NAE=   241 NBE=   241 NFC=    69 NFV=     0
 NROrb=   1270 NOA=   172 NOB=   172 NVA=  1098 NVB=  1098
 Orbital symmetries:
       Occupied  (A) (A) (A) (A) (A) (A) (A) (A) (A) (A) (A) (A)
                 (A) (A) (A) (A) (A) (A) (A) (A) (A) (A) (A) (A)
                 (A) (A) (A) (A) (A) (A) (A) (A) (A) (A) (A) (A)
                 (A) (A) (A) (A) (A) (A) (A) (A) (A) (A) (A) (A)
                 (A) (A) (A) (A) (A) (A) (A) (A) (A) (A) (A) (A)
                 (A) (A) (A) (A) (A) (A) (A) (A) (A) (A) (A) (A)
                 (A) (A) (A) (A) (A) (A) (A) (A) (A) (A) (A) (A)
                 (A) (A) (A) (A) (A) (A) (A) (A) (A) (A) (A) (A)
                 (A) (A) (A) (A) (A) (A) (A) (A) (A) (A) (A) (A)
                 (A) (A) (A) (A) (A) (A) (A) (A) (A) (A) (A) (A)
                 (A) (A) (A) (A) (A) (A) (A) (A) (A) (A) (A) (A)
                 (A) (A) (A) (A) (A) (A) (A) (A) (A) (A) (A) (A)
                 (A) (A) (A) (A) (A) (A) (A) (A) (A) (A) (A) (A)
                 (A) (A) (A) (A) (A) (A) (A) (A) (A) (A) (A) (A)
                 (A) (A) (A) (A) (A) (A) (A) (A) (A) (A) (A) (A)
                 (A) (A) (A) (A) (A) (A) (A) (A) (A) (A) (A) (A)
                 (A) (A) (A) (A) (A) (A) (A) (A) (A) (A) (A) (A)
                 (A) (A) (A) (A) (A) (A) (A) (A) (A) (A) (A) (A)
                 (A) (A) (A) (A) (A) (A) (A) (A) (A) (A) (A) (A)
                 (A) (A) (A) (A) (A) (A) (A) (A) (A) (A) (A) (A)
                 (A)
       Virtual   (A) (A) (A) (A) (A) (A) (A) (A) (A) (A) (A) (A)
                 (A) (A) (A) (A) (A) (A) (A) (A) (A) (A) (A) (A)
                 (A) (A) (A) (A) (A) (A) (A) (A) (A) (A) (A) (A)
                 (A) (A) (A) (A) (A) (A) (A) (A) (A) (A) (A) (A)
                 (A) (A) (A) (A) (A) (A) (A) (A) (A) (A) (A) (A)
                 (A) (A) (A) (A) (A) (A) (A) (A) (A) (A) (A) (A)
                 (A) (A) (A) (A) (A) (A) (A) (A) (A) (A) (A) (A)
                 (A) (A) (A) (A) (A) (A) (A) (A) (A) (A) (A) (A)
                 (A) (A) (A) (A) (A) (A) (A) (A) (A) (A) (A) (A)
                 (A) (A) (A) (A) (A) (A) (A) (A) (A) (A) (A) (A)
                 (A) (A) (A) (A) (A) (A) (A) (A) (A) (A) (A) (A)
                 (A) (A) (A) (A) (A) (A) (A) (A) (A) (A) (A) (A)
                 (A) (A) (A) (A) (A) (A) (A) (A) (A) (A) (A) (A)
                 (A) (A) (A) (A) (A) (A) (A) (A) (A) (A) (A) (A)
                 (A) (A) (A) (A) (A) (A) (A) (A) (A) (A) (A) (A)
                 (A) (A) (A) (A) (A) (A) (A) (A) (A) (A) (A) (A)
                 (A) (A) (A) (A) (A) (A) (A) (A) (A) (A) (A) (A)
                 (A) (A) (A) (A) (A) (A) (A) (A) (A) (A) (A) (A)
                 (A) (A) (A) (A) (A) (A) (A) (A) (A) (A) (A) (A)
                 (A) (A) (A) (A) (A) (A) (A) (A) (A) (A) (A) (A)
                 (A) (A) (A) (A) (A) (A) (A) (A) (A) (A) (A) (A)
                 (A) (A) (A) (A) (A) (A) (A) (A) (A) (A) (A) (A)
                 (A) (A) (A) (A) (A) (A) (A) (A) (A) (A) (A) (A)
                 (A) (A) (A) (A) (A) (A) (A) (A) (A) (A) (A) (A)
                 (A) (A) (A) (A) (A) (A) (A) (A) (A) (A) (A) (A)
                 (A) (A) (A) (A) (A) (A) (A) (A) (A) (A) (A) (A)
                 (A) (A) (A) (A) (A) (A) (A) (A) (A) (A) (A) (A)
                 (A) (A) (A) (A) (A) (A) (A) (A) (A) (A) (A) (A)
                 (A) (A) (A) (A) (A) (A) (A) (A) (A) (A) (A) (A)
                 (A) (A) (A) (A) (A) (A) (A) (A) (A) (A) (A) (A)
                 (A) (A) (A) (A) (A) (A) (A) (A) (A) (A) (A) (A)
                 (A) (A) (A) (A) (A) (A) (A) (A) (A) (A) (A) (A)
                 (A) (A) (A) (A) (A) (A) (A) (A) (A) (A) (A) (A)
                 (A) (A) (A) (A) (A) (A) (A) (A) (A) (A) (A) (A)
                 (A) (A) (A) (A) (A) (A) (A) (A) (A) (A) (A) (A)
                 (A) (A) (A) (A) (A) (A) (A) (A) (A) (A) (A) (A)
                 (A) (A) (A) (A) (A) (A) (A) (A) (A) (A) (A) (A)
                 (A) (A) (A) (A) (A) (A) (A) (A) (A) (A) (A) (A)
                 (A) (A) (A) (A) (A) (A) (A) (A) (A) (A) (A) (A)
                 (A) (A) (A) (A) (A) (A) (A) (A) (A) (A) (A) (A)
                 (A) (A) (A) (A) (A) (A) (A) (A) (A) (A) (A) (A)
                 (A) (A) (A) (A) (A) (A) (A) (A) (A) (A) (A) (A)
                 (A) (A) (A) (A) (A) (A) (A) (A) (A) (A) (A) (A)
                 (A) (A) (A) (A) (A) (A) (A) (A) (A) (A) (A) (A)
                 (A) (A) (A) (A) (A) (A) (A) (A) (A) (A) (A) (A)
                 (A) (A) (A) (A) (A) (A) (A) (A) (A) (A) (A) (A)
                 (A) (A) (A) (A) (A) (A) (A) (A) (A) (A) (A) (A)
                 (A) (A) (A) (A) (A) (A) (A) (A) (A) (A) (A) (A)
                 (A) (A) (A) (A) (A) (A) (A) (A) (A) (A) (A) (A)
                 (A) (A) (A) (A) (A) (A) (A) (A) (A) (A) (A) (A)
                 (A) (A) (A) (A) (A) (A) (A) (A) (A) (A) (A) (A)
                 (A) (A) (A) (A) (A) (A) (A) (A) (A) (A) (A) (A)
                 (A) (A) (A) (A) (A) (A) (A) (A) (A) (A) (A) (A)
                 (A) (A) (A) (A) (A) (A) (A) (A) (A) (A) (A) (A)
                 (A) (A) (A) (A) (A) (A) (A) (A) (A) (A) (A) (A)
                 (A) (A) (A) (A) (A) (A) (A) (A) (A) (A) (A) (A)
                 (A) (A) (A) (A) (A) (A) (A) (A) (A) (A) (A) (A)
                 (A) (A) (A) (A) (A) (A) (A) (A) (A) (A) (A) (A)
                 (A) (A) (A) (A) (A) (A) (A) (A) (A) (A) (A) (A)
                 (A) (A) (A) (A) (A) (A) (A) (A) (A) (A) (A) (A)
                 (A) (A) (A) (A) (A) (A) (A) (A) (A) (A) (A) (A)
                 (A) (A) (A) (A) (A) (A) (A) (A) (A) (A) (A) (A)
                 (A) (A) (A) (A) (A) (A) (A) (A) (A) (A) (A) (A)
                 (A) (A) (A) (A) (A) (A) (A) (A) (A) (A) (A) (A)
                 (A) (A) (A) (A) (A) (A) (A) (A) (A) (A) (A) (A)
                 (A) (A) (A) (A) (A) (A) (A) (A) (A) (A) (A) (A)
                 (A) (A) (A) (A) (A) (A) (A) (A) (A) (A) (A) (A)
                 (A) (A) (A) (A) (A) (A) (A) (A) (A) (A) (A) (A)
                 (A) (A) (A) (A) (A) (A) (A) (A) (A) (A) (A) (A)
                 (A) (A) (A) (A) (A) (A) (A) (A) (A) (A) (A) (A)
                 (A) (A) (A) (A) (A) (A) (A) (A) (A) (A) (A) (A)
                 (A) (A) (A) (A) (A) (A) (A) (A) (A) (A) (A) (A)
                 (A) (A) (A) (A) (A) (A) (A) (A) (A) (A) (A) (A)
                 (A) (A) (A) (A) (A) (A) (A) (A) (A) (A) (A) (A)
                 (A) (A) (A) (A) (A) (A) (A) (A) (A) (A) (A) (A)
                 (A) (A) (A) (A) (A) (A) (A) (A) (A) (A) (A) (A)
                 (A) (A) (A) (A) (A) (A) (A) (A) (A) (A) (A) (A)
                 (A) (A) (A) (A) (A) (A) (A) (A) (A) (A) (A) (A)
                 (A) (A) (A) (A) (A) (A) (A) (A) (A) (A) (A) (A)
                 (A) (A) (A) (A) (A) (A) (A) (A) (A) (A) (A) (A)
                 (A) (A) (A) (A) (A) (A) (A) (A) (A) (A) (A) (A)
                 (A) (A) (A) (A) (A) (A) (A) (A) (A) (A) (A) (A)
                 (A) (A) (A) (A) (A) (A) (A) (A) (A) (A) (A) (A)
                 (A) (A) (A) (A) (A) (A) (A) (A) (A) (A) (A) (A)
                 (A) (A) (A) (A) (A) (A) (A) (A) (A) (A) (A) (A)
                 (A) (A) (A) (A) (A) (A) (A) (A) (A) (A) (A) (A)
                 (A) (A) (A) (A) (A) (A) (A) (A) (A) (A) (A) (A)
                 (A) (A) (A) (A) (A) (A) (A) (A) (A) (A) (A) (A)
                 (A) (A) (A) (A) (A) (A) (A) (A) (A) (A) (A) (A)
                 (A) (A) (A) (A) (A) (A) (A) (A) (A) (A) (A) (A)
                 (A) (A) (A) (A) (A) (A) (A) (A) (A) (A) (A) (A)
                 (A) (A) (A) (A) (A) (A)
     4 initial guesses have been made.
 Convergence on wavefunction:    0.001000000000000
 Iteration     1 Dimension     4 NMult     0 NNew      4
 CISAX will form     4 AO SS matrices at one time.
 Iteration     2 Dimension     6 NMult     4 NNew      2
 Iteration     3 Dimension     8 NMult     6 NNew      2
 Iteration     4 Dimension    10 NMult     8 NNew      2
 Iteration     5 Dimension    12 NMult    10 NNew      2
 Iteration     6 Dimension    14 NMult    12 NNew      2
 Iteration     7 Dimension    16 NMult    14 NNew      2
 Iteration     8 Dimension    18 NMult    16 NNew      2
 ***********************************************************************
 Excited states from <AA,BB:AA,BB> singles matrix:
 ***********************************************************************
 
 Ground to excited state transition densities written to RWF  633
 Ground to excited state transition electric dipole moments (Au):
       state          X           Y           Z        Dip. S.      Osc.
         1         0.0533      2.0033      0.1937      4.0535      0.2026
 Ground to excited state transition velocity dipole moments (Au):
       state          X           Y           Z        Dip. S.      Osc.
         1        -0.0051     -0.1448     -0.0149      0.0212      0.1886
 Ground to excited state transition magnetic dipole moments (Au):
       state          X           Y           Z
         1        -0.4961     -0.3654      3.6564
 Ground to excited state transition velocity quadrupole moments (Au):
       state          XX          YY          ZZ          XY          XZ          YZ
         1         0.1521     -0.2722     -0.0359      1.8670      0.1524     -0.1301
 <0|del|b> * <b|rxdel|0> + <0|del|b> * <b|delr+rdel|0>
 Rotatory Strengths (R) in cgs (10**-40 erg-esu-cm/Gauss)
       state          XX          YY          ZZ    R(velocity)    E-M Angle
         1       -35.3241   -110.7709    154.3652      2.7567       89.91
 1/2[<0|r|b>*<b|rxdel|0> + (<0|rxdel|b>*<b|r|0>)*]
 Rotatory Strengths (R) in cgs (10**-40 erg-esu-cm/Gauss)
       state          XX          YY          ZZ     R(length)
         1        18.7084    517.6698   -500.8448     11.8445
  1/2[<0|del|b>*<b|r|0> + (<0|r|b>*<b|del|0>)*] (Au)
       state          X           Y           Z        Dip. S.   Osc.(frdel)
         1        -0.0003     -0.2900     -0.0029      0.2932      0.1955

 Excitation energies and oscillator strengths:
 
 Excited State   1:      Singlet-A      2.0402 eV  607.70 nm  f=0.2026  <S**2>=0.000
     240 -> 243        0.25071
     241 -> 242        0.65116
 This state for optimization and/or second-order correction.
 Total Energy, E(TD-HF/TD-DFT) =  -2933.40669488    
 Copying the excited state density for this state as the 1-particle RhoCI density.
 SavETr:  write IOETrn=   770 NScale= 10 NData=  16 NLR=1 NState=    1 LETran=      28.
 Hyperfine terms turned off by default for NAtoms > 100.

 **********************************************************************

            Population analysis using the SCF density.

 **********************************************************************

 Orbital symmetries:
       Occupied  (A) (A) (A) (A) (A) (A) (A) (A) (A) (A) (A) (A)
                 (A) (A) (A) (A) (A) (A) (A) (A) (A) (A) (A) (A)
                 (A) (A) (A) (A) (A) (A) (A) (A) (A) (A) (A) (A)
                 (A) (A) (A) (A) (A) (A) (A) (A) (A) (A) (A) (A)
                 (A) (A) (A) (A) (A) (A) (A) (A) (A) (A) (A) (A)
                 (A) (A) (A) (A) (A) (A) (A) (A) (A) (A) (A) (A)
                 (A) (A) (A) (A) (A) (A) (A) (A) (A) (A) (A) (A)
                 (A) (A) (A) (A) (A) (A) (A) (A) (A) (A) (A) (A)
                 (A) (A) (A) (A) (A) (A) (A) (A) (A) (A) (A) (A)
                 (A) (A) (A) (A) (A) (A) (A) (A) (A) (A) (A) (A)
                 (A) (A) (A) (A) (A) (A) (A) (A) (A) (A) (A) (A)
                 (A) (A) (A) (A) (A) (A) (A) (A) (A) (A) (A) (A)
                 (A) (A) (A) (A) (A) (A) (A) (A) (A) (A) (A) (A)
                 (A) (A) (A) (A) (A) (A) (A) (A) (A) (A) (A) (A)
                 (A) (A) (A) (A) (A) (A) (A) (A) (A) (A) (A) (A)
                 (A) (A) (A) (A) (A) (A) (A) (A) (A) (A) (A) (A)
                 (A) (A) (A) (A) (A) (A) (A) (A) (A) (A) (A) (A)
                 (A) (A) (A) (A) (A) (A) (A) (A) (A) (A) (A) (A)
                 (A) (A) (A) (A) (A) (A) (A) (A) (A) (A) (A) (A)
                 (A) (A) (A) (A) (A) (A) (A) (A) (A) (A) (A) (A)
                 (A)
       Virtual   (A) (A) (A) (A) (A) (A) (A) (A) (A) (A) (A) (A)
                 (A) (A) (A) (A) (A) (A) (A) (A) (A) (A) (A) (A)
                 (A) (A) (A) (A) (A) (A) (A) (A) (A) (A) (A) (A)
                 (A) (A) (A) (A) (A) (A) (A) (A) (A) (A) (A) (A)
                 (A) (A) (A) (A) (A) (A) (A) (A) (A) (A) (A) (A)
                 (A) (A) (A) (A) (A) (A) (A) (A) (A) (A) (A) (A)
                 (A) (A) (A) (A) (A) (A) (A) (A) (A) (A) (A) (A)
                 (A) (A) (A) (A) (A) (A) (A) (A) (A) (A) (A) (A)
                 (A) (A) (A) (A) (A) (A) (A) (A) (A) (A) (A) (A)
                 (A) (A) (A) (A) (A) (A) (A) (A) (A) (A) (A) (A)
                 (A) (A) (A) (A) (A) (A) (A) (A) (A) (A) (A) (A)
                 (A) (A) (A) (A) (A) (A) (A) (A) (A) (A) (A) (A)
                 (A) (A) (A) (A) (A) (A) (A) (A) (A) (A) (A) (A)
                 (A) (A) (A) (A) (A) (A) (A) (A) (A) (A) (A) (A)
                 (A) (A) (A) (A) (A) (A) (A) (A) (A) (A) (A) (A)
                 (A) (A) (A) (A) (A) (A) (A) (A) (A) (A) (A) (A)
                 (A) (A) (A) (A) (A) (A) (A) (A) (A) (A) (A) (A)
                 (A) (A) (A) (A) (A) (A) (A) (A) (A) (A) (A) (A)
                 (A) (A) (A) (A) (A) (A) (A) (A) (A) (A) (A) (A)
                 (A) (A) (A) (A) (A) (A) (A) (A) (A) (A) (A) (A)
                 (A) (A) (A) (A) (A) (A) (A) (A) (A) (A) (A) (A)
                 (A) (A) (A) (A) (A) (A) (A) (A) (A) (A) (A) (A)
                 (A) (A) (A) (A) (A) (A) (A) (A) (A) (A) (A) (A)
                 (A) (A) (A) (A) (A) (A) (A) (A) (A) (A) (A) (A)
                 (A) (A) (A) (A) (A) (A) (A) (A) (A) (A) (A) (A)
                 (A) (A) (A) (A) (A) (A) (A) (A) (A) (A) (A) (A)
                 (A) (A) (A) (A) (A) (A) (A) (A) (A) (A) (A) (A)
                 (A) (A) (A) (A) (A) (A) (A) (A) (A) (A) (A) (A)
                 (A) (A) (A) (A) (A) (A) (A) (A) (A) (A) (A) (A)
                 (A) (A) (A) (A) (A) (A) (A) (A) (A) (A) (A) (A)
                 (A) (A) (A) (A) (A) (A) (A) (A) (A) (A) (A) (A)
                 (A) (A) (A) (A) (A) (A) (A) (A) (A) (A) (A) (A)
                 (A) (A) (A) (A) (A) (A) (A) (A) (A) (A) (A) (A)
                 (A) (A) (A) (A) (A) (A) (A) (A) (A) (A) (A) (A)
                 (A) (A) (A) (A) (A) (A) (A) (A) (A) (A) (A) (A)
                 (A) (A) (A) (A) (A) (A) (A) (A) (A) (A) (A) (A)
                 (A) (A) (A) (A) (A) (A) (A) (A) (A) (A) (A) (A)
                 (A) (A) (A) (A) (A) (A) (A) (A) (A) (A) (A) (A)
                 (A) (A) (A) (A) (A) (A) (A) (A) (A) (A) (A) (A)
                 (A) (A) (A) (A) (A) (A) (A) (A) (A) (A) (A) (A)
                 (A) (A) (A) (A) (A) (A) (A) (A) (A) (A) (A) (A)
                 (A) (A) (A) (A) (A) (A) (A) (A) (A) (A) (A) (A)
                 (A) (A) (A) (A) (A) (A) (A) (A) (A) (A) (A) (A)
                 (A) (A) (A) (A) (A) (A) (A) (A) (A) (A) (A) (A)
                 (A) (A) (A) (A) (A) (A) (A) (A) (A) (A) (A) (A)
                 (A) (A) (A) (A) (A) (A) (A) (A) (A) (A) (A) (A)
                 (A) (A) (A) (A) (A) (A) (A) (A) (A) (A) (A) (A)
                 (A) (A) (A) (A) (A) (A) (A) (A) (A) (A) (A) (A)
                 (A) (A) (A) (A) (A) (A) (A) (A) (A) (A) (A) (A)
                 (A) (A) (A) (A) (A) (A) (A) (A) (A) (A) (A) (A)
                 (A) (A) (A) (A) (A) (A) (A) (A) (A) (A) (A) (A)
                 (A) (A) (A) (A) (A) (A) (A) (A) (A) (A) (A) (A)
                 (A) (A) (A) (A) (A) (A) (A) (A) (A) (A) (A) (A)
                 (A) (A) (A) (A) (A) (A) (A) (A) (A) (A) (A) (A)
                 (A) (A) (A) (A) (A) (A) (A) (A) (A) (A) (A) (A)
                 (A) (A) (A) (A) (A) (A) (A) (A) (A) (A) (A) (A)
                 (A) (A) (A) (A) (A) (A) (A) (A) (A) (A) (A) (A)
                 (A) (A) (A) (A) (A) (A) (A) (A) (A) (A) (A) (A)
                 (A) (A) (A) (A) (A) (A) (A) (A) (A) (A) (A) (A)
                 (A) (A) (A) (A) (A) (A) (A) (A) (A) (A) (A) (A)
                 (A) (A) (A) (A) (A) (A) (A) (A) (A) (A) (A) (A)
                 (A) (A) (A) (A) (A) (A) (A) (A) (A) (A) (A) (A)
                 (A) (A) (A) (A) (A) (A) (A) (A) (A) (A) (A) (A)
                 (A) (A) (A) (A) (A) (A) (A) (A) (A) (A) (A) (A)
                 (A) (A) (A) (A) (A) (A) (A) (A) (A) (A) (A) (A)
                 (A) (A) (A) (A) (A) (A) (A) (A) (A) (A) (A) (A)
                 (A) (A) (A) (A) (A) (A) (A) (A) (A) (A) (A) (A)
                 (A) (A) (A) (A) (A) (A) (A) (A) (A) (A) (A) (A)
                 (A) (A) (A) (A) (A) (A) (A) (A) (A) (A) (A) (A)
                 (A) (A) (A) (A) (A) (A) (A) (A) (A) (A) (A) (A)
                 (A) (A) (A) (A) (A) (A) (A) (A) (A) (A) (A) (A)
                 (A) (A) (A) (A) (A) (A) (A) (A) (A) (A) (A) (A)
                 (A) (A) (A) (A) (A) (A) (A) (A) (A) (A) (A) (A)
                 (A) (A) (A) (A) (A) (A) (A) (A) (A) (A) (A) (A)
                 (A) (A) (A) (A) (A) (A) (A) (A) (A) (A) (A) (A)
                 (A) (A) (A) (A) (A) (A) (A) (A) (A) (A) (A) (A)
                 (A) (A) (A) (A) (A) (A) (A) (A) (A) (A) (A) (A)
                 (A) (A) (A) (A) (A) (A) (A) (A) (A) (A) (A) (A)
                 (A) (A) (A) (A) (A) (A) (A) (A) (A) (A) (A) (A)
                 (A) (A) (A) (A) (A) (A) (A) (A) (A) (A) (A) (A)
                 (A) (A) (A) (A) (A) (A) (A) (A) (A) (A) (A) (A)
                 (A) (A) (A) (A) (A) (A) (A) (A) (A) (A) (A) (A)
                 (A) (A) (A) (A) (A) (A) (A) (A) (A) (A) (A) (A)
                 (A) (A) (A) (A) (A) (A) (A) (A) (A) (A) (A) (A)
                 (A) (A) (A) (A) (A) (A) (A) (A) (A) (A) (A) (A)
                 (A) (A) (A) (A) (A) (A) (A) (A) (A) (A) (A) (A)
                 (A) (A) (A) (A) (A) (A) (A) (A) (A) (A) (A) (A)
                 (A) (A) (A) (A) (A) (A) (A) (A) (A) (A) (A) (A)
                 (A) (A) (A) (A) (A) (A) (A) (A) (A) (A) (A) (A)
                 (A) (A) (A) (A) (A) (A) (A) (A) (A) (A) (A) (A)
                 (A) (A) (A) (A) (A) (A) (A) (A) (A) (A) (A) (A)
                 (A) (A) (A) (A) (A) (A)
 The electronic state is 1-A.
 Alpha  occ. eigenvalues --  -46.79840 -19.23615 -19.22934 -19.17412 -19.16263
 Alpha  occ. eigenvalues --  -19.15973 -14.37458 -14.35859 -14.35760 -14.34861
 Alpha  occ. eigenvalues --  -10.35040 -10.34684 -10.32083 -10.28968 -10.27254
 Alpha  occ. eigenvalues --  -10.26787 -10.26441 -10.26002 -10.25526 -10.25310
 Alpha  occ. eigenvalues --  -10.25302 -10.25233 -10.25163 -10.24825 -10.24575
 Alpha  occ. eigenvalues --  -10.24397 -10.24128 -10.24076 -10.24054 -10.24027
 Alpha  occ. eigenvalues --  -10.23725 -10.23666 -10.23540 -10.23427 -10.23341
 Alpha  occ. eigenvalues --  -10.23065 -10.22890 -10.22767 -10.22672 -10.22665
 Alpha  occ. eigenvalues --  -10.22360 -10.22286 -10.22210 -10.22147 -10.22110
 Alpha  occ. eigenvalues --  -10.21927 -10.21871 -10.21866 -10.21841 -10.21657
 Alpha  occ. eigenvalues --  -10.21589 -10.21509 -10.21233 -10.21151 -10.21110
 Alpha  occ. eigenvalues --  -10.21101 -10.21088 -10.20922 -10.20797 -10.20489
 Alpha  occ. eigenvalues --  -10.20353 -10.20155 -10.19963 -10.19603 -10.18963
 Alpha  occ. eigenvalues --   -3.08506  -1.83431  -1.82994  -1.82905  -1.14776
 Alpha  occ. eigenvalues --   -1.12836  -1.05944  -1.02905  -1.01643  -0.99560
 Alpha  occ. eigenvalues --   -0.98578  -0.97302  -0.96265  -0.87743  -0.86770
 Alpha  occ. eigenvalues --   -0.86204  -0.85426  -0.85025  -0.84816  -0.84235
 Alpha  occ. eigenvalues --   -0.83934  -0.83113  -0.82581  -0.81405  -0.80738
 Alpha  occ. eigenvalues --   -0.80134  -0.79595  -0.78718  -0.78479  -0.77149
 Alpha  occ. eigenvalues --   -0.76796  -0.76537  -0.75548  -0.75349  -0.73707
 Alpha  occ. eigenvalues --   -0.72732  -0.72080  -0.71660  -0.71432  -0.71288
 Alpha  occ. eigenvalues --   -0.70712  -0.70118  -0.69610  -0.69016  -0.67796
 Alpha  occ. eigenvalues --   -0.66731  -0.66151  -0.64983  -0.63885  -0.63798
 Alpha  occ. eigenvalues --   -0.62694  -0.62651  -0.60706  -0.60559  -0.60212
 Alpha  occ. eigenvalues --   -0.60036  -0.59404  -0.58836  -0.58220  -0.57715
 Alpha  occ. eigenvalues --   -0.57469  -0.56524  -0.56018  -0.55487  -0.55042
 Alpha  occ. eigenvalues --   -0.54208  -0.54039  -0.52976  -0.52823  -0.52510
 Alpha  occ. eigenvalues --   -0.52219  -0.52150  -0.51335  -0.51297  -0.50936
 Alpha  occ. eigenvalues --   -0.50813  -0.50596  -0.50190  -0.50019  -0.49642
 Alpha  occ. eigenvalues --   -0.49360  -0.49084  -0.48523  -0.47893  -0.47718
 Alpha  occ. eigenvalues --   -0.47652  -0.47606  -0.47268  -0.46895  -0.46838
 Alpha  occ. eigenvalues --   -0.46814  -0.46410  -0.46210  -0.45885  -0.45722
 Alpha  occ. eigenvalues --   -0.45611  -0.45271  -0.45168  -0.44683  -0.44552
 Alpha  occ. eigenvalues --   -0.44498  -0.44123  -0.43883  -0.43820  -0.43627
 Alpha  occ. eigenvalues --   -0.43234  -0.43126  -0.42836  -0.42486  -0.42338
 Alpha  occ. eigenvalues --   -0.42184  -0.41968  -0.41821  -0.41201  -0.41170
 Alpha  occ. eigenvalues --   -0.41106  -0.40960  -0.40739  -0.40640  -0.40363
 Alpha  occ. eigenvalues --   -0.40302  -0.40123  -0.39978  -0.39722  -0.39652
 Alpha  occ. eigenvalues --   -0.39551  -0.39453  -0.39251  -0.39095  -0.38936
 Alpha  occ. eigenvalues --   -0.38769  -0.38634  -0.38369  -0.38331  -0.37995
 Alpha  occ. eigenvalues --   -0.37974  -0.37817  -0.37636  -0.37398  -0.37295
 Alpha  occ. eigenvalues --   -0.37016  -0.36752  -0.36648  -0.36229  -0.36122
 Alpha  occ. eigenvalues --   -0.35868  -0.35606  -0.35033  -0.34929  -0.34775
 Alpha  occ. eigenvalues --   -0.34273  -0.34241  -0.34218  -0.34125  -0.33531
 Alpha  occ. eigenvalues --   -0.33327  -0.33144  -0.33066  -0.33000  -0.32679
 Alpha  occ. eigenvalues --   -0.32570  -0.32389  -0.31317  -0.30758  -0.30217
 Alpha  occ. eigenvalues --   -0.29903  -0.29887  -0.29368  -0.28461  -0.27567
 Alpha  occ. eigenvalues --   -0.27300  -0.26881  -0.25965  -0.24837  -0.21724
 Alpha  occ. eigenvalues --   -0.19588
 Alpha virt. eigenvalues --   -0.06420  -0.04445  -0.00797   0.01485   0.02734
 Alpha virt. eigenvalues --    0.03272   0.03419   0.03893   0.04982   0.05401
 Alpha virt. eigenvalues --    0.06971   0.08236   0.08486   0.08752   0.09030
 Alpha virt. eigenvalues --    0.09499   0.10040   0.10130   0.10392   0.10862
 Alpha virt. eigenvalues --    0.11021   0.11032   0.11557   0.12117   0.12263
 Alpha virt. eigenvalues --    0.12335   0.12705   0.13010   0.13067   0.13230
 Alpha virt. eigenvalues --    0.13449   0.13686   0.13764   0.14002   0.14108
 Alpha virt. eigenvalues --    0.14320   0.14363   0.14594   0.14723   0.14941
 Alpha virt. eigenvalues --    0.14949   0.15386   0.15530   0.15554   0.15726
 Alpha virt. eigenvalues --    0.15936   0.15994   0.16460   0.16552   0.16693
 Alpha virt. eigenvalues --    0.16910   0.17068   0.17204   0.17279   0.17632
 Alpha virt. eigenvalues --    0.17781   0.18152   0.18266   0.18301   0.18475
 Alpha virt. eigenvalues --    0.18523   0.18738   0.18851   0.19086   0.19225
 Alpha virt. eigenvalues --    0.19462   0.19779   0.19784   0.20053   0.20380
 Alpha virt. eigenvalues --    0.20422   0.20489   0.20807   0.20841   0.20986
 Alpha virt. eigenvalues --    0.21101   0.21174   0.21473   0.21764   0.21829
 Alpha virt. eigenvalues --    0.22033   0.22208   0.22536   0.22579   0.22890
 Alpha virt. eigenvalues --    0.22930   0.23278   0.23508   0.23840   0.23966
 Alpha virt. eigenvalues --    0.23998   0.24271   0.24508   0.24714   0.25022
 Alpha virt. eigenvalues --    0.25189   0.25494   0.25591   0.25694   0.26173
 Alpha virt. eigenvalues --    0.26201   0.26575   0.26670   0.26707   0.26890
 Alpha virt. eigenvalues --    0.26963   0.27117   0.27482   0.27755   0.28012
 Alpha virt. eigenvalues --    0.28227   0.28417   0.28460   0.28701   0.28923
 Alpha virt. eigenvalues --    0.28987   0.29037   0.29866   0.30169   0.30309
 Alpha virt. eigenvalues --    0.30740   0.31273   0.31550   0.31627   0.31711
 Alpha virt. eigenvalues --    0.31948   0.32342   0.32477   0.32872   0.33318
 Alpha virt. eigenvalues --    0.33757   0.34010   0.34581   0.35094   0.35660
 Alpha virt. eigenvalues --    0.35915   0.36208   0.36701   0.37178   0.37353
 Alpha virt. eigenvalues --    0.38372   0.39218   0.39282   0.40048   0.40289
 Alpha virt. eigenvalues --    0.40325   0.41222   0.42090   0.42256   0.42825
 Alpha virt. eigenvalues --    0.43287   0.44091   0.44485   0.45974   0.47010
 Alpha virt. eigenvalues --    0.47640   0.48282   0.48961   0.49519   0.49670
 Alpha virt. eigenvalues --    0.50437   0.50543   0.50619   0.50911   0.51190
 Alpha virt. eigenvalues --    0.51634   0.51945   0.52329   0.52492   0.53225
 Alpha virt. eigenvalues --    0.53345   0.53466   0.53686   0.53997   0.54160
 Alpha virt. eigenvalues --    0.54266   0.54424   0.54484   0.54886   0.55028
 Alpha virt. eigenvalues --    0.55496   0.55618   0.55753   0.55842   0.55956
 Alpha virt. eigenvalues --    0.56241   0.56499   0.56631   0.56758   0.56922
 Alpha virt. eigenvalues --    0.57161   0.57371   0.57648   0.57713   0.57799
 Alpha virt. eigenvalues --    0.57957   0.58270   0.58377   0.58652   0.58671
 Alpha virt. eigenvalues --    0.59107   0.59277   0.59942   0.60286   0.60537
 Alpha virt. eigenvalues --    0.60591   0.60847   0.61183   0.61527   0.61693
 Alpha virt. eigenvalues --    0.62135   0.62299   0.62363   0.62900   0.62943
 Alpha virt. eigenvalues --    0.63525   0.63754   0.63873   0.63988   0.64566
 Alpha virt. eigenvalues --    0.64790   0.64984   0.65026   0.65518   0.65798
 Alpha virt. eigenvalues --    0.66236   0.66367   0.66459   0.66700   0.67168
 Alpha virt. eigenvalues --    0.67511   0.67610   0.67980   0.68205   0.68374
 Alpha virt. eigenvalues --    0.68773   0.68923   0.69023   0.69143   0.69781
 Alpha virt. eigenvalues --    0.69801   0.69953   0.70550   0.70695   0.71092
 Alpha virt. eigenvalues --    0.71440   0.71569   0.71694   0.71837   0.71918
 Alpha virt. eigenvalues --    0.72069   0.72253   0.72549   0.72959   0.73118
 Alpha virt. eigenvalues --    0.73501   0.73672   0.73858   0.73939   0.74556
 Alpha virt. eigenvalues --    0.74698   0.74997   0.75405   0.75459   0.75935
 Alpha virt. eigenvalues --    0.76416   0.76631   0.76781   0.76948   0.77468
 Alpha virt. eigenvalues --    0.77975   0.78140   0.78380   0.78577   0.78931
 Alpha virt. eigenvalues --    0.78982   0.79164   0.79353   0.79670   0.79992
 Alpha virt. eigenvalues --    0.80045   0.80153   0.80202   0.80718   0.80787
 Alpha virt. eigenvalues --    0.80954   0.81178   0.81436   0.81582   0.81729
 Alpha virt. eigenvalues --    0.81836   0.81927   0.82232   0.82682   0.82802
 Alpha virt. eigenvalues --    0.83008   0.83162   0.83517   0.83840   0.83978
 Alpha virt. eigenvalues --    0.84265   0.84359   0.84533   0.84701   0.84867
 Alpha virt. eigenvalues --    0.85231   0.85239   0.85491   0.85563   0.85799
 Alpha virt. eigenvalues --    0.85829   0.86175   0.86284   0.86460   0.86891
 Alpha virt. eigenvalues --    0.87037   0.87492   0.87586   0.87689   0.87997
 Alpha virt. eigenvalues --    0.88110   0.88256   0.88469   0.88509   0.88642
 Alpha virt. eigenvalues --    0.88940   0.89429   0.89622   0.89844   0.90130
 Alpha virt. eigenvalues --    0.90539   0.90635   0.90886   0.91023   0.91207
 Alpha virt. eigenvalues --    0.91544   0.91790   0.92012   0.92092   0.92253
 Alpha virt. eigenvalues --    0.92445   0.92545   0.92700   0.92927   0.92972
 Alpha virt. eigenvalues --    0.93180   0.93292   0.93468   0.93530   0.93702
 Alpha virt. eigenvalues --    0.93909   0.94089   0.94153   0.94623   0.95002
 Alpha virt. eigenvalues --    0.95275   0.95542   0.95897   0.96090   0.96140
 Alpha virt. eigenvalues --    0.96429   0.96500   0.96728   0.96897   0.97320
 Alpha virt. eigenvalues --    0.97639   0.97754   0.97989   0.98446   0.98547
 Alpha virt. eigenvalues --    0.98805   0.99282   0.99600   0.99750   0.99962
 Alpha virt. eigenvalues --    1.00469   1.00547   1.00683   1.00840   1.01150
 Alpha virt. eigenvalues --    1.01333   1.01997   1.02190   1.02319   1.02627
 Alpha virt. eigenvalues --    1.02710   1.02790   1.03079   1.03108   1.03525
 Alpha virt. eigenvalues --    1.03867   1.04189   1.04309   1.05305   1.05522
 Alpha virt. eigenvalues --    1.05755   1.06220   1.06527   1.06718   1.07554
 Alpha virt. eigenvalues --    1.07840   1.08278   1.08420   1.08797   1.09987
 Alpha virt. eigenvalues --    1.10191   1.10544   1.10847   1.11101   1.11508
 Alpha virt. eigenvalues --    1.11973   1.12190   1.12306   1.13052   1.13252
 Alpha virt. eigenvalues --    1.14014   1.14966   1.15662   1.16136   1.16643
 Alpha virt. eigenvalues --    1.17543   1.17714   1.18800   1.18989   1.19211
 Alpha virt. eigenvalues --    1.19835   1.20194   1.20588   1.20683   1.21050
 Alpha virt. eigenvalues --    1.22013   1.22230   1.23352   1.23504   1.23985
 Alpha virt. eigenvalues --    1.24333   1.24949   1.26073   1.26366   1.26541
 Alpha virt. eigenvalues --    1.26936   1.27819   1.27846   1.28552   1.28924
 Alpha virt. eigenvalues --    1.29611   1.30248   1.30405   1.31875   1.32327
 Alpha virt. eigenvalues --    1.32435   1.33433   1.33779   1.34010   1.34398
 Alpha virt. eigenvalues --    1.35252   1.35727   1.36190   1.36559   1.36670
 Alpha virt. eigenvalues --    1.36801   1.37496   1.38123   1.38977   1.39147
 Alpha virt. eigenvalues --    1.39554   1.40125   1.40341   1.41176   1.41224
 Alpha virt. eigenvalues --    1.41638   1.42271   1.42755   1.43369   1.44248
 Alpha virt. eigenvalues --    1.44381   1.44915   1.45256   1.45578   1.46069
 Alpha virt. eigenvalues --    1.46910   1.47361   1.47549   1.48108   1.48517
 Alpha virt. eigenvalues --    1.48840   1.49275   1.49935   1.50423   1.50709
 Alpha virt. eigenvalues --    1.50920   1.52030   1.52568   1.53120   1.53173
 Alpha virt. eigenvalues --    1.53904   1.54329   1.54338   1.54734   1.55152
 Alpha virt. eigenvalues --    1.56079   1.56796   1.57100   1.57845   1.58199
 Alpha virt. eigenvalues --    1.58919   1.59021   1.59262   1.59606   1.60077
 Alpha virt. eigenvalues --    1.60177   1.60632   1.60877   1.61269   1.61991
 Alpha virt. eigenvalues --    1.62189   1.62420   1.62739   1.63222   1.63751
 Alpha virt. eigenvalues --    1.64072   1.64784   1.65591   1.65857   1.66385
 Alpha virt. eigenvalues --    1.66610   1.67040   1.67100   1.67443   1.68002
 Alpha virt. eigenvalues --    1.68278   1.68754   1.69138   1.69561   1.69591
 Alpha virt. eigenvalues --    1.69802   1.70374   1.70829   1.71293   1.71412
 Alpha virt. eigenvalues --    1.71631   1.71792   1.71993   1.72920   1.73367
 Alpha virt. eigenvalues --    1.73517   1.74154   1.74637   1.74939   1.75473
 Alpha virt. eigenvalues --    1.75666   1.76070   1.76689   1.76833   1.76975
 Alpha virt. eigenvalues --    1.78098   1.78651   1.78836   1.79415   1.79767
 Alpha virt. eigenvalues --    1.80165   1.80428   1.80930   1.81134   1.81330
 Alpha virt. eigenvalues --    1.81383   1.82170   1.82769   1.82843   1.82859
 Alpha virt. eigenvalues --    1.83185   1.83403   1.83858   1.84047   1.84333
 Alpha virt. eigenvalues --    1.84584   1.84720   1.84820   1.85096   1.85558
 Alpha virt. eigenvalues --    1.85673   1.86064   1.86530   1.86807   1.86922
 Alpha virt. eigenvalues --    1.87058   1.87402   1.87521   1.87946   1.88115
 Alpha virt. eigenvalues --    1.88275   1.88808   1.88989   1.89302   1.89399
 Alpha virt. eigenvalues --    1.89555   1.89789   1.89933   1.90133   1.90471
 Alpha virt. eigenvalues --    1.90503   1.90798   1.90980   1.91080   1.91487
 Alpha virt. eigenvalues --    1.91711   1.91862   1.92371   1.92482   1.92855
 Alpha virt. eigenvalues --    1.93254   1.93527   1.94131   1.94245   1.94452
 Alpha virt. eigenvalues --    1.94842   1.95083   1.95144   1.95217   1.95767
 Alpha virt. eigenvalues --    1.95943   1.96484   1.96691   1.96942   1.97057
 Alpha virt. eigenvalues --    1.97324   1.97619   1.97900   1.98298   1.98625
 Alpha virt. eigenvalues --    1.98692   1.98930   1.99305   1.99546   1.99995
 Alpha virt. eigenvalues --    2.00164   2.00313   2.00643   2.00756   2.01284
 Alpha virt. eigenvalues --    2.01578   2.01773   2.01990   2.02137   2.02315
 Alpha virt. eigenvalues --    2.02389   2.02428   2.02610   2.03628   2.03710
 Alpha virt. eigenvalues --    2.04626   2.04867   2.05104   2.05669   2.06039
 Alpha virt. eigenvalues --    2.06468   2.06543   2.06736   2.06873   2.06925
 Alpha virt. eigenvalues --    2.06967   2.07510   2.07933   2.08162   2.08235
 Alpha virt. eigenvalues --    2.08648   2.08945   2.09060   2.09465   2.09827
 Alpha virt. eigenvalues --    2.09901   2.10492   2.10721   2.10826   2.11058
 Alpha virt. eigenvalues --    2.11119   2.11350   2.11717   2.12033   2.12129
 Alpha virt. eigenvalues --    2.12909   2.13047   2.13552   2.13717   2.14147
 Alpha virt. eigenvalues --    2.14674   2.14963   2.15372   2.15625   2.15983
 Alpha virt. eigenvalues --    2.16140   2.16310   2.16507   2.16837   2.16966
 Alpha virt. eigenvalues --    2.17377   2.17971   2.18322   2.18432   2.18893
 Alpha virt. eigenvalues --    2.19024   2.19384   2.19960   2.20028   2.20408
 Alpha virt. eigenvalues --    2.20930   2.21264   2.21666   2.22075   2.22186
 Alpha virt. eigenvalues --    2.22943   2.23486   2.23660   2.23691   2.24122
 Alpha virt. eigenvalues --    2.24264   2.25331   2.25411   2.25697   2.25786
 Alpha virt. eigenvalues --    2.26641   2.26879   2.27106   2.27547   2.27755
 Alpha virt. eigenvalues --    2.27842   2.28660   2.28995   2.29266   2.29939
 Alpha virt. eigenvalues --    2.29976   2.30267   2.30724   2.30978   2.31710
 Alpha virt. eigenvalues --    2.32128   2.32326   2.32385   2.32759   2.33513
 Alpha virt. eigenvalues --    2.33794   2.34292   2.34506   2.34629   2.34821
 Alpha virt. eigenvalues --    2.35017   2.35077   2.35250   2.35886   2.36024
 Alpha virt. eigenvalues --    2.36495   2.36632   2.36843   2.37140   2.37209
 Alpha virt. eigenvalues --    2.37426   2.37738   2.38004   2.38789   2.38888
 Alpha virt. eigenvalues --    2.39433   2.39639   2.40022   2.40182   2.40545
 Alpha virt. eigenvalues --    2.40712   2.40842   2.41694   2.42254   2.42533
 Alpha virt. eigenvalues --    2.42864   2.43146   2.43607   2.43667   2.43934
 Alpha virt. eigenvalues --    2.44074   2.44675   2.45137   2.45281   2.45407
 Alpha virt. eigenvalues --    2.45634   2.46026   2.46474   2.46940   2.47180
 Alpha virt. eigenvalues --    2.47219   2.47713   2.48024   2.48329   2.48946
 Alpha virt. eigenvalues --    2.49635   2.49807   2.49930   2.50166   2.50522
 Alpha virt. eigenvalues --    2.50770   2.51285   2.51745   2.51899   2.52148
 Alpha virt. eigenvalues --    2.52693   2.52889   2.53197   2.53827   2.54026
 Alpha virt. eigenvalues --    2.54661   2.54842   2.55054   2.55368   2.55682
 Alpha virt. eigenvalues --    2.56128   2.56549   2.56726   2.56942   2.57908
 Alpha virt. eigenvalues --    2.58005   2.58785   2.59019   2.59183   2.59547
 Alpha virt. eigenvalues --    2.59889   2.60590   2.60944   2.61143   2.61698
 Alpha virt. eigenvalues --    2.61952   2.61995   2.62392   2.62704   2.62797
 Alpha virt. eigenvalues --    2.63097   2.63368   2.63557   2.64283   2.64864
 Alpha virt. eigenvalues --    2.65376   2.65543   2.65880   2.66305   2.66444
 Alpha virt. eigenvalues --    2.66755   2.67142   2.67546   2.67595   2.67996
 Alpha virt. eigenvalues --    2.68344   2.68426   2.68524   2.68799   2.69058
 Alpha virt. eigenvalues --    2.69419   2.69476   2.69734   2.70191   2.70486
 Alpha virt. eigenvalues --    2.70697   2.71406   2.71729   2.71963   2.72227
 Alpha virt. eigenvalues --    2.72429   2.73309   2.73398   2.73877   2.74010
 Alpha virt. eigenvalues --    2.74264   2.74565   2.74787   2.75240   2.75370
 Alpha virt. eigenvalues --    2.75476   2.75726   2.76174   2.77111   2.77439
 Alpha virt. eigenvalues --    2.77665   2.77842   2.78177   2.78520   2.79078
 Alpha virt. eigenvalues --    2.79194   2.79934   2.80272   2.80428   2.81563
 Alpha virt. eigenvalues --    2.81786   2.82117   2.82327   2.82636   2.83010
 Alpha virt. eigenvalues --    2.83578   2.83714   2.84257   2.84481   2.84615
 Alpha virt. eigenvalues --    2.85118   2.85717   2.85748   2.86123   2.86652
 Alpha virt. eigenvalues --    2.87166   2.87818   2.88003   2.88300   2.88743
 Alpha virt. eigenvalues --    2.89201   2.89324   2.89840   2.90262   2.91012
 Alpha virt. eigenvalues --    2.91172   2.91322   2.91612   2.91840   2.92607
 Alpha virt. eigenvalues --    2.92806   2.92896   2.93285   2.93591   2.93808
 Alpha virt. eigenvalues --    2.94468   2.94738   2.94922   2.95555   2.96174
 Alpha virt. eigenvalues --    2.96475   2.97285   2.97774   2.98341   2.98468
 Alpha virt. eigenvalues --    2.98668   2.98954   2.99112   2.99266   3.00083
 Alpha virt. eigenvalues --    3.01056   3.01717   3.01820   3.03364   3.03690
 Alpha virt. eigenvalues --    3.04417   3.04623   3.04938   3.05578   3.05776
 Alpha virt. eigenvalues --    3.06482   3.07115   3.08369   3.08439   3.10034
 Alpha virt. eigenvalues --    3.11012   3.11176   3.11803   3.12648   3.13845
 Alpha virt. eigenvalues --    3.15021   3.15534   3.17484   3.17677   3.17996
 Alpha virt. eigenvalues --    3.18680   3.19095   3.19224   3.19658   3.19764
 Alpha virt. eigenvalues --    3.20709   3.21628   3.21680   3.21802   3.23739
 Alpha virt. eigenvalues --    3.23834   3.24465   3.24565   3.24978   3.25133
 Alpha virt. eigenvalues --    3.26004   3.26416   3.27164   3.27461   3.27870
 Alpha virt. eigenvalues --    3.29754   3.29864   3.29932   3.30767   3.31795
 Alpha virt. eigenvalues --    3.32092   3.33456   3.34552   3.35081   3.35239
 Alpha virt. eigenvalues --    3.35325   3.36048   3.37306   3.37697   3.38094
 Alpha virt. eigenvalues --    3.38325   3.38591   3.39478   3.40577   3.41177
 Alpha virt. eigenvalues --    3.41893   3.42701   3.42946   3.43559   3.44242
 Alpha virt. eigenvalues --    3.44331   3.44989   3.45327   3.45844   3.47044
 Alpha virt. eigenvalues --    3.47509   3.48295   3.48524   3.49644   3.50157
 Alpha virt. eigenvalues --    3.51908   3.52045   3.52554   3.53272   3.56355
 Alpha virt. eigenvalues --    3.57734   3.59423   3.60030   3.60900   3.61885
 Alpha virt. eigenvalues --    3.62508   3.64540   3.66494   3.70045   3.70259
 Alpha virt. eigenvalues --    3.70776   3.74211   3.85045   4.00194   4.04277
 Alpha virt. eigenvalues --    4.08245   4.09742   4.16568   4.17086   4.17903
 Alpha virt. eigenvalues --    4.19123   4.19274   4.20809   4.21750   4.22910
 Alpha virt. eigenvalues --    4.24130   4.24686   4.25244   4.26042   4.28924
 Alpha virt. eigenvalues --    4.30138   4.31136   4.31701   4.32724   4.34531
 Alpha virt. eigenvalues --    4.34874   4.36119   4.36305   4.39438   4.40354
 Alpha virt. eigenvalues --    4.41361   4.41780   4.43576   4.44568   4.45795
 Alpha virt. eigenvalues --    4.46978   4.47739   4.49267   4.49609   4.49961
 Alpha virt. eigenvalues --    4.50943   4.51010   4.53472   4.53914   4.55309
 Alpha virt. eigenvalues --    4.56111   4.57612   4.57912   4.58391   4.61990
 Alpha virt. eigenvalues --    4.64254   4.65159   4.67042   4.67188   4.68348
 Alpha virt. eigenvalues --    4.68756   4.70420   4.73645   4.76057   4.76745
 Alpha virt. eigenvalues --    4.78875   4.79634   4.81288   4.82810   4.83589
 Alpha virt. eigenvalues --    4.85231   4.86268   4.94177
          Condensed to atoms (all electrons):
 Mulliken charges:
               1
     1  Mg   0.827970
     2  C    0.064537
     3  C   -0.177380
     4  C   -0.127769
     5  C   -0.177726
     6  N   -0.614213
     7  C    0.277523
     8  C   -0.160738
     9  C   -0.187336
    10  C    0.362807
    11  C   -0.276531
    12  C   -0.172230
    13  C   -0.229850
    14  C    0.584999
    15  O   -0.491189
    16  O   -0.418937
    17  N   -0.661904
    18  C    0.291542
    19  C    0.068855
    20  C    0.051515
    21  C    0.242071
    22  C   -0.363298
    23  C   -0.063832
    24  C   -0.267439
    25  N   -0.662320
    26  C    0.235552
    27  C    0.017721
    28  C    0.100710
    29  C    0.260053
    30  C   -0.389007
    31  C   -0.260721
    32  C   -0.289347
    33  N   -0.725123
    34  C    0.257711
    35  C   -0.032006
    36  C    0.064420
    37  C    0.303319
    38  C   -0.343366
    39  C    0.380097
    40  O   -0.453035
    41  C   -0.325687
    42  C    0.622738
    43  O   -0.508259
    44  O   -0.428600
    45  C   -0.095948
    46  C   -0.001103
    47  C   -0.172171
    48  C    0.208721
    49  C   -0.356077
    50  C   -0.246225
    51  C   -0.182851
    52  C   -0.150030
    53  C   -0.054974
    54  C   -0.306595
    55  C   -0.162209
    56  C   -0.185200
    57  C   -0.153279
    58  C   -0.043675
    59  C   -0.316737
    60  C   -0.171267
    61  C   -0.172570
    62  C   -0.178203
    63  C   -0.029390
    64  C   -0.306799
    65  C   -0.289975
    66  H    0.062009
    67  H    0.069884
    68  H    0.084643
    69  H    0.095430
    70  H    0.100590
    71  H    0.086868
    72  H    0.121812
    73  H    0.142083
    74  H    0.110988
    75  H    0.112169
    76  H    0.124643
    77  H    0.107671
    78  H    0.125531
    79  H    0.120102
    80  H    0.058894
    81  H    0.094787
    82  H    0.111458
    83  H    0.080771
    84  H    0.124819
    85  H    0.087493
    86  H    0.124810
    87  H    0.091182
    88  H    0.088593
    89  H    0.105078
    90  H    0.106200
    91  H    0.104056
    92  H    0.124640
    93  H    0.145257
    94  H    0.113595
    95  H    0.165521
    96  H    0.129444
    97  H    0.141083
    98  H    0.131111
    99  H    0.132809
   100  H    0.120718
   101  H    0.090259
   102  H    0.081991
   103  H    0.117996
   104  H    0.112445
   105  H    0.098643
   106  H    0.093889
   107  H    0.101790
   108  H    0.084038
   109  H    0.086646
   110  H    0.071170
   111  H    0.087245
   112  H    0.095886
   113  H    0.088214
   114  H    0.093847
   115  H    0.071454
   116  H    0.061471
   117  H    0.103474
   118  H    0.095340
   119  H    0.090041
   120  H    0.064298
   121  H    0.082715
   122  H    0.110577
   123  H    0.086167
   124  H    0.111005
   125  H    0.066273
   126  H    0.102882
   127  H    0.108096
   128  H    0.092809
   129  H    0.080893
   130  H    0.063559
   131  H    0.059118
   132  H    0.089050
   133  H    0.104010
   134  H    0.099514
   135  H    0.105549
   136  H    0.085875
   137  H    0.075287
 Sum of Mulliken charges =  -0.00000
 Mulliken charges with hydrogens summed into heavy atoms:
               1
     1  Mg   0.827970
     2  C    0.064537
     3  C   -0.115370
     4  C   -0.057884
     5  C   -0.093083
     6  N   -0.614213
     7  C    0.277523
     8  C   -0.065309
     9  C   -0.086746
    10  C    0.362807
    11  C    0.074232
    12  C    0.050928
    13  C    0.002464
    14  C    0.584999
    15  O   -0.491189
    16  O   -0.418937
    17  N   -0.661904
    18  C    0.291542
    19  C    0.068855
    20  C    0.051515
    21  C    0.242071
    22  C   -0.058771
    23  C    0.030956
    24  C   -0.075210
    25  N   -0.662320
    26  C    0.235552
    27  C    0.017721
    28  C    0.100710
    29  C    0.260053
    30  C   -0.051885
    31  C   -0.080945
    32  C    0.025988
    33  N   -0.725123
    34  C    0.257711
    35  C   -0.032006
    36  C    0.064420
    37  C    0.303319
    38  C    0.040127
    39  C    0.380097
    40  O   -0.453035
    41  C   -0.160166
    42  C    0.622738
    43  O   -0.508259
    44  O   -0.428600
    45  C    0.305690
    46  C    0.252423
    47  C   -0.081912
    48  C    0.208721
    49  C   -0.043645
    50  C   -0.053693
    51  C    0.002977
    52  C    0.007787
    53  C    0.032271
    54  C   -0.028648
    55  C   -0.029284
    56  C    0.013614
    57  C    0.001060
    58  C    0.039040
    59  C   -0.008988
    60  C   -0.002112
    61  C    0.028336
    62  C   -0.033751
    63  C    0.029728
    64  C   -0.014226
    65  C   -0.023264
 Electronic spatial extent (au):  <R**2>=         180419.0863
 Charge=             -0.0000 electrons
 Dipole moment (field-independent basis, Debye):
    X=              2.9799    Y=              3.4111    Z=             -0.6218  Tot=              4.5719
 Quadrupole moment (field-independent basis, Debye-Ang):
   XX=           -354.9362   YY=           -393.2124   ZZ=           -403.6610
   XY=            -21.7570   XZ=             14.1324   YZ=             -3.8213
 Traceless Quadrupole moment (field-independent basis, Debye-Ang):
   XX=             29.0004   YY=             -9.2758   ZZ=            -19.7245
   XY=            -21.7570   XZ=             14.1324   YZ=             -3.8213
 Octapole moment (field-independent basis, Debye-Ang**2):
  XXX=           -359.3134  YYY=             89.4687  ZZZ=             15.5853  XYY=            -79.7324
  XXY=           -115.1933  XXZ=           -251.6769  XZZ=             29.5413  YZZ=            -31.2866
  YYZ=             45.5256  XYZ=            -11.8720
 Hexadecapole moment (field-independent basis, Debye-Ang**3):
 XXXX=        -220496.9468 YYYY=         -17759.2530 ZZZZ=          -3953.9642 XXXY=          -2725.6755
 XXXZ=           1286.6349 YYYX=          -1174.0222 YYYZ=           -311.5820 ZZZX=            -84.2509
 ZZZY=           -135.0436 XXYY=         -41202.0374 XXZZ=         -39518.5860 YYZZ=          -3531.6329
 XXYZ=             14.3629 YYXZ=            174.7843 ZZXY=             57.2501
 N-N= 8.737547911844D+03 E-N=-2.429801181502D+04  KE= 2.905711752507D+03

 Test job not archived.
 1\1\GINC-RYZEN-SSD3\SP\RCAM-B3LYP TD-FC\6-31G(d,p)\C55H72Mg1N4O5\PADAW
 AN\24-Sep-2019\0\\# td=(NStates=1) iop(3/107=0140000000,3/108=01400000
 00) CAM-B3LYP/6-31G(d,p)\\TD\\0,1\Mg,0,-7.0974644381,0.6423126148,-0.0
 903526653\C,0,-4.8758464011,-1.9506122918,0.3851939218\C,0,-4.73853988
 46,2.8743961575,0.9341435196\C,0,-9.4177385384,3.1676743204,-0.3509275
 681\C,0,-9.6586719652,-1.6996117269,-0.7739341983\N,0,-5.0993669679,0.
 5117572663,0.6121990439\C,0,-4.352167464,-0.7225934025,0.7718850832\C,
 0,-2.9517613967,-0.3281512131,1.0855042195\C,0,-3.0064938763,1.2045991
 615,1.5895652358\C,0,-4.3917994146,1.4927839295,1.0346278567\C,0,-3.07
 78639672,1.2177045898,3.2227775924\C,0,-2.0004657763,-0.4380597952,-0.
 0342596157\C,0,-0.527038413,-0.3869819462,0.4940727896\C,0,0.591381061
 3,-0.7868053024,-0.5271225024\O,0,0.3441646333,-1.2845422319,-1.645491
 9423\O,0,1.8012287213,-0.7109610345,-0.0327886665\N,0,-7.1386515086,2.
 6545486648,0.3591168358\C,0,-6.0966298068,3.420835851,0.8151773938\C,0
 ,-6.3950844168,4.8512819918,0.8185301117\C,0,-7.7054353288,4.974979303
 1,0.5218183082\C,0,-8.1637158991,3.547001639,0.0282008187\C,0,-5.43950
 59845,5.9135508288,1.2372038756\C,0,-8.5473747455,6.0237526449,0.24837
 545\C,0,-8.4273311431,7.3081899687,0.7055646158\N,0,-9.0807171128,0.66
 74337378,-0.5080073746\C,0,-9.8560830946,1.8446377881,-0.7083836519\C,
 0,-11.2313170844,1.4934587904,-1.0176566254\C,0,-11.2936588531,0.15540
 30861,-1.1388939177\C,0,-10.0245900626,-0.3033205255,-0.8325154528\C,0
 ,-12.1550164393,2.6226675082,-1.438343287\C,0,-12.4289866916,-0.686664
 7903,-1.6532746581\C,0,-12.1811500239,-1.1880589982,-3.1457652277\N,0,
 -7.3138443468,-1.3325080865,-0.1798606612\C,0,-8.3823325596,-2.1601945
 65,-0.5756591458\C,0,-7.9073427741,-3.5965302044,-0.5022505249\C,0,-6.
 6305308436,-3.5157645586,-0.1818002617\C,0,-6.2631000417,-2.1602539812
 ,-0.0326714317\C,0,-8.7365059901,-4.798255924,-0.6416275459\C,0,-5.400
 4755105,-4.3550490683,0.0811330874\O,0,-5.3010310954,-5.5834952065,0.0
 398899376\C,0,-4.1714516478,-3.3208695344,0.4284311647\C,0,-3.60909508
 63,-3.7265906018,1.7560615747\O,0,-3.8046532487,-3.1797753354,2.882011
 5594\O,0,-2.8327086237,-4.7950681253,1.6044594834\C,0,-2.0164506021,-5
 .1950847144,2.7533227327\C,0,2.8276290833,-0.9394522341,-1.0202655438\
 C,0,4.2408749727,-0.7174570136,-0.3623287957\C,0,5.2008255739,0.142290
 7571,-0.7590787849\C,0,4.9544591715,1.1379214674,-1.9073048655\C,0,6.3
 942457033,0.1294235584,-0.0855890833\C,0,7.6701184644,-0.3800865567,-0
 .7677771064\C,0,8.9703647481,-0.2090827244,0.000583956\C,0,10.25067052
 77,-0.5896306263,-0.7054262626\C,0,10.2493482114,-1.9748453644,-1.2736
 943354\C,0,11.5268473485,-0.3031052016,0.0779398315\C,0,12.871384874,-
 0.4937394074,-0.6446019653\C,0,14.0949807699,0.1077550612,0.1440108127
 \C,0,15.3975257436,-0.1597650601,-0.5590615587\C,0,15.7097572467,-1.63
 02714154,-0.7567375001\C,0,16.5096879615,0.3780143187,0.3896336981\C,0
 ,17.8176493526,0.5540891385,-0.3023667637\C,0,18.7722676454,1.33780185
 87,0.6238456413\C,0,20.1794607505,1.5184112736,0.2171784238\C,0,20.329
 7858244,2.1424815533,-1.2259372896\C,0,21.0846635334,2.1799596959,1.06
 0770017\H,0,-3.8262629898,3.3560988613,1.2275188477\H,0,-10.2028424075
 ,3.8047027448,-0.4843629625\H,0,-10.4529597201,-2.4439099261,-1.203328
 1522\H,0,-2.5845157388,-1.2092411268,1.8878552762\H,0,-2.1046639327,1.
 9364657077,1.3013137804\H,0,-1.9965927457,0.7105801644,3.5231926567\H,
 0,-3.0843855477,2.1760868315,3.4580938316\H,0,-3.926425443,0.581743328
 6,3.4337250577\H,0,-2.0567307921,-1.3954102118,-0.6787258797\H,0,-2.13
 3129682,0.2686744872,-0.868633598\H,0,-0.3985652852,0.4868882761,0.853
 1491779\H,0,-0.6756959899,-1.230923859,1.3712605844\H,0,-5.7194961273,
 6.8996774797,0.7963094622\H,0,-5.1771591872,5.9060234837,2.4167036829\
 H,0,-4.187103555,5.6957238404,0.7610568383\H,0,-9.3821584756,5.7477381
 558,-0.3909604487\H,0,-8.9579748612,8.2511348345,0.3394037161\H,0,-7.4
 795558877,7.5618330197,1.484037364\H,0,-11.7618966627,3.2222713742,-2.
 3282086524\H,0,-13.2390111988,2.1576145039,-1.6987456028\H,0,-12.46086
 71194,3.3381611502,-0.6526457041\H,0,-12.794291394,-1.6413550583,-1.03
 47669776\H,0,-13.4489071898,-0.0612088314,-1.6415699114\H,0,-13.198835
 0827,-1.7001036725,-3.3415251106\H,0,-11.7892493306,-0.2204205134,-3.7
 404030187\H,0,-11.3414089803,-1.9772987571,-3.1847167499\H,0,-9.246969
 3155,-4.7679832991,-1.3805641194\H,0,-7.9979641816,-5.5447204253,-0.58
 18281379\H,0,-9.5288970687,-4.9912575742,0.1896867\H,0,-3.2984173602,-
 3.5790645121,-0.2533530734\H,0,-1.2272661142,-4.5135835718,3.093651082
 7\H,0,-2.6000264399,-5.5073002549,3.6353845762\H,0,-1.5396144819,-6.08
 35591407,2.3769110522\H,0,2.9081388687,-2.0067072935,-1.3498564343\H,0
 ,2.5778542267,-0.3299049057,-1.9779388514\H,0,4.4653170184,-1.36975538
 93,0.5174831485\H,0,3.7649618077,0.9653420769,-2.3512656123\H,0,4.9687
 638086,2.2192823521,-1.5590733457\H,0,5.8338029488,1.0473459255,-2.674
 3136883\H,0,6.627880972,1.1110510857,0.2325728712\H,0,6.3023381059,-0.
 5983071674,0.7755537509\H,0,7.4646185847,-1.3214228153,-1.2703717944\H
 ,0,7.7634088994,0.4015592589,-1.5672775507\H,0,9.0353395783,0.86438593
 61,0.3153539635\H,0,9.1261857394,-0.8689752502,0.9614922726\H,0,10.351
 6697988,-0.0306669189,-1.5639815562\H,0,9.2783574448,-2.2352018037,-1.
 7761059925\H,0,11.0865877994,-2.1268660859,-2.1001253706\H,0,10.365598
 757,-2.6971838331,-0.4291303067\H,0,11.4137730189,0.7752039538,0.51210
 89817\H,0,11.5126288584,-1.0447457722,0.9992462447\H,0,12.9858165342,-
 1.5399014094,-0.9974720187\H,0,12.647050535,0.0724521812,-1.5202063543
 \H,0,13.9912005404,1.1878441477,0.4715719859\H,0,14.1381721278,-0.4664
 330222,1.1989522692\H,0,15.4161120126,0.4105744544,-1.5414854173\H,0,1
 5.5645002468,-2.2378231235,0.0960014646\H,0,15.1243440788,-2.102464766
 5,-1.6420555791\H,0,16.7144197216,-1.7433852355,-1.0277392872\H,0,16.3
 113044039,1.5302813618,0.6755334696\H,0,16.6297570535,-0.2832946143,1.
 2771562103\H,0,18.2997467124,-0.3546819822,-0.4265628519\H,0,18.015318
 8415,1.0224011342,-1.3242881724\H,0,18.221621219,2.2732085889,0.932835
 2303\H,0,18.793455308,1.0794427838,1.7727605216\H,0,20.7569055229,0.48
 57395716,-0.0413182396\H,0,19.6681736359,3.0582265992,-1.3362258073\H,
 0,21.3303768385,2.2107222143,-1.4383918204\H,0,19.855783976,1.51719200
 94,-1.9174401284\H,0,21.0194057941,1.8774833892,2.0358572545\H,0,22.21
 42593187,1.9813586066,0.7812747811\H,0,20.8666267412,3.3450806253,1.16
 87340101\\Version=ES64L-G16RevA.03\State=1-A\HF=-2933.4816719\RMSD=4.0
 76e-09\PG=C01 [X(C55H72Mg1N4O5)]\\@


 GOD DOES NOT PLAY WITH DICE.
               -- A. EINSTEIN
 Job cpu time:       0 days 23 hours 51 minutes 14.5 seconds.
 Elapsed time:       0 days  5 hours 58 minutes 48.3 seconds.
 File lengths (MBytes):  RWF=   6809 Int=      0 D2E=      0 Chk=    181 Scr=      1
 Normal termination of Gaussian 16 at Tue Sep 24 11:29:30 2019.
