 Entering Gaussian System, Link 0=g16
 Input=Geometria-299-.com
 Output=Geometria-299-.log
 Initial command:
 /usr/local/g09/l1.exe "/home/padawan/israel-mol/chlorophyll-a/spectra/emi/Gau-127970.inp" -scrdir="/home/padawan/israel-mol/chlorophyll-a/spectra/emi/"
 Entering Link 1 = /usr/local/g09/l1.exe PID=    127972.
  
 Copyright (c) 1988,1990,1992,1993,1995,1998,2003,2009,2013,
            Gaussian, Inc.  All Rights Reserved.
  
 This is part of the Gaussian(R) 09 program.  It is based on
 the Gaussian(R) 03 system (copyright 2003, Gaussian, Inc.),
 the Gaussian(R) 98 system (copyright 1998, Gaussian, Inc.),
 the Gaussian(R) 94 system (copyright 1995, Gaussian, Inc.),
 the Gaussian 92(TM) system (copyright 1992, Gaussian, Inc.),
 the Gaussian 90(TM) system (copyright 1990, Gaussian, Inc.),
 the Gaussian 88(TM) system (copyright 1988, Gaussian, Inc.),
 the Gaussian 86(TM) system (copyright 1986, Carnegie Mellon
 University), and the Gaussian 82(TM) system (copyright 1983,
 Carnegie Mellon University). Gaussian is a federally registered
 trademark of Gaussian, Inc.
  
 This software contains proprietary and confidential information,
 including trade secrets, belonging to Gaussian, Inc.
  
 This software is provided under written license and may be
 used, copied, transmitted, or stored only in accord with that
 written license.
  
 The following legend is applicable only to US Government
 contracts under FAR:
  
                    RESTRICTED RIGHTS LEGEND
  
 Use, reproduction and disclosure by the US Government is
 subject to restrictions as set forth in subparagraphs (a)
 and (c) of the Commercial Computer Software - Restricted
 Rights clause in FAR 52.227-19.
  
 Gaussian, Inc.
 340 Quinnipiac St., Bldg. 40, Wallingford CT 06492
  
  
 ---------------------------------------------------------------
 Warning -- This program may not be used in any manner that
 competes with the business of Gaussian, Inc. or will provide
 assistance to any competitor of Gaussian, Inc.  The licensee
 of this program is prohibited from giving any competitor of
 Gaussian, Inc. access to this program.  By using this program,
 the user acknowledges that Gaussian, Inc. is engaged in the
 business of creating and licensing software in the field of
 computational chemistry and represents and warrants to the
 licensee that it is not a competitor of Gaussian, Inc. and that
 it will not use this program in any manner prohibited above.
 ---------------------------------------------------------------
  

 Cite this work as:
 Gaussian 09, Revision D.01,
 M. J. Frisch, G. W. Trucks, H. B. Schlegel, G. E. Scuseria, 
 M. A. Robb, J. R. Cheeseman, G. Scalmani, V. Barone, B. Mennucci, 
 G. A. Petersson, H. Nakatsuji, M. Caricato, X. Li, H. P. Hratchian, 
 A. F. Izmaylov, J. Bloino, G. Zheng, J. L. Sonnenberg, M. Hada, 
 M. Ehara, K. Toyota, R. Fukuda, J. Hasegawa, M. Ishida, T. Nakajima, 
 Y. Honda, O. Kitao, H. Nakai, T. Vreven, J. A. Montgomery, Jr., 
 J. E. Peralta, F. Ogliaro, M. Bearpark, J. J. Heyd, E. Brothers, 
 K. N. Kudin, V. N. Staroverov, T. Keith, R. Kobayashi, J. Normand, 
 K. Raghavachari, A. Rendell, J. C. Burant, S. S. Iyengar, J. Tomasi, 
 M. Cossi, N. Rega, J. M. Millam, M. Klene, J. E. Knox, J. B. Cross, 
 V. Bakken, C. Adamo, J. Jaramillo, R. Gomperts, R. E. Stratmann, 
 O. Yazyev, A. J. Austin, R. Cammi, C. Pomelli, J. W. Ochterski, 
 R. L. Martin, K. Morokuma, V. G. Zakrzewski, G. A. Voth, 
 P. Salvador, J. J. Dannenberg, S. Dapprich, A. D. Daniels, 
 O. Farkas, J. B. Foresman, J. V. Ortiz, J. Cioslowski, 
 and D. J. Fox, Gaussian, Inc., Wallingford CT, 2013.
 
 ******************************************
 Gaussian 09:  ES64L-G09RevD.01 24-Apr-2013
                 5-Jul-2019 
 ******************************************
 %nproc=4
 Will use up to    4 processors via shared memory.
 %Mem=2GB
 -------------------------------------
 # td=(NStates=1) CAM-B3LYP/6-31G(d,p)
 -------------------------------------
 1/38=1/1;
 2/12=2,17=6,18=5,40=1/2;
 3/5=1,6=6,7=101,11=9,16=1,25=1,30=1,74=-40/1,2,8,3;
 4//1;
 5/5=2,38=5/2;
 8/6=1,10=2,108=1/1;
 9/41=1,42=1,70=2/14;
 6/7=2,8=2,9=2,10=2/1;
 99/5=1,9=1/99;
 --
 TD
 --
 Symbolic Z-matrix:
 Charge =  0 Multiplicity = 1
 12                   -7.15358   0.57135   0.09964 
 6                    -4.83358  -2.02918   0.46771 
 6                    -4.77634   2.82984   1.09656 
 6                    -9.36496   2.99817  -0.54254 
 6                    -9.60687  -1.78905  -0.79859 
 7                    -5.13253   0.3853    0.69919 
 6                    -4.36006  -0.76523   0.70926 
 6                    -2.94525  -0.43541   1.13032 
 6                    -3.06818   1.02837   1.66208 
 6                    -4.43429   1.48704   1.16207 
 6                    -2.83133   1.29224   3.24978 
 6                    -1.86163  -0.61772   0.04152 
 6                    -0.41636  -0.38891   0.57084 
 6                     0.60602  -0.71312  -0.52538 
 8                     0.34391  -1.19672  -1.6249 
 8                     1.86375  -0.39618  -0.1497 
 7                    -7.12793   2.60825   0.28602 
 6                    -6.01473   3.38372   0.70429 
 6                    -6.41297   4.79477   0.82499 
 6                    -7.75135   4.86104   0.39545 
 6                    -8.19026   3.45772   0.05982 
 6                    -5.64087   5.92176   1.14939 
 6                    -8.61454   5.95925   0.19659 
 6                    -8.47191   7.1356    0.87218 
 7                    -9.08275   0.65905  -0.58538 
 6                    -9.89733   1.67735  -0.6459 
 6                    -11.16231   1.46172  -1.12047 
 6                    -11.21163   0.02668  -1.27949 
 6                    -9.98035  -0.4292   -0.90426 
 6                    -12.34287   2.39385  -1.35279 
 6                    -12.4146  -0.77349  -1.68066 
 6                    -12.36166  -1.22534  -3.15616 
 7                    -7.30013  -1.39267  -0.15655 
 6                    -8.32026  -2.26772  -0.45838 
 6                    -7.8151   -3.60947  -0.57939 
 6                    -6.43828  -3.50187  -0.21051 
 6                    -6.14006  -2.13284   0.00016 
 6                    -8.6288   -4.75312  -0.85154 
 6                    -5.29153  -4.28802   0.07331 
 8                    -5.27072  -5.55534   0.1383 
 6                    -4.19258  -3.28564   0.51716 
 6                    -3.60543  -3.61069   1.8795 
 8                    -3.82052  -2.95956   2.86353 
 8                    -2.81238  -4.613     1.74934 
 6                    -2.18217  -5.18617   3.00598 
 6                     2.9194   -0.55915  -1.11126 
 6                     4.17184  -0.32304  -0.4286 
 6                     5.06805   0.46904  -0.85188 
 6                     4.99468   1.25448  -2.11682 
 6                     6.51142   0.54406  -0.21589 
 6                     7.65133  -0.13344  -1.00352 
 6                     8.98235  -0.13113  -0.10107 
 6                     10.21805  -0.44991  -0.83706 
 6                     10.19453  -1.96111  -1.43075 
 6                     11.41051  -0.17275   0.05792 
 6                     12.77094  -0.50843  -0.61666 
 6                     13.94832  -0.11628   0.25229 
 6                     15.34816  -0.28786  -0.40132 
 6                     15.63621  -1.87928  -0.72526 
 6                     16.44263   0.38629   0.45453 
 6                     17.79394   0.57551  -0.21317 
 6                     18.93616   1.19797   0.67054 
 6                     20.25905   1.35347   0.13579 
 6                     20.30728   2.02591  -1.24207 
 6                     21.21894   2.02796   1.14671 
 1                    -3.90011   3.45741   1.36693 
 1                    -10.00806   3.82871  -0.47515 
 1                    -10.37262  -2.5074   -1.04189 
 1                    -2.79206  -1.26812   1.8818 
 1                    -2.45285   1.61883   0.99205 
 1                    -1.6859    1.04334   3.32884 
 1                    -3.39736   2.26332   3.5095 
 1                    -3.35885   0.35499   3.71323 
 1                    -1.98721  -1.51809  -0.51007 
 1                    -2.12982   0.31422  -0.47901 
 1                    -0.18825   0.47419   1.00807 
 1                    -0.11817  -1.01435   1.35543 
 1                    -5.77112   6.72027   0.58103 
 1                    -5.36301   6.35702   2.30155 
 1                    -4.61776   5.48065   0.8064 
 1                    -9.29035   6.24645  -0.64823 
 1                    -9.21674   7.8731    0.31886 
 1                    -7.75843   7.5053    1.4718 
 1                    -12.30641   3.09612  -2.31732 
 1                    -13.37214   1.83943  -1.50773 
 1                    -12.4379   3.25766  -0.36401 
 1                    -12.24761  -1.50342  -0.92995 
 1                    -13.35981  -0.0776   -1.51189 
 1                    -13.21869  -1.69443  -3.71796 
 1                    -12.1168  -0.11525  -3.4997 
 1                    -11.43247  -1.76571  -3.24226 
 1                    -8.53418  -4.83134  -2.08599 
 1                    -8.25586  -5.71592  -0.36004 
 1                    -9.8898   -4.53179  -0.6476 
 1                    -3.3585   -3.6599   -0.24405 
 1                    -1.72461  -4.35076   3.48397 
 1                    -2.93331  -5.5066    3.66075 
 1                    -1.60016  -5.97974   2.73597 
 1                     2.86877  -1.7585   -1.53855 
 1                     2.76288   0.19258  -1.94188 
 1                     4.44933  -1.10158   0.54714 
 1                     3.93984   1.24801  -2.49496 
 1                     5.08414   2.13824  -2.00162 
 1                     5.76142   0.81866  -2.94327 
 1                     6.81329   1.66639  -0.36079 
 1                     6.55226   0.0405    0.98718 
 1                     7.21846  -1.32768  -1.38952 
 1                     7.7764    0.42825  -1.8371 
 1                     8.96299   0.84218   0.32953 
 1                     8.62568  -0.69535   0.76014 
 1                     10.27496   0.20941  -1.82977 
 1                     9.33971  -2.24176  -2.00841 
 1                     11.15706  -2.40983  -1.91631 
 1                     9.91546  -2.60836  -0.52857 
 1                     11.73891   0.66843   0.51134 
 1                     11.37144  -0.76127   0.89293 
 1                     12.87063  -1.51066  -1.12315 
 1                     12.86862   0.16894  -1.55065 
 1                     13.82532   0.9767    0.41484 
 1                     14.04337  -0.69782   1.26407 
 1                     15.45119   0.18875  -1.47121 
 1                     15.60278  -2.45056   0.32812 
 1                     14.80132  -2.17686  -1.12658 
 1                     16.61658  -2.13606  -1.05248 
 1                     16.06858   1.36154   0.76207 
 1                     16.4918  -0.09239   1.43188 
 1                     18.28219  -0.42798  -0.3454 
 1                     17.76303   1.0537   -1.12754 
 1                     18.57143   2.26348   1.04251 
 1                     19.06255   0.61831   1.56198 
 1                     20.70666   0.36334  -0.03967 
 1                     19.94711   2.90716  -1.26639 
 1                     21.39103   2.32068  -1.46996 
 1                     19.9409   1.36472  -2.11495 
 1                     21.078    1.49321   2.11821 
 1                     22.17769   1.98885   0.76126 
 1                     20.80456   2.96558   1.57174 
 
 Stoichiometry    C55H72MgN4O5
 Framework group  C1[X(C55H72MgN4O5)]
 Deg. of freedom   405
 Full point group                 C1      NOp   1
 Largest Abelian subgroup         C1      NOp   1
 Largest concise Abelian subgroup C1      NOp   1
                         Standard orientation:                         
 ---------------------------------------------------------------------
 Center     Atomic      Atomic             Coordinates (Angstroms)
 Number     Number       Type             X           Y           Z
 ---------------------------------------------------------------------
      1         12           0       -7.155096    0.572240    0.095450
      2          6           0       -4.835076   -2.025802    0.480560
      3          6           0       -4.777980    2.837200    1.077887
      4          6           0       -9.366479    2.994800   -0.562620
      5          6           0       -9.608275   -1.793985   -0.787640
      6          7           0       -5.134090    0.390124    0.696353
      7          6           0       -4.361597   -0.760295    0.713942
      8          6           0       -2.946835   -0.427730    1.132969
      9          6           0       -3.069831    1.039463    1.655210
     10          6           0       -4.435911    1.494858    1.152136
     11          6           0       -2.833108    1.313633    3.241183
     12          6           0       -1.863122   -0.617069    0.045452
     13          6           0       -0.417897   -0.384809    0.573393
     14          6           0        0.604575   -0.716101   -0.520621
     15          8           0        0.342554   -1.206816   -1.617004
     16          8           0        1.862266   -0.396699   -0.146911
     17          7           0       -7.129508    2.610306    0.268619
     18          6           0       -6.016353    3.388498    0.681945
     19          6           0       -6.414628    4.800297    0.793461
     20          6           0       -7.752975    4.863746    0.363391
     21          6           0       -8.191837    3.458279    0.036834
     22          6           0       -5.642579    5.929383    1.110603
     23          6           0       -8.616173    5.960627    0.157346
     24          6           0       -8.473620    7.141338    0.825312
     25          7           0       -9.084219    0.655460   -0.590275
     26          6           0       -9.898810    1.673329   -0.657458
     27          6           0      -11.163748    1.454608   -1.130721
     28          6           0      -11.213036    0.018559   -1.280429
     29          6           0       -9.981777   -0.434856   -0.902154
     30          6           0      -12.344316    2.385183   -1.369170
     31          6           0      -12.415952   -0.784222   -1.676498
     32          6           0      -12.362896   -1.245630   -3.149035
     33          7           0       -7.301592   -1.393398   -0.148009
     34          6           0       -8.321684   -2.270410   -0.444238
     35          6           0       -7.816484   -3.612904   -0.556501
     36          6           0       -6.439694   -3.502892   -0.188227
     37          6           0       -6.141516   -2.132516    0.013590
     38          6           0       -8.630143   -4.758310   -0.821301
     39          6           0       -5.292957   -4.287160    0.100777
     40          8           0       -5.272120   -5.554029    0.173986
     41          6           0       -4.194060   -3.281903    0.538205
     42          6           0       -3.607008   -3.598092    1.902666
     43          8           0       -3.822190   -2.940606    2.882437
     44          8           0       -2.813930   -4.601209    1.779075
     45          6           0       -2.183803   -5.166213    3.039446
     46          6           0        2.918000   -0.565886   -1.107312
     47          6           0        4.170377   -0.325326   -0.426101
     48          6           0        5.066606    0.464014   -0.854441
     49          6           0        4.993316    1.241229   -2.124444
     50          6           0        6.509920    0.543179   -0.218831
     51          6           0        7.649912   -0.139391   -1.001962
     52          6           0        8.980859   -0.131198   -0.099448
     53          6           0       10.216625   -0.454722   -0.833262
     54          6           0       10.193174   -1.969736   -1.417134
     55          6           0       11.409011   -0.171740    0.059996
     56          6           0       12.769498   -0.511764   -0.612286
     57          6           0       13.946805   -0.113962    0.254199
     58          6           0       15.346696   -0.289748   -0.398177
     59          6           0       15.634797   -1.883222   -0.711772
     60          6           0       16.441084    0.389965    0.453367
     61          6           0       17.792448    0.574875   -0.215438
     62          6           0       18.934587    1.203074    0.664300
     63          6           0       20.257516    1.355127    0.128657
     64          6           0       20.305837    2.018625   -1.253524
     65          6           0       21.217312    2.036177    1.135258
     66          1           0       -3.901787    3.466527    1.344255
     67          1           0      -10.009601    3.825755   -0.500673
     68          1           0      -10.373992   -2.513908   -1.026341
     69          1           0       -2.793679   -1.255539    1.889840
     70          1           0       -2.454459    1.625578    0.981416
     71          1           0       -1.687684    1.065277    3.321945
     72          1           0       -3.399184    2.286365    3.494564
     73          1           0       -3.360647    0.379396    3.710667
     74          1           0       -1.988643   -1.521004   -0.500300
     75          1           0       -2.131295    0.311466   -0.481126
     76          1           0       -0.189842    0.481118    1.005035
     77          1           0       -0.119757   -1.005135    1.362044
     78          1           0       -5.772794    6.724184    0.537071
     79          1           0       -5.364818    6.372105    2.259935
     80          1           0       -4.619427    5.486074    0.770564
     81          1           0       -9.291924    6.242333   -0.689363
     82          1           0       -9.218423    7.875218    0.267161
     83          1           0       -7.760188    7.514930    1.422569
     84          1           0      -12.307797    3.081185   -2.338234
     85          1           0      -13.373557    1.829747   -1.520592
     86          1           0      -12.439432    3.255389   -0.386015
     87          1           0      -12.249009   -1.509261   -0.921057
     88          1           0      -13.361197   -0.087271   -1.512315
     89          1           0      -13.219867   -1.718369   -3.707849
     90          1           0      -12.118022   -0.137777   -3.499749
     91          1           0      -11.433684   -1.786524   -3.231559
     92          1           0       -8.535428   -4.844537   -2.055208
     93          1           0       -8.257227   -5.717898   -0.323531
     94          1           0       -9.891161   -4.535687   -0.618891
     95          1           0       -3.359908   -3.661069   -0.220499
     96          1           0       -1.726298   -4.327710    3.512050
     97          1           0       -2.934992   -5.482405    3.696225
     98          1           0       -1.601756   -5.961500    2.774635
     99          1           0        2.867419   -1.767977   -1.526816
    100          1           0        2.761529    0.180446   -1.942796
    101          1           0        4.447803   -1.097519    0.554689
    102          1           0        3.938511    1.232291   -2.502618
    103          1           0        5.082756    2.125725   -2.014970
    104          1           0        5.760135    0.800079   -2.947998
    105          1           0        6.811787    1.664556   -0.370988
    106          1           0        6.550680    0.047431    0.987478
    107          1           0        7.217092   -1.336116   -1.380247
    108          1           0        7.775033    0.416884   -1.839157
    109          1           0        8.961445    0.844884    0.324833
    110          1           0        8.624134   -0.689825    0.765381
    111          1           0       10.273592    0.198153   -1.830215
    112          1           0        9.338407   -2.254148   -1.993028
    113          1           0       11.155753   -2.421576   -1.899699
    114          1           0        9.914055   -2.611133   -0.510803
    115          1           0       11.737357    0.672369    0.507984
    116          1           0       11.369884   -0.754835    0.898805
    117          1           0       12.869246   -1.517249   -1.112257
    118          1           0       12.867236    0.159540   -1.550637
    119          1           0       13.823771    0.980050    0.409645
    120          1           0       14.041781   -0.688923    1.269736
    121          1           0       15.449798    0.179917   -1.471130
    122          1           0       15.601298   -2.447660    0.345291
    123          1           0       14.799952   -2.183420   -1.111217
    124          1           0       16.615203   -2.142103   -1.037239
    125          1           0       16.066995    1.367182    0.754550
    126          1           0       16.490192   -0.082368    1.433800
    127          1           0       18.280723   -0.429440   -0.341121
    128          1           0       17.761599    1.047129   -1.132891
    129          1           0       18.569801    2.270968    1.029330
    130          1           0       19.060918    0.629207    1.559489
    131          1           0       20.705150    0.363896   -0.040340
    132          1           0       19.945649    2.899695   -1.283591
    133          1           0       21.389601    2.311930   -1.483240
    134          1           0       19.939534    1.351779   -2.122130
    135          1           0       21.076308    1.507737    2.110196
    136          1           0       22.176090    1.994592    0.750145
    137          1           0       20.802878    2.976526    1.554165
 ---------------------------------------------------------------------
 Rotational constants (GHZ):      0.0657190      0.0060678      0.0057196
 Standard basis: 6-31G(d,p) (6D, 7F)
 There are  1339 symmetry adapted cartesian basis functions of A   symmetry.
 There are  1339 symmetry adapted basis functions of A   symmetry.
  1339 basis functions,  2348 primitive gaussians,  1339 cartesian basis functions
   241 alpha electrons      241 beta electrons
       nuclear repulsion energy      8755.1845905885 Hartrees.
 NAtoms=  137 NActive=  137 NUniq=  137 SFac= 1.00D+00 NAtFMM=   60 NAOKFM=T Big=T
 Integral buffers will be    131072 words long.
 Raffenetti 1 integral format.
 Two-electron integral symmetry is turned on.
 One-electron integrals computed using PRISM.
 NBasis=  1339 RedAO= T EigKep=  3.24D-04  NBF=  1339
 NBsUse=  1339 1.00D-06 EigRej= -1.00D+00 NBFU=  1339
 ExpMin= 4.21D-02 ExpMax= 1.17D+04 ExpMxC= 1.76D+03 IAcc=2 IRadAn=         4 AccDes= 0.00D+00
 Harris functional with IExCor=20419 and IRadAn=       4 diagonalized for initial guess.
 HarFok:  IExCor=20419 AccDes= 0.00D+00 IRadAn=         4 IDoV= 1 UseB2=F ITyADJ=14
 ICtDFT=  3500011 ScaDFX=  1.000000  1.000000  1.000000  1.000000
 FoFCou: FMM=F IPFlag=           0 FMFlag=      100000 FMFlg1=        2001
         NFxFlg=           0 DoJE=T BraDBF=F KetDBF=T FulRan=T
         wScrn=  0.000000 ICntrl=     500 IOpCl=  0 I1Cent=   200000004 NGrid=           0
         NMat0=    1 NMatS0=      1 NMatT0=    0 NMatD0=    1 NMtDS0=    0 NMtDT0=    0
 Petite list used in FoFCou.
 Requested convergence on RMS density matrix=1.00D-08 within 128 cycles.
 Requested convergence on MAX density matrix=1.00D-06.
 Requested convergence on             energy=1.00D-06.
 No special actions if energy rises.
 SCF Done:  E(RCAM-B3LYP) =  -2932.53646842     A.U. after   18 cycles
            NFock= 18  Conv=0.58D-08     -V/T= 2.0092
 DoSCS=F DFT=T ScalE2(SS,OS)=  1.000000  1.000000
 ExpMin= 4.21D-02 ExpMax= 1.17D+04 ExpMxC= 1.76D+03 IAcc=3 IRadAn=         5 AccDes= 0.00D+00
 HarFok:  IExCor=  205 AccDes= 0.00D+00 IRadAn=         5 IDoV=-2 UseB2=F ITyADJ=14
 ICtDFT= 12500011 ScaDFX=  1.000000  1.000000  1.000000  1.000000
 Range of M.O.s used for correlation:    70  1339
 NBasis=  1339 NAE=   241 NBE=   241 NFC=    69 NFV=     0
 NROrb=   1270 NOA=   172 NOB=   172 NVA=  1098 NVB=  1098
 Would need an additional       2415464100000 words for in-memory AO integral storage.
 Orbital symmetries:
       Occupied  (A) (A) (A) (A) (A) (A) (A) (A) (A) (A) (A) (A)
                 (A) (A) (A) (A) (A) (A) (A) (A) (A) (A) (A) (A)
                 (A) (A) (A) (A) (A) (A) (A) (A) (A) (A) (A) (A)
                 (A) (A) (A) (A) (A) (A) (A) (A) (A) (A) (A) (A)
                 (A) (A) (A) (A) (A) (A) (A) (A) (A) (A) (A) (A)
                 (A) (A) (A) (A) (A) (A) (A) (A) (A) (A) (A) (A)
                 (A) (A) (A) (A) (A) (A) (A) (A) (A) (A) (A) (A)
                 (A) (A) (A) (A) (A) (A) (A) (A) (A) (A) (A) (A)
                 (A) (A) (A) (A) (A) (A) (A) (A) (A) (A) (A) (A)
                 (A) (A) (A) (A) (A) (A) (A) (A) (A) (A) (A) (A)
                 (A) (A) (A) (A) (A) (A) (A) (A) (A) (A) (A) (A)
                 (A) (A) (A) (A) (A) (A) (A) (A) (A) (A) (A) (A)
                 (A) (A) (A) (A) (A) (A) (A) (A) (A) (A) (A) (A)
                 (A) (A) (A) (A) (A) (A) (A) (A) (A) (A) (A) (A)
                 (A) (A) (A) (A) (A) (A) (A) (A) (A) (A) (A) (A)
                 (A) (A) (A) (A) (A) (A) (A) (A) (A) (A) (A) (A)
                 (A) (A) (A) (A) (A) (A) (A) (A) (A) (A) (A) (A)
                 (A) (A) (A) (A) (A) (A) (A) (A) (A) (A) (A) (A)
                 (A) (A) (A) (A) (A) (A) (A) (A) (A) (A) (A) (A)
                 (A) (A) (A) (A) (A) (A) (A) (A) (A) (A) (A) (A)
                 (A)
       Virtual   (A) (A) (A) (A) (A) (A) (A) (A) (A) (A) (A) (A)
                 (A) (A) (A) (A) (A) (A) (A) (A) (A) (A) (A) (A)
                 (A) (A) (A) (A) (A) (A) (A) (A) (A) (A) (A) (A)
                 (A) (A) (A) (A) (A) (A) (A) (A) (A) (A) (A) (A)
                 (A) (A) (A) (A) (A) (A) (A) (A) (A) (A) (A) (A)
                 (A) (A) (A) (A) (A) (A) (A) (A) (A) (A) (A) (A)
                 (A) (A) (A) (A) (A) (A) (A) (A) (A) (A) (A) (A)
                 (A) (A) (A) (A) (A) (A) (A) (A) (A) (A) (A) (A)
                 (A) (A) (A) (A) (A) (A) (A) (A) (A) (A) (A) (A)
                 (A) (A) (A) (A) (A) (A) (A) (A) (A) (A) (A) (A)
                 (A) (A) (A) (A) (A) (A) (A) (A) (A) (A) (A) (A)
                 (A) (A) (A) (A) (A) (A) (A) (A) (A) (A) (A) (A)
                 (A) (A) (A) (A) (A) (A) (A) (A) (A) (A) (A) (A)
                 (A) (A) (A) (A) (A) (A) (A) (A) (A) (A) (A) (A)
                 (A) (A) (A) (A) (A) (A) (A) (A) (A) (A) (A) (A)
                 (A) (A) (A) (A) (A) (A) (A) (A) (A) (A) (A) (A)
                 (A) (A) (A) (A) (A) (A) (A) (A) (A) (A) (A) (A)
                 (A) (A) (A) (A) (A) (A) (A) (A) (A) (A) (A) (A)
                 (A) (A) (A) (A) (A) (A) (A) (A) (A) (A) (A) (A)
                 (A) (A) (A) (A) (A) (A) (A) (A) (A) (A) (A) (A)
                 (A) (A) (A) (A) (A) (A) (A) (A) (A) (A) (A) (A)
                 (A) (A) (A) (A) (A) (A) (A) (A) (A) (A) (A) (A)
                 (A) (A) (A) (A) (A) (A) (A) (A) (A) (A) (A) (A)
                 (A) (A) (A) (A) (A) (A) (A) (A) (A) (A) (A) (A)
                 (A) (A) (A) (A) (A) (A) (A) (A) (A) (A) (A) (A)
                 (A) (A) (A) (A) (A) (A) (A) (A) (A) (A) (A) (A)
                 (A) (A) (A) (A) (A) (A) (A) (A) (A) (A) (A) (A)
                 (A) (A) (A) (A) (A) (A) (A) (A) (A) (A) (A) (A)
                 (A) (A) (A) (A) (A) (A) (A) (A) (A) (A) (A) (A)
                 (A) (A) (A) (A) (A) (A) (A) (A) (A) (A) (A) (A)
                 (A) (A) (A) (A) (A) (A) (A) (A) (A) (A) (A) (A)
                 (A) (A) (A) (A) (A) (A) (A) (A) (A) (A) (A) (A)
                 (A) (A) (A) (A) (A) (A) (A) (A) (A) (A) (A) (A)
                 (A) (A) (A) (A) (A) (A) (A) (A) (A) (A) (A) (A)
                 (A) (A) (A) (A) (A) (A) (A) (A) (A) (A) (A) (A)
                 (A) (A) (A) (A) (A) (A) (A) (A) (A) (A) (A) (A)
                 (A) (A) (A) (A) (A) (A) (A) (A) (A) (A) (A) (A)
                 (A) (A) (A) (A) (A) (A) (A) (A) (A) (A) (A) (A)
                 (A) (A) (A) (A) (A) (A) (A) (A) (A) (A) (A) (A)
                 (A) (A) (A) (A) (A) (A) (A) (A) (A) (A) (A) (A)
                 (A) (A) (A) (A) (A) (A) (A) (A) (A) (A) (A) (A)
                 (A) (A) (A) (A) (A) (A) (A) (A) (A) (A) (A) (A)
                 (A) (A) (A) (A) (A) (A) (A) (A) (A) (A) (A) (A)
                 (A) (A) (A) (A) (A) (A) (A) (A) (A) (A) (A) (A)
                 (A) (A) (A) (A) (A) (A) (A) (A) (A) (A) (A) (A)
                 (A) (A) (A) (A) (A) (A) (A) (A) (A) (A) (A) (A)
                 (A) (A) (A) (A) (A) (A) (A) (A) (A) (A) (A) (A)
                 (A) (A) (A) (A) (A) (A) (A) (A) (A) (A) (A) (A)
                 (A) (A) (A) (A) (A) (A) (A) (A) (A) (A) (A) (A)
                 (A) (A) (A) (A) (A) (A) (A) (A) (A) (A) (A) (A)
                 (A) (A) (A) (A) (A) (A) (A) (A) (A) (A) (A) (A)
                 (A) (A) (A) (A) (A) (A) (A) (A) (A) (A) (A) (A)
                 (A) (A) (A) (A) (A) (A) (A) (A) (A) (A) (A) (A)
                 (A) (A) (A) (A) (A) (A) (A) (A) (A) (A) (A) (A)
                 (A) (A) (A) (A) (A) (A) (A) (A) (A) (A) (A) (A)
                 (A) (A) (A) (A) (A) (A) (A) (A) (A) (A) (A) (A)
                 (A) (A) (A) (A) (A) (A) (A) (A) (A) (A) (A) (A)
                 (A) (A) (A) (A) (A) (A) (A) (A) (A) (A) (A) (A)
                 (A) (A) (A) (A) (A) (A) (A) (A) (A) (A) (A) (A)
                 (A) (A) (A) (A) (A) (A) (A) (A) (A) (A) (A) (A)
                 (A) (A) (A) (A) (A) (A) (A) (A) (A) (A) (A) (A)
                 (A) (A) (A) (A) (A) (A) (A) (A) (A) (A) (A) (A)
                 (A) (A) (A) (A) (A) (A) (A) (A) (A) (A) (A) (A)
                 (A) (A) (A) (A) (A) (A) (A) (A) (A) (A) (A) (A)
                 (A) (A) (A) (A) (A) (A) (A) (A) (A) (A) (A) (A)
                 (A) (A) (A) (A) (A) (A) (A) (A) (A) (A) (A) (A)
                 (A) (A) (A) (A) (A) (A) (A) (A) (A) (A) (A) (A)
                 (A) (A) (A) (A) (A) (A) (A) (A) (A) (A) (A) (A)
                 (A) (A) (A) (A) (A) (A) (A) (A) (A) (A) (A) (A)
                 (A) (A) (A) (A) (A) (A) (A) (A) (A) (A) (A) (A)
                 (A) (A) (A) (A) (A) (A) (A) (A) (A) (A) (A) (A)
                 (A) (A) (A) (A) (A) (A) (A) (A) (A) (A) (A) (A)
                 (A) (A) (A) (A) (A) (A) (A) (A) (A) (A) (A) (A)
                 (A) (A) (A) (A) (A) (A) (A) (A) (A) (A) (A) (A)
                 (A) (A) (A) (A) (A) (A) (A) (A) (A) (A) (A) (A)
                 (A) (A) (A) (A) (A) (A) (A) (A) (A) (A) (A) (A)
                 (A) (A) (A) (A) (A) (A) (A) (A) (A) (A) (A) (A)
                 (A) (A) (A) (A) (A) (A) (A) (A) (A) (A) (A) (A)
                 (A) (A) (A) (A) (A) (A) (A) (A) (A) (A) (A) (A)
                 (A) (A) (A) (A) (A) (A) (A) (A) (A) (A) (A) (A)
                 (A) (A) (A) (A) (A) (A) (A) (A) (A) (A) (A) (A)
                 (A) (A) (A) (A) (A) (A) (A) (A) (A) (A) (A) (A)
                 (A) (A) (A) (A) (A) (A) (A) (A) (A) (A) (A) (A)
                 (A) (A) (A) (A) (A) (A) (A) (A) (A) (A) (A) (A)
                 (A) (A) (A) (A) (A) (A) (A) (A) (A) (A) (A) (A)
                 (A) (A) (A) (A) (A) (A) (A) (A) (A) (A) (A) (A)
                 (A) (A) (A) (A) (A) (A) (A) (A) (A) (A) (A) (A)
                 (A) (A) (A) (A) (A) (A) (A) (A) (A) (A) (A) (A)
                 (A) (A) (A) (A) (A) (A) (A) (A) (A) (A) (A) (A)
                 (A) (A) (A) (A) (A) (A) (A) (A) (A) (A) (A) (A)
                 (A) (A) (A) (A) (A) (A) (A) (A) (A) (A) (A) (A)
                 (A) (A) (A) (A) (A) (A)
     8 initial guesses have been made.
 Convergence on wavefunction:    0.001000000000000
 Iteration     1 Dimension     8 NMult     0 NNew      8
 CISAX will form     8 AO SS matrices at one time.
 Iteration     2 Dimension    12 NMult     8 NNew      4
 Iteration     3 Dimension    16 NMult    12 NNew      4
 Iteration     4 Dimension    20 NMult    16 NNew      4
 Iteration     5 Dimension    24 NMult    20 NNew      4
 Iteration     6 Dimension    28 NMult    24 NNew      4
 ***********************************************************************
 Excited states from <AA,BB:AA,BB> singles matrix:
 ***********************************************************************
 
 Ground to excited state transition densities written to RWF  633
 Ground to excited state transition electric dipole moments (Au):
       state          X           Y           Z        Dip. S.      Osc.
         1         0.1877     -1.8934     -0.2429      3.6790      0.1872
 Ground to excited state transition velocity dipole moments (Au):
       state          X           Y           Z        Dip. S.      Osc.
         1        -0.0135      0.1407      0.0179      0.0203      0.1773
 Ground to excited state transition magnetic dipole moments (Au):
       state          X           Y           Z
         1         0.5924      0.3991     -3.6701
 Ground to excited state transition velocity quadrupole moments (Au):
       state          XX          YY          ZZ          XY          XZ          YZ
         1         0.3676      0.2028      0.0367     -1.7757     -0.1920      0.1388
 <0|del|b> * <b|rxdel|0> + <0|del|b> * <b|delr+rdel|0>
 Rotatory Strengths (R) in cgs (10**-40 erg-esu-cm/Gauss)
       state          XX          YY          ZZ    R(velocity)    E-M Angle
         1       -65.1607   -202.4105    106.6197    -53.6505       91.87
 1/2[<0|r|b>*<b|rxdel|0> + (<0|rxdel|b>*<b|r|0>)*]
 Rotatory Strengths (R) in cgs (10**-40 erg-esu-cm/Gauss)
       state          XX          YY          ZZ     R(length)
         1       -78.6199    534.3732   -630.3047    -58.1838
  1/2[<0|del|b>*<b|r|0> + (<0|r|b>*<b|del|0>)*] (Au)
       state          X           Y           Z        Dip. S.   Osc.(frdel)
         1        -0.0025     -0.2664     -0.0043      0.2732      0.1821

 Excitation energies and oscillator strengths:
 
 Excited State   1:      Singlet-A      2.0766 eV  597.06 nm  f=0.1872  <S**2>=0.000
     240 -> 242       -0.16308
     240 -> 243        0.26347
     241 -> 242        0.61425
     241 -> 243        0.12713
 This state for optimization and/or second-order correction.
 Total Energy, E(TD-HF/TD-KS) =  -2932.46015493    
 Copying the excited state density for this state as the 1-particle RhoCI density.
 SavETr:  write IOETrn=   770 NScale= 10 NData=  16 NLR=1 NState=    1 LETran=      28.

 **********************************************************************

            Population analysis using the SCF density.

 **********************************************************************

 Orbital symmetries:
       Occupied  (A) (A) (A) (A) (A) (A) (A) (A) (A) (A) (A) (A)
                 (A) (A) (A) (A) (A) (A) (A) (A) (A) (A) (A) (A)
                 (A) (A) (A) (A) (A) (A) (A) (A) (A) (A) (A) (A)
                 (A) (A) (A) (A) (A) (A) (A) (A) (A) (A) (A) (A)
                 (A) (A) (A) (A) (A) (A) (A) (A) (A) (A) (A) (A)
                 (A) (A) (A) (A) (A) (A) (A) (A) (A) (A) (A) (A)
                 (A) (A) (A) (A) (A) (A) (A) (A) (A) (A) (A) (A)
                 (A) (A) (A) (A) (A) (A) (A) (A) (A) (A) (A) (A)
                 (A) (A) (A) (A) (A) (A) (A) (A) (A) (A) (A) (A)
                 (A) (A) (A) (A) (A) (A) (A) (A) (A) (A) (A) (A)
                 (A) (A) (A) (A) (A) (A) (A) (A) (A) (A) (A) (A)
                 (A) (A) (A) (A) (A) (A) (A) (A) (A) (A) (A) (A)
                 (A) (A) (A) (A) (A) (A) (A) (A) (A) (A) (A) (A)
                 (A) (A) (A) (A) (A) (A) (A) (A) (A) (A) (A) (A)
                 (A) (A) (A) (A) (A) (A) (A) (A) (A) (A) (A) (A)
                 (A) (A) (A) (A) (A) (A) (A) (A) (A) (A) (A) (A)
                 (A) (A) (A) (A) (A) (A) (A) (A) (A) (A) (A) (A)
                 (A) (A) (A) (A) (A) (A) (A) (A) (A) (A) (A) (A)
                 (A) (A) (A) (A) (A) (A) (A) (A) (A) (A) (A) (A)
                 (A) (A) (A) (A) (A) (A) (A) (A) (A) (A) (A) (A)
                 (A)
       Virtual   (A) (A) (A) (A) (A) (A) (A) (A) (A) (A) (A) (A)
                 (A) (A) (A) (A) (A) (A) (A) (A) (A) (A) (A) (A)
                 (A) (A) (A) (A) (A) (A) (A) (A) (A) (A) (A) (A)
                 (A) (A) (A) (A) (A) (A) (A) (A) (A) (A) (A) (A)
                 (A) (A) (A) (A) (A) (A) (A) (A) (A) (A) (A) (A)
                 (A) (A) (A) (A) (A) (A) (A) (A) (A) (A) (A) (A)
                 (A) (A) (A) (A) (A) (A) (A) (A) (A) (A) (A) (A)
                 (A) (A) (A) (A) (A) (A) (A) (A) (A) (A) (A) (A)
                 (A) (A) (A) (A) (A) (A) (A) (A) (A) (A) (A) (A)
                 (A) (A) (A) (A) (A) (A) (A) (A) (A) (A) (A) (A)
                 (A) (A) (A) (A) (A) (A) (A) (A) (A) (A) (A) (A)
                 (A) (A) (A) (A) (A) (A) (A) (A) (A) (A) (A) (A)
                 (A) (A) (A) (A) (A) (A) (A) (A) (A) (A) (A) (A)
                 (A) (A) (A) (A) (A) (A) (A) (A) (A) (A) (A) (A)
                 (A) (A) (A) (A) (A) (A) (A) (A) (A) (A) (A) (A)
                 (A) (A) (A) (A) (A) (A) (A) (A) (A) (A) (A) (A)
                 (A) (A) (A) (A) (A) (A) (A) (A) (A) (A) (A) (A)
                 (A) (A) (A) (A) (A) (A) (A) (A) (A) (A) (A) (A)
                 (A) (A) (A) (A) (A) (A) (A) (A) (A) (A) (A) (A)
                 (A) (A) (A) (A) (A) (A) (A) (A) (A) (A) (A) (A)
                 (A) (A) (A) (A) (A) (A) (A) (A) (A) (A) (A) (A)
                 (A) (A) (A) (A) (A) (A) (A) (A) (A) (A) (A) (A)
                 (A) (A) (A) (A) (A) (A) (A) (A) (A) (A) (A) (A)
                 (A) (A) (A) (A) (A) (A) (A) (A) (A) (A) (A) (A)
                 (A) (A) (A) (A) (A) (A) (A) (A) (A) (A) (A) (A)
                 (A) (A) (A) (A) (A) (A) (A) (A) (A) (A) (A) (A)
                 (A) (A) (A) (A) (A) (A) (A) (A) (A) (A) (A) (A)
                 (A) (A) (A) (A) (A) (A) (A) (A) (A) (A) (A) (A)
                 (A) (A) (A) (A) (A) (A) (A) (A) (A) (A) (A) (A)
                 (A) (A) (A) (A) (A) (A) (A) (A) (A) (A) (A) (A)
                 (A) (A) (A) (A) (A) (A) (A) (A) (A) (A) (A) (A)
                 (A) (A) (A) (A) (A) (A) (A) (A) (A) (A) (A) (A)
                 (A) (A) (A) (A) (A) (A) (A) (A) (A) (A) (A) (A)
                 (A) (A) (A) (A) (A) (A) (A) (A) (A) (A) (A) (A)
                 (A) (A) (A) (A) (A) (A) (A) (A) (A) (A) (A) (A)
                 (A) (A) (A) (A) (A) (A) (A) (A) (A) (A) (A) (A)
                 (A) (A) (A) (A) (A) (A) (A) (A) (A) (A) (A) (A)
                 (A) (A) (A) (A) (A) (A) (A) (A) (A) (A) (A) (A)
                 (A) (A) (A) (A) (A) (A) (A) (A) (A) (A) (A) (A)
                 (A) (A) (A) (A) (A) (A) (A) (A) (A) (A) (A) (A)
                 (A) (A) (A) (A) (A) (A) (A) (A) (A) (A) (A) (A)
                 (A) (A) (A) (A) (A) (A) (A) (A) (A) (A) (A) (A)
                 (A) (A) (A) (A) (A) (A) (A) (A) (A) (A) (A) (A)
                 (A) (A) (A) (A) (A) (A) (A) (A) (A) (A) (A) (A)
                 (A) (A) (A) (A) (A) (A) (A) (A) (A) (A) (A) (A)
                 (A) (A) (A) (A) (A) (A) (A) (A) (A) (A) (A) (A)
                 (A) (A) (A) (A) (A) (A) (A) (A) (A) (A) (A) (A)
                 (A) (A) (A) (A) (A) (A) (A) (A) (A) (A) (A) (A)
                 (A) (A) (A) (A) (A) (A) (A) (A) (A) (A) (A) (A)
                 (A) (A) (A) (A) (A) (A) (A) (A) (A) (A) (A) (A)
                 (A) (A) (A) (A) (A) (A) (A) (A) (A) (A) (A) (A)
                 (A) (A) (A) (A) (A) (A) (A) (A) (A) (A) (A) (A)
                 (A) (A) (A) (A) (A) (A) (A) (A) (A) (A) (A) (A)
                 (A) (A) (A) (A) (A) (A) (A) (A) (A) (A) (A) (A)
                 (A) (A) (A) (A) (A) (A) (A) (A) (A) (A) (A) (A)
                 (A) (A) (A) (A) (A) (A) (A) (A) (A) (A) (A) (A)
                 (A) (A) (A) (A) (A) (A) (A) (A) (A) (A) (A) (A)
                 (A) (A) (A) (A) (A) (A) (A) (A) (A) (A) (A) (A)
                 (A) (A) (A) (A) (A) (A) (A) (A) (A) (A) (A) (A)
                 (A) (A) (A) (A) (A) (A) (A) (A) (A) (A) (A) (A)
                 (A) (A) (A) (A) (A) (A) (A) (A) (A) (A) (A) (A)
                 (A) (A) (A) (A) (A) (A) (A) (A) (A) (A) (A) (A)
                 (A) (A) (A) (A) (A) (A) (A) (A) (A) (A) (A) (A)
                 (A) (A) (A) (A) (A) (A) (A) (A) (A) (A) (A) (A)
                 (A) (A) (A) (A) (A) (A) (A) (A) (A) (A) (A) (A)
                 (A) (A) (A) (A) (A) (A) (A) (A) (A) (A) (A) (A)
                 (A) (A) (A) (A) (A) (A) (A) (A) (A) (A) (A) (A)
                 (A) (A) (A) (A) (A) (A) (A) (A) (A) (A) (A) (A)
                 (A) (A) (A) (A) (A) (A) (A) (A) (A) (A) (A) (A)
                 (A) (A) (A) (A) (A) (A) (A) (A) (A) (A) (A) (A)
                 (A) (A) (A) (A) (A) (A) (A) (A) (A) (A) (A) (A)
                 (A) (A) (A) (A) (A) (A) (A) (A) (A) (A) (A) (A)
                 (A) (A) (A) (A) (A) (A) (A) (A) (A) (A) (A) (A)
                 (A) (A) (A) (A) (A) (A) (A) (A) (A) (A) (A) (A)
                 (A) (A) (A) (A) (A) (A) (A) (A) (A) (A) (A) (A)
                 (A) (A) (A) (A) (A) (A) (A) (A) (A) (A) (A) (A)
                 (A) (A) (A) (A) (A) (A) (A) (A) (A) (A) (A) (A)
                 (A) (A) (A) (A) (A) (A) (A) (A) (A) (A) (A) (A)
                 (A) (A) (A) (A) (A) (A) (A) (A) (A) (A) (A) (A)
                 (A) (A) (A) (A) (A) (A) (A) (A) (A) (A) (A) (A)
                 (A) (A) (A) (A) (A) (A) (A) (A) (A) (A) (A) (A)
                 (A) (A) (A) (A) (A) (A) (A) (A) (A) (A) (A) (A)
                 (A) (A) (A) (A) (A) (A) (A) (A) (A) (A) (A) (A)
                 (A) (A) (A) (A) (A) (A) (A) (A) (A) (A) (A) (A)
                 (A) (A) (A) (A) (A) (A) (A) (A) (A) (A) (A) (A)
                 (A) (A) (A) (A) (A) (A) (A) (A) (A) (A) (A) (A)
                 (A) (A) (A) (A) (A) (A) (A) (A) (A) (A) (A) (A)
                 (A) (A) (A) (A) (A) (A) (A) (A) (A) (A) (A) (A)
                 (A) (A) (A) (A) (A) (A) (A) (A) (A) (A) (A) (A)
                 (A) (A) (A) (A) (A) (A) (A) (A) (A) (A) (A) (A)
                 (A) (A) (A) (A) (A) (A) (A) (A) (A) (A) (A) (A)
                 (A) (A) (A) (A) (A) (A)
 The electronic state is 1-A.
 Alpha  occ. eigenvalues --  -46.83209 -19.27040 -19.26160 -19.20513 -19.20423
 Alpha  occ. eigenvalues --  -19.18796 -14.41333 -14.39517 -14.38972 -14.38389
 Alpha  occ. eigenvalues --  -10.39195 -10.38836 -10.33975 -10.33267 -10.31476
 Alpha  occ. eigenvalues --  -10.31455 -10.31370 -10.30432 -10.29573 -10.29362
 Alpha  occ. eigenvalues --  -10.29072 -10.29002 -10.28765 -10.28733 -10.28685
 Alpha  occ. eigenvalues --  -10.28391 -10.28258 -10.28255 -10.28207 -10.28009
 Alpha  occ. eigenvalues --  -10.27913 -10.27840 -10.27802 -10.27728 -10.27499
 Alpha  occ. eigenvalues --  -10.27262 -10.27155 -10.27121 -10.26943 -10.26884
 Alpha  occ. eigenvalues --  -10.26771 -10.26754 -10.26698 -10.26547 -10.26531
 Alpha  occ. eigenvalues --  -10.26470 -10.26218 -10.26213 -10.26025 -10.26016
 Alpha  occ. eigenvalues --  -10.25812 -10.25777 -10.25668 -10.25663 -10.25621
 Alpha  occ. eigenvalues --  -10.25544 -10.25166 -10.24705 -10.24688 -10.24612
 Alpha  occ. eigenvalues --  -10.24245 -10.24210 -10.24092 -10.23816 -10.23587
 Alpha  occ. eigenvalues --   -3.12355  -1.87060  -1.86596  -1.86539  -1.19609
 Alpha  occ. eigenvalues --   -1.17781  -1.09936  -1.08308  -1.07144  -1.03898
 Alpha  occ. eigenvalues --   -1.03184  -1.02280  -1.01344  -0.94153  -0.92229
 Alpha  occ. eigenvalues --   -0.90822  -0.90304  -0.90232  -0.89727  -0.89478
 Alpha  occ. eigenvalues --   -0.88307  -0.88266  -0.87119  -0.86742  -0.85923
 Alpha  occ. eigenvalues --   -0.85539  -0.84796  -0.84165  -0.83095  -0.82430
 Alpha  occ. eigenvalues --   -0.82240  -0.81491  -0.80850  -0.79898  -0.78349
 Alpha  occ. eigenvalues --   -0.78196  -0.77597  -0.76631  -0.76279  -0.76036
 Alpha  occ. eigenvalues --   -0.75675  -0.75305  -0.74184  -0.73826  -0.72114
 Alpha  occ. eigenvalues --   -0.71617  -0.70763  -0.69869  -0.69617  -0.68249
 Alpha  occ. eigenvalues --   -0.66967  -0.66607  -0.65523  -0.65117  -0.65008
 Alpha  occ. eigenvalues --   -0.64633  -0.63842  -0.62755  -0.62460  -0.62362
 Alpha  occ. eigenvalues --   -0.61579  -0.61293  -0.60351  -0.59857  -0.58742
 Alpha  occ. eigenvalues --   -0.58422  -0.58133  -0.57904  -0.57261  -0.56307
 Alpha  occ. eigenvalues --   -0.56123  -0.55779  -0.55205  -0.55139  -0.54882
 Alpha  occ. eigenvalues --   -0.54554  -0.54331  -0.54232  -0.53796  -0.52798
 Alpha  occ. eigenvalues --   -0.52429  -0.52356  -0.52180  -0.52083  -0.52040
 Alpha  occ. eigenvalues --   -0.51834  -0.51154  -0.50920  -0.50815  -0.50647
 Alpha  occ. eigenvalues --   -0.50524  -0.50257  -0.49932  -0.49799  -0.49642
 Alpha  occ. eigenvalues --   -0.49378  -0.49176  -0.48890  -0.48857  -0.48672
 Alpha  occ. eigenvalues --   -0.48461  -0.47843  -0.47684  -0.47562  -0.47013
 Alpha  occ. eigenvalues --   -0.46804  -0.46545  -0.46414  -0.46093  -0.45888
 Alpha  occ. eigenvalues --   -0.45666  -0.45542  -0.45360  -0.45170  -0.44765
 Alpha  occ. eigenvalues --   -0.44631  -0.44284  -0.43973  -0.43951  -0.43764
 Alpha  occ. eigenvalues --   -0.43630  -0.43591  -0.43213  -0.43068  -0.42897
 Alpha  occ. eigenvalues --   -0.42527  -0.42462  -0.42221  -0.42037  -0.41903
 Alpha  occ. eigenvalues --   -0.41723  -0.41637  -0.41573  -0.41514  -0.41216
 Alpha  occ. eigenvalues --   -0.40707  -0.40582  -0.40524  -0.40481  -0.40384
 Alpha  occ. eigenvalues --   -0.39905  -0.39674  -0.39557  -0.39528  -0.38933
 Alpha  occ. eigenvalues --   -0.38797  -0.38751  -0.37858  -0.37792  -0.37705
 Alpha  occ. eigenvalues --   -0.37631  -0.37182  -0.37017  -0.36643  -0.36493
 Alpha  occ. eigenvalues --   -0.36339  -0.36140  -0.35941  -0.35834  -0.35676
 Alpha  occ. eigenvalues --   -0.35456  -0.34921  -0.34641  -0.34248  -0.33757
 Alpha  occ. eigenvalues --   -0.33621  -0.33139  -0.32050  -0.30943  -0.30793
 Alpha  occ. eigenvalues --   -0.29039  -0.28261  -0.27387  -0.27065  -0.23049
 Alpha  occ. eigenvalues --   -0.21524
 Alpha virt. eigenvalues --   -0.06429  -0.04005   0.01141   0.03343   0.05840
 Alpha virt. eigenvalues --    0.06413   0.06819   0.07041   0.07131   0.07356
 Alpha virt. eigenvalues --    0.08394   0.10077   0.10724   0.10754   0.11425
 Alpha virt. eigenvalues --    0.11499   0.11800   0.12110   0.12694   0.12890
 Alpha virt. eigenvalues --    0.12939   0.13322   0.13447   0.13538   0.13704
 Alpha virt. eigenvalues --    0.13911   0.14126   0.14266   0.14806   0.14889
 Alpha virt. eigenvalues --    0.15101   0.15366   0.15434   0.15820   0.15944
 Alpha virt. eigenvalues --    0.16130   0.16345   0.16381   0.16737   0.16997
 Alpha virt. eigenvalues --    0.17462   0.17964   0.17999   0.18030   0.18098
 Alpha virt. eigenvalues --    0.18450   0.18556   0.18667   0.18864   0.18952
 Alpha virt. eigenvalues --    0.19305   0.19387   0.19426   0.19629   0.19766
 Alpha virt. eigenvalues --    0.20024   0.20249   0.20371   0.20532   0.20978
 Alpha virt. eigenvalues --    0.21067   0.21373   0.21599   0.21878   0.22003
 Alpha virt. eigenvalues --    0.22107   0.22261   0.22546   0.22558   0.22739
 Alpha virt. eigenvalues --    0.22905   0.22946   0.23215   0.23397   0.23515
 Alpha virt. eigenvalues --    0.23684   0.23940   0.24014   0.24076   0.24411
 Alpha virt. eigenvalues --    0.24566   0.24741   0.25002   0.25010   0.25157
 Alpha virt. eigenvalues --    0.25522   0.25649   0.25911   0.26320   0.26494
 Alpha virt. eigenvalues --    0.26979   0.27143   0.27433   0.27495   0.27759
 Alpha virt. eigenvalues --    0.27881   0.28205   0.28231   0.28502   0.28809
 Alpha virt. eigenvalues --    0.28851   0.28925   0.28996   0.29150   0.29745
 Alpha virt. eigenvalues --    0.29819   0.30073   0.30231   0.30504   0.30661
 Alpha virt. eigenvalues --    0.30918   0.31213   0.31577   0.31628   0.31849
 Alpha virt. eigenvalues --    0.32221   0.32299   0.32376   0.32678   0.33168
 Alpha virt. eigenvalues --    0.33688   0.33869   0.34367   0.34823   0.35050
 Alpha virt. eigenvalues --    0.35364   0.35562   0.36430   0.36454   0.37014
 Alpha virt. eigenvalues --    0.37120   0.37545   0.37611   0.38754   0.39415
 Alpha virt. eigenvalues --    0.39700   0.39949   0.40359   0.40762   0.41718
 Alpha virt. eigenvalues --    0.42288   0.42324   0.42918   0.43002   0.43293
 Alpha virt. eigenvalues --    0.44414   0.44741   0.45078   0.45380   0.46150
 Alpha virt. eigenvalues --    0.47017   0.47078   0.48381   0.49659   0.49839
 Alpha virt. eigenvalues --    0.50278   0.50754   0.51143   0.52056   0.52376
 Alpha virt. eigenvalues --    0.53300   0.53416   0.54035   0.54237   0.54329
 Alpha virt. eigenvalues --    0.55035   0.55191   0.55344   0.55451   0.55612
 Alpha virt. eigenvalues --    0.55725   0.56143   0.56244   0.56320   0.56577
 Alpha virt. eigenvalues --    0.56769   0.57090   0.57420   0.57741   0.57903
 Alpha virt. eigenvalues --    0.57955   0.58427   0.58466   0.58681   0.58900
 Alpha virt. eigenvalues --    0.59182   0.59212   0.59405   0.59563   0.59977
 Alpha virt. eigenvalues --    0.60270   0.60521   0.60611   0.60851   0.60918
 Alpha virt. eigenvalues --    0.61464   0.61606   0.61964   0.62224   0.62361
 Alpha virt. eigenvalues --    0.62611   0.62881   0.63586   0.63721   0.63936
 Alpha virt. eigenvalues --    0.64237   0.64546   0.64931   0.65224   0.65371
 Alpha virt. eigenvalues --    0.65746   0.65825   0.66091   0.66528   0.66646
 Alpha virt. eigenvalues --    0.66813   0.67456   0.67644   0.68065   0.68124
 Alpha virt. eigenvalues --    0.68279   0.68484   0.68730   0.68752   0.69216
 Alpha virt. eigenvalues --    0.69370   0.69976   0.70119   0.70169   0.70592
 Alpha virt. eigenvalues --    0.70763   0.70929   0.71205   0.71268   0.71596
 Alpha virt. eigenvalues --    0.71746   0.72083   0.72240   0.72483   0.72676
 Alpha virt. eigenvalues --    0.72707   0.72954   0.73672   0.73819   0.73934
 Alpha virt. eigenvalues --    0.74289   0.74444   0.74593   0.74759   0.75040
 Alpha virt. eigenvalues --    0.75530   0.76083   0.76393   0.76560   0.76941
 Alpha virt. eigenvalues --    0.76978   0.77287   0.77522   0.77601   0.77932
 Alpha virt. eigenvalues --    0.78156   0.78694   0.78893   0.79185   0.79493
 Alpha virt. eigenvalues --    0.79529   0.79695   0.80078   0.80355   0.80500
 Alpha virt. eigenvalues --    0.80706   0.80861   0.81037   0.81316   0.81690
 Alpha virt. eigenvalues --    0.81869   0.82190   0.82202   0.82384   0.82642
 Alpha virt. eigenvalues --    0.82822   0.82972   0.83177   0.83651   0.83823
 Alpha virt. eigenvalues --    0.84144   0.84332   0.84675   0.84817   0.84967
 Alpha virt. eigenvalues --    0.85050   0.85380   0.85811   0.85907   0.86181
 Alpha virt. eigenvalues --    0.86220   0.86694   0.86928   0.87106   0.87219
 Alpha virt. eigenvalues --    0.87330   0.87651   0.88036   0.88270   0.88501
 Alpha virt. eigenvalues --    0.88793   0.89010   0.89126   0.89445   0.89754
 Alpha virt. eigenvalues --    0.89876   0.90045   0.90089   0.90254   0.90368
 Alpha virt. eigenvalues --    0.90504   0.90641   0.90933   0.91100   0.91142
 Alpha virt. eigenvalues --    0.91439   0.91667   0.91750   0.92079   0.92427
 Alpha virt. eigenvalues --    0.92665   0.92926   0.93161   0.93299   0.93384
 Alpha virt. eigenvalues --    0.93576   0.93606   0.94079   0.94178   0.94619
 Alpha virt. eigenvalues --    0.94803   0.94920   0.95115   0.95382   0.95751
 Alpha virt. eigenvalues --    0.95828   0.95991   0.96185   0.96552   0.96740
 Alpha virt. eigenvalues --    0.96906   0.97247   0.97474   0.97870   0.98128
 Alpha virt. eigenvalues --    0.98271   0.98497   0.98733   0.98994   0.99427
 Alpha virt. eigenvalues --    0.99761   0.99848   1.00085   1.00127   1.00578
 Alpha virt. eigenvalues --    1.00698   1.01280   1.01434   1.01630   1.01745
 Alpha virt. eigenvalues --    1.01857   1.01913   1.02295   1.02728   1.03005
 Alpha virt. eigenvalues --    1.03223   1.03286   1.03750   1.04188   1.04303
 Alpha virt. eigenvalues --    1.04490   1.04742   1.04827   1.05316   1.05426
 Alpha virt. eigenvalues --    1.05660   1.05793   1.06036   1.06280   1.06434
 Alpha virt. eigenvalues --    1.06665   1.07043   1.07199   1.07681   1.07931
 Alpha virt. eigenvalues --    1.08030   1.08404   1.08901   1.09017   1.09172
 Alpha virt. eigenvalues --    1.09287   1.09932   1.10523   1.10637   1.11027
 Alpha virt. eigenvalues --    1.11811   1.12449   1.12707   1.13150   1.13464
 Alpha virt. eigenvalues --    1.13681   1.13831   1.14385   1.14548   1.14877
 Alpha virt. eigenvalues --    1.14955   1.15375   1.16520   1.17224   1.17470
 Alpha virt. eigenvalues --    1.18219   1.18981   1.19594   1.20182   1.21022
 Alpha virt. eigenvalues --    1.21065   1.21413   1.22046   1.22148   1.22997
 Alpha virt. eigenvalues --    1.23479   1.23971   1.24117   1.24875   1.25594
 Alpha virt. eigenvalues --    1.25641   1.26266   1.27384   1.27801   1.27933
 Alpha virt. eigenvalues --    1.28430   1.28669   1.29183   1.30542   1.30816
 Alpha virt. eigenvalues --    1.31201   1.32064   1.32334   1.32440   1.33556
 Alpha virt. eigenvalues --    1.33995   1.34064   1.35130   1.35344   1.35536
 Alpha virt. eigenvalues --    1.35821   1.36092   1.36575   1.37127   1.37704
 Alpha virt. eigenvalues --    1.38083   1.38992   1.39641   1.40536   1.40588
 Alpha virt. eigenvalues --    1.41011   1.41489   1.41860   1.42147   1.42496
 Alpha virt. eigenvalues --    1.43035   1.44109   1.44381   1.44526   1.44821
 Alpha virt. eigenvalues --    1.45102   1.45960   1.46862   1.47069   1.47163
 Alpha virt. eigenvalues --    1.47442   1.48365   1.48890   1.49402   1.49860
 Alpha virt. eigenvalues --    1.50229   1.50588   1.50884   1.52344   1.52365
 Alpha virt. eigenvalues --    1.52837   1.52941   1.53915   1.54863   1.55272
 Alpha virt. eigenvalues --    1.55627   1.56435   1.56815   1.56831   1.57070
 Alpha virt. eigenvalues --    1.57694   1.58573   1.58653   1.59231   1.59317
 Alpha virt. eigenvalues --    1.59401   1.60068   1.60449   1.60517   1.60763
 Alpha virt. eigenvalues --    1.61286   1.61837   1.62028   1.62486   1.63301
 Alpha virt. eigenvalues --    1.63454   1.64255   1.64936   1.65354   1.65597
 Alpha virt. eigenvalues --    1.66177   1.66365   1.66566   1.66997   1.67178
 Alpha virt. eigenvalues --    1.67407   1.68758   1.68973   1.69084   1.69957
 Alpha virt. eigenvalues --    1.70315   1.70559   1.71070   1.71428   1.72002
 Alpha virt. eigenvalues --    1.72514   1.73071   1.73146   1.73716   1.74278
 Alpha virt. eigenvalues --    1.74353   1.74502   1.74807   1.75413   1.75767
 Alpha virt. eigenvalues --    1.75865   1.76621   1.76867   1.77590   1.78052
 Alpha virt. eigenvalues --    1.78185   1.78442   1.79464   1.79540   1.80476
 Alpha virt. eigenvalues --    1.80482   1.81227   1.81410   1.81786   1.82404
 Alpha virt. eigenvalues --    1.82593   1.83202   1.83446   1.83488   1.83579
 Alpha virt. eigenvalues --    1.83675   1.83972   1.84656   1.85102   1.85456
 Alpha virt. eigenvalues --    1.86015   1.86133   1.86809   1.86851   1.87179
 Alpha virt. eigenvalues --    1.87288   1.87524   1.87836   1.87995   1.88201
 Alpha virt. eigenvalues --    1.88361   1.88656   1.89080   1.89169   1.89420
 Alpha virt. eigenvalues --    1.89721   1.89884   1.90025   1.90115   1.90221
 Alpha virt. eigenvalues --    1.90720   1.91138   1.91306   1.91341   1.91804
 Alpha virt. eigenvalues --    1.91885   1.92342   1.92527   1.92698   1.93180
 Alpha virt. eigenvalues --    1.93218   1.93383   1.93690   1.93938   1.94167
 Alpha virt. eigenvalues --    1.94347   1.94707   1.95044   1.95247   1.95475
 Alpha virt. eigenvalues --    1.95679   1.95766   1.96281   1.96746   1.96861
 Alpha virt. eigenvalues --    1.97380   1.97712   1.97783   1.98220   1.98405
 Alpha virt. eigenvalues --    1.98758   1.98898   1.99190   1.99367   1.99587
 Alpha virt. eigenvalues --    1.99854   2.00171   2.00297   2.00506   2.00761
 Alpha virt. eigenvalues --    2.00978   2.01251   2.01528   2.01726   2.02364
 Alpha virt. eigenvalues --    2.02436   2.02599   2.02934   2.03136   2.03784
 Alpha virt. eigenvalues --    2.04270   2.04763   2.04860   2.05217   2.05416
 Alpha virt. eigenvalues --    2.05688   2.06073   2.06370   2.06450   2.06746
 Alpha virt. eigenvalues --    2.07453   2.07931   2.08036   2.08257   2.08561
 Alpha virt. eigenvalues --    2.08707   2.09307   2.09375   2.09847   2.10339
 Alpha virt. eigenvalues --    2.10690   2.11082   2.11396   2.11607   2.11648
 Alpha virt. eigenvalues --    2.11880   2.12075   2.12148   2.12687   2.12866
 Alpha virt. eigenvalues --    2.13405   2.13855   2.13935   2.14158   2.15020
 Alpha virt. eigenvalues --    2.15682   2.15780   2.16038   2.16322   2.16331
 Alpha virt. eigenvalues --    2.17016   2.17160   2.17354   2.17458   2.17670
 Alpha virt. eigenvalues --    2.17766   2.18658   2.18834   2.19327   2.19602
 Alpha virt. eigenvalues --    2.19704   2.19781   2.20180   2.20227   2.20665
 Alpha virt. eigenvalues --    2.21017   2.21634   2.22031   2.22272   2.22366
 Alpha virt. eigenvalues --    2.22975   2.23105   2.23368   2.23549   2.23842
 Alpha virt. eigenvalues --    2.24258   2.24886   2.25893   2.25944   2.26220
 Alpha virt. eigenvalues --    2.26939   2.27028   2.27390   2.27888   2.28572
 Alpha virt. eigenvalues --    2.28898   2.29335   2.29689   2.29982   2.30424
 Alpha virt. eigenvalues --    2.30884   2.31322   2.31876   2.31926   2.32857
 Alpha virt. eigenvalues --    2.32901   2.33481   2.33643   2.33725   2.33986
 Alpha virt. eigenvalues --    2.34525   2.34727   2.35353   2.35473   2.35884
 Alpha virt. eigenvalues --    2.36049   2.36114   2.36329   2.36475   2.36541
 Alpha virt. eigenvalues --    2.37252   2.37405   2.37502   2.37692   2.37906
 Alpha virt. eigenvalues --    2.38355   2.38584   2.38659   2.39090   2.39339
 Alpha virt. eigenvalues --    2.39758   2.39912   2.40087   2.40379   2.40728
 Alpha virt. eigenvalues --    2.40909   2.41433   2.42118   2.42500   2.42779
 Alpha virt. eigenvalues --    2.43181   2.43294   2.43371   2.43656   2.43895
 Alpha virt. eigenvalues --    2.44165   2.44608   2.44680   2.45393   2.45561
 Alpha virt. eigenvalues --    2.45815   2.46094   2.46151   2.46413   2.46496
 Alpha virt. eigenvalues --    2.47208   2.47231   2.47553   2.47856   2.48158
 Alpha virt. eigenvalues --    2.48730   2.49190   2.49255   2.49631   2.49988
 Alpha virt. eigenvalues --    2.50233   2.50395   2.50525   2.50869   2.51442
 Alpha virt. eigenvalues --    2.52109   2.52214   2.52591   2.53208   2.53252
 Alpha virt. eigenvalues --    2.53639   2.53905   2.54392   2.54528   2.54846
 Alpha virt. eigenvalues --    2.55131   2.55752   2.56072   2.56268   2.56813
 Alpha virt. eigenvalues --    2.57648   2.58077   2.58596   2.58764   2.58835
 Alpha virt. eigenvalues --    2.59431   2.59756   2.59940   2.60077   2.60314
 Alpha virt. eigenvalues --    2.60597   2.60992   2.61247   2.61787   2.62300
 Alpha virt. eigenvalues --    2.62487   2.62994   2.63425   2.63759   2.63845
 Alpha virt. eigenvalues --    2.63915   2.64150   2.64488   2.64809   2.65560
 Alpha virt. eigenvalues --    2.65849   2.65915   2.66581   2.67090   2.67293
 Alpha virt. eigenvalues --    2.67718   2.67822   2.68232   2.68351   2.69411
 Alpha virt. eigenvalues --    2.69931   2.70211   2.70498   2.71049   2.71565
 Alpha virt. eigenvalues --    2.71834   2.72216   2.72428   2.72807   2.73453
 Alpha virt. eigenvalues --    2.73491   2.73790   2.74207   2.74269   2.74534
 Alpha virt. eigenvalues --    2.74709   2.75582   2.75912   2.76067   2.76508
 Alpha virt. eigenvalues --    2.76732   2.77294   2.77329   2.77553   2.78277
 Alpha virt. eigenvalues --    2.78531   2.79216   2.79528   2.79748   2.80352
 Alpha virt. eigenvalues --    2.80454   2.80616   2.80698   2.81137   2.81370
 Alpha virt. eigenvalues --    2.81745   2.81771   2.82479   2.82713   2.83014
 Alpha virt. eigenvalues --    2.83208   2.83481   2.83691   2.84004   2.84648
 Alpha virt. eigenvalues --    2.84927   2.85321   2.85706   2.86273   2.86682
 Alpha virt. eigenvalues --    2.86783   2.87249   2.87448   2.87774   2.88085
 Alpha virt. eigenvalues --    2.88551   2.88857   2.89204   2.89494   2.90760
 Alpha virt. eigenvalues --    2.91183   2.91490   2.92187   2.92234   2.92545
 Alpha virt. eigenvalues --    2.93085   2.93648   2.94218   2.94347   2.94623
 Alpha virt. eigenvalues --    2.94771   2.94785   2.95038   2.95937   2.96206
 Alpha virt. eigenvalues --    2.96376   2.96758   2.97657   2.97880   2.98028
 Alpha virt. eigenvalues --    2.98075   2.98312   2.98657   2.99038   2.99198
 Alpha virt. eigenvalues --    2.99296   2.99850   3.00141   3.00701   3.01486
 Alpha virt. eigenvalues --    3.01778   3.01923   3.02459   3.02785   3.03484
 Alpha virt. eigenvalues --    3.04299   3.04656   3.04818   3.05045   3.06276
 Alpha virt. eigenvalues --    3.06815   3.07287   3.07318   3.08280   3.09140
 Alpha virt. eigenvalues --    3.09485   3.09799   3.10320   3.10503   3.10969
 Alpha virt. eigenvalues --    3.11133   3.11809   3.12393   3.13237   3.14112
 Alpha virt. eigenvalues --    3.14429   3.15024   3.17001   3.17455   3.19264
 Alpha virt. eigenvalues --    3.19725   3.20014   3.20188   3.20823   3.21636
 Alpha virt. eigenvalues --    3.21947   3.22810   3.23206   3.23990   3.25129
 Alpha virt. eigenvalues --    3.27309   3.27381   3.27764   3.28193   3.28799
 Alpha virt. eigenvalues --    3.28859   3.29682   3.30322   3.30999   3.32395
 Alpha virt. eigenvalues --    3.32554   3.33465   3.34267   3.34528   3.34735
 Alpha virt. eigenvalues --    3.36928   3.37817   3.38545   3.38888   3.39372
 Alpha virt. eigenvalues --    3.39528   3.40395   3.40677   3.41627   3.41814
 Alpha virt. eigenvalues --    3.42071   3.42864   3.43256   3.43632   3.44219
 Alpha virt. eigenvalues --    3.44955   3.45899   3.46035   3.47704   3.48207
 Alpha virt. eigenvalues --    3.48764   3.48842   3.51275   3.51422   3.54290
 Alpha virt. eigenvalues --    3.54485   3.54564   3.55368   3.55811   3.56341
 Alpha virt. eigenvalues --    3.57444   3.57670   3.58477   3.59500   3.60619
 Alpha virt. eigenvalues --    3.61300   3.61406   3.61962   3.62238   3.62294
 Alpha virt. eigenvalues --    3.62581   3.64026   3.64541   3.66043   3.69491
 Alpha virt. eigenvalues --    3.71767   3.73027   3.75816   3.76495   3.80226
 Alpha virt. eigenvalues --    3.82653   3.85364   3.91333   4.09464   4.10261
 Alpha virt. eigenvalues --    4.14596   4.16340   4.20106   4.21925   4.22816
 Alpha virt. eigenvalues --    4.24699   4.24809   4.26211   4.27705   4.28354
 Alpha virt. eigenvalues --    4.29661   4.30882   4.31442   4.32114   4.33156
 Alpha virt. eigenvalues --    4.35584   4.35901   4.36383   4.38100   4.38848
 Alpha virt. eigenvalues --    4.39411   4.41528   4.41905   4.42330   4.42600
 Alpha virt. eigenvalues --    4.46802   4.47105   4.47468   4.48660   4.49718
 Alpha virt. eigenvalues --    4.50855   4.50998   4.51699   4.52845   4.53317
 Alpha virt. eigenvalues --    4.56472   4.58609   4.59077   4.59774   4.61201
 Alpha virt. eigenvalues --    4.61415   4.61486   4.62452   4.64023   4.66206
 Alpha virt. eigenvalues --    4.67231   4.69483   4.70464   4.72925   4.73319
 Alpha virt. eigenvalues --    4.74566   4.75057   4.76071   4.79232   4.81942
 Alpha virt. eigenvalues --    4.84881   4.85622   4.86856   4.88719   4.89491
 Alpha virt. eigenvalues --    4.90707   4.94590   5.03604
          Condensed to atoms (all electrons):
 Mulliken charges:
               1
     1  Mg   0.805177
     2  C    0.119385
     3  C   -0.211892
     4  C   -0.144408
     5  C   -0.169531
     6  N   -0.655455
     7  C    0.318753
     8  C   -0.192675
     9  C   -0.166228
    10  C    0.331700
    11  C   -0.304549
    12  C   -0.156883
    13  C   -0.260484
    14  C    0.599249
    15  O   -0.483966
    16  O   -0.476952
    17  N   -0.689444
    18  C    0.306823
    19  C    0.070587
    20  C    0.031354
    21  C    0.262186
    22  C   -0.386098
    23  C   -0.136537
    24  C   -0.210052
    25  N   -0.654757
    26  C    0.295637
    27  C    0.059459
    28  C   -0.006075
    29  C    0.264693
    30  C   -0.361436
    31  C   -0.223905
    32  C   -0.295085
    33  N   -0.750190
    34  C    0.275335
    35  C    0.070101
    36  C    0.012346
    37  C    0.311131
    38  C   -0.378804
    39  C    0.330684
    40  O   -0.507405
    41  C   -0.363616
    42  C    0.649744
    43  O   -0.485206
    44  O   -0.448614
    45  C   -0.093959
    46  C    0.012495
    47  C   -0.087877
    48  C    0.115669
    49  C   -0.336597
    50  C   -0.213195
    51  C   -0.151547
    52  C   -0.179506
    53  C   -0.051064
    54  C   -0.323724
    55  C   -0.157887
    56  C   -0.197309
    57  C   -0.181222
    58  C   -0.063574
    59  C   -0.308544
    60  C   -0.167081
    61  C   -0.180867
    62  C   -0.162149
    63  C   -0.051769
    64  C   -0.303882
    65  C   -0.311686
    66  H    0.090536
    67  H    0.080207
    68  H    0.094957
    69  H    0.120948
    70  H    0.106203
    71  H    0.110380
    72  H    0.122570
    73  H    0.132785
    74  H    0.134666
    75  H    0.107968
    76  H    0.137426
    77  H    0.137297
    78  H    0.140233
    79  H    0.097653
    80  H    0.097241
    81  H    0.120001
    82  H    0.072636
    83  H    0.107859
    84  H    0.109293
    85  H    0.107259
    86  H    0.080773
    87  H    0.107996
    88  H    0.088657
    89  H    0.111944
    90  H    0.098134
    91  H    0.114554
    92  H    0.115512
    93  H    0.155978
    94  H    0.086747
    95  H    0.163145
    96  H    0.142990
    97  H    0.151190
    98  H    0.144508
    99  H    0.104566
   100  H    0.118730
   101  H    0.073865
   102  H    0.091096
   103  H    0.128798
   104  H    0.112259
   105  H    0.086449
   106  H    0.061674
   107  H    0.044631
   108  H    0.107059
   109  H    0.106598
   110  H    0.102591
   111  H    0.074133
   112  H    0.117647
   113  H    0.101360
   114  H    0.089986
   115  H    0.099859
   116  H    0.103033
   117  H    0.090854
   118  H    0.078277
   119  H    0.095577
   120  H    0.083587
   121  H    0.066992
   122  H    0.062321
   123  H    0.114982
   124  H    0.115428
   125  H    0.085760
   126  H    0.087927
   127  H    0.084060
   128  H    0.104586
   129  H    0.055453
   130  H    0.091103
   131  H    0.082862
   132  H    0.115460
   133  H    0.075276
   134  H    0.093152
   135  H    0.091736
   136  H    0.111361
   137  H    0.099848
 Sum of Mulliken charges =   0.00000
 Mulliken charges with hydrogens summed into heavy atoms:
               1
     1  Mg   0.805177
     2  C    0.119385
     3  C   -0.121357
     4  C   -0.064201
     5  C   -0.074574
     6  N   -0.655455
     7  C    0.318753
     8  C   -0.071728
     9  C   -0.060024
    10  C    0.331700
    11  C    0.061186
    12  C    0.085751
    13  C    0.014239
    14  C    0.599249
    15  O   -0.483966
    16  O   -0.476952
    17  N   -0.689444
    18  C    0.306823
    19  C    0.070587
    20  C    0.031354
    21  C    0.262186
    22  C   -0.050971
    23  C   -0.016536
    24  C   -0.029557
    25  N   -0.654757
    26  C    0.295637
    27  C    0.059459
    28  C   -0.006075
    29  C    0.264693
    30  C   -0.064112
    31  C   -0.027252
    32  C    0.029547
    33  N   -0.750190
    34  C    0.275335
    35  C    0.070101
    36  C    0.012346
    37  C    0.311131
    38  C   -0.020567
    39  C    0.330684
    40  O   -0.507405
    41  C   -0.200472
    42  C    0.649744
    43  O   -0.485206
    44  O   -0.448614
    45  C    0.344729
    46  C    0.235791
    47  C   -0.014012
    48  C    0.115669
    49  C   -0.004444
    50  C   -0.065072
    51  C    0.000143
    52  C    0.029683
    53  C    0.023068
    54  C   -0.014731
    55  C    0.045005
    56  C   -0.028178
    57  C   -0.002058
    58  C    0.003418
    59  C   -0.015812
    60  C    0.006606
    61  C    0.007779
    62  C   -0.015592
    63  C    0.031092
    64  C   -0.019994
    65  C   -0.008741
 Electronic spatial extent (au):  <R**2>=         180156.9378
 Charge=              0.0000 electrons
 Dipole moment (field-independent basis, Debye):
    X=              3.2650    Y=              4.3258    Z=              1.1405  Tot=              5.5384
 Quadrupole moment (field-independent basis, Debye-Ang):
   XX=           -371.7322   YY=           -387.9443   ZZ=           -396.5684
   XY=            -17.5991   XZ=             12.4784   YZ=             -9.0521
 Traceless Quadrupole moment (field-independent basis, Debye-Ang):
   XX=             13.6828   YY=             -2.5294   ZZ=            -11.1534
   XY=            -17.5991   XZ=             12.4784   YZ=             -9.0521
 Octapole moment (field-independent basis, Debye-Ang**2):
  XXX=           -306.3457  YYY=            127.8028  ZZZ=             32.1202  XYY=            -42.1294
  XXY=             82.3433  XXZ=           -166.8053  XZZ=             13.9416  YZZ=            -51.0976
  YYZ=             60.1058  XYZ=            -17.6316
 Hexadecapole moment (field-independent basis, Debye-Ang**3):
 XXXX=        -222838.0637 YYYY=         -17093.2019 ZZZZ=          -4126.9693 XXXY=            263.9671
 XXXZ=           2498.6756 YYYX=          -1158.5212 YYYZ=           -441.1570 ZZZX=            -55.9660
 ZZZY=           -216.7313 XXYY=         -40872.9356 XXZZ=         -39169.7272 YYZZ=          -3317.2859
 XXYZ=            -81.1564 YYXZ=             56.9360 ZZXY=            176.0195
 N-N= 8.755184590588D+03 E-N=-2.433319879744D+04  KE= 2.905726186052D+03
 1\1\GINC-PEDRO-RYZENSSD\SP\RCAM-B3LYP TD-FC\6-31G(d,p)\C55H72Mg1N4O5\P
 ADAWAN\05-Jul-2019\0\\# td=(NStates=1) CAM-B3LYP/6-31G(d,p)\\TD\\0,1\M
 g,0,-7.1535759306,0.5713458827,0.0996376512\C,0,-4.8335779758,-2.02918
 40968,0.467713304\C,0,-4.7763375627,2.8298414314,1.0965560205\C,0,-9.3
 649612316,2.998165312,-0.5425371134\C,0,-9.6068710008,-1.7890544164,-0
 .7985862877\N,0,-5.1325266773,0.3852983479,0.6991903373\C,0,-4.3600557
 117,-0.7652263446,0.7092589491\C,0,-2.9452535308,-0.435412967,1.130323
 3865\C,0,-3.0681802564,1.0283655049,1.6620769384\C,0,-4.4342904239,1.4
 870394527,1.1620732372\C,0,-2.8313282149,1.2922415123,3.2497763865\C,0
 ,-1.861629624,-0.6177170331,0.0415181101\C,0,-0.4163590585,-0.38891323
 85,0.5708412134\C,0,0.6060217394,-0.7131248254,-0.5253779183\O,0,0.343
 9056307,-1.1967150791,-1.6248988216\O,0,1.8637481853,-0.3961770141,-0.
 1497017591\N,0,-7.1279332412,2.6082464144,0.2860172972\C,0,-6.01473075
 21,3.3837193477,0.704293963\C,0,-6.41296855,4.7947737668,0.8249931865\
 C,0,-7.7513478418,4.8610367352,0.3954479361\C,0,-8.1902632979,3.457724
 9678,0.0598185282\C,0,-5.6408720439,5.9217646424,1.1493896995\C,0,-8.6
 145392515,5.9592469584,0.1965866441\C,0,-8.4719110824,7.1355996786,0.8
 721834681\N,0,-9.0827505477,0.659048766,-0.585382572\C,0,-9.8973259923
 ,1.6773476879,-0.6459009142\C,0,-11.1623053271,1.4617245116,-1.1204737
 669\C,0,-11.2116335673,0.0266780319,-1.2794866627\C,0,-9.9803537161,-0
 .4292048948,-0.9042554416\C,0,-12.342873111,2.393849956,-1.352792054\C
 ,0,-12.4145960059,-0.7734947596,-1.6806588744\C,0,-12.3616636548,-1.22
 53449457,-3.1561607347\N,0,-7.3001294812,-1.3926688805,-0.156550332\C,
 0,-8.320262266,-2.2677219443,-0.4583807933\C,0,-7.8150976554,-3.609469
 2144,-0.5793852158\C,0,-6.4382777119,-3.5018745245,-0.2105127832\C,0,-
 6.1400566021,-2.1328415655,0.0001628205\C,0,-8.6288003474,-4.753118154
 2,-0.8515436328\C,0,-5.2915336237,-4.2880226858,0.0733102036\O,0,-5.27
 07159095,-5.5553400174,0.1383008608\C,0,-4.1925828377,-3.2856443542,0.
 5171615815\C,0,-3.605431174,-3.6106862899,1.8794983227\O,0,-3.82052365
 3,-2.9595626925,2.863529034\O,0,-2.8123824319,-4.612996022,1.749343515
 3\C,0,-2.1821688048,-5.1861728464,3.0059755331\C,0,2.9194044521,-0.559
 15371,-1.1112623266\C,0,4.1718392729,-0.3230404803,-0.4286030093\C,0,5
 .0680502894,0.4690431697,-0.8518849612\C,0,4.9946778908,1.2544780971,-
 2.1168158469\C,0,6.5114154743,0.5440562558,-0.215888074\C,0,7.65133267
 12,-0.1334436913,-1.0035173022\C,0,8.9823501076,-0.1311282432,-0.10107
 192\C,0,10.2180524297,-0.4499120629,-0.837064677\C,0,10.1945261528,-1.
 9611070468,-1.4307465397\C,0,11.4105139283,-0.1727510559,0.0579166603\
 C,0,12.7709420019,-0.5084348946,-0.6166616891\C,0,13.9483243008,-0.116
 2828311,0.2522922967\C,0,15.348160941,-0.2878625154,-0.4013183716\C,0,
 15.6362052894,-1.8792755614,-0.7252621439\C,0,16.4426283687,0.38629298
 93,0.4545299602\C,0,17.7939439838,0.5755089493,-0.2131671313\C,0,18.93
 61639859,1.1979680138,0.6705374867\C,0,20.2590545747,1.3534656801,0.13
 5788342\C,0,20.307282082,2.0259108883,-1.2420651992\C,0,21.2189428251,
 2.0279557319,1.1467100344\H,0,-3.9001114956,3.4574112625,1.36693128\H,
 0,-10.0080611988,3.8287137064,-0.4751529068\H,0,-10.3726205515,-2.5074
 000808,-1.0418908413\H,0,-2.7920556625,-1.2681151254,1.8817988711\H,0,
 -2.4528488901,1.6188254651,0.9920498554\H,0,-1.6859030478,1.0433447874
 ,3.3288365972\H,0,-3.3973647965,2.2633203895,3.5095031157\H,0,-3.35884
 93276,0.354990183,3.7132337362\H,0,-1.987211206,-1.5180917696,-0.51007
 49167\H,0,-2.129824655,0.3142186723,-0.4790079404\H,0,-0.1882523426,0.
 4741920331,1.0080712062\H,0,-0.118169619,-1.0143459498,1.3554294981\H,
 0,-5.771115887,6.7202706712,0.5810338126\H,0,-5.3630132907,6.357019065
 ,2.3015464517\H,0,-4.6177557316,5.4806492313,0.806403816\H,0,-9.290351
 0876,6.2464507932,-0.6482250507\H,0,-9.2167428902,7.8730980487,0.31886
 1508\H,0,-7.7584253083,7.5052969292,1.4717955651\H,0,-12.3064147466,3.
 096119938,-2.3173247372\H,0,-13.3721368829,1.839427834,-1.5077319647\H
 ,0,-12.4378955207,3.2576644211,-0.3640076448\H,0,-12.2476095394,-1.503
 4197871,-0.9299479497\H,0,-13.3598147004,-0.0776044972,-1.5118867162\H
 ,0,-13.2186882214,-1.6944341296,-3.7179616807\H,0,-12.1167952437,-0.11
 52460622,-3.499703466\H,0,-11.4324695263,-1.7657114382,-3.2422628463\H
 ,0,-8.5341830213,-4.8313438773,-2.0859918633\H,0,-8.2558649513,-5.7159
 215964,-0.3600356166\H,0,-9.8897988648,-4.5317882001,-0.6475965823\H,0
 ,-3.3584965456,-3.6598992406,-0.2440496765\H,0,-1.7246106276,-4.350761
 5159,3.4839713124\H,0,-2.9333129399,-5.5066022778,3.6607489138\H,0,-1.
 6001581273,-5.9797372469,2.7359675497\H,0,2.8687661807,-1.7584976857,-
 1.5385478198\H,0,2.762883766,0.192583538,-1.9418773399\H,0,4.449325838
 2,-1.1015823734,0.5471379298\H,0,3.9398429478,1.2480135118,-2.49495786
 55\H,0,5.0841438261,2.1382440833,-2.0016166299\H,0,5.7614234499,0.8186
 629738,-2.9432730583\H,0,6.8132933922,1.6663906391,-0.3607934365\H,0,6
 .5522593453,0.0404960122,0.9871784345\H,0,7.2184592306,-1.3276820034,-
 1.3895202756\H,0,7.7764000759,0.4282460327,-1.8370966333\H,0,8.9629883
 504,0.8421821032,0.3295305853\H,0,8.6256810568,-0.6953450407,0.7601438
 781\H,0,10.2749550469,0.209413479,-1.8297678663\H,0,9.3397089564,-2.24
 17621527,-2.0084067655\H,0,11.1570582615,-2.4098277667,-1.9163058745\H
 ,0,9.9154644324,-2.6083627783,-0.5285722969\H,0,11.7389115721,0.668429
 0731,0.5113426218\H,0,11.3714401974,-0.7612720885,0.8929299146\H,0,12.
 8706303819,-1.5106592271,-1.1231499826\H,0,12.8686206146,0.1689375848,
 -1.5506484261\H,0,13.8253239691,0.976700226,0.4148388269\H,0,14.043367
 0898,-0.6978193866,1.2640729238\H,0,15.4511884073,0.1887483598,-1.4712
 114791\H,0,15.6027777207,-2.4505553476,0.3281213582\H,0,14.801323183,-
 2.1768600616,-1.1265800731\H,0,16.6165812875,-2.1360591308,-1.05247671
 72\H,0,16.0685820589,1.3615439881,0.7620727516\H,0,16.4918036276,-0.09
 23884139,1.4318759488\H,0,18.2821891576,-0.4279793453,-0.3453978802\H,
 0,17.7630333678,1.0537026892,-1.1275363294\H,0,18.5714279354,2.2634805
 058,1.0425122565\H,0,19.0625534156,0.6183060116,1.5619761979\H,0,20.70
 66555783,0.3633424824,-0.0396669027\H,0,19.9471088175,2.9071642783,-1.
 2663902324\H,0,21.3910333554,2.3206787207,-1.4699583591\H,0,19.9408979
 942,1.3647182826,-2.1149484638\H,0,21.0780037756,1.4932074298,2.118211
 4383\H,0,22.1776894752,1.9888501147,0.7612610924\H,0,20.8045601859,2.9
 65576641,1.5717376143\\Version=ES64L-G09RevD.01\State=1-A\HF=-2932.536
 4684\RMSD=5.784e-09\PG=C01 [X(C55H72Mg1N4O5)]\\@


    THE DOUGHNUT CREED
 AS YOU RAMBLE ON THROUGH LIFE, BROTHER
 WHATEVER BE YOUR GOAL
 KEEP YOUR EYE UPON THE DOUGHNUT
 AND NOT UPON THE HOLE.
 Job cpu time:       0 days  6 hours 10 minutes 34.1 seconds.
 File lengths (MBytes):  RWF=   2106 Int=      0 D2E=      0 Chk=    163 Scr=      1
 Normal termination of Gaussian 09 at Fri Jul  5 07:41:32 2019.
