 Entering Gaussian System, Link 0=g16
 Input=Geometria-367-.com
 Output=Geometria-367-.log
 Initial command:
 /usr/local/g16/l1.exe "/home/padawan/israel-mol/chlorophyll-a/spectra/emi/Gau-98848.inp" -scrdir="/home/padawan/israel-mol/chlorophyll-a/spectra/emi/"
 Entering Link 1 = /usr/local/g16/l1.exe PID=     98850.
  
 Copyright (c) 1988,1990,1992,1993,1995,1998,2003,2009,2016,
            Gaussian, Inc.  All Rights Reserved.
  
 This is part of the Gaussian(R) 16 program.  It is based on
 the Gaussian(R) 09 system (copyright 2009, Gaussian, Inc.),
 the Gaussian(R) 03 system (copyright 2003, Gaussian, Inc.),
 the Gaussian(R) 98 system (copyright 1998, Gaussian, Inc.),
 the Gaussian(R) 94 system (copyright 1995, Gaussian, Inc.),
 the Gaussian 92(TM) system (copyright 1992, Gaussian, Inc.),
 the Gaussian 90(TM) system (copyright 1990, Gaussian, Inc.),
 the Gaussian 88(TM) system (copyright 1988, Gaussian, Inc.),
 the Gaussian 86(TM) system (copyright 1986, Carnegie Mellon
 University), and the Gaussian 82(TM) system (copyright 1983,
 Carnegie Mellon University). Gaussian is a federally registered
 trademark of Gaussian, Inc.
  
 This software contains proprietary and confidential information,
 including trade secrets, belonging to Gaussian, Inc.
  
 This software is provided under written license and may be
 used, copied, transmitted, or stored only in accord with that
 written license.
  
 The following legend is applicable only to US Government
 contracts under FAR:
  
                    RESTRICTED RIGHTS LEGEND
  
 Use, reproduction and disclosure by the US Government is
 subject to restrictions as set forth in subparagraphs (a)
 and (c) of the Commercial Computer Software - Restricted
 Rights clause in FAR 52.227-19.
  
 Gaussian, Inc.
 340 Quinnipiac St., Bldg. 40, Wallingford CT 06492
  
  
 ---------------------------------------------------------------
 Warning -- This program may not be used in any manner that
 competes with the business of Gaussian, Inc. or will provide
 assistance to any competitor of Gaussian, Inc.  The licensee
 of this program is prohibited from giving any competitor of
 Gaussian, Inc. access to this program.  By using this program,
 the user acknowledges that Gaussian, Inc. is engaged in the
 business of creating and licensing software in the field of
 computational chemistry and represents and warrants to the
 licensee that it is not a competitor of Gaussian, Inc. and that
 it will not use this program in any manner prohibited above.
 ---------------------------------------------------------------
  

 Cite this work as:
 Gaussian 16, Revision A.03,
 M. J. Frisch, G. W. Trucks, H. B. Schlegel, G. E. Scuseria, 
 M. A. Robb, J. R. Cheeseman, G. Scalmani, V. Barone, 
 G. A. Petersson, H. Nakatsuji, X. Li, M. Caricato, A. V. Marenich, 
 J. Bloino, B. G. Janesko, R. Gomperts, B. Mennucci, H. P. Hratchian, 
 J. V. Ortiz, A. F. Izmaylov, J. L. Sonnenberg, D. Williams-Young, 
 F. Ding, F. Lipparini, F. Egidi, J. Goings, B. Peng, A. Petrone, 
 T. Henderson, D. Ranasinghe, V. G. Zakrzewski, J. Gao, N. Rega, 
 G. Zheng, W. Liang, M. Hada, M. Ehara, K. Toyota, R. Fukuda, 
 J. Hasegawa, M. Ishida, T. Nakajima, Y. Honda, O. Kitao, H. Nakai, 
 T. Vreven, K. Throssell, J. A. Montgomery, Jr., J. E. Peralta, 
 F. Ogliaro, M. J. Bearpark, J. J. Heyd, E. N. Brothers, K. N. Kudin, 
 V. N. Staroverov, T. A. Keith, R. Kobayashi, J. Normand, 
 K. Raghavachari, A. P. Rendell, J. C. Burant, S. S. Iyengar, 
 J. Tomasi, M. Cossi, J. M. Millam, M. Klene, C. Adamo, R. Cammi, 
 J. W. Ochterski, R. L. Martin, K. Morokuma, O. Farkas, 
 J. B. Foresman, and D. J. Fox, Gaussian, Inc., Wallingford CT, 2016.
 
 ******************************************
 Gaussian 16:  ES64L-G16RevA.03 25-Dec-2016
                16-Sep-2019 
 ******************************************
 %nproc=4
 Will use up to    4 processors via shared memory.
 %Mem=3GB
 ----------------------------------------------------------------------
 # td=(NStates=1) iop(3/107=0140000000,3/108=0140000000) CAM-B3LYP/6-31
 G(d,p)
 ----------------------------------------------------------------------
 1/38=1,172=1/1;
 2/12=2,17=6,18=5,40=1/2;
 3/5=1,6=6,7=101,11=9,25=1,30=1,74=-40,107=140000000,108=140000000/1,2,3,8;
 4//1;
 5/5=2,38=5/2;
 8/6=1,10=2,108=1/1;
 9/41=1,42=1,70=2/14;
 6/7=2,8=2,9=2,10=2/1;
 99/5=1,9=1/99;
 --
 TD
 --
 Symbolic Z-matrix:
 Charge =  0 Multiplicity = 1
 12                   -7.18403   0.67568   0.03363 
 6                    -4.91418  -1.9943    0.55519 
 6                    -4.73071   2.84813   1.17942 
 6                    -9.27781   3.08472  -0.497 
 6                    -9.54782  -1.71844  -0.8073 
 7                    -5.11917   0.44964   0.76583 
 6                    -4.39873  -0.68934   0.78176 
 6                    -2.96607  -0.47977   1.33414 
 6                    -3.10944   1.0505    1.83173 
 6                    -4.38253   1.49549   1.07749 
 6                    -3.04461   0.98119   3.37996 
 6                    -2.00801  -0.60349   0.08015 
 6                    -0.53886  -0.52472   0.60266 
 6                     0.53091  -0.64079  -0.58264 
 8                     0.25895  -0.77384  -1.76539 
 8                     1.81853  -0.53441  -0.00294 
 7                    -7.08314   2.65202   0.38698 
 6                    -5.95431   3.36252   0.71296 
 6                    -6.23338   4.81028   0.68337 
 6                    -7.60177   4.91193   0.22452 
 6                    -8.05424   3.5713    0.06236 
 6                    -5.43069   5.90275   1.27899 
 6                    -8.44984   6.03406   0.0586 
 6                    -8.13922   7.27345   0.64623 
 7                    -9.03897   0.73562  -0.57225 
 6                    -9.78719   1.7937   -0.74195 
 6                    -11.12191   1.46332  -1.18007 
 6                    -11.26107   0.13011  -1.23273 
 6                    -9.85428  -0.34203  -0.90039 
 6                    -12.22993   2.50653  -1.4374 
 6                    -12.34656  -0.72449  -1.72028 
 6                    -12.10533  -1.12752  -3.28001 
 7                    -7.22551  -1.40622  -0.25186 
 6                    -8.26979  -2.26683  -0.45945 
 6                    -7.87838  -3.61775  -0.51778 
 6                    -6.53349  -3.56875  -0.07572 
 6                    -6.1614   -2.22054   0.05194 
 6                    -8.8547   -4.84407  -0.9788 
 6                    -5.36362  -4.41286   0.1681 
 8                    -5.30553  -5.57626   0.2335 
 6                    -4.25094  -3.4281    0.5993 
 6                    -3.55659  -3.83489   1.88357 
 8                    -3.74336  -3.27222   2.95352 
 8                    -2.68924  -4.83751   1.6739 
 6                    -2.01269  -5.27009   2.92035 
 6                     2.75919  -0.67085  -1.09689 
 6                     4.09912  -0.49898  -0.50406 
 6                     5.03897   0.41589  -0.91115 
 6                     5.04779   1.17266  -2.08962 
 6                     6.37373   0.49634  -0.12034 
 6                     7.57126  -0.12202  -0.98432 
 6                     8.85636  -0.08916  -0.20196 
 6                     10.12649  -0.54391  -0.86174 
 6                     10.16333  -2.13345  -1.31248 
 6                     11.33623  -0.1837    0.07209 
 6                     12.69658  -0.49647  -0.63887 
 6                     13.90071  -0.15584   0.2036 
 6                     15.27905  -0.19401  -0.4257 
 6                     15.63088  -1.62335  -0.94118 
 6                     16.3894   0.50162   0.52112 
 6                     17.78825   0.59717  -0.07127 
 6                     18.80091   1.27682   0.71668 
 6                     20.13874   1.30839   0.03131 
 6                     20.28779   2.16685  -1.27208 
 6                     21.19795   1.87814   1.19617 
 1                    -3.94965   3.60396   1.40692 
 1                    -10.0418   3.85345  -0.43031 
 1                    -10.48475  -2.12925  -1.14037 
 1                    -2.61413  -1.12913   2.01811 
 1                    -2.17847   1.50959   1.29127 
 1                    -2.10865   0.53485   3.50514 
 1                    -2.90958   1.94492   3.69977 
 1                    -4.03141   0.42218   3.70859 
 1                    -2.26596  -1.54493  -0.47175 
 1                    -2.12049   0.19668  -0.65916 
 1                    -0.36598   0.39777   1.08838 
 1                    -0.16791  -1.25223   1.41954 
 1                    -5.64517   6.8458    0.61982 
 1                    -5.79401   6.1349    2.44492 
 1                    -4.28076   5.79266   1.32978 
 1                    -9.51252   6.08772  -0.46214 
 1                    -8.72786   8.12104   0.56472 
 1                    -7.04001   7.59623   0.96641 
 1                    -12.24723   2.80115  -2.6572 
 1                    -13.28005   2.02943  -1.40181 
 1                    -12.00517   3.3798   -0.59445 
 1                    -12.26917  -1.5926   -1.14902 
 1                    -13.44659  -0.29947  -1.62009 
 1                    -12.92523  -1.83108  -3.50828 
 1                    -11.94622  -0.18649  -3.68677 
 1                    -11.16325  -1.7717   -3.19757 
 1                    -9.05295  -4.66402  -2.00932 
 1                    -8.40676  -5.76643  -0.83025 
 1                    -9.74093  -4.67099  -0.60436 
 1                    -3.58119  -3.60347  -0.12995 
 1                    -1.30684  -4.34899   3.41105 
 1                    -2.7535   -5.75712   3.79139 
 1                    -1.21113  -6.04892   2.82617 
 1                     2.63887  -1.56306  -1.53965 
 1                     2.36955   0.16276  -1.73145 
 1                     4.33808  -1.07857   0.4257 
 1                     3.83877   1.37463  -2.18014 
 1                     5.5007    2.01481  -2.0432 
 1                     5.31311   0.67028  -3.06073 
 1                     6.61143   1.49111   0.08585 
 1                     6.34105  -0.15038   0.72994 
 1                     7.32778  -1.08488  -1.38046 
 1                     7.60078   0.42197  -1.94361 
 1                     8.90265   0.84118   0.25884 
 1                     8.72176  -0.58554   0.71336 
 1                     10.23892   0.15673  -1.83436 
 1                     9.40711  -2.11235  -1.98069 
 1                     10.98327  -2.23351  -1.97703 
 1                     10.20725  -2.8013   -0.37686 
 1                     11.38     1.12041   0.18275 
 1                     11.27688  -0.74174   0.91515 
 1                     12.91895  -1.56997  -0.90425 
 1                     12.83994   0.11614  -1.57474 
 1                     13.76527   0.85083   0.47902 
 1                     13.75325  -0.85489   0.988 
 1                     15.33111   0.36311  -1.31761 
 1                     15.82462  -2.16105   0.06394 
 1                     14.84502  -2.02875  -1.53854 
 1                     16.54693  -1.3779   -1.44513 
 1                     15.94098   1.50798   0.84653 
 1                     16.3212  -0.15924   1.5464 
 1                     18.1514  -0.41994  -0.31634 
 1                     17.58328   1.14689  -1.0392 
 1                     18.48405   2.24317   1.05328 
 1                     18.75141   0.69716   1.65303 
 1                     20.59217   0.28604  -0.09134 
 1                     20.14394   3.29946  -1.15578 
 1                     21.36471   1.72977  -1.59114 
 1                     19.54697   1.77596  -2.1514 
 1                     21.32966   1.23975   2.04305 
 1                     22.24654   1.84223   0.54246 
 1                     21.04141   3.01564   1.39523 
 
 Stoichiometry    C55H72MgN4O5
 Framework group  C1[X(C55H72MgN4O5)]
 Deg. of freedom   405
 Full point group                 C1      NOp   1
 Largest Abelian subgroup         C1      NOp   1
 Largest concise Abelian subgroup C1      NOp   1
                         Standard orientation:                         
 ---------------------------------------------------------------------
 Center     Atomic      Atomic             Coordinates (Angstroms)
 Number     Number       Type             X           Y           Z
 ---------------------------------------------------------------------
      1         12           0       -7.182831    0.685829    0.042630
      2          6           0       -4.916377   -1.992941    0.532923
      3          6           0       -4.726612    2.841673    1.213324
      4          6           0       -9.273551    3.103563   -0.459780
      5          6           0       -9.549774   -1.695318   -0.825806
      6          7           0       -5.118198    0.448648    0.771954
      7          6           0       -4.399228   -0.691368    0.774576
      8          6           0       -2.966253   -0.490069    1.329212
      9          6           0       -3.107610    1.034503    1.844554
     10          6           0       -4.380184    1.489861    1.095663
     11          6           0       -3.042734    0.947132    3.391872
     12          6           0       -2.008454   -0.600451    0.073777
     13          6           0       -0.539162   -0.529646    0.597021
     14          6           0        0.530351   -0.633325   -0.589656
     15          8           0        0.258121   -0.752281   -1.773850
     16          8           0        1.818162   -0.535346   -0.008886
     17          7           0       -7.079357    2.657803    0.418897
     18          6           0       -5.949584    3.363017    0.752991
     19          6           0       -6.226793    4.811379    0.740243
     20          6           0       -7.595097    4.920118    0.282743
     21          6           0       -8.049308    3.582046    0.105077
     22          6           0       -5.422642    5.895826    1.348431
     23          6           0       -8.441734    6.045191    0.129948
     24          6           0       -8.129465    7.277265    0.731903
     25          7           0       -9.037744    0.755194   -0.562330
     26          6           0       -9.784607    1.816138   -0.719650
     27          6           0      -11.119789    1.492580   -1.161450
     28          6           0      -11.260671    0.160257   -1.229575
     29          6           0       -9.854470   -0.317527   -0.902880
     30          6           0      -12.226494    2.540135   -1.406537
     31          6           0      -12.347306   -0.687224   -1.726906
     32          6           0      -12.106732   -1.072429   -3.291232
     33          7           0       -7.227011   -1.392552   -0.267010
     34          6           0       -8.272423   -2.249347   -0.484476
     35          6           0       -7.882758   -3.600009   -0.558534
     36          6           0       -6.537769   -3.557875   -0.116066
     37          6           0       -6.163930   -2.211719    0.027201
     38          6           0       -8.860694   -4.819632   -1.033665
     39          6           0       -5.368968   -4.406270    0.117819
     40          8           0       -5.312371   -5.570425    0.169696
     41          6           0       -4.254981   -3.428013    0.560311
     42          6           0       -3.561047   -3.850585    1.839707
     43          8           0       -3.746998   -3.300141    2.916132
     44          8           0       -2.695012   -4.851819    1.618313
     45          6           0       -2.018910   -5.299716    2.859591
     46          6           0        2.758554   -0.660275   -1.104448
     47          6           0        4.098754   -0.497027   -0.509796
     48          6           0        5.039746    0.421291   -0.906329
     49          6           0        5.049440    1.191691   -2.075932
     50          6           0        6.374680    0.490836   -0.114771
     51          6           0        7.571333   -0.118992   -0.985989
     52          6           0        8.856546   -0.096875   -0.203427
     53          6           0       10.126028   -0.545562   -0.868576
     54          6           0       10.160782   -2.129812   -1.337744
     55          6           0       11.336310   -0.197786    0.069254
     56          6           0       12.696195   -0.504027   -0.645427
     57          6           0       13.900838   -0.174756    0.200820
     58          6           0       15.279077   -0.207387   -0.429014
     59          6           0       15.629016   -1.631099   -0.961091
     60          6           0       16.390395    0.475765    0.525705
     61          6           0       17.789317    0.576394   -0.065676
     62          6           0       18.802924    1.245535    0.730020
     63          6           0       20.140731    1.283344    0.044924
     64          6           0       20.290781    2.156693   -1.248425
     65          6           0       21.200782    1.838163    1.216220
     66          1           0       -3.944555    3.593804    1.449507
     67          1           0      -10.036536    3.872451   -0.384087
     68          1           0      -10.487263   -2.101020   -1.163535
     69          1           0       -2.615088   -1.147787    2.005559
     70          1           0       -2.176092    1.498639    1.309372
     71          1           0       -2.107342    0.498165    3.511764
     72          1           0       -2.906432    1.906911    3.722833
     73          1           0       -4.030221    0.385611    3.714086
     74          1           0       -2.267669   -1.535085   -0.488990
     75          1           0       -2.119967    0.208388   -0.656184
     76          1           0       -0.365054    0.386913    1.093403
     77          1           0       -0.169076   -1.267070    1.405352
     78          1           0       -5.635966    6.846745    0.700282
     79          1           0       -5.785569    6.114885    2.517013
     80          1           0       -4.272859    5.783677    1.397829
     81          1           0       -9.504385    6.106261   -0.390021
     82          1           0       -8.717018    8.126507    0.660298
     83          1           0       -7.029812    7.594889    1.055696
     84          1           0      -12.243509    2.848925   -2.622830
     85          1           0      -13.277216    2.064012   -1.376377
     86          1           0      -12.000534    3.403266   -0.553522
     87          1           0      -12.270987   -1.562010   -1.165770
     88          1           0      -13.446777   -0.261984   -1.621673
     89          1           0      -12.927553   -1.772228   -3.527578
     90          1           0      -11.946437   -0.126938   -3.687052
     91          1           0      -11.165475   -1.718730   -3.216372
     92          1           0       -9.058802   -4.627374   -2.062001
     93          1           0       -8.413928   -5.744233   -0.895883
     94          1           0       -9.746669   -4.649766   -0.657153
     95          1           0       -3.585515   -3.595761   -0.170992
     96          1           0       -1.311835   -4.385281    3.360887
     97          1           0       -2.760274   -5.795867    3.724991
     98          1           0       -1.218363   -6.078424    2.756289
     99          1           0        2.637047   -1.547135   -1.557520
    100          1           0        2.369936    0.181148   -1.729247
    101          1           0        4.337049   -1.087683    0.413154
    102          1           0        3.840674    1.396253   -2.163975
    103          1           0        5.503437    2.032658   -2.019779
    104          1           0        5.314032    0.700274   -3.052836
    105          1           0        6.613675    1.482836    0.102935
    106          1           0        6.341237   -0.165675    0.727947
    107          1           0        7.326585   -1.076871   -1.393264
    108          1           0        7.601477    0.436065   -1.938897
    109          1           0        8.904067    0.827996    0.268136
    110          1           0        8.721376   -0.603673    0.706075
    111          1           0       10.239278    0.166178   -1.833002
    112          1           0        9.404534   -2.099978   -2.005587
    113          1           0       10.980534   -2.223199   -2.003498
    114          1           0       10.203924   -2.808541   -0.409944
    115          1           0       11.381772    1.104895    0.195044
    116          1           0       11.276310   -0.765494    0.905782
    117          1           0       12.917161   -1.574663   -0.923279
    118          1           0       12.840267    0.119221   -1.574134
    119          1           0       13.766716    0.828823    0.487931
    120          1           0       13.752547   -0.882678    0.977068
    121          1           0       15.331779    0.359984   -1.314404
    122          1           0       15.822146   -2.180679    0.037692
    123          1           0       14.842581   -2.028519   -1.563039
    124          1           0       16.545343   -1.380991   -1.462253
    125          1           0       15.943302    1.478858    0.862828
    126          1           0       16.321431   -0.196867    1.543254
    127          1           0       18.151141   -0.438270   -0.322576
    128          1           0       17.584973    1.137581   -1.027133
    129          1           0       18.487335    2.208318    1.077844
    130          1           0       18.752757    0.655114    1.659575
    131          1           0       20.592835    0.261904   -0.089638
    132          1           0       20.148400    3.288058   -1.118962
    133          1           0       21.367109    1.721962   -1.572642
    134          1           0       19.549385    1.776990   -2.132153
    135          1           0       21.331733    1.189812    2.055611
    136          1           0       22.249267    1.808502    0.562030
    137          1           0       21.045724    2.973473    1.428485
 ---------------------------------------------------------------------
 Rotational constants (GHZ):           0.0636067           0.0061238           0.0057603
 Standard basis: 6-31G(d,p) (6D, 7F)
 There are  1339 symmetry adapted cartesian basis functions of A   symmetry.
 There are  1339 symmetry adapted basis functions of A   symmetry.
  1339 basis functions,  2348 primitive gaussians,  1339 cartesian basis functions
   241 alpha electrons      241 beta electrons
       nuclear repulsion energy      8736.3446507635 Hartrees.
 NAtoms=  137 NActive=  137 NUniq=  137 SFac= 1.00D+00 NAtFMM=   60 NAOKFM=T Big=T
 Integral buffers will be    131072 words long.
 Raffenetti 1 integral format.
 Two-electron integral symmetry is turned on.
 One-electron integrals computed using PRISM.
 NBasis=  1339 RedAO= T EigKep=  3.84D-04  NBF=  1339
 NBsUse=  1339 1.00D-06 EigRej= -1.00D+00 NBFU=  1339
 ExpMin= 4.21D-02 ExpMax= 1.17D+04 ExpMxC= 1.76D+03 IAcc=3 IRadAn=         5 AccDes= 0.00D+00
 Harris functional with IExCor=20419 and IRadAn=       5 diagonalized for initial guess.
 HarFok:  IExCor=20419 AccDes= 0.00D+00 IRadAn=         5 IDoV= 1 UseB2=F ITyADJ=14
 ICtDFT=  3500011 ScaDFX=  1.000000  1.000000  1.000000  1.000000
 FoFCou: FMM=F IPFlag=           0 FMFlag=      100000 FMFlg1=        2001
         NFxFlg=           0 DoJE=T BraDBF=F KetDBF=T FulRan=T
         wScrn=  0.000000 ICntrl=       500 IOpCl=  0 I1Cent=   200000004 NGrid=           0
         NMat0=    1 NMatS0=      1 NMatT0=    0 NMatD0=    1 NMtDS0=    0 NMtDT0=    0
 Petite list used in FoFCou.
 Requested convergence on RMS density matrix=1.00D-08 within 128 cycles.
 Requested convergence on MAX density matrix=1.00D-06.
 Requested convergence on             energy=1.00D-06.
 No special actions if energy rises.
 SCF Done:  E(RCAM-B3LYP) =  -2933.47629530     A.U. after   16 cycles
            NFock= 16  Conv=0.42D-08     -V/T= 2.0093
 DoSCS=F DFT=T ScalE2(SS,OS)=  1.000000  1.000000
 ExpMin= 4.21D-02 ExpMax= 1.17D+04 ExpMxC= 1.76D+03 IAcc=3 IRadAn=         5 AccDes= 0.00D+00
 HarFok:  IExCor=  205 AccDes= 0.00D+00 IRadAn=         5 IDoV=-2 UseB2=F ITyADJ=14
 ICtDFT= 12500011 ScaDFX=  1.000000  1.000000  1.000000  1.000000
 GSVD:  LWork=       -5313 too small for GESVD, short by       24840 words or       24840 for optimal perf.
 Range of M.O.s used for correlation:    70  1339
 NBasis=  1339 NAE=   241 NBE=   241 NFC=    69 NFV=     0
 NROrb=   1270 NOA=   172 NOB=   172 NVA=  1098 NVB=  1098
 Orbital symmetries:
       Occupied  (A) (A) (A) (A) (A) (A) (A) (A) (A) (A) (A) (A)
                 (A) (A) (A) (A) (A) (A) (A) (A) (A) (A) (A) (A)
                 (A) (A) (A) (A) (A) (A) (A) (A) (A) (A) (A) (A)
                 (A) (A) (A) (A) (A) (A) (A) (A) (A) (A) (A) (A)
                 (A) (A) (A) (A) (A) (A) (A) (A) (A) (A) (A) (A)
                 (A) (A) (A) (A) (A) (A) (A) (A) (A) (A) (A) (A)
                 (A) (A) (A) (A) (A) (A) (A) (A) (A) (A) (A) (A)
                 (A) (A) (A) (A) (A) (A) (A) (A) (A) (A) (A) (A)
                 (A) (A) (A) (A) (A) (A) (A) (A) (A) (A) (A) (A)
                 (A) (A) (A) (A) (A) (A) (A) (A) (A) (A) (A) (A)
                 (A) (A) (A) (A) (A) (A) (A) (A) (A) (A) (A) (A)
                 (A) (A) (A) (A) (A) (A) (A) (A) (A) (A) (A) (A)
                 (A) (A) (A) (A) (A) (A) (A) (A) (A) (A) (A) (A)
                 (A) (A) (A) (A) (A) (A) (A) (A) (A) (A) (A) (A)
                 (A) (A) (A) (A) (A) (A) (A) (A) (A) (A) (A) (A)
                 (A) (A) (A) (A) (A) (A) (A) (A) (A) (A) (A) (A)
                 (A) (A) (A) (A) (A) (A) (A) (A) (A) (A) (A) (A)
                 (A) (A) (A) (A) (A) (A) (A) (A) (A) (A) (A) (A)
                 (A) (A) (A) (A) (A) (A) (A) (A) (A) (A) (A) (A)
                 (A) (A) (A) (A) (A) (A) (A) (A) (A) (A) (A) (A)
                 (A)
       Virtual   (A) (A) (A) (A) (A) (A) (A) (A) (A) (A) (A) (A)
                 (A) (A) (A) (A) (A) (A) (A) (A) (A) (A) (A) (A)
                 (A) (A) (A) (A) (A) (A) (A) (A) (A) (A) (A) (A)
                 (A) (A) (A) (A) (A) (A) (A) (A) (A) (A) (A) (A)
                 (A) (A) (A) (A) (A) (A) (A) (A) (A) (A) (A) (A)
                 (A) (A) (A) (A) (A) (A) (A) (A) (A) (A) (A) (A)
                 (A) (A) (A) (A) (A) (A) (A) (A) (A) (A) (A) (A)
                 (A) (A) (A) (A) (A) (A) (A) (A) (A) (A) (A) (A)
                 (A) (A) (A) (A) (A) (A) (A) (A) (A) (A) (A) (A)
                 (A) (A) (A) (A) (A) (A) (A) (A) (A) (A) (A) (A)
                 (A) (A) (A) (A) (A) (A) (A) (A) (A) (A) (A) (A)
                 (A) (A) (A) (A) (A) (A) (A) (A) (A) (A) (A) (A)
                 (A) (A) (A) (A) (A) (A) (A) (A) (A) (A) (A) (A)
                 (A) (A) (A) (A) (A) (A) (A) (A) (A) (A) (A) (A)
                 (A) (A) (A) (A) (A) (A) (A) (A) (A) (A) (A) (A)
                 (A) (A) (A) (A) (A) (A) (A) (A) (A) (A) (A) (A)
                 (A) (A) (A) (A) (A) (A) (A) (A) (A) (A) (A) (A)
                 (A) (A) (A) (A) (A) (A) (A) (A) (A) (A) (A) (A)
                 (A) (A) (A) (A) (A) (A) (A) (A) (A) (A) (A) (A)
                 (A) (A) (A) (A) (A) (A) (A) (A) (A) (A) (A) (A)
                 (A) (A) (A) (A) (A) (A) (A) (A) (A) (A) (A) (A)
                 (A) (A) (A) (A) (A) (A) (A) (A) (A) (A) (A) (A)
                 (A) (A) (A) (A) (A) (A) (A) (A) (A) (A) (A) (A)
                 (A) (A) (A) (A) (A) (A) (A) (A) (A) (A) (A) (A)
                 (A) (A) (A) (A) (A) (A) (A) (A) (A) (A) (A) (A)
                 (A) (A) (A) (A) (A) (A) (A) (A) (A) (A) (A) (A)
                 (A) (A) (A) (A) (A) (A) (A) (A) (A) (A) (A) (A)
                 (A) (A) (A) (A) (A) (A) (A) (A) (A) (A) (A) (A)
                 (A) (A) (A) (A) (A) (A) (A) (A) (A) (A) (A) (A)
                 (A) (A) (A) (A) (A) (A) (A) (A) (A) (A) (A) (A)
                 (A) (A) (A) (A) (A) (A) (A) (A) (A) (A) (A) (A)
                 (A) (A) (A) (A) (A) (A) (A) (A) (A) (A) (A) (A)
                 (A) (A) (A) (A) (A) (A) (A) (A) (A) (A) (A) (A)
                 (A) (A) (A) (A) (A) (A) (A) (A) (A) (A) (A) (A)
                 (A) (A) (A) (A) (A) (A) (A) (A) (A) (A) (A) (A)
                 (A) (A) (A) (A) (A) (A) (A) (A) (A) (A) (A) (A)
                 (A) (A) (A) (A) (A) (A) (A) (A) (A) (A) (A) (A)
                 (A) (A) (A) (A) (A) (A) (A) (A) (A) (A) (A) (A)
                 (A) (A) (A) (A) (A) (A) (A) (A) (A) (A) (A) (A)
                 (A) (A) (A) (A) (A) (A) (A) (A) (A) (A) (A) (A)
                 (A) (A) (A) (A) (A) (A) (A) (A) (A) (A) (A) (A)
                 (A) (A) (A) (A) (A) (A) (A) (A) (A) (A) (A) (A)
                 (A) (A) (A) (A) (A) (A) (A) (A) (A) (A) (A) (A)
                 (A) (A) (A) (A) (A) (A) (A) (A) (A) (A) (A) (A)
                 (A) (A) (A) (A) (A) (A) (A) (A) (A) (A) (A) (A)
                 (A) (A) (A) (A) (A) (A) (A) (A) (A) (A) (A) (A)
                 (A) (A) (A) (A) (A) (A) (A) (A) (A) (A) (A) (A)
                 (A) (A) (A) (A) (A) (A) (A) (A) (A) (A) (A) (A)
                 (A) (A) (A) (A) (A) (A) (A) (A) (A) (A) (A) (A)
                 (A) (A) (A) (A) (A) (A) (A) (A) (A) (A) (A) (A)
                 (A) (A) (A) (A) (A) (A) (A) (A) (A) (A) (A) (A)
                 (A) (A) (A) (A) (A) (A) (A) (A) (A) (A) (A) (A)
                 (A) (A) (A) (A) (A) (A) (A) (A) (A) (A) (A) (A)
                 (A) (A) (A) (A) (A) (A) (A) (A) (A) (A) (A) (A)
                 (A) (A) (A) (A) (A) (A) (A) (A) (A) (A) (A) (A)
                 (A) (A) (A) (A) (A) (A) (A) (A) (A) (A) (A) (A)
                 (A) (A) (A) (A) (A) (A) (A) (A) (A) (A) (A) (A)
                 (A) (A) (A) (A) (A) (A) (A) (A) (A) (A) (A) (A)
                 (A) (A) (A) (A) (A) (A) (A) (A) (A) (A) (A) (A)
                 (A) (A) (A) (A) (A) (A) (A) (A) (A) (A) (A) (A)
                 (A) (A) (A) (A) (A) (A) (A) (A) (A) (A) (A) (A)
                 (A) (A) (A) (A) (A) (A) (A) (A) (A) (A) (A) (A)
                 (A) (A) (A) (A) (A) (A) (A) (A) (A) (A) (A) (A)
                 (A) (A) (A) (A) (A) (A) (A) (A) (A) (A) (A) (A)
                 (A) (A) (A) (A) (A) (A) (A) (A) (A) (A) (A) (A)
                 (A) (A) (A) (A) (A) (A) (A) (A) (A) (A) (A) (A)
                 (A) (A) (A) (A) (A) (A) (A) (A) (A) (A) (A) (A)
                 (A) (A) (A) (A) (A) (A) (A) (A) (A) (A) (A) (A)
                 (A) (A) (A) (A) (A) (A) (A) (A) (A) (A) (A) (A)
                 (A) (A) (A) (A) (A) (A) (A) (A) (A) (A) (A) (A)
                 (A) (A) (A) (A) (A) (A) (A) (A) (A) (A) (A) (A)
                 (A) (A) (A) (A) (A) (A) (A) (A) (A) (A) (A) (A)
                 (A) (A) (A) (A) (A) (A) (A) (A) (A) (A) (A) (A)
                 (A) (A) (A) (A) (A) (A) (A) (A) (A) (A) (A) (A)
                 (A) (A) (A) (A) (A) (A) (A) (A) (A) (A) (A) (A)
                 (A) (A) (A) (A) (A) (A) (A) (A) (A) (A) (A) (A)
                 (A) (A) (A) (A) (A) (A) (A) (A) (A) (A) (A) (A)
                 (A) (A) (A) (A) (A) (A) (A) (A) (A) (A) (A) (A)
                 (A) (A) (A) (A) (A) (A) (A) (A) (A) (A) (A) (A)
                 (A) (A) (A) (A) (A) (A) (A) (A) (A) (A) (A) (A)
                 (A) (A) (A) (A) (A) (A) (A) (A) (A) (A) (A) (A)
                 (A) (A) (A) (A) (A) (A) (A) (A) (A) (A) (A) (A)
                 (A) (A) (A) (A) (A) (A) (A) (A) (A) (A) (A) (A)
                 (A) (A) (A) (A) (A) (A) (A) (A) (A) (A) (A) (A)
                 (A) (A) (A) (A) (A) (A) (A) (A) (A) (A) (A) (A)
                 (A) (A) (A) (A) (A) (A) (A) (A) (A) (A) (A) (A)
                 (A) (A) (A) (A) (A) (A) (A) (A) (A) (A) (A) (A)
                 (A) (A) (A) (A) (A) (A) (A) (A) (A) (A) (A) (A)
                 (A) (A) (A) (A) (A) (A) (A) (A) (A) (A) (A) (A)
                 (A) (A) (A) (A) (A) (A) (A) (A) (A) (A) (A) (A)
                 (A) (A) (A) (A) (A) (A) (A) (A) (A) (A) (A) (A)
                 (A) (A) (A) (A) (A) (A)
     4 initial guesses have been made.
 Convergence on wavefunction:    0.001000000000000
 Iteration     1 Dimension     4 NMult     0 NNew      4
 CISAX will form     4 AO SS matrices at one time.
 New state      1 was old state      2
 Iteration     2 Dimension     6 NMult     4 NNew      2
 Iteration     3 Dimension     8 NMult     6 NNew      2
 Iteration     4 Dimension    10 NMult     8 NNew      2
 Iteration     5 Dimension    12 NMult    10 NNew      2
 Iteration     6 Dimension    14 NMult    12 NNew      2
 Iteration     7 Dimension    16 NMult    14 NNew      2
 Iteration     8 Dimension    18 NMult    16 NNew      2
 Iteration     9 Dimension    20 NMult    18 NNew      2
 ***********************************************************************
 Excited states from <AA,BB:AA,BB> singles matrix:
 ***********************************************************************
 
 Ground to excited state transition densities written to RWF  633
 Ground to excited state transition electric dipole moments (Au):
       state          X           Y           Z        Dip. S.      Osc.
         1         0.4188     -2.3775     -0.1609      5.8539      0.2888
 Ground to excited state transition velocity dipole moments (Au):
       state          X           Y           Z        Dip. S.      Osc.
         1        -0.0295      0.1712      0.0123      0.0303      0.2734
 Ground to excited state transition magnetic dipole moments (Au):
       state          X           Y           Z
         1         0.2388      0.2228     -2.9743
 Ground to excited state transition velocity quadrupole moments (Au):
       state          XX          YY          ZZ          XY          XZ          YZ
         1         0.5801      0.5373      0.0174     -2.1935     -0.1645      0.1765
 <0|del|b> * <b|rxdel|0> + <0|del|b> * <b|delr+rdel|0>
 Rotatory Strengths (R) in cgs (10**-40 erg-esu-cm/Gauss)
       state          XX          YY          ZZ    R(velocity)    E-M Angle
         1        13.8900   -104.3248     38.9659    -17.1563       90.59
 1/2[<0|r|b>*<b|rxdel|0> + (<0|rxdel|b>*<b|r|0>)*]
 Rotatory Strengths (R) in cgs (10**-40 erg-esu-cm/Gauss)
       state          XX          YY          ZZ     R(length)
         1       -70.7258    374.6482   -338.4625    -11.5134
  1/2[<0|del|b>*<b|r|0> + (<0|r|b>*<b|del|0>)*] (Au)
       state          X           Y           Z        Dip. S.   Osc.(frdel)
         1        -0.0124     -0.4071     -0.0020      0.4215      0.2810

 Excitation energies and oscillator strengths:
 
 Excited State   1:      Singlet-A      2.0139 eV  615.66 nm  f=0.2888  <S**2>=0.000
     240 -> 243        0.24243
     241 -> 242        0.66125
 This state for optimization and/or second-order correction.
 Total Energy, E(TD-HF/TD-DFT) =  -2933.40228738    
 Copying the excited state density for this state as the 1-particle RhoCI density.
 SavETr:  write IOETrn=   770 NScale= 10 NData=  16 NLR=1 NState=    1 LETran=      28.
 Hyperfine terms turned off by default for NAtoms > 100.

 **********************************************************************

            Population analysis using the SCF density.

 **********************************************************************

 Orbital symmetries:
       Occupied  (A) (A) (A) (A) (A) (A) (A) (A) (A) (A) (A) (A)
                 (A) (A) (A) (A) (A) (A) (A) (A) (A) (A) (A) (A)
                 (A) (A) (A) (A) (A) (A) (A) (A) (A) (A) (A) (A)
                 (A) (A) (A) (A) (A) (A) (A) (A) (A) (A) (A) (A)
                 (A) (A) (A) (A) (A) (A) (A) (A) (A) (A) (A) (A)
                 (A) (A) (A) (A) (A) (A) (A) (A) (A) (A) (A) (A)
                 (A) (A) (A) (A) (A) (A) (A) (A) (A) (A) (A) (A)
                 (A) (A) (A) (A) (A) (A) (A) (A) (A) (A) (A) (A)
                 (A) (A) (A) (A) (A) (A) (A) (A) (A) (A) (A) (A)
                 (A) (A) (A) (A) (A) (A) (A) (A) (A) (A) (A) (A)
                 (A) (A) (A) (A) (A) (A) (A) (A) (A) (A) (A) (A)
                 (A) (A) (A) (A) (A) (A) (A) (A) (A) (A) (A) (A)
                 (A) (A) (A) (A) (A) (A) (A) (A) (A) (A) (A) (A)
                 (A) (A) (A) (A) (A) (A) (A) (A) (A) (A) (A) (A)
                 (A) (A) (A) (A) (A) (A) (A) (A) (A) (A) (A) (A)
                 (A) (A) (A) (A) (A) (A) (A) (A) (A) (A) (A) (A)
                 (A) (A) (A) (A) (A) (A) (A) (A) (A) (A) (A) (A)
                 (A) (A) (A) (A) (A) (A) (A) (A) (A) (A) (A) (A)
                 (A) (A) (A) (A) (A) (A) (A) (A) (A) (A) (A) (A)
                 (A) (A) (A) (A) (A) (A) (A) (A) (A) (A) (A) (A)
                 (A)
       Virtual   (A) (A) (A) (A) (A) (A) (A) (A) (A) (A) (A) (A)
                 (A) (A) (A) (A) (A) (A) (A) (A) (A) (A) (A) (A)
                 (A) (A) (A) (A) (A) (A) (A) (A) (A) (A) (A) (A)
                 (A) (A) (A) (A) (A) (A) (A) (A) (A) (A) (A) (A)
                 (A) (A) (A) (A) (A) (A) (A) (A) (A) (A) (A) (A)
                 (A) (A) (A) (A) (A) (A) (A) (A) (A) (A) (A) (A)
                 (A) (A) (A) (A) (A) (A) (A) (A) (A) (A) (A) (A)
                 (A) (A) (A) (A) (A) (A) (A) (A) (A) (A) (A) (A)
                 (A) (A) (A) (A) (A) (A) (A) (A) (A) (A) (A) (A)
                 (A) (A) (A) (A) (A) (A) (A) (A) (A) (A) (A) (A)
                 (A) (A) (A) (A) (A) (A) (A) (A) (A) (A) (A) (A)
                 (A) (A) (A) (A) (A) (A) (A) (A) (A) (A) (A) (A)
                 (A) (A) (A) (A) (A) (A) (A) (A) (A) (A) (A) (A)
                 (A) (A) (A) (A) (A) (A) (A) (A) (A) (A) (A) (A)
                 (A) (A) (A) (A) (A) (A) (A) (A) (A) (A) (A) (A)
                 (A) (A) (A) (A) (A) (A) (A) (A) (A) (A) (A) (A)
                 (A) (A) (A) (A) (A) (A) (A) (A) (A) (A) (A) (A)
                 (A) (A) (A) (A) (A) (A) (A) (A) (A) (A) (A) (A)
                 (A) (A) (A) (A) (A) (A) (A) (A) (A) (A) (A) (A)
                 (A) (A) (A) (A) (A) (A) (A) (A) (A) (A) (A) (A)
                 (A) (A) (A) (A) (A) (A) (A) (A) (A) (A) (A) (A)
                 (A) (A) (A) (A) (A) (A) (A) (A) (A) (A) (A) (A)
                 (A) (A) (A) (A) (A) (A) (A) (A) (A) (A) (A) (A)
                 (A) (A) (A) (A) (A) (A) (A) (A) (A) (A) (A) (A)
                 (A) (A) (A) (A) (A) (A) (A) (A) (A) (A) (A) (A)
                 (A) (A) (A) (A) (A) (A) (A) (A) (A) (A) (A) (A)
                 (A) (A) (A) (A) (A) (A) (A) (A) (A) (A) (A) (A)
                 (A) (A) (A) (A) (A) (A) (A) (A) (A) (A) (A) (A)
                 (A) (A) (A) (A) (A) (A) (A) (A) (A) (A) (A) (A)
                 (A) (A) (A) (A) (A) (A) (A) (A) (A) (A) (A) (A)
                 (A) (A) (A) (A) (A) (A) (A) (A) (A) (A) (A) (A)
                 (A) (A) (A) (A) (A) (A) (A) (A) (A) (A) (A) (A)
                 (A) (A) (A) (A) (A) (A) (A) (A) (A) (A) (A) (A)
                 (A) (A) (A) (A) (A) (A) (A) (A) (A) (A) (A) (A)
                 (A) (A) (A) (A) (A) (A) (A) (A) (A) (A) (A) (A)
                 (A) (A) (A) (A) (A) (A) (A) (A) (A) (A) (A) (A)
                 (A) (A) (A) (A) (A) (A) (A) (A) (A) (A) (A) (A)
                 (A) (A) (A) (A) (A) (A) (A) (A) (A) (A) (A) (A)
                 (A) (A) (A) (A) (A) (A) (A) (A) (A) (A) (A) (A)
                 (A) (A) (A) (A) (A) (A) (A) (A) (A) (A) (A) (A)
                 (A) (A) (A) (A) (A) (A) (A) (A) (A) (A) (A) (A)
                 (A) (A) (A) (A) (A) (A) (A) (A) (A) (A) (A) (A)
                 (A) (A) (A) (A) (A) (A) (A) (A) (A) (A) (A) (A)
                 (A) (A) (A) (A) (A) (A) (A) (A) (A) (A) (A) (A)
                 (A) (A) (A) (A) (A) (A) (A) (A) (A) (A) (A) (A)
                 (A) (A) (A) (A) (A) (A) (A) (A) (A) (A) (A) (A)
                 (A) (A) (A) (A) (A) (A) (A) (A) (A) (A) (A) (A)
                 (A) (A) (A) (A) (A) (A) (A) (A) (A) (A) (A) (A)
                 (A) (A) (A) (A) (A) (A) (A) (A) (A) (A) (A) (A)
                 (A) (A) (A) (A) (A) (A) (A) (A) (A) (A) (A) (A)
                 (A) (A) (A) (A) (A) (A) (A) (A) (A) (A) (A) (A)
                 (A) (A) (A) (A) (A) (A) (A) (A) (A) (A) (A) (A)
                 (A) (A) (A) (A) (A) (A) (A) (A) (A) (A) (A) (A)
                 (A) (A) (A) (A) (A) (A) (A) (A) (A) (A) (A) (A)
                 (A) (A) (A) (A) (A) (A) (A) (A) (A) (A) (A) (A)
                 (A) (A) (A) (A) (A) (A) (A) (A) (A) (A) (A) (A)
                 (A) (A) (A) (A) (A) (A) (A) (A) (A) (A) (A) (A)
                 (A) (A) (A) (A) (A) (A) (A) (A) (A) (A) (A) (A)
                 (A) (A) (A) (A) (A) (A) (A) (A) (A) (A) (A) (A)
                 (A) (A) (A) (A) (A) (A) (A) (A) (A) (A) (A) (A)
                 (A) (A) (A) (A) (A) (A) (A) (A) (A) (A) (A) (A)
                 (A) (A) (A) (A) (A) (A) (A) (A) (A) (A) (A) (A)
                 (A) (A) (A) (A) (A) (A) (A) (A) (A) (A) (A) (A)
                 (A) (A) (A) (A) (A) (A) (A) (A) (A) (A) (A) (A)
                 (A) (A) (A) (A) (A) (A) (A) (A) (A) (A) (A) (A)
                 (A) (A) (A) (A) (A) (A) (A) (A) (A) (A) (A) (A)
                 (A) (A) (A) (A) (A) (A) (A) (A) (A) (A) (A) (A)
                 (A) (A) (A) (A) (A) (A) (A) (A) (A) (A) (A) (A)
                 (A) (A) (A) (A) (A) (A) (A) (A) (A) (A) (A) (A)
                 (A) (A) (A) (A) (A) (A) (A) (A) (A) (A) (A) (A)
                 (A) (A) (A) (A) (A) (A) (A) (A) (A) (A) (A) (A)
                 (A) (A) (A) (A) (A) (A) (A) (A) (A) (A) (A) (A)
                 (A) (A) (A) (A) (A) (A) (A) (A) (A) (A) (A) (A)
                 (A) (A) (A) (A) (A) (A) (A) (A) (A) (A) (A) (A)
                 (A) (A) (A) (A) (A) (A) (A) (A) (A) (A) (A) (A)
                 (A) (A) (A) (A) (A) (A) (A) (A) (A) (A) (A) (A)
                 (A) (A) (A) (A) (A) (A) (A) (A) (A) (A) (A) (A)
                 (A) (A) (A) (A) (A) (A) (A) (A) (A) (A) (A) (A)
                 (A) (A) (A) (A) (A) (A) (A) (A) (A) (A) (A) (A)
                 (A) (A) (A) (A) (A) (A) (A) (A) (A) (A) (A) (A)
                 (A) (A) (A) (A) (A) (A) (A) (A) (A) (A) (A) (A)
                 (A) (A) (A) (A) (A) (A) (A) (A) (A) (A) (A) (A)
                 (A) (A) (A) (A) (A) (A) (A) (A) (A) (A) (A) (A)
                 (A) (A) (A) (A) (A) (A) (A) (A) (A) (A) (A) (A)
                 (A) (A) (A) (A) (A) (A) (A) (A) (A) (A) (A) (A)
                 (A) (A) (A) (A) (A) (A) (A) (A) (A) (A) (A) (A)
                 (A) (A) (A) (A) (A) (A) (A) (A) (A) (A) (A) (A)
                 (A) (A) (A) (A) (A) (A) (A) (A) (A) (A) (A) (A)
                 (A) (A) (A) (A) (A) (A) (A) (A) (A) (A) (A) (A)
                 (A) (A) (A) (A) (A) (A) (A) (A) (A) (A) (A) (A)
                 (A) (A) (A) (A) (A) (A) (A) (A) (A) (A) (A) (A)
                 (A) (A) (A) (A) (A) (A)
 The electronic state is 1-A.
 Alpha  occ. eigenvalues --  -46.80029 -19.23580 -19.21506 -19.18076 -19.16176
 Alpha  occ. eigenvalues --  -19.15872 -14.37985 -14.35330 -14.35175 -14.34646
 Alpha  occ. eigenvalues --  -10.35079 -10.34514 -10.30181 -10.29553 -10.26281
 Alpha  occ. eigenvalues --  -10.25925 -10.25778 -10.25258 -10.25199 -10.25145
 Alpha  occ. eigenvalues --  -10.25087 -10.24802 -10.24670 -10.24509 -10.24307
 Alpha  occ. eigenvalues --  -10.23702 -10.23679 -10.23560 -10.23428 -10.23359
 Alpha  occ. eigenvalues --  -10.23286 -10.23163 -10.23087 -10.23045 -10.23004
 Alpha  occ. eigenvalues --  -10.22973 -10.22931 -10.22773 -10.22563 -10.22445
 Alpha  occ. eigenvalues --  -10.22334 -10.22248 -10.22236 -10.22168 -10.22096
 Alpha  occ. eigenvalues --  -10.22085 -10.22080 -10.22053 -10.21994 -10.21689
 Alpha  occ. eigenvalues --  -10.21261 -10.21135 -10.20847 -10.20821 -10.20639
 Alpha  occ. eigenvalues --  -10.20618 -10.20576 -10.20537 -10.20498 -10.20422
 Alpha  occ. eigenvalues --  -10.20278 -10.19818 -10.19608 -10.19209 -10.18541
 Alpha  occ. eigenvalues --   -3.08698  -1.83633  -1.83195  -1.83084  -1.12923
 Alpha  occ. eigenvalues --   -1.11481  -1.08775  -1.04496  -1.03650  -1.00090
 Alpha  occ. eigenvalues --   -0.99625  -0.98157  -0.97567  -0.87420  -0.86161
 Alpha  occ. eigenvalues --   -0.85166  -0.84752  -0.84189  -0.83951  -0.83729
 Alpha  occ. eigenvalues --   -0.82947  -0.82868  -0.81762  -0.80951  -0.80025
 Alpha  occ. eigenvalues --   -0.79416  -0.78764  -0.78270  -0.77583  -0.77216
 Alpha  occ. eigenvalues --   -0.76744  -0.75998  -0.75542  -0.75197  -0.73428
 Alpha  occ. eigenvalues --   -0.72867  -0.71950  -0.71757  -0.71342  -0.70458
 Alpha  occ. eigenvalues --   -0.70126  -0.69827  -0.68842  -0.68376  -0.67733
 Alpha  occ. eigenvalues --   -0.67083  -0.66090  -0.65379  -0.64215  -0.63744
 Alpha  occ. eigenvalues --   -0.62872  -0.62579  -0.61216  -0.60400  -0.59574
 Alpha  occ. eigenvalues --   -0.59341  -0.58949  -0.58419  -0.58324  -0.58305
 Alpha  occ. eigenvalues --   -0.57215  -0.56889  -0.56156  -0.55276  -0.54845
 Alpha  occ. eigenvalues --   -0.54240  -0.54114  -0.53258  -0.53014  -0.52614
 Alpha  occ. eigenvalues --   -0.52050  -0.51617  -0.51130  -0.50974  -0.50426
 Alpha  occ. eigenvalues --   -0.50416  -0.50097  -0.50048  -0.49672  -0.49105
 Alpha  occ. eigenvalues --   -0.48692  -0.48533  -0.48408  -0.48185  -0.47958
 Alpha  occ. eigenvalues --   -0.47886  -0.47325  -0.47158  -0.46770  -0.46551
 Alpha  occ. eigenvalues --   -0.46449  -0.46248  -0.46177  -0.45872  -0.45734
 Alpha  occ. eigenvalues --   -0.45495  -0.45399  -0.45360  -0.45204  -0.44948
 Alpha  occ. eigenvalues --   -0.44583  -0.44239  -0.44085  -0.43800  -0.43564
 Alpha  occ. eigenvalues --   -0.43519  -0.43324  -0.42902  -0.42794  -0.42602
 Alpha  occ. eigenvalues --   -0.42400  -0.41928  -0.41784  -0.41547  -0.41534
 Alpha  occ. eigenvalues --   -0.41404  -0.41269  -0.41131  -0.40971  -0.40729
 Alpha  occ. eigenvalues --   -0.40558  -0.40425  -0.40205  -0.40120  -0.40040
 Alpha  occ. eigenvalues --   -0.39785  -0.39674  -0.39283  -0.39209  -0.39044
 Alpha  occ. eigenvalues --   -0.38891  -0.38604  -0.38308  -0.38197  -0.38091
 Alpha  occ. eigenvalues --   -0.37824  -0.37709  -0.37551  -0.37449  -0.37235
 Alpha  occ. eigenvalues --   -0.36824  -0.36443  -0.36340  -0.35966  -0.35957
 Alpha  occ. eigenvalues --   -0.35637  -0.35452  -0.35026  -0.34685  -0.34431
 Alpha  occ. eigenvalues --   -0.34421  -0.33851  -0.33555  -0.33433  -0.33257
 Alpha  occ. eigenvalues --   -0.33110  -0.32955  -0.32814  -0.32622  -0.32504
 Alpha  occ. eigenvalues --   -0.32467  -0.31969  -0.31725  -0.30848  -0.30218
 Alpha  occ. eigenvalues --   -0.30055  -0.29994  -0.29393  -0.28463  -0.26931
 Alpha  occ. eigenvalues --   -0.26576  -0.26136  -0.25879  -0.24068  -0.21403
 Alpha  occ. eigenvalues --   -0.19949
 Alpha virt. eigenvalues --   -0.07261  -0.03572  -0.00197   0.02087   0.03551
 Alpha virt. eigenvalues --    0.03818   0.03991   0.04643   0.05077   0.05313
 Alpha virt. eigenvalues --    0.06649   0.08149   0.09183   0.09536   0.09542
 Alpha virt. eigenvalues --    0.09914   0.10030   0.10298   0.10606   0.10859
 Alpha virt. eigenvalues --    0.10992   0.11267   0.11625   0.12072   0.12476
 Alpha virt. eigenvalues --    0.12710   0.12933   0.12959   0.13067   0.13240
 Alpha virt. eigenvalues --    0.13497   0.13855   0.14029   0.14209   0.14298
 Alpha virt. eigenvalues --    0.14478   0.14793   0.14993   0.15145   0.15248
 Alpha virt. eigenvalues --    0.15512   0.15698   0.16016   0.16137   0.16233
 Alpha virt. eigenvalues --    0.16456   0.16642   0.16746   0.16918   0.17051
 Alpha virt. eigenvalues --    0.17268   0.17422   0.17550   0.17558   0.17599
 Alpha virt. eigenvalues --    0.17830   0.18128   0.18653   0.18702   0.18829
 Alpha virt. eigenvalues --    0.18917   0.18966   0.19232   0.19304   0.19544
 Alpha virt. eigenvalues --    0.19614   0.19799   0.19913   0.20270   0.20492
 Alpha virt. eigenvalues --    0.20631   0.20882   0.21022   0.21181   0.21340
 Alpha virt. eigenvalues --    0.21569   0.21659   0.21783   0.22013   0.22090
 Alpha virt. eigenvalues --    0.22286   0.22397   0.22679   0.23177   0.23222
 Alpha virt. eigenvalues --    0.23439   0.23499   0.23612   0.23630   0.23782
 Alpha virt. eigenvalues --    0.24133   0.24315   0.24444   0.24488   0.24891
 Alpha virt. eigenvalues --    0.24960   0.25207   0.25456   0.25596   0.25772
 Alpha virt. eigenvalues --    0.26337   0.26402   0.26615   0.26687   0.26871
 Alpha virt. eigenvalues --    0.26962   0.27211   0.27351   0.27553   0.27713
 Alpha virt. eigenvalues --    0.27947   0.28058   0.28248   0.28631   0.28832
 Alpha virt. eigenvalues --    0.28875   0.29226   0.29498   0.29626   0.30045
 Alpha virt. eigenvalues --    0.30441   0.30506   0.31146   0.31546   0.31722
 Alpha virt. eigenvalues --    0.32023   0.32434   0.32617   0.32902   0.33630
 Alpha virt. eigenvalues --    0.34086   0.34507   0.34956   0.35225   0.35388
 Alpha virt. eigenvalues --    0.35684   0.36632   0.37210   0.37616   0.37933
 Alpha virt. eigenvalues --    0.38995   0.39067   0.39258   0.39445   0.39774
 Alpha virt. eigenvalues --    0.40630   0.41337   0.41405   0.42206   0.42922
 Alpha virt. eigenvalues --    0.43168   0.44052   0.45044   0.45421   0.46223
 Alpha virt. eigenvalues --    0.46443   0.47677   0.48049   0.48661   0.49338
 Alpha virt. eigenvalues --    0.49801   0.50348   0.50435   0.50989   0.51766
 Alpha virt. eigenvalues --    0.52188   0.52353   0.52535   0.53014   0.53142
 Alpha virt. eigenvalues --    0.53247   0.53461   0.53469   0.53614   0.54017
 Alpha virt. eigenvalues --    0.54120   0.54425   0.54463   0.54600   0.54616
 Alpha virt. eigenvalues --    0.55159   0.55263   0.55353   0.55472   0.55953
 Alpha virt. eigenvalues --    0.56047   0.56298   0.56627   0.56963   0.57182
 Alpha virt. eigenvalues --    0.57719   0.57803   0.57920   0.58231   0.58612
 Alpha virt. eigenvalues --    0.58740   0.59027   0.59353   0.59433   0.59499
 Alpha virt. eigenvalues --    0.60012   0.60200   0.60519   0.60889   0.61013
 Alpha virt. eigenvalues --    0.61051   0.61436   0.61611   0.62036   0.62400
 Alpha virt. eigenvalues --    0.62425   0.62892   0.63064   0.63110   0.63244
 Alpha virt. eigenvalues --    0.63780   0.63862   0.64150   0.64323   0.64767
 Alpha virt. eigenvalues --    0.64797   0.64888   0.65428   0.65691   0.65942
 Alpha virt. eigenvalues --    0.66030   0.66467   0.66814   0.66924   0.67159
 Alpha virt. eigenvalues --    0.67429   0.67924   0.68183   0.68497   0.68810
 Alpha virt. eigenvalues --    0.68900   0.69043   0.69335   0.69353   0.69648
 Alpha virt. eigenvalues --    0.69748   0.70078   0.70427   0.70736   0.71026
 Alpha virt. eigenvalues --    0.71230   0.71273   0.71496   0.71830   0.72231
 Alpha virt. eigenvalues --    0.72452   0.73037   0.73171   0.73194   0.73404
 Alpha virt. eigenvalues --    0.73495   0.73561   0.74111   0.74372   0.74668
 Alpha virt. eigenvalues --    0.74829   0.75161   0.75231   0.75406   0.75664
 Alpha virt. eigenvalues --    0.76091   0.76266   0.76594   0.76810   0.76953
 Alpha virt. eigenvalues --    0.77253   0.77701   0.78024   0.78208   0.78438
 Alpha virt. eigenvalues --    0.78759   0.78979   0.79257   0.79550   0.79607
 Alpha virt. eigenvalues --    0.80001   0.80273   0.80446   0.80974   0.81074
 Alpha virt. eigenvalues --    0.81503   0.81611   0.81697   0.81835   0.82028
 Alpha virt. eigenvalues --    0.82062   0.82297   0.82467   0.82658   0.83156
 Alpha virt. eigenvalues --    0.83433   0.83526   0.83662   0.84005   0.84174
 Alpha virt. eigenvalues --    0.84386   0.84614   0.84708   0.84977   0.85446
 Alpha virt. eigenvalues --    0.85681   0.85888   0.86076   0.86251   0.86431
 Alpha virt. eigenvalues --    0.86493   0.86610   0.86697   0.86759   0.87276
 Alpha virt. eigenvalues --    0.87641   0.87713   0.87987   0.88189   0.88504
 Alpha virt. eigenvalues --    0.88641   0.88885   0.89097   0.89197   0.89536
 Alpha virt. eigenvalues --    0.89901   0.90082   0.90289   0.90323   0.90682
 Alpha virt. eigenvalues --    0.90849   0.90974   0.91133   0.91458   0.91623
 Alpha virt. eigenvalues --    0.91779   0.92058   0.92154   0.92242   0.92397
 Alpha virt. eigenvalues --    0.92455   0.92737   0.93217   0.93406   0.93606
 Alpha virt. eigenvalues --    0.93875   0.94193   0.94249   0.94420   0.94641
 Alpha virt. eigenvalues --    0.94898   0.95122   0.95329   0.95629   0.95732
 Alpha virt. eigenvalues --    0.96146   0.96303   0.96597   0.96778   0.96885
 Alpha virt. eigenvalues --    0.96972   0.97349   0.97475   0.97956   0.98473
 Alpha virt. eigenvalues --    0.98530   0.98663   0.98784   0.99064   0.99465
 Alpha virt. eigenvalues --    0.99794   0.99876   1.00151   1.00241   1.00775
 Alpha virt. eigenvalues --    1.00856   1.01077   1.01111   1.01251   1.01575
 Alpha virt. eigenvalues --    1.01774   1.01965   1.02341   1.02438   1.02715
 Alpha virt. eigenvalues --    1.03176   1.03480   1.03694   1.04307   1.04437
 Alpha virt. eigenvalues --    1.04613   1.05238   1.05587   1.05644   1.06173
 Alpha virt. eigenvalues --    1.06430   1.06549   1.06852   1.07321   1.07525
 Alpha virt. eigenvalues --    1.07956   1.08250   1.08668   1.09328   1.09812
 Alpha virt. eigenvalues --    1.10225   1.10492   1.10788   1.11189   1.11625
 Alpha virt. eigenvalues --    1.12087   1.12464   1.12776   1.13073   1.13993
 Alpha virt. eigenvalues --    1.14524   1.15246   1.15400   1.15894   1.16736
 Alpha virt. eigenvalues --    1.17163   1.17481   1.18212   1.18510   1.18858
 Alpha virt. eigenvalues --    1.19867   1.20197   1.20778   1.21576   1.21772
 Alpha virt. eigenvalues --    1.22191   1.22456   1.23015   1.23880   1.24158
 Alpha virt. eigenvalues --    1.24638   1.25346   1.25699   1.26146   1.26281
 Alpha virt. eigenvalues --    1.26959   1.27606   1.28678   1.28980   1.29384
 Alpha virt. eigenvalues --    1.29817   1.30089   1.30608   1.30716   1.31605
 Alpha virt. eigenvalues --    1.32140   1.32652   1.33086   1.33840   1.34254
 Alpha virt. eigenvalues --    1.34672   1.35123   1.35310   1.36111   1.36598
 Alpha virt. eigenvalues --    1.37299   1.37438   1.37556   1.37967   1.38886
 Alpha virt. eigenvalues --    1.39892   1.40022   1.40524   1.40999   1.41720
 Alpha virt. eigenvalues --    1.41760   1.42075   1.42442   1.42691   1.43280
 Alpha virt. eigenvalues --    1.43389   1.43950   1.44339   1.44572   1.45956
 Alpha virt. eigenvalues --    1.46352   1.46987   1.47893   1.48270   1.48572
 Alpha virt. eigenvalues --    1.49288   1.49804   1.50128   1.50598   1.50783
 Alpha virt. eigenvalues --    1.51143   1.51290   1.51675   1.52578   1.52628
 Alpha virt. eigenvalues --    1.53472   1.53971   1.54363   1.55165   1.55425
 Alpha virt. eigenvalues --    1.55698   1.56849   1.56944   1.57102   1.57478
 Alpha virt. eigenvalues --    1.57492   1.58274   1.58600   1.59024   1.59237
 Alpha virt. eigenvalues --    1.59645   1.59792   1.60618   1.61694   1.62269
 Alpha virt. eigenvalues --    1.62551   1.63231   1.63519   1.63912   1.64008
 Alpha virt. eigenvalues --    1.64376   1.64698   1.64761   1.64931   1.65404
 Alpha virt. eigenvalues --    1.65964   1.66648   1.67379   1.67502   1.68620
 Alpha virt. eigenvalues --    1.68746   1.68963   1.69783   1.70260   1.70582
 Alpha virt. eigenvalues --    1.70895   1.71093   1.71714   1.71888   1.72292
 Alpha virt. eigenvalues --    1.72389   1.73082   1.73213   1.73776   1.73986
 Alpha virt. eigenvalues --    1.74362   1.74461   1.75329   1.75396   1.75628
 Alpha virt. eigenvalues --    1.76688   1.76787   1.77521   1.77635   1.78053
 Alpha virt. eigenvalues --    1.78103   1.78274   1.78562   1.79432   1.79481
 Alpha virt. eigenvalues --    1.79960   1.80091   1.80875   1.80941   1.81080
 Alpha virt. eigenvalues --    1.81350   1.81712   1.81858   1.81956   1.82434
 Alpha virt. eigenvalues --    1.82621   1.82823   1.82945   1.83224   1.83698
 Alpha virt. eigenvalues --    1.84054   1.84240   1.84466   1.84806   1.84981
 Alpha virt. eigenvalues --    1.85146   1.85612   1.85850   1.86163   1.86425
 Alpha virt. eigenvalues --    1.86886   1.86978   1.87178   1.87563   1.87906
 Alpha virt. eigenvalues --    1.88156   1.88472   1.88699   1.88853   1.89092
 Alpha virt. eigenvalues --    1.89305   1.89351   1.89531   1.89779   1.90153
 Alpha virt. eigenvalues --    1.90429   1.90730   1.90793   1.91259   1.91634
 Alpha virt. eigenvalues --    1.91814   1.92355   1.92630   1.92762   1.92929
 Alpha virt. eigenvalues --    1.93341   1.93762   1.94011   1.94160   1.94431
 Alpha virt. eigenvalues --    1.94537   1.94778   1.95097   1.95195   1.95688
 Alpha virt. eigenvalues --    1.95729   1.95801   1.96200   1.96280   1.96696
 Alpha virt. eigenvalues --    1.97082   1.97196   1.97447   1.97571   1.98081
 Alpha virt. eigenvalues --    1.98366   1.98567   1.98953   1.99137   1.99392
 Alpha virt. eigenvalues --    1.99633   1.99991   2.00144   2.00186   2.01054
 Alpha virt. eigenvalues --    2.01153   2.02003   2.02231   2.02361   2.02686
 Alpha virt. eigenvalues --    2.03076   2.03289   2.03719   2.04005   2.04257
 Alpha virt. eigenvalues --    2.04515   2.04743   2.05246   2.05274   2.05452
 Alpha virt. eigenvalues --    2.05567   2.05702   2.05966   2.06378   2.06729
 Alpha virt. eigenvalues --    2.07126   2.07301   2.07314   2.07446   2.07566
 Alpha virt. eigenvalues --    2.08223   2.08653   2.08719   2.08944   2.09690
 Alpha virt. eigenvalues --    2.09876   2.10282   2.10448   2.10913   2.10963
 Alpha virt. eigenvalues --    2.11891   2.12049   2.12494   2.12672   2.13278
 Alpha virt. eigenvalues --    2.13741   2.13887   2.14266   2.14768   2.14852
 Alpha virt. eigenvalues --    2.15268   2.15704   2.15775   2.16385   2.16705
 Alpha virt. eigenvalues --    2.16872   2.17378   2.17603   2.17670   2.17986
 Alpha virt. eigenvalues --    2.18688   2.18903   2.19188   2.19804   2.19844
 Alpha virt. eigenvalues --    2.20466   2.21596   2.22138   2.22509   2.22724
 Alpha virt. eigenvalues --    2.23198   2.23356   2.23459   2.23869   2.23922
 Alpha virt. eigenvalues --    2.24067   2.24498   2.24531   2.25043   2.25582
 Alpha virt. eigenvalues --    2.25814   2.26653   2.26880   2.27523   2.27960
 Alpha virt. eigenvalues --    2.28116   2.28293   2.28392   2.29211   2.29468
 Alpha virt. eigenvalues --    2.29702   2.29993   2.30088   2.30341   2.30787
 Alpha virt. eigenvalues --    2.31104   2.31382   2.31412   2.31479   2.32247
 Alpha virt. eigenvalues --    2.32460   2.32924   2.33210   2.33892   2.33938
 Alpha virt. eigenvalues --    2.34585   2.35029   2.35168   2.35561   2.36227
 Alpha virt. eigenvalues --    2.36293   2.36343   2.36700   2.37090   2.37216
 Alpha virt. eigenvalues --    2.37421   2.37676   2.37926   2.38296   2.38681
 Alpha virt. eigenvalues --    2.38881   2.39277   2.39542   2.40133   2.40591
 Alpha virt. eigenvalues --    2.40688   2.40981   2.41309   2.41799   2.42320
 Alpha virt. eigenvalues --    2.42722   2.42995   2.43145   2.43320   2.43630
 Alpha virt. eigenvalues --    2.43728   2.43990   2.44037   2.44210   2.44934
 Alpha virt. eigenvalues --    2.45292   2.45607   2.45919   2.46096   2.46312
 Alpha virt. eigenvalues --    2.46775   2.46933   2.47356   2.47639   2.48196
 Alpha virt. eigenvalues --    2.48400   2.48945   2.49144   2.49978   2.50222
 Alpha virt. eigenvalues --    2.51050   2.51052   2.51212   2.51424   2.51494
 Alpha virt. eigenvalues --    2.52177   2.52565   2.53085   2.53314   2.53523
 Alpha virt. eigenvalues --    2.53799   2.54247   2.54479   2.54950   2.55026
 Alpha virt. eigenvalues --    2.55427   2.56203   2.56341   2.56758   2.57029
 Alpha virt. eigenvalues --    2.57608   2.57696   2.57903   2.58024   2.58397
 Alpha virt. eigenvalues --    2.59455   2.59827   2.59900   2.60184   2.60295
 Alpha virt. eigenvalues --    2.60851   2.60896   2.61544   2.61874   2.62509
 Alpha virt. eigenvalues --    2.63007   2.63104   2.63227   2.63623   2.63875
 Alpha virt. eigenvalues --    2.64248   2.64292   2.64398   2.64562   2.65233
 Alpha virt. eigenvalues --    2.65644   2.65901   2.66084   2.66121   2.66528
 Alpha virt. eigenvalues --    2.67068   2.67148   2.67486   2.67962   2.68100
 Alpha virt. eigenvalues --    2.68472   2.68698   2.68942   2.69247   2.69408
 Alpha virt. eigenvalues --    2.69813   2.69934   2.70673   2.70763   2.71100
 Alpha virt. eigenvalues --    2.71349   2.71862   2.72107   2.72318   2.72802
 Alpha virt. eigenvalues --    2.73630   2.74043   2.74276   2.74682   2.75582
 Alpha virt. eigenvalues --    2.75839   2.75931   2.76373   2.76712   2.76915
 Alpha virt. eigenvalues --    2.77539   2.77640   2.78058   2.78261   2.78530
 Alpha virt. eigenvalues --    2.78625   2.79184   2.79531   2.80110   2.80451
 Alpha virt. eigenvalues --    2.80599   2.80925   2.81345   2.81931   2.81999
 Alpha virt. eigenvalues --    2.82275   2.82570   2.82965   2.83361   2.83897
 Alpha virt. eigenvalues --    2.84424   2.84743   2.85250   2.85366   2.85689
 Alpha virt. eigenvalues --    2.85957   2.86258   2.86339   2.87096   2.87292
 Alpha virt. eigenvalues --    2.88888   2.89230   2.89680   2.89854   2.89874
 Alpha virt. eigenvalues --    2.90649   2.91157   2.91790   2.91956   2.92375
 Alpha virt. eigenvalues --    2.92690   2.93063   2.93237   2.93865   2.94422
 Alpha virt. eigenvalues --    2.94846   2.95379   2.95648   2.95818   2.95889
 Alpha virt. eigenvalues --    2.95987   2.96103   2.97131   2.97252   2.97445
 Alpha virt. eigenvalues --    2.97824   2.98088   2.98344   2.98637   2.98850
 Alpha virt. eigenvalues --    2.99191   2.99429   3.00107   3.00691   3.00957
 Alpha virt. eigenvalues --    3.01793   3.02189   3.02870   3.02997   3.03533
 Alpha virt. eigenvalues --    3.03776   3.04172   3.05270   3.05794   3.07243
 Alpha virt. eigenvalues --    3.07448   3.08349   3.08947   3.10824   3.10997
 Alpha virt. eigenvalues --    3.11870   3.11894   3.12079   3.13211   3.14677
 Alpha virt. eigenvalues --    3.15025   3.15645   3.17274   3.18030   3.18543
 Alpha virt. eigenvalues --    3.18984   3.19710   3.21259   3.21413   3.22053
 Alpha virt. eigenvalues --    3.22790   3.23096   3.23362   3.25019   3.25174
 Alpha virt. eigenvalues --    3.25922   3.26938   3.27711   3.28348   3.28603
 Alpha virt. eigenvalues --    3.29120   3.29815   3.30429   3.30785   3.31406
 Alpha virt. eigenvalues --    3.32260   3.33971   3.34226   3.34597   3.35077
 Alpha virt. eigenvalues --    3.35899   3.36057   3.36753   3.37661   3.38425
 Alpha virt. eigenvalues --    3.39353   3.39587   3.40873   3.41387   3.41819
 Alpha virt. eigenvalues --    3.42842   3.43913   3.44418   3.45302   3.45590
 Alpha virt. eigenvalues --    3.46008   3.47221   3.47545   3.48174   3.48401
 Alpha virt. eigenvalues --    3.48776   3.48799   3.49633   3.51318   3.51522
 Alpha virt. eigenvalues --    3.52308   3.54028   3.54430   3.54955   3.55725
 Alpha virt. eigenvalues --    3.56721   3.57744   3.59431   3.61588   3.62343
 Alpha virt. eigenvalues --    3.62936   3.62990   3.64452   3.64699   3.65689
 Alpha virt. eigenvalues --    3.66497   3.66539   3.67218   3.68740   3.68965
 Alpha virt. eigenvalues --    3.71104   3.71229   3.74386   3.83066   4.04424
 Alpha virt. eigenvalues --    4.05427   4.09962   4.14412   4.17537   4.18030
 Alpha virt. eigenvalues --    4.18526   4.20107   4.22105   4.22577   4.23459
 Alpha virt. eigenvalues --    4.23577   4.23863   4.25738   4.26972   4.28418
 Alpha virt. eigenvalues --    4.29328   4.29780   4.33121   4.33930   4.35110
 Alpha virt. eigenvalues --    4.36846   4.37542   4.38038   4.39284   4.41062
 Alpha virt. eigenvalues --    4.42559   4.42967   4.43406   4.44170   4.45910
 Alpha virt. eigenvalues --    4.46357   4.46610   4.49717   4.51717   4.51805
 Alpha virt. eigenvalues --    4.51978   4.53631   4.53955   4.54668   4.55894
 Alpha virt. eigenvalues --    4.56758   4.58063   4.59478   4.59579   4.62678
 Alpha virt. eigenvalues --    4.63847   4.64641   4.65363   4.67564   4.68991
 Alpha virt. eigenvalues --    4.70665   4.71634   4.72553   4.76112   4.76838
 Alpha virt. eigenvalues --    4.78865   4.81288   4.82348   4.83401   4.85760
 Alpha virt. eigenvalues --    4.86830   4.88173   4.98664
          Condensed to atoms (all electrons):
 Mulliken charges:
               1
     1  Mg   0.829068
     2  C    0.099489
     3  C   -0.165658
     4  C   -0.194120
     5  C   -0.145768
     6  N   -0.587811
     7  C    0.262467
     8  C   -0.134741
     9  C   -0.163107
    10  C    0.312444
    11  C   -0.282056
    12  C   -0.185001
    13  C   -0.272546
    14  C    0.598000
    15  O   -0.459224
    16  O   -0.488435
    17  N   -0.709348
    18  C    0.302099
    19  C    0.029120
    20  C    0.062459
    21  C    0.287693
    22  C   -0.374123
    23  C   -0.118281
    24  C   -0.240341
    25  N   -0.706958
    26  C    0.351456
    27  C    0.030957
    28  C    0.061195
    29  C    0.235272
    30  C   -0.357704
    31  C   -0.282581
    32  C   -0.300075
    33  N   -0.706068
    34  C    0.267431
    35  C    0.007416
    36  C   -0.034164
    37  C    0.288034
    38  C   -0.347284
    39  C    0.342711
    40  O   -0.419873
    41  C   -0.316776
    42  C    0.641121
    43  O   -0.478673
    44  O   -0.435284
    45  C   -0.081982
    46  C    0.016986
    47  C   -0.136524
    48  C    0.120695
    49  C   -0.345368
    50  C   -0.234132
    51  C   -0.192806
    52  C   -0.153142
    53  C   -0.068898
    54  C   -0.316051
    55  C   -0.143632
    56  C   -0.192826
    57  C   -0.152656
    58  C   -0.077874
    59  C   -0.307696
    60  C   -0.171263
    61  C   -0.167736
    62  C   -0.144300
    63  C   -0.060564
    64  C   -0.291537
    65  C   -0.313136
    66  H    0.082825
    67  H    0.064571
    68  H    0.056054
    69  H    0.109055
    70  H    0.078684
    71  H    0.119608
    72  H    0.113533
    73  H    0.126352
    74  H    0.112774
    75  H    0.119685
    76  H    0.138752
    77  H    0.121989
    78  H    0.118650
    79  H    0.114230
    80  H    0.105411
    81  H    0.101628
    82  H    0.099443
    83  H    0.082820
    84  H    0.097268
    85  H    0.112272
    86  H    0.106197
    87  H    0.121479
    88  H    0.094304
    89  H    0.116188
    90  H    0.131688
    91  H    0.105586
    92  H    0.127256
    93  H    0.145688
    94  H    0.131254
    95  H    0.157239
    96  H    0.101002
    97  H    0.123432
    98  H    0.131751
    99  H    0.133088
   100  H    0.119854
   101  H    0.087825
   102  H    0.080986
   103  H    0.121854
   104  H    0.128998
   105  H    0.104476
   106  H    0.098986
   107  H    0.100333
   108  H    0.082878
   109  H    0.092917
   110  H    0.086339
   111  H    0.057918
   112  H    0.117325
   113  H    0.116229
   114  H    0.102180
   115  H    0.052528
   116  H    0.099725
   117  H    0.083248
   118  H    0.077574
   119  H    0.082330
   120  H    0.084737
   121  H    0.082583
   122  H    0.087650
   123  H    0.109608
   124  H    0.105118
   125  H    0.082319
   126  H    0.053279
   127  H    0.094439
   128  H    0.079593
   129  H    0.089921
   130  H    0.087909
   131  H    0.091256
   132  H    0.110538
   133  H    0.095456
   134  H    0.088476
   135  H    0.117172
   136  H    0.059328
   137  H    0.096368
 Sum of Mulliken charges =  -0.00000
 Mulliken charges with hydrogens summed into heavy atoms:
               1
     1  Mg   0.829068
     2  C    0.099489
     3  C   -0.082833
     4  C   -0.129550
     5  C   -0.089713
     6  N   -0.587811
     7  C    0.262467
     8  C   -0.025685
     9  C   -0.084423
    10  C    0.312444
    11  C    0.077438
    12  C    0.047458
    13  C   -0.011806
    14  C    0.598000
    15  O   -0.459224
    16  O   -0.488435
    17  N   -0.709348
    18  C    0.302099
    19  C    0.029120
    20  C    0.062459
    21  C    0.287693
    22  C   -0.035832
    23  C   -0.016653
    24  C   -0.058078
    25  N   -0.706958
    26  C    0.351456
    27  C    0.030957
    28  C    0.061195
    29  C    0.235272
    30  C   -0.041967
    31  C   -0.066798
    32  C    0.053388
    33  N   -0.706068
    34  C    0.267431
    35  C    0.007416
    36  C   -0.034164
    37  C    0.288034
    38  C    0.056914
    39  C    0.342711
    40  O   -0.419873
    41  C   -0.159537
    42  C    0.641121
    43  O   -0.478673
    44  O   -0.435284
    45  C    0.274203
    46  C    0.269928
    47  C   -0.048700
    48  C    0.120695
    49  C   -0.013530
    50  C   -0.030670
    51  C   -0.009595
    52  C    0.026114
    53  C   -0.010980
    54  C    0.019683
    55  C    0.008621
    56  C   -0.032004
    57  C    0.014410
    58  C    0.004709
    59  C   -0.005320
    60  C   -0.035664
    61  C    0.006297
    62  C    0.033530
    63  C    0.030692
    64  C    0.002934
    65  C   -0.040268
 Electronic spatial extent (au):  <R**2>=         179001.5967
 Charge=              0.0000 electrons
 Dipole moment (field-independent basis, Debye):
    X=              1.0206    Y=              3.2575    Z=             -0.2652  Tot=              3.4239
 Quadrupole moment (field-independent basis, Debye-Ang):
   XX=           -345.4024   YY=           -393.1956   ZZ=           -399.3414
   XY=            -14.4531   XZ=             14.9450   YZ=             -0.9567
 Traceless Quadrupole moment (field-independent basis, Debye-Ang):
   XX=             33.9107   YY=            -13.8825   ZZ=            -20.0282
   XY=            -14.4531   XZ=             14.9450   YZ=             -0.9567
 Octapole moment (field-independent basis, Debye-Ang**2):
  XXX=           -852.0022  YYY=             86.8058  ZZZ=              9.9692  XYY=             -8.1477
  XXY=             -9.7609  XXZ=           -278.4280  XZZ=              8.2302  YZZ=            -45.7920
  YYZ=             46.7886  XYZ=            -60.6807
 Hexadecapole moment (field-independent basis, Debye-Ang**3):
 XXXX=        -220404.5043 YYYY=         -17656.9473 ZZZZ=          -4336.0683 XXXY=           -224.2155
 XXXZ=           1784.6965 YYYX=           -660.5397 YYYZ=           -219.4861 ZZZX=            -41.6981
 ZZZY=           -127.3471 XXYY=         -40639.8976 XXZZ=         -39048.2149 YYZZ=          -3570.5263
 XXYZ=            -17.8627 YYXZ=            126.9326 ZZXY=             78.9702
 N-N= 8.736344650763D+03 E-N=-2.429689201169D+04  KE= 2.906496945710D+03

 Test job not archived.
 1\1\GINC-RYZEN-SSD3\SP\RCAM-B3LYP TD-FC\6-31G(d,p)\C55H72Mg1N4O5\PADAW
 AN\16-Sep-2019\0\\# td=(NStates=1) iop(3/107=0140000000,3/108=01400000
 00) CAM-B3LYP/6-31G(d,p)\\TD\\0,1\Mg,0,-7.184033095,0.6756759511,0.033
 629733\C,0,-4.9141802345,-1.9942966603,0.5551909215\C,0,-4.7307091015,
 2.8481335313,1.179418047\C,0,-9.277814546,3.0847160246,-0.4970021755\C
 ,0,-9.5478208801,-1.7184436101,-0.8072975347\N,0,-5.1191689481,0.44964
 10547,0.7658344074\C,0,-4.3987321205,-0.6893400772,0.7817560703\C,0,-2
 .9660728279,-0.4797663746,1.334139083\C,0,-3.1094441713,1.050503752,1.
 8317294522\C,0,-4.3825284875,1.4954942005,1.0774921431\C,0,-3.04461064
 19,0.9811909384,3.3799633109\C,0,-2.0080065304,-0.6034863378,0.0801518
 255\C,0,-0.5388595952,-0.5247157196,0.6026636487\C,0,0.5309050137,-0.6
 40790701,-0.5826380539\O,0,0.2589461114,-0.7738411618,-1.7653939325\O,
 0,1.8185304514,-0.5344133797,-0.0029356812\N,0,-7.083135957,2.65201841
 17,0.3869796221\C,0,-5.9543055744,3.3625200194,0.7129571718\C,0,-6.233
 3782462,4.8102778914,0.6833665954\C,0,-7.6017749628,4.9119329985,0.224
 5185783\C,0,-8.054244952,3.5713040692,0.062364235\C,0,-5.4306851024,5.
 9027497487,1.278988054\C,0,-8.4498449925,6.034063676,0.0585964721\C,0,
 -8.1392223322,7.2734464943,0.6462286822\N,0,-9.0389729384,0.7356205565
 ,-0.5722537993\C,0,-9.7871862049,1.7937026946,-0.7419470082\C,0,-11.12
 19061433,1.4633157761,-1.180072867\C,0,-11.2610655938,0.1301105569,-1.
 2327333016\C,0,-9.8542830319,-0.3420343968,-0.9003922405\C,0,-12.22993
 39311,2.506525894,-1.437403193\C,0,-12.3465584487,-0.7244885727,-1.720
 2813587\C,0,-12.1053324421,-1.1275229446,-3.2800086521\N,0,-7.22550551
 3,-1.4062154572,-0.2518578609\C,0,-8.2697913054,-2.266825228,-0.459447
 5247\C,0,-7.8783798778,-3.6177523266,-0.517782078\C,0,-6.5334911396,-3
 .5687498571,-0.0757196537\C,0,-6.1613998717,-2.2205400098,0.0519370291
 \C,0,-8.8546978093,-4.8440705055,-0.9788012632\C,0,-5.3636218251,-4.41
 28648499,0.1681017843\O,0,-5.3055315455,-5.5762644834,0.2334992985\C,0
 ,-4.2509395966,-3.4281002574,0.5992982514\C,0,-3.5565898358,-3.8348914
 318,1.8835743259\O,0,-3.7433571191,-3.2722245804,2.9535187101\O,0,-2.6
 892442772,-4.8375123697,1.6738964271\C,0,-2.012690226,-5.2700922151,2.
 9203494353\C,0,2.7591922396,-0.6708453734,-1.0968932065\C,0,4.09912079
 73,-0.4989751654,-0.5040629691\C,0,5.0389693882,0.4158881168,-0.911153
 9924\C,0,5.0477885045,1.1726649418,-2.0896230973\C,0,6.3737336521,0.49
 634025,-0.1203425587\C,0,7.5712585785,-0.1220207501,-0.9843187606\C,0,
 8.8563633479,-0.0891607322,-0.201956298\C,0,10.1264881094,-0.543906053
 8,-0.8617418942\C,0,10.1633296096,-2.133451225,-1.3124782138\C,0,11.33
 62282866,-0.1837032614,0.0720892464\C,0,12.6965773932,-0.4964696805,-0
 .6388713922\C,0,13.9007113429,-0.1558412984,0.2035967713\C,0,15.279053
 8964,-0.1940084844,-0.4256982223\C,0,15.6308793589,-1.6233507234,-0.94
 11759439\C,0,16.3893959323,0.501616679,0.5211168464\C,0,17.7882464123,
 0.5971734469,-0.0712736544\C,0,18.8009105097,1.2768157601,0.7166849252
 \C,0,20.1387366781,1.3083902715,0.031309837\C,0,20.287791625,2.1668539
 905,-1.2720819041\C,0,21.1979548625,1.8781395139,1.1961735574\H,0,-3.9
 49645328,3.6039636478,1.4069167875\H,0,-10.0417963029,3.8534476193,-0.
 430307557\H,0,-10.4847528994,-2.1292484599,-1.1403718566\H,0,-2.614128
 7001,-1.129133116,2.0181083015\H,0,-2.1784713134,1.5095930204,1.291272
 7763\H,0,-2.1086539518,0.5348525917,3.5051408515\H,0,-2.9095780669,1.9
 449237152,3.699767999\H,0,-4.0314059411,0.422177372,3.7085925445\H,0,-
 2.2659617152,-1.5449251633,-0.4717451816\H,0,-2.1204884178,0.196677287
 5,-0.6591626509\H,0,-0.3659820269,0.3977693642,1.0883827013\H,0,-0.167
 9052108,-1.2522259892,1.4195354118\H,0,-5.6451686946,6.8458020922,0.61
 98218135\H,0,-5.7940108724,6.134896371,2.4449165042\H,0,-4.2807629209,
 5.7926635344,1.329783711\H,0,-9.512521512,6.0877221542,-0.4621375665\H
 ,0,-8.7278618499,8.1210418252,0.5647162473\H,0,-7.0400119333,7.5962264
 59,0.9664056009\H,0,-12.2472251955,2.801149262,-2.6572015517\H,0,-13.2
 800453022,2.0294316856,-1.4018059088\H,0,-12.0051715499,3.3797953136,-
 0.5944498845\H,0,-12.2691688818,-1.5926001828,-1.1490184027\H,0,-13.44
 65869578,-0.2994726578,-1.6200877632\H,0,-12.925227722,-1.8310767698,-
 3.5082817863\H,0,-11.9462150272,-0.18648712,-3.6867676552\H,0,-11.1632
 511645,-1.771698197,-3.197568035\H,0,-9.0529499136,-4.6640229031,-2.00
 93169947\H,0,-8.4067550607,-5.7664325966,-0.8302529804\H,0,-9.74092827
 18,-4.670985547,-0.604362705\H,0,-3.5811856371,-3.6034669523,-0.129950
 7332\H,0,-1.306844072,-4.3489871121,3.4110528229\H,0,-2.7535017875,-5.
 7571152364,3.7913901767\H,0,-1.2111316337,-6.0489156764,2.8261659777\H
 ,0,2.638871942,-1.5630629291,-1.5396454132\H,0,2.3695533966,0.16276436
 12,-1.7314542029\H,0,4.3380842951,-1.0785662704,0.4257039706\H,0,3.838
 7691884,1.374633006,-2.1801384995\H,0,5.5006970019,2.0148119051,-2.043
 2017586\H,0,5.3131108796,0.6702782187,-3.0607323301\H,0,6.6114293268,1
 .4911090915,0.0858481987\H,0,6.3410519773,-0.1503823749,0.7299391894\H
 ,0,7.3277849013,-1.0848791609,-1.3804628035\H,0,7.6007826368,0.4219713
 001,-1.9436051834\H,0,8.9026463089,0.8411836159,0.2588383119\H,0,8.721
 7552963,-0.5855369064,0.7133574591\H,0,10.2389185237,0.156731821,-1.83
 43585939\H,0,9.4071103201,-2.1123495185,-1.9806864505\H,0,10.983267467
 3,-2.23350675,-1.9770330614\H,0,10.2072529224,-2.8013042451,-0.3768550
 792\H,0,11.3799996416,1.1204084742,0.1827460454\H,0,11.276875283,-0.74
 17354711,0.9151478349\H,0,12.9189498475,-1.5699744167,-0.9042526968\H,
 0,12.8399398239,0.1161365497,-1.5747418079\H,0,13.7652679471,0.8508304
 463,0.479022731\H,0,13.753253636,-0.8548918681,0.9880011741\H,0,15.331
 1135128,0.363109708,-1.3176130301\H,0,15.8246162584,-2.1610454457,0.06
 39382583\H,0,14.845016146,-2.0287473947,-1.538535227\H,0,16.5469329729
 ,-1.3778986869,-1.4451310264\H,0,15.9409773712,1.5079791316,0.84653056
 94\H,0,16.3211961974,-0.159242209,1.546403135\H,0,18.1514018779,-0.419
 9385079,-0.3163418298\H,0,17.5832756372,1.1468935835,-1.0391996636\H,0
 ,18.4840474616,2.2431655846,1.0532772745\H,0,18.7514111036,0.697164556
 ,1.6530285484\H,0,20.5921690492,0.2860396016,-0.0913432421\H,0,20.1439
 412126,3.2994607226,-1.1557777625\H,0,21.3647102718,1.7297741195,-1.59
 11370949\H,0,19.5469730949,1.775957886,-2.1514035248\H,0,21.3296568192
 ,1.2397496159,2.0430479736\H,0,22.2465425471,1.8422346942,0.5424608997
 \H,0,21.0414142199,3.015637681,1.3952266594\\Version=ES64L-G16RevA.03\
 State=1-A\HF=-2933.4762953\RMSD=4.231e-09\PG=C01 [X(C55H72Mg1N4O5)]\\@


 IT'S WHAT YOU LEARN AFTER YOU KNOW IT ALL
 THAT COUNTS.
 Job cpu time:       1 days  2 hours 47 minutes 28.1 seconds.
 Elapsed time:       0 days  6 hours 43 minutes  7.0 seconds.
 File lengths (MBytes):  RWF=   6809 Int=      0 D2E=      0 Chk=    181 Scr=      1
 Normal termination of Gaussian 16 at Mon Sep 16 19:23:52 2019.
