 Entering Gaussian System, Link 0=g16
 Input=Geometria-43-.com
 Output=Geometria-43-.log
 Initial command:
 /usr/local/g09/l1.exe "/home/padawan/israel-mol/chlorophyll-a/spectra/emi/Gau-105320.inp" -scrdir="/home/padawan/israel-mol/chlorophyll-a/spectra/emi/"
 Entering Link 1 = /usr/local/g09/l1.exe PID=    105322.
  
 Copyright (c) 1988,1990,1992,1993,1995,1998,2003,2009,2013,
            Gaussian, Inc.  All Rights Reserved.
  
 This is part of the Gaussian(R) 09 program.  It is based on
 the Gaussian(R) 03 system (copyright 2003, Gaussian, Inc.),
 the Gaussian(R) 98 system (copyright 1998, Gaussian, Inc.),
 the Gaussian(R) 94 system (copyright 1995, Gaussian, Inc.),
 the Gaussian 92(TM) system (copyright 1992, Gaussian, Inc.),
 the Gaussian 90(TM) system (copyright 1990, Gaussian, Inc.),
 the Gaussian 88(TM) system (copyright 1988, Gaussian, Inc.),
 the Gaussian 86(TM) system (copyright 1986, Carnegie Mellon
 University), and the Gaussian 82(TM) system (copyright 1983,
 Carnegie Mellon University). Gaussian is a federally registered
 trademark of Gaussian, Inc.
  
 This software contains proprietary and confidential information,
 including trade secrets, belonging to Gaussian, Inc.
  
 This software is provided under written license and may be
 used, copied, transmitted, or stored only in accord with that
 written license.
  
 The following legend is applicable only to US Government
 contracts under FAR:
  
                    RESTRICTED RIGHTS LEGEND
  
 Use, reproduction and disclosure by the US Government is
 subject to restrictions as set forth in subparagraphs (a)
 and (c) of the Commercial Computer Software - Restricted
 Rights clause in FAR 52.227-19.
  
 Gaussian, Inc.
 340 Quinnipiac St., Bldg. 40, Wallingford CT 06492
  
  
 ---------------------------------------------------------------
 Warning -- This program may not be used in any manner that
 competes with the business of Gaussian, Inc. or will provide
 assistance to any competitor of Gaussian, Inc.  The licensee
 of this program is prohibited from giving any competitor of
 Gaussian, Inc. access to this program.  By using this program,
 the user acknowledges that Gaussian, Inc. is engaged in the
 business of creating and licensing software in the field of
 computational chemistry and represents and warrants to the
 licensee that it is not a competitor of Gaussian, Inc. and that
 it will not use this program in any manner prohibited above.
 ---------------------------------------------------------------
  

 Cite this work as:
 Gaussian 09, Revision D.01,
 M. J. Frisch, G. W. Trucks, H. B. Schlegel, G. E. Scuseria, 
 M. A. Robb, J. R. Cheeseman, G. Scalmani, V. Barone, B. Mennucci, 
 G. A. Petersson, H. Nakatsuji, M. Caricato, X. Li, H. P. Hratchian, 
 A. F. Izmaylov, J. Bloino, G. Zheng, J. L. Sonnenberg, M. Hada, 
 M. Ehara, K. Toyota, R. Fukuda, J. Hasegawa, M. Ishida, T. Nakajima, 
 Y. Honda, O. Kitao, H. Nakai, T. Vreven, J. A. Montgomery, Jr., 
 J. E. Peralta, F. Ogliaro, M. Bearpark, J. J. Heyd, E. Brothers, 
 K. N. Kudin, V. N. Staroverov, T. Keith, R. Kobayashi, J. Normand, 
 K. Raghavachari, A. Rendell, J. C. Burant, S. S. Iyengar, J. Tomasi, 
 M. Cossi, N. Rega, J. M. Millam, M. Klene, J. E. Knox, J. B. Cross, 
 V. Bakken, C. Adamo, J. Jaramillo, R. Gomperts, R. E. Stratmann, 
 O. Yazyev, A. J. Austin, R. Cammi, C. Pomelli, J. W. Ochterski, 
 R. L. Martin, K. Morokuma, V. G. Zakrzewski, G. A. Voth, 
 P. Salvador, J. J. Dannenberg, S. Dapprich, A. D. Daniels, 
 O. Farkas, J. B. Foresman, J. V. Ortiz, J. Cioslowski, 
 and D. J. Fox, Gaussian, Inc., Wallingford CT, 2013.
 
 ******************************************
 Gaussian 09:  ES64L-G09RevD.01 24-Apr-2013
                 2-Jul-2019 
 ******************************************
 %nproc=4
 Will use up to    4 processors via shared memory.
 %Mem=2GB
 -------------------------------------
 # td=(NStates=1) CAM-B3LYP/6-31G(d,p)
 -------------------------------------
 1/38=1/1;
 2/12=2,17=6,18=5,40=1/2;
 3/5=1,6=6,7=101,11=9,16=1,25=1,30=1,74=-40/1,2,8,3;
 4//1;
 5/5=2,38=5/2;
 8/6=1,10=2,108=1/1;
 9/41=1,42=1,70=2/14;
 6/7=2,8=2,9=2,10=2/1;
 99/5=1,9=1/99;
 --
 TD
 --
 Symbolic Z-matrix:
 Charge =  0 Multiplicity = 1
 12                   -7.13978   0.61779   0.07362 
 6                    -4.84229  -1.89231   0.47973 
 6                    -4.75125   2.82958   1.06329 
 6                    -9.31634   3.082    -0.47508 
 6                    -9.46069  -1.70333  -0.85441 
 7                    -5.08177   0.40964   0.66479 
 6                    -4.31448  -0.69665   0.73582 
 6                    -2.85817  -0.32567   1.16579 
 6                    -2.9823    1.14355   1.58823 
 6                    -4.35093   1.51425   1.07851 
 6                    -2.87948   1.22371   3.1514 
 6                    -1.89527  -0.51688   0.09084 
 6                    -0.44852  -0.5529    0.54339 
 6                     0.53187  -0.72216  -0.53047 
 8                     0.31691  -1.06052  -1.67555 
 8                     1.80091  -0.47302  -0.07702 
 7                    -7.06094   2.62192   0.30124 
 6                    -5.96703   3.38008   0.76389 
 6                    -6.34808   4.82393   0.68659 
 6                    -7.70453   4.80698   0.31035 
 6                    -8.10562   3.50603  -0.05758 
 6                    -5.47446   5.87967   1.12277 
 6                    -8.45341   6.06001   0.09977 
 6                    -8.42964   7.19106   0.81212 
 7                    -9.01657   0.659    -0.6368 
 6                    -9.81859   1.78016  -0.65227 
 6                    -11.21298   1.43402  -1.03925 
 6                    -11.2574   0.07941  -1.19485 
 6                    -9.92754  -0.39143  -0.90444 
 6                    -12.34368   2.53253  -1.37573 
 6                    -12.41579  -0.8377   -1.51747 
 6                    -12.45189  -1.19677  -3.04575 
 7                    -7.18284  -1.42201  -0.27911 
 6                    -8.20475  -2.27182  -0.62026 
 6                    -7.75723  -3.63394  -0.64195 
 6                    -6.46297  -3.65293  -0.14799 
 6                    -6.0813   -2.18785   0.07208 
 6                    -8.68612  -4.78551  -0.73865 
 6                    -5.25294  -4.39088   0.3236 
 8                    -5.19882  -5.58331   0.43979 
 6                    -4.17876  -3.3643    0.50475 
 6                    -3.55662  -3.71414   1.89013 
 8                    -3.75946  -3.22896   2.95073 
 8                    -2.66838  -4.72348   1.78969 
 6                    -2.12032  -5.24537   2.98599 
 6                     2.81147  -0.60086  -1.16096 
 6                     4.11165  -0.35533  -0.61691 
 6                     5.06281   0.44729  -0.9636 
 6                     4.89941   1.488    -2.12073 
 6                     6.36499   0.4715   -0.2409 
 6                     7.66714  -0.05172  -1.10825 
 6                     8.85467  -0.00609  -0.1687 
 6                     10.1403  -0.50398  -0.96164 
 6                     10.06609  -1.94146  -1.24346 
 6                     11.3403  -0.27688  -0.11982 
 6                     12.75162  -0.5527   -0.7513 
 6                     13.93383  -0.18523   0.18601 
 6                     15.28544  -0.18327  -0.54027 
 6                     15.58985  -1.71143  -1.02448 
 6                     16.33244   0.27005   0.43661 
 6                     17.75705   0.42927  -0.11622 
 6                     18.69529   1.11941   0.73877 
 6                     20.20446   1.32235   0.37901 
 6                     20.17709   2.35693  -0.89918 
 6                     21.14869   1.82809   1.34981 
 1                    -4.06998   3.57377   1.34247 
 1                    -9.87673   4.06721  -0.52708 
 1                    -9.93151  -2.7801   -1.22016 
 1                    -2.36193  -1.00656   1.89379 
 1                    -2.12893   1.71171   1.28108 
 1                    -1.83568   0.94368   3.4539 
 1                    -3.01503   2.20369   3.36775 
 1                    -3.71222   0.69493   3.74812 
 1                    -2.02633  -1.60431  -0.27414 
 1                    -2.1132    0.08278  -0.8197 
 1                    -0.27201   0.39299   0.96184 
 1                    -0.17179  -1.48491   1.31087 
 1                    -6.00991   6.74263   0.66345 
 1                    -5.87804   6.03359   2.15753 
 1                    -4.43115   5.80413   0.96494 
 1                    -9.33816   6.02875  -0.69759 
 1                    -8.79013   8.11731   0.33818 
 1                    -7.70942   7.33676   1.68259 
 1                    -12.17928   2.96238  -2.29694 
 1                    -13.28241   1.83715  -1.29894 
 1                    -12.41943   3.25679  -0.59498 
 1                    -12.33256  -1.87696  -1.05033 
 1                    -13.38204  -0.4116   -1.1811 
 1                    -13.09843  -1.96029  -3.39687 
 1                    -12.42024  -0.26357  -3.73801 
 1                    -11.48057  -1.4891   -3.43892 
 1                    -9.26324  -4.70683  -1.65876 
 1                    -8.10538  -5.78845  -0.80811 
 1                    -9.59929  -4.92071  -0.11574 
 1                    -3.36301  -3.53305  -0.21132 
 1                    -1.31295  -4.5086    3.26465 
 1                    -2.87846  -5.25467   3.77619 
 1                    -1.5833   -6.10272   2.70527 
 1                     2.87744  -1.66572  -1.49305 
 1                     2.56398  -0.03465  -1.91091 
 1                     4.32653  -1.09449   0.22238 
 1                     3.94177   1.27755  -2.63697 
 1                     4.75897   2.57948  -1.72941 
 1                     5.79934   1.40692  -2.63505 
 1                     6.6329    1.56044  -0.20616 
 1                     6.33049   0.17112   0.65268 
 1                     7.43254  -1.08513  -1.34775 
 1                     7.70995   0.38058  -2.01922 
 1                     8.93636   0.98004   0.07876 
 1                     8.7183   -0.61854   0.55302 
 1                     10.03946   0.05178  -1.75076 
 1                     9.29919  -2.10917  -2.2359 
 1                     10.88597  -2.49794  -1.64847 
 1                     9.7106   -2.54854  -0.33073 
 1                     11.27952   0.74239   0.40774 
 1                     11.1385  -0.66795   0.86367 
 1                     12.79903  -1.66817  -0.9275 
 1                     12.73266  -0.01383  -1.76032 
 1                     13.85493   0.84066   0.43332 
 1                     13.85038  -0.84079   1.05105 
 1                     15.38724   0.27968  -1.54432 
 1                     15.43166  -2.42691  -0.1339 
 1                     14.95617  -1.74071  -1.84605 
 1                     16.78584  -1.73331  -1.30082 
 1                     15.98304   1.21512   0.54838 
 1                     16.40726  -0.41616   1.38011 
 1                     18.25255  -0.54436  -0.62443 
 1                     17.88383   1.19127  -0.88714 
 1                     18.42631   2.07435   1.0786 
 1                     18.90046   0.58352   1.74026 
 1                     20.60107   0.34384  -0.01032 
 1                     19.85267   3.27241  -0.41217 
 1                     21.18347   2.65924  -1.28894 
 1                     19.43684   2.10992  -1.8138 
 1                     21.04774   1.24731   2.22595 
 1                     22.06232   1.70403   1.01918 
 1                     20.7107   2.71099   1.72935 
 
 Stoichiometry    C55H72MgN4O5
 Framework group  C1[X(C55H72MgN4O5)]
 Deg. of freedom   405
 Full point group                 C1      NOp   1
 Largest Abelian subgroup         C1      NOp   1
 Largest concise Abelian subgroup C1      NOp   1
                         Standard orientation:                         
 ---------------------------------------------------------------------
 Center     Atomic      Atomic             Coordinates (Angstroms)
 Number     Number       Type             X           Y           Z
 ---------------------------------------------------------------------
      1         12           0       -7.137348    0.618638    0.084522
      2          6           0       -4.840031   -1.895895    0.463321
      3          6           0       -4.747757    2.819741    1.095265
      4          6           0       -9.313823    3.088728   -0.437397
      5          6           0       -9.459280   -1.692430   -0.865740
      6          7           0       -5.078980    0.404076    0.672156
      7          6           0       -4.311840   -0.703017    0.731319
      8          6           0       -2.855183   -0.336723    1.164101
      9          6           0       -2.978767    1.128103    1.601687
     10          6           0       -4.347669    1.504256    1.096716
     11          6           0       -2.874896    1.192200    3.165526
     12          6           0       -1.893029   -0.517048    0.086610
     13          6           0       -0.445984   -0.557963    0.537799
     14          6           0        0.533669   -0.716354   -0.538392
     15          8           0        0.317887   -1.042908   -1.686747
     16          8           0        1.803052   -0.472109   -0.083259
     17          7           0       -7.057991    2.620309    0.332657
     18          6           0       -5.963638    3.373492    0.802339
     19          6           0       -6.344487    4.818123    0.740120
     20          6           0       -7.701191    4.805274    0.364628
     21          6           0       -8.102759    3.508238   -0.016374
     22          6           0       -5.470383    5.869183    1.186531
     23          6           0       -8.449987    6.060525    0.167420
     24          6           0       -8.425536    7.184196    0.891329
     25          7           0       -9.014601    0.667460   -0.624181
     26          6           0       -9.816425    1.788857   -0.627609
     27          6           0      -11.211136    1.446951   -1.017189
     28          6           0      -11.255898    0.094019   -1.186661
     29          6           0       -9.925930   -0.380011   -0.901982
     30          6           0      -12.341865    2.549054   -1.341629
     31          6           0      -12.414664   -0.819536   -1.517912
     32          6           0      -12.451849   -1.162891   -3.049771
     33          7           0       -7.180999   -1.417428   -0.289100
     34          6           0       -8.203290   -2.263516   -0.638270
     35          6           0       -7.756029   -3.625418   -0.674246
     36          6           0       -6.461443   -3.649698   -0.181363
     37          6           0       -6.079366   -2.187018    0.053479
     38          6           0       -8.685183   -4.775774   -0.782146
     39          6           0       -5.251232   -4.392662    0.281812
     40          8           0       -5.197247   -5.586231    0.385723
     41          6           0       -4.176750   -3.368180    0.472782
     42          6           0       -3.553748   -3.732326    1.854082
     43          8           0       -3.755799   -3.258028    2.919740
     44          8           0       -2.665757   -4.740734    1.742692
     45          6           0       -2.117001   -5.274975    2.933212
     46          6           0        2.812871   -0.588981   -1.169119
     47          6           0        4.113455   -0.349278   -0.623447
     48          6           0        5.064525    0.456700   -0.962506
     49          6           0        4.900541    1.509263   -2.108782
     50          6           0        6.367190    0.473263   -0.240467
     51          6           0        7.668674   -0.041243   -1.114006
     52          6           0        8.856828   -0.005465   -0.174829
     53          6           0       10.141850   -0.495411   -0.973693
     54          6           0       10.067195   -1.929906   -1.270207
     55          6           0       11.342441   -0.277175   -0.130388
     56          6           0       12.753296   -0.546738   -0.765600
     57          6           0       13.936196   -0.189114    0.174637
     58          6           0       15.287326   -0.179932   -0.552482
     59          6           0       15.591137   -1.703089   -1.052558
     60          6           0       16.335047    0.263159    0.428304
     61          6           0       17.759322    0.427804   -0.123806
     62          6           0       18.698252    1.108964    0.737601
     63          6           0       20.207218    1.315330    0.378938
     64          6           0       20.179184    2.362985   -0.888548
     65          6           0       21.152179    1.810908    1.354248
     66          1           0       -4.066172    3.560910    1.381613
     67          1           0       -9.874073    4.074510   -0.478904
     68          1           0       -9.930535   -2.765309   -1.242209
     69          1           0       -2.358579   -1.025134    1.884745
     70          1           0       -2.125494    1.699247    1.299818
     71          1           0       -1.830941    0.908900    3.464443
     72          1           0       -3.010121    2.169930    3.392018
     73          1           0       -3.707336    0.657464    3.757341
     74          1           0       -2.024517   -1.600654   -0.289432
     75          1           0       -2.111456    0.091959   -0.817586
     76          1           0       -0.269026    0.383554    0.965818
     77          1           0       -0.168914   -1.497854    1.295482
     78          1           0       -6.005988    6.736908    0.736457
     79          1           0       -5.873258    6.012537    2.223091
     80          1           0       -4.427193    5.795089    1.027243
     81          1           0       -9.335264    6.037606   -0.629627
     82          1           0       -8.786178    8.115332    0.427169
     83          1           0       -7.704716    7.320832    1.762768
     84          1           0      -12.177999    2.988303   -2.258485
     85          1           0      -13.280663    1.853077   -1.271354
     86          1           0      -12.416968    3.265274   -0.553431
     87          1           0      -12.331312   -1.863547   -1.061519
     88          1           0      -13.380615   -0.396742   -1.176544
     89          1           0      -13.098752   -1.922654   -3.408281
     90          1           0      -12.420485   -0.222638   -3.732432
     91          1           0      -11.480844   -1.451338   -3.446571
     92          1           0       -9.262899   -4.687553   -1.701012
     93          1           0       -8.104672   -5.778046   -0.862283
     94          1           0       -9.597967   -4.917201   -0.160050
     95          1           0       -3.361502   -3.529704   -0.245522
     96          1           0       -1.309311   -4.541242    3.218880
     97          1           0       -2.874613   -5.292255    3.723776
     98          1           0       -1.580314   -6.129491    2.643348
     99          1           0        2.878424   -1.650387   -1.512174
    100          1           0        2.564985   -0.015060   -1.913059
    101          1           0        4.328761   -1.097051    0.208064
    102          1           0        3.942526    1.304284   -2.626523
    103          1           0        4.760559    2.596689   -1.706186
    104          1           0        5.800114    1.433314   -2.624512
    105          1           0        6.635312    1.561744   -0.194725
    106          1           0        6.333225    0.163731    0.650011
    107          1           0        7.433726   -1.072101   -1.363945
    108          1           0        7.710955    0.400377   -2.020526
    109          1           0        8.938857    0.978050    0.082682
    110          1           0        8.720831   -0.625271    0.540658
    111          1           0       10.040582    0.068434   -1.757001
    112          1           0        9.299608   -2.087291   -2.263807
    113          1           0       10.886704   -2.482341   -1.681455
    114          1           0        9.712203   -2.546266   -0.363526
    115          1           0       11.282192    0.736633    0.407652
    116          1           0       11.141224   -0.678288    0.849167
    117          1           0       12.800393   -1.660354   -0.953279
    118          1           0       12.733759    0.002465   -1.769026
    119          1           0       13.857637    0.834193    0.432524
    120          1           0       13.853198   -0.853510    1.032962
    121          1           0       15.388539    0.293284   -1.551790
    122          1           0       15.433411   -2.427652   -0.169268
    123          1           0       14.956905   -1.723822   -1.873963
    124          1           0       16.786937   -1.722336   -1.329903
    125          1           0       15.985897    1.207089    0.550006
    126          1           0       16.410369   -0.432717    1.364662
    127          1           0       18.254306   -0.540647   -0.642313
    128          1           0       17.885721    1.197649   -0.886951
    129          1           0       18.429671    2.060413    1.087388
    130          1           0       18.903988    0.562788    1.733400
    131          1           0       20.603391    0.340799   -0.020688
    132          1           0       19.855251    3.273469   -0.391953
    133          1           0       21.185363    2.669106   -1.275853
    134          1           0       19.438282    2.125504   -1.805161
    135          1           0       21.051712    1.221188    2.224448
    136          1           0       22.065569    1.690098    1.021750
    137          1           0       20.714604    2.689946    1.743127
 ---------------------------------------------------------------------
 Rotational constants (GHZ):      0.0645756      0.0061342      0.0057687
 Standard basis: 6-31G(d,p) (6D, 7F)
 There are  1339 symmetry adapted cartesian basis functions of A   symmetry.
 There are  1339 symmetry adapted basis functions of A   symmetry.
  1339 basis functions,  2348 primitive gaussians,  1339 cartesian basis functions
   241 alpha electrons      241 beta electrons
       nuclear repulsion energy      8757.3460355539 Hartrees.
 NAtoms=  137 NActive=  137 NUniq=  137 SFac= 1.00D+00 NAtFMM=   60 NAOKFM=T Big=T
 Integral buffers will be    131072 words long.
 Raffenetti 1 integral format.
 Two-electron integral symmetry is turned on.
 One-electron integrals computed using PRISM.
 NBasis=  1339 RedAO= T EigKep=  2.91D-04  NBF=  1339
 NBsUse=  1339 1.00D-06 EigRej= -1.00D+00 NBFU=  1339
 ExpMin= 4.21D-02 ExpMax= 1.17D+04 ExpMxC= 1.76D+03 IAcc=2 IRadAn=         4 AccDes= 0.00D+00
 Harris functional with IExCor=20419 and IRadAn=       4 diagonalized for initial guess.
 HarFok:  IExCor=20419 AccDes= 0.00D+00 IRadAn=         4 IDoV= 1 UseB2=F ITyADJ=14
 ICtDFT=  3500011 ScaDFX=  1.000000  1.000000  1.000000  1.000000
 FoFCou: FMM=F IPFlag=           0 FMFlag=      100000 FMFlg1=        2001
         NFxFlg=           0 DoJE=T BraDBF=F KetDBF=T FulRan=T
         wScrn=  0.000000 ICntrl=     500 IOpCl=  0 I1Cent=   200000004 NGrid=           0
         NMat0=    1 NMatS0=      1 NMatT0=    0 NMatD0=    1 NMtDS0=    0 NMtDT0=    0
 Petite list used in FoFCou.
 Requested convergence on RMS density matrix=1.00D-08 within 128 cycles.
 Requested convergence on MAX density matrix=1.00D-06.
 Requested convergence on             energy=1.00D-06.
 No special actions if energy rises.
 SCF Done:  E(RCAM-B3LYP) =  -2932.66069854     A.U. after   16 cycles
            NFock= 16  Conv=0.52D-08     -V/T= 2.0086
 DoSCS=F DFT=T ScalE2(SS,OS)=  1.000000  1.000000
 ExpMin= 4.21D-02 ExpMax= 1.17D+04 ExpMxC= 1.76D+03 IAcc=3 IRadAn=         5 AccDes= 0.00D+00
 HarFok:  IExCor=  205 AccDes= 0.00D+00 IRadAn=         5 IDoV=-2 UseB2=F ITyADJ=14
 ICtDFT= 12500011 ScaDFX=  1.000000  1.000000  1.000000  1.000000
 Range of M.O.s used for correlation:    70  1339
 NBasis=  1339 NAE=   241 NBE=   241 NFC=    69 NFV=     0
 NROrb=   1270 NOA=   172 NOB=   172 NVA=  1098 NVB=  1098
 Would need an additional       2415464100000 words for in-memory AO integral storage.
 Orbital symmetries:
       Occupied  (A) (A) (A) (A) (A) (A) (A) (A) (A) (A) (A) (A)
                 (A) (A) (A) (A) (A) (A) (A) (A) (A) (A) (A) (A)
                 (A) (A) (A) (A) (A) (A) (A) (A) (A) (A) (A) (A)
                 (A) (A) (A) (A) (A) (A) (A) (A) (A) (A) (A) (A)
                 (A) (A) (A) (A) (A) (A) (A) (A) (A) (A) (A) (A)
                 (A) (A) (A) (A) (A) (A) (A) (A) (A) (A) (A) (A)
                 (A) (A) (A) (A) (A) (A) (A) (A) (A) (A) (A) (A)
                 (A) (A) (A) (A) (A) (A) (A) (A) (A) (A) (A) (A)
                 (A) (A) (A) (A) (A) (A) (A) (A) (A) (A) (A) (A)
                 (A) (A) (A) (A) (A) (A) (A) (A) (A) (A) (A) (A)
                 (A) (A) (A) (A) (A) (A) (A) (A) (A) (A) (A) (A)
                 (A) (A) (A) (A) (A) (A) (A) (A) (A) (A) (A) (A)
                 (A) (A) (A) (A) (A) (A) (A) (A) (A) (A) (A) (A)
                 (A) (A) (A) (A) (A) (A) (A) (A) (A) (A) (A) (A)
                 (A) (A) (A) (A) (A) (A) (A) (A) (A) (A) (A) (A)
                 (A) (A) (A) (A) (A) (A) (A) (A) (A) (A) (A) (A)
                 (A) (A) (A) (A) (A) (A) (A) (A) (A) (A) (A) (A)
                 (A) (A) (A) (A) (A) (A) (A) (A) (A) (A) (A) (A)
                 (A) (A) (A) (A) (A) (A) (A) (A) (A) (A) (A) (A)
                 (A) (A) (A) (A) (A) (A) (A) (A) (A) (A) (A) (A)
                 (A)
       Virtual   (A) (A) (A) (A) (A) (A) (A) (A) (A) (A) (A) (A)
                 (A) (A) (A) (A) (A) (A) (A) (A) (A) (A) (A) (A)
                 (A) (A) (A) (A) (A) (A) (A) (A) (A) (A) (A) (A)
                 (A) (A) (A) (A) (A) (A) (A) (A) (A) (A) (A) (A)
                 (A) (A) (A) (A) (A) (A) (A) (A) (A) (A) (A) (A)
                 (A) (A) (A) (A) (A) (A) (A) (A) (A) (A) (A) (A)
                 (A) (A) (A) (A) (A) (A) (A) (A) (A) (A) (A) (A)
                 (A) (A) (A) (A) (A) (A) (A) (A) (A) (A) (A) (A)
                 (A) (A) (A) (A) (A) (A) (A) (A) (A) (A) (A) (A)
                 (A) (A) (A) (A) (A) (A) (A) (A) (A) (A) (A) (A)
                 (A) (A) (A) (A) (A) (A) (A) (A) (A) (A) (A) (A)
                 (A) (A) (A) (A) (A) (A) (A) (A) (A) (A) (A) (A)
                 (A) (A) (A) (A) (A) (A) (A) (A) (A) (A) (A) (A)
                 (A) (A) (A) (A) (A) (A) (A) (A) (A) (A) (A) (A)
                 (A) (A) (A) (A) (A) (A) (A) (A) (A) (A) (A) (A)
                 (A) (A) (A) (A) (A) (A) (A) (A) (A) (A) (A) (A)
                 (A) (A) (A) (A) (A) (A) (A) (A) (A) (A) (A) (A)
                 (A) (A) (A) (A) (A) (A) (A) (A) (A) (A) (A) (A)
                 (A) (A) (A) (A) (A) (A) (A) (A) (A) (A) (A) (A)
                 (A) (A) (A) (A) (A) (A) (A) (A) (A) (A) (A) (A)
                 (A) (A) (A) (A) (A) (A) (A) (A) (A) (A) (A) (A)
                 (A) (A) (A) (A) (A) (A) (A) (A) (A) (A) (A) (A)
                 (A) (A) (A) (A) (A) (A) (A) (A) (A) (A) (A) (A)
                 (A) (A) (A) (A) (A) (A) (A) (A) (A) (A) (A) (A)
                 (A) (A) (A) (A) (A) (A) (A) (A) (A) (A) (A) (A)
                 (A) (A) (A) (A) (A) (A) (A) (A) (A) (A) (A) (A)
                 (A) (A) (A) (A) (A) (A) (A) (A) (A) (A) (A) (A)
                 (A) (A) (A) (A) (A) (A) (A) (A) (A) (A) (A) (A)
                 (A) (A) (A) (A) (A) (A) (A) (A) (A) (A) (A) (A)
                 (A) (A) (A) (A) (A) (A) (A) (A) (A) (A) (A) (A)
                 (A) (A) (A) (A) (A) (A) (A) (A) (A) (A) (A) (A)
                 (A) (A) (A) (A) (A) (A) (A) (A) (A) (A) (A) (A)
                 (A) (A) (A) (A) (A) (A) (A) (A) (A) (A) (A) (A)
                 (A) (A) (A) (A) (A) (A) (A) (A) (A) (A) (A) (A)
                 (A) (A) (A) (A) (A) (A) (A) (A) (A) (A) (A) (A)
                 (A) (A) (A) (A) (A) (A) (A) (A) (A) (A) (A) (A)
                 (A) (A) (A) (A) (A) (A) (A) (A) (A) (A) (A) (A)
                 (A) (A) (A) (A) (A) (A) (A) (A) (A) (A) (A) (A)
                 (A) (A) (A) (A) (A) (A) (A) (A) (A) (A) (A) (A)
                 (A) (A) (A) (A) (A) (A) (A) (A) (A) (A) (A) (A)
                 (A) (A) (A) (A) (A) (A) (A) (A) (A) (A) (A) (A)
                 (A) (A) (A) (A) (A) (A) (A) (A) (A) (A) (A) (A)
                 (A) (A) (A) (A) (A) (A) (A) (A) (A) (A) (A) (A)
                 (A) (A) (A) (A) (A) (A) (A) (A) (A) (A) (A) (A)
                 (A) (A) (A) (A) (A) (A) (A) (A) (A) (A) (A) (A)
                 (A) (A) (A) (A) (A) (A) (A) (A) (A) (A) (A) (A)
                 (A) (A) (A) (A) (A) (A) (A) (A) (A) (A) (A) (A)
                 (A) (A) (A) (A) (A) (A) (A) (A) (A) (A) (A) (A)
                 (A) (A) (A) (A) (A) (A) (A) (A) (A) (A) (A) (A)
                 (A) (A) (A) (A) (A) (A) (A) (A) (A) (A) (A) (A)
                 (A) (A) (A) (A) (A) (A) (A) (A) (A) (A) (A) (A)
                 (A) (A) (A) (A) (A) (A) (A) (A) (A) (A) (A) (A)
                 (A) (A) (A) (A) (A) (A) (A) (A) (A) (A) (A) (A)
                 (A) (A) (A) (A) (A) (A) (A) (A) (A) (A) (A) (A)
                 (A) (A) (A) (A) (A) (A) (A) (A) (A) (A) (A) (A)
                 (A) (A) (A) (A) (A) (A) (A) (A) (A) (A) (A) (A)
                 (A) (A) (A) (A) (A) (A) (A) (A) (A) (A) (A) (A)
                 (A) (A) (A) (A) (A) (A) (A) (A) (A) (A) (A) (A)
                 (A) (A) (A) (A) (A) (A) (A) (A) (A) (A) (A) (A)
                 (A) (A) (A) (A) (A) (A) (A) (A) (A) (A) (A) (A)
                 (A) (A) (A) (A) (A) (A) (A) (A) (A) (A) (A) (A)
                 (A) (A) (A) (A) (A) (A) (A) (A) (A) (A) (A) (A)
                 (A) (A) (A) (A) (A) (A) (A) (A) (A) (A) (A) (A)
                 (A) (A) (A) (A) (A) (A) (A) (A) (A) (A) (A) (A)
                 (A) (A) (A) (A) (A) (A) (A) (A) (A) (A) (A) (A)
                 (A) (A) (A) (A) (A) (A) (A) (A) (A) (A) (A) (A)
                 (A) (A) (A) (A) (A) (A) (A) (A) (A) (A) (A) (A)
                 (A) (A) (A) (A) (A) (A) (A) (A) (A) (A) (A) (A)
                 (A) (A) (A) (A) (A) (A) (A) (A) (A) (A) (A) (A)
                 (A) (A) (A) (A) (A) (A) (A) (A) (A) (A) (A) (A)
                 (A) (A) (A) (A) (A) (A) (A) (A) (A) (A) (A) (A)
                 (A) (A) (A) (A) (A) (A) (A) (A) (A) (A) (A) (A)
                 (A) (A) (A) (A) (A) (A) (A) (A) (A) (A) (A) (A)
                 (A) (A) (A) (A) (A) (A) (A) (A) (A) (A) (A) (A)
                 (A) (A) (A) (A) (A) (A) (A) (A) (A) (A) (A) (A)
                 (A) (A) (A) (A) (A) (A) (A) (A) (A) (A) (A) (A)
                 (A) (A) (A) (A) (A) (A) (A) (A) (A) (A) (A) (A)
                 (A) (A) (A) (A) (A) (A) (A) (A) (A) (A) (A) (A)
                 (A) (A) (A) (A) (A) (A) (A) (A) (A) (A) (A) (A)
                 (A) (A) (A) (A) (A) (A) (A) (A) (A) (A) (A) (A)
                 (A) (A) (A) (A) (A) (A) (A) (A) (A) (A) (A) (A)
                 (A) (A) (A) (A) (A) (A) (A) (A) (A) (A) (A) (A)
                 (A) (A) (A) (A) (A) (A) (A) (A) (A) (A) (A) (A)
                 (A) (A) (A) (A) (A) (A) (A) (A) (A) (A) (A) (A)
                 (A) (A) (A) (A) (A) (A) (A) (A) (A) (A) (A) (A)
                 (A) (A) (A) (A) (A) (A) (A) (A) (A) (A) (A) (A)
                 (A) (A) (A) (A) (A) (A) (A) (A) (A) (A) (A) (A)
                 (A) (A) (A) (A) (A) (A) (A) (A) (A) (A) (A) (A)
                 (A) (A) (A) (A) (A) (A) (A) (A) (A) (A) (A) (A)
                 (A) (A) (A) (A) (A) (A) (A) (A) (A) (A) (A) (A)
                 (A) (A) (A) (A) (A) (A) (A) (A) (A) (A) (A) (A)
                 (A) (A) (A) (A) (A) (A)
     8 initial guesses have been made.
 Convergence on wavefunction:    0.001000000000000
 Iteration     1 Dimension     8 NMult     0 NNew      8
 CISAX will form     8 AO SS matrices at one time.
 Iteration     2 Dimension    12 NMult     8 NNew      4
 Iteration     3 Dimension    16 NMult    12 NNew      4
 Iteration     4 Dimension    20 NMult    16 NNew      4
 Iteration     5 Dimension    24 NMult    20 NNew      4
 Iteration     6 Dimension    28 NMult    24 NNew      4
 ***********************************************************************
 Excited states from <AA,BB:AA,BB> singles matrix:
 ***********************************************************************
 
 Ground to excited state transition densities written to RWF  633
 Ground to excited state transition electric dipole moments (Au):
       state          X           Y           Z        Dip. S.      Osc.
         1         0.2375     -2.1767     -0.2058      4.8367      0.2453
 Ground to excited state transition velocity dipole moments (Au):
       state          X           Y           Z        Dip. S.      Osc.
         1        -0.0160      0.1614      0.0157      0.0265      0.2326
 Ground to excited state transition magnetic dipole moments (Au):
       state          X           Y           Z
         1         0.4456      0.3547     -3.4781
 Ground to excited state transition velocity quadrupole moments (Au):
       state          XX          YY          ZZ          XY          XZ          YZ
         1         0.3541      0.2233      0.0406     -1.9937     -0.1685      0.1734
 <0|del|b> * <b|rxdel|0> + <0|del|b> * <b|delr+rdel|0>
 Rotatory Strengths (R) in cgs (10**-40 erg-esu-cm/Gauss)
       state          XX          YY          ZZ    R(velocity)    E-M Angle
         1        -7.6910   -154.6678    119.3427    -14.3387       90.46
 1/2[<0|r|b>*<b|rxdel|0> + (<0|rxdel|b>*<b|r|0>)*]
 Rotatory Strengths (R) in cgs (10**-40 erg-esu-cm/Gauss)
       state          XX          YY          ZZ     R(length)
         1       -74.8372    545.9049   -506.2522    -11.7281
  1/2[<0|del|b>*<b|r|0> + (<0|r|b>*<b|del|0>)*] (Au)
       state          X           Y           Z        Dip. S.   Osc.(frdel)
         1        -0.0038     -0.3512     -0.0032      0.3583      0.2388

 Excitation energies and oscillator strengths:
 
 Excited State   1:      Singlet-A      2.0698 eV  599.03 nm  f=0.2453  <S**2>=0.000
     240 -> 243        0.26075
     241 -> 242        0.64771
 This state for optimization and/or second-order correction.
 Total Energy, E(TD-HF/TD-KS) =  -2932.58463614    
 Copying the excited state density for this state as the 1-particle RhoCI density.
 SavETr:  write IOETrn=   770 NScale= 10 NData=  16 NLR=1 NState=    1 LETran=      28.

 **********************************************************************

            Population analysis using the SCF density.

 **********************************************************************

 Orbital symmetries:
       Occupied  (A) (A) (A) (A) (A) (A) (A) (A) (A) (A) (A) (A)
                 (A) (A) (A) (A) (A) (A) (A) (A) (A) (A) (A) (A)
                 (A) (A) (A) (A) (A) (A) (A) (A) (A) (A) (A) (A)
                 (A) (A) (A) (A) (A) (A) (A) (A) (A) (A) (A) (A)
                 (A) (A) (A) (A) (A) (A) (A) (A) (A) (A) (A) (A)
                 (A) (A) (A) (A) (A) (A) (A) (A) (A) (A) (A) (A)
                 (A) (A) (A) (A) (A) (A) (A) (A) (A) (A) (A) (A)
                 (A) (A) (A) (A) (A) (A) (A) (A) (A) (A) (A) (A)
                 (A) (A) (A) (A) (A) (A) (A) (A) (A) (A) (A) (A)
                 (A) (A) (A) (A) (A) (A) (A) (A) (A) (A) (A) (A)
                 (A) (A) (A) (A) (A) (A) (A) (A) (A) (A) (A) (A)
                 (A) (A) (A) (A) (A) (A) (A) (A) (A) (A) (A) (A)
                 (A) (A) (A) (A) (A) (A) (A) (A) (A) (A) (A) (A)
                 (A) (A) (A) (A) (A) (A) (A) (A) (A) (A) (A) (A)
                 (A) (A) (A) (A) (A) (A) (A) (A) (A) (A) (A) (A)
                 (A) (A) (A) (A) (A) (A) (A) (A) (A) (A) (A) (A)
                 (A) (A) (A) (A) (A) (A) (A) (A) (A) (A) (A) (A)
                 (A) (A) (A) (A) (A) (A) (A) (A) (A) (A) (A) (A)
                 (A) (A) (A) (A) (A) (A) (A) (A) (A) (A) (A) (A)
                 (A) (A) (A) (A) (A) (A) (A) (A) (A) (A) (A) (A)
                 (A)
       Virtual   (A) (A) (A) (A) (A) (A) (A) (A) (A) (A) (A) (A)
                 (A) (A) (A) (A) (A) (A) (A) (A) (A) (A) (A) (A)
                 (A) (A) (A) (A) (A) (A) (A) (A) (A) (A) (A) (A)
                 (A) (A) (A) (A) (A) (A) (A) (A) (A) (A) (A) (A)
                 (A) (A) (A) (A) (A) (A) (A) (A) (A) (A) (A) (A)
                 (A) (A) (A) (A) (A) (A) (A) (A) (A) (A) (A) (A)
                 (A) (A) (A) (A) (A) (A) (A) (A) (A) (A) (A) (A)
                 (A) (A) (A) (A) (A) (A) (A) (A) (A) (A) (A) (A)
                 (A) (A) (A) (A) (A) (A) (A) (A) (A) (A) (A) (A)
                 (A) (A) (A) (A) (A) (A) (A) (A) (A) (A) (A) (A)
                 (A) (A) (A) (A) (A) (A) (A) (A) (A) (A) (A) (A)
                 (A) (A) (A) (A) (A) (A) (A) (A) (A) (A) (A) (A)
                 (A) (A) (A) (A) (A) (A) (A) (A) (A) (A) (A) (A)
                 (A) (A) (A) (A) (A) (A) (A) (A) (A) (A) (A) (A)
                 (A) (A) (A) (A) (A) (A) (A) (A) (A) (A) (A) (A)
                 (A) (A) (A) (A) (A) (A) (A) (A) (A) (A) (A) (A)
                 (A) (A) (A) (A) (A) (A) (A) (A) (A) (A) (A) (A)
                 (A) (A) (A) (A) (A) (A) (A) (A) (A) (A) (A) (A)
                 (A) (A) (A) (A) (A) (A) (A) (A) (A) (A) (A) (A)
                 (A) (A) (A) (A) (A) (A) (A) (A) (A) (A) (A) (A)
                 (A) (A) (A) (A) (A) (A) (A) (A) (A) (A) (A) (A)
                 (A) (A) (A) (A) (A) (A) (A) (A) (A) (A) (A) (A)
                 (A) (A) (A) (A) (A) (A) (A) (A) (A) (A) (A) (A)
                 (A) (A) (A) (A) (A) (A) (A) (A) (A) (A) (A) (A)
                 (A) (A) (A) (A) (A) (A) (A) (A) (A) (A) (A) (A)
                 (A) (A) (A) (A) (A) (A) (A) (A) (A) (A) (A) (A)
                 (A) (A) (A) (A) (A) (A) (A) (A) (A) (A) (A) (A)
                 (A) (A) (A) (A) (A) (A) (A) (A) (A) (A) (A) (A)
                 (A) (A) (A) (A) (A) (A) (A) (A) (A) (A) (A) (A)
                 (A) (A) (A) (A) (A) (A) (A) (A) (A) (A) (A) (A)
                 (A) (A) (A) (A) (A) (A) (A) (A) (A) (A) (A) (A)
                 (A) (A) (A) (A) (A) (A) (A) (A) (A) (A) (A) (A)
                 (A) (A) (A) (A) (A) (A) (A) (A) (A) (A) (A) (A)
                 (A) (A) (A) (A) (A) (A) (A) (A) (A) (A) (A) (A)
                 (A) (A) (A) (A) (A) (A) (A) (A) (A) (A) (A) (A)
                 (A) (A) (A) (A) (A) (A) (A) (A) (A) (A) (A) (A)
                 (A) (A) (A) (A) (A) (A) (A) (A) (A) (A) (A) (A)
                 (A) (A) (A) (A) (A) (A) (A) (A) (A) (A) (A) (A)
                 (A) (A) (A) (A) (A) (A) (A) (A) (A) (A) (A) (A)
                 (A) (A) (A) (A) (A) (A) (A) (A) (A) (A) (A) (A)
                 (A) (A) (A) (A) (A) (A) (A) (A) (A) (A) (A) (A)
                 (A) (A) (A) (A) (A) (A) (A) (A) (A) (A) (A) (A)
                 (A) (A) (A) (A) (A) (A) (A) (A) (A) (A) (A) (A)
                 (A) (A) (A) (A) (A) (A) (A) (A) (A) (A) (A) (A)
                 (A) (A) (A) (A) (A) (A) (A) (A) (A) (A) (A) (A)
                 (A) (A) (A) (A) (A) (A) (A) (A) (A) (A) (A) (A)
                 (A) (A) (A) (A) (A) (A) (A) (A) (A) (A) (A) (A)
                 (A) (A) (A) (A) (A) (A) (A) (A) (A) (A) (A) (A)
                 (A) (A) (A) (A) (A) (A) (A) (A) (A) (A) (A) (A)
                 (A) (A) (A) (A) (A) (A) (A) (A) (A) (A) (A) (A)
                 (A) (A) (A) (A) (A) (A) (A) (A) (A) (A) (A) (A)
                 (A) (A) (A) (A) (A) (A) (A) (A) (A) (A) (A) (A)
                 (A) (A) (A) (A) (A) (A) (A) (A) (A) (A) (A) (A)
                 (A) (A) (A) (A) (A) (A) (A) (A) (A) (A) (A) (A)
                 (A) (A) (A) (A) (A) (A) (A) (A) (A) (A) (A) (A)
                 (A) (A) (A) (A) (A) (A) (A) (A) (A) (A) (A) (A)
                 (A) (A) (A) (A) (A) (A) (A) (A) (A) (A) (A) (A)
                 (A) (A) (A) (A) (A) (A) (A) (A) (A) (A) (A) (A)
                 (A) (A) (A) (A) (A) (A) (A) (A) (A) (A) (A) (A)
                 (A) (A) (A) (A) (A) (A) (A) (A) (A) (A) (A) (A)
                 (A) (A) (A) (A) (A) (A) (A) (A) (A) (A) (A) (A)
                 (A) (A) (A) (A) (A) (A) (A) (A) (A) (A) (A) (A)
                 (A) (A) (A) (A) (A) (A) (A) (A) (A) (A) (A) (A)
                 (A) (A) (A) (A) (A) (A) (A) (A) (A) (A) (A) (A)
                 (A) (A) (A) (A) (A) (A) (A) (A) (A) (A) (A) (A)
                 (A) (A) (A) (A) (A) (A) (A) (A) (A) (A) (A) (A)
                 (A) (A) (A) (A) (A) (A) (A) (A) (A) (A) (A) (A)
                 (A) (A) (A) (A) (A) (A) (A) (A) (A) (A) (A) (A)
                 (A) (A) (A) (A) (A) (A) (A) (A) (A) (A) (A) (A)
                 (A) (A) (A) (A) (A) (A) (A) (A) (A) (A) (A) (A)
                 (A) (A) (A) (A) (A) (A) (A) (A) (A) (A) (A) (A)
                 (A) (A) (A) (A) (A) (A) (A) (A) (A) (A) (A) (A)
                 (A) (A) (A) (A) (A) (A) (A) (A) (A) (A) (A) (A)
                 (A) (A) (A) (A) (A) (A) (A) (A) (A) (A) (A) (A)
                 (A) (A) (A) (A) (A) (A) (A) (A) (A) (A) (A) (A)
                 (A) (A) (A) (A) (A) (A) (A) (A) (A) (A) (A) (A)
                 (A) (A) (A) (A) (A) (A) (A) (A) (A) (A) (A) (A)
                 (A) (A) (A) (A) (A) (A) (A) (A) (A) (A) (A) (A)
                 (A) (A) (A) (A) (A) (A) (A) (A) (A) (A) (A) (A)
                 (A) (A) (A) (A) (A) (A) (A) (A) (A) (A) (A) (A)
                 (A) (A) (A) (A) (A) (A) (A) (A) (A) (A) (A) (A)
                 (A) (A) (A) (A) (A) (A) (A) (A) (A) (A) (A) (A)
                 (A) (A) (A) (A) (A) (A) (A) (A) (A) (A) (A) (A)
                 (A) (A) (A) (A) (A) (A) (A) (A) (A) (A) (A) (A)
                 (A) (A) (A) (A) (A) (A) (A) (A) (A) (A) (A) (A)
                 (A) (A) (A) (A) (A) (A) (A) (A) (A) (A) (A) (A)
                 (A) (A) (A) (A) (A) (A) (A) (A) (A) (A) (A) (A)
                 (A) (A) (A) (A) (A) (A) (A) (A) (A) (A) (A) (A)
                 (A) (A) (A) (A) (A) (A) (A) (A) (A) (A) (A) (A)
                 (A) (A) (A) (A) (A) (A) (A) (A) (A) (A) (A) (A)
                 (A) (A) (A) (A) (A) (A) (A) (A) (A) (A) (A) (A)
                 (A) (A) (A) (A) (A) (A)
 The electronic state is 1-A.
 Alpha  occ. eigenvalues --  -46.83826 -19.25652 -19.24957 -19.20753 -19.20592
 Alpha  occ. eigenvalues --  -19.20366 -14.42162 -14.39921 -14.38982 -14.38660
 Alpha  occ. eigenvalues --  -10.38809 -10.38720 -10.35145 -10.31319 -10.30662
 Alpha  occ. eigenvalues --  -10.30472 -10.30144 -10.29872 -10.29638 -10.29453
 Alpha  occ. eigenvalues --  -10.29437 -10.28763 -10.28646 -10.28623 -10.28559
 Alpha  occ. eigenvalues --  -10.28423 -10.28240 -10.28229 -10.27899 -10.27612
 Alpha  occ. eigenvalues --  -10.27597 -10.27227 -10.27198 -10.27190 -10.27069
 Alpha  occ. eigenvalues --  -10.26898 -10.26705 -10.26684 -10.26680 -10.26505
 Alpha  occ. eigenvalues --  -10.26505 -10.26415 -10.26335 -10.26306 -10.26292
 Alpha  occ. eigenvalues --  -10.26141 -10.25902 -10.25860 -10.25801 -10.25765
 Alpha  occ. eigenvalues --  -10.25427 -10.25374 -10.25280 -10.25138 -10.25077
 Alpha  occ. eigenvalues --  -10.25016 -10.24928 -10.24892 -10.24814 -10.24742
 Alpha  occ. eigenvalues --  -10.24624 -10.24396 -10.24206 -10.23320 -10.22469
 Alpha  occ. eigenvalues --   -3.12907  -1.87609  -1.87179  -1.87058  -1.18830
 Alpha  occ. eigenvalues --   -1.17178  -1.12147  -1.09418  -1.08357  -1.04477
 Alpha  occ. eigenvalues --   -1.02634  -1.01948  -1.01052  -0.92766  -0.92145
 Alpha  occ. eigenvalues --   -0.91792  -0.91067  -0.90650  -0.89620  -0.89527
 Alpha  occ. eigenvalues --   -0.89057  -0.87999  -0.87516  -0.86887  -0.86318
 Alpha  occ. eigenvalues --   -0.85550  -0.84897  -0.84158  -0.83530  -0.82513
 Alpha  occ. eigenvalues --   -0.82063  -0.81532  -0.80883  -0.80100  -0.79113
 Alpha  occ. eigenvalues --   -0.78664  -0.77426  -0.76742  -0.76332  -0.76024
 Alpha  occ. eigenvalues --   -0.75423  -0.74713  -0.74452  -0.73521  -0.72652
 Alpha  occ. eigenvalues --   -0.72210  -0.70956  -0.70222  -0.69707  -0.68198
 Alpha  occ. eigenvalues --   -0.67923  -0.66447  -0.66281  -0.66040  -0.65182
 Alpha  occ. eigenvalues --   -0.65015  -0.63164  -0.62851  -0.62313  -0.61859
 Alpha  occ. eigenvalues --   -0.61703  -0.61379  -0.60696  -0.59832  -0.59455
 Alpha  occ. eigenvalues --   -0.58423  -0.58182  -0.58124  -0.57553  -0.57059
 Alpha  occ. eigenvalues --   -0.56431  -0.56243  -0.55888  -0.55654  -0.55357
 Alpha  occ. eigenvalues --   -0.54682  -0.54510  -0.54159  -0.53837  -0.53636
 Alpha  occ. eigenvalues --   -0.53367  -0.53036  -0.52337  -0.52041  -0.51975
 Alpha  occ. eigenvalues --   -0.51383  -0.51313  -0.51027  -0.50882  -0.50671
 Alpha  occ. eigenvalues --   -0.50585  -0.50481  -0.50367  -0.50012  -0.49870
 Alpha  occ. eigenvalues --   -0.49517  -0.49381  -0.49169  -0.49022  -0.48636
 Alpha  occ. eigenvalues --   -0.48436  -0.48269  -0.48006  -0.47722  -0.47547
 Alpha  occ. eigenvalues --   -0.47320  -0.46807  -0.46707  -0.46651  -0.46022
 Alpha  occ. eigenvalues --   -0.45841  -0.45695  -0.45375  -0.45081  -0.45026
 Alpha  occ. eigenvalues --   -0.44926  -0.44620  -0.44591  -0.44494  -0.44360
 Alpha  occ. eigenvalues --   -0.44270  -0.43990  -0.43907  -0.43652  -0.43334
 Alpha  occ. eigenvalues --   -0.43262  -0.43028  -0.42994  -0.42912  -0.42627
 Alpha  occ. eigenvalues --   -0.42469  -0.42345  -0.41866  -0.41629  -0.41559
 Alpha  occ. eigenvalues --   -0.41421  -0.41181  -0.40916  -0.40728  -0.40605
 Alpha  occ. eigenvalues --   -0.40536  -0.40037  -0.40020  -0.39248  -0.39153
 Alpha  occ. eigenvalues --   -0.38796  -0.38726  -0.38513  -0.38142  -0.38125
 Alpha  occ. eigenvalues --   -0.37557  -0.37302  -0.36797  -0.36446  -0.36406
 Alpha  occ. eigenvalues --   -0.36179  -0.36005  -0.35743  -0.35431  -0.35387
 Alpha  occ. eigenvalues --   -0.35060  -0.34278  -0.33844  -0.33615  -0.33397
 Alpha  occ. eigenvalues --   -0.33325  -0.32996  -0.32355  -0.31456  -0.30057
 Alpha  occ. eigenvalues --   -0.29565  -0.29538  -0.28660  -0.27192  -0.23508
 Alpha  occ. eigenvalues --   -0.21095
 Alpha virt. eigenvalues --   -0.06264  -0.03396   0.01354   0.03777   0.05868
 Alpha virt. eigenvalues --    0.06168   0.06609   0.07201   0.07307   0.07483
 Alpha virt. eigenvalues --    0.08285   0.10884   0.11105   0.11581   0.12313
 Alpha virt. eigenvalues --    0.12341   0.12477   0.12952   0.13072   0.13272
 Alpha virt. eigenvalues --    0.13513   0.13599   0.14091   0.14778   0.14801
 Alpha virt. eigenvalues --    0.15040   0.15059   0.15420   0.15830   0.16249
 Alpha virt. eigenvalues --    0.16284   0.16362   0.16561   0.16888   0.16902
 Alpha virt. eigenvalues --    0.17040   0.17097   0.17553   0.17726   0.17851
 Alpha virt. eigenvalues --    0.18014   0.18433   0.18447   0.18710   0.18828
 Alpha virt. eigenvalues --    0.19133   0.19253   0.19444   0.19450   0.19665
 Alpha virt. eigenvalues --    0.19705   0.19864   0.20151   0.20313   0.20364
 Alpha virt. eigenvalues --    0.20477   0.20952   0.21037   0.21110   0.21164
 Alpha virt. eigenvalues --    0.21323   0.21429   0.21596   0.21626   0.21694
 Alpha virt. eigenvalues --    0.21968   0.22192   0.22294   0.22330   0.22460
 Alpha virt. eigenvalues --    0.22814   0.22971   0.23180   0.23256   0.23453
 Alpha virt. eigenvalues --    0.23811   0.23894   0.24044   0.24343   0.24492
 Alpha virt. eigenvalues --    0.24626   0.24866   0.25018   0.25232   0.25729
 Alpha virt. eigenvalues --    0.26006   0.26027   0.26142   0.26329   0.26588
 Alpha virt. eigenvalues --    0.26848   0.26936   0.26976   0.27150   0.27356
 Alpha virt. eigenvalues --    0.27469   0.27877   0.27946   0.28252   0.28551
 Alpha virt. eigenvalues --    0.28599   0.28861   0.28911   0.28982   0.29052
 Alpha virt. eigenvalues --    0.29866   0.30197   0.30437   0.30456   0.30683
 Alpha virt. eigenvalues --    0.31010   0.31163   0.31488   0.31612   0.31714
 Alpha virt. eigenvalues --    0.31803   0.32084   0.32295   0.32627   0.33192
 Alpha virt. eigenvalues --    0.34067   0.34440   0.34472   0.34653   0.34815
 Alpha virt. eigenvalues --    0.35060   0.35422   0.35674   0.36231   0.36541
 Alpha virt. eigenvalues --    0.36725   0.37144   0.37471   0.37855   0.38701
 Alpha virt. eigenvalues --    0.39176   0.39370   0.40569   0.40835   0.40872
 Alpha virt. eigenvalues --    0.40963   0.41630   0.41824   0.42475   0.42551
 Alpha virt. eigenvalues --    0.43142   0.43552   0.44096   0.44419   0.46010
 Alpha virt. eigenvalues --    0.47060   0.47394   0.47886   0.49418   0.49668
 Alpha virt. eigenvalues --    0.50307   0.50793   0.51392   0.51449   0.52806
 Alpha virt. eigenvalues --    0.52845   0.53121   0.53441   0.54053   0.54240
 Alpha virt. eigenvalues --    0.54264   0.54633   0.55096   0.55177   0.55530
 Alpha virt. eigenvalues --    0.55755   0.55894   0.56269   0.56463   0.56508
 Alpha virt. eigenvalues --    0.56715   0.57484   0.57641   0.57775   0.58183
 Alpha virt. eigenvalues --    0.58303   0.58382   0.58672   0.58995   0.59075
 Alpha virt. eigenvalues --    0.59277   0.59496   0.59841   0.59936   0.60207
 Alpha virt. eigenvalues --    0.60473   0.60651   0.61155   0.61279   0.61333
 Alpha virt. eigenvalues --    0.61765   0.62073   0.62153   0.62415   0.62622
 Alpha virt. eigenvalues --    0.62769   0.63128   0.63351   0.63734   0.63952
 Alpha virt. eigenvalues --    0.64362   0.64725   0.64886   0.65295   0.65767
 Alpha virt. eigenvalues --    0.65824   0.66127   0.66457   0.66731   0.66824
 Alpha virt. eigenvalues --    0.67223   0.67457   0.67891   0.67964   0.68070
 Alpha virt. eigenvalues --    0.68201   0.68471   0.68617   0.68739   0.68934
 Alpha virt. eigenvalues --    0.69522   0.69861   0.70003   0.70410   0.70664
 Alpha virt. eigenvalues --    0.71041   0.71180   0.71366   0.72044   0.72413
 Alpha virt. eigenvalues --    0.72528   0.72783   0.72910   0.72979   0.73379
 Alpha virt. eigenvalues --    0.73472   0.73616   0.73988   0.74083   0.74412
 Alpha virt. eigenvalues --    0.74845   0.75032   0.75260   0.75424   0.75744
 Alpha virt. eigenvalues --    0.75956   0.76133   0.76331   0.76600   0.76752
 Alpha virt. eigenvalues --    0.77331   0.77766   0.77864   0.78024   0.78165
 Alpha virt. eigenvalues --    0.78434   0.78622   0.78746   0.79127   0.79415
 Alpha virt. eigenvalues --    0.79552   0.79893   0.80440   0.80909   0.81016
 Alpha virt. eigenvalues --    0.81209   0.81456   0.81702   0.82018   0.82208
 Alpha virt. eigenvalues --    0.82563   0.82864   0.83082   0.83456   0.84008
 Alpha virt. eigenvalues --    0.84065   0.84142   0.84395   0.84431   0.84545
 Alpha virt. eigenvalues --    0.85016   0.85177   0.85434   0.85601   0.85838
 Alpha virt. eigenvalues --    0.85961   0.86066   0.86343   0.86726   0.86989
 Alpha virt. eigenvalues --    0.87008   0.87326   0.87777   0.87875   0.88079
 Alpha virt. eigenvalues --    0.88273   0.88553   0.88703   0.88822   0.89040
 Alpha virt. eigenvalues --    0.89306   0.89601   0.89637   0.90421   0.90429
 Alpha virt. eigenvalues --    0.90521   0.90817   0.90997   0.91118   0.91285
 Alpha virt. eigenvalues --    0.91702   0.91933   0.92139   0.92243   0.92402
 Alpha virt. eigenvalues --    0.92522   0.92778   0.93036   0.93147   0.93253
 Alpha virt. eigenvalues --    0.93505   0.93767   0.93978   0.94340   0.94433
 Alpha virt. eigenvalues --    0.94748   0.94838   0.94951   0.95123   0.95220
 Alpha virt. eigenvalues --    0.95533   0.95739   0.95780   0.96370   0.96491
 Alpha virt. eigenvalues --    0.96725   0.97219   0.97387   0.97496   0.97608
 Alpha virt. eigenvalues --    0.97954   0.98104   0.98118   0.98360   0.98700
 Alpha virt. eigenvalues --    0.98831   0.98966   0.99088   0.99402   0.99602
 Alpha virt. eigenvalues --    0.99730   1.00069   1.00463   1.00605   1.00661
 Alpha virt. eigenvalues --    1.00995   1.01176   1.01416   1.01509   1.01586
 Alpha virt. eigenvalues --    1.02183   1.02491   1.02690   1.02913   1.02955
 Alpha virt. eigenvalues --    1.03157   1.03416   1.03831   1.04041   1.04283
 Alpha virt. eigenvalues --    1.04709   1.04916   1.05189   1.05411   1.05596
 Alpha virt. eigenvalues --    1.06028   1.06177   1.06329   1.06434   1.06554
 Alpha virt. eigenvalues --    1.06958   1.07187   1.07435   1.07575   1.08031
 Alpha virt. eigenvalues --    1.08123   1.08683   1.09041   1.09392   1.09597
 Alpha virt. eigenvalues --    1.09714   1.09876   1.10336   1.10834   1.11100
 Alpha virt. eigenvalues --    1.11839   1.12103   1.12264   1.12664   1.13181
 Alpha virt. eigenvalues --    1.13377   1.13959   1.14127   1.14730   1.15787
 Alpha virt. eigenvalues --    1.16292   1.16528   1.16864   1.17662   1.17789
 Alpha virt. eigenvalues --    1.18092   1.18298   1.18703   1.19403   1.20157
 Alpha virt. eigenvalues --    1.20775   1.21451   1.21825   1.22383   1.22732
 Alpha virt. eigenvalues --    1.22946   1.24192   1.24290   1.24769   1.25530
 Alpha virt. eigenvalues --    1.25737   1.26095   1.26822   1.27105   1.27309
 Alpha virt. eigenvalues --    1.27931   1.28067   1.28979   1.29374   1.29820
 Alpha virt. eigenvalues --    1.29957   1.31400   1.31861   1.32271   1.32912
 Alpha virt. eigenvalues --    1.33869   1.34055   1.34582   1.34955   1.35700
 Alpha virt. eigenvalues --    1.35876   1.37028   1.37816   1.38041   1.38415
 Alpha virt. eigenvalues --    1.38677   1.38966   1.40343   1.40720   1.41235
 Alpha virt. eigenvalues --    1.41789   1.42342   1.42609   1.43261   1.43554
 Alpha virt. eigenvalues --    1.43946   1.44241   1.44708   1.45186   1.45807
 Alpha virt. eigenvalues --    1.46080   1.46922   1.47293   1.47622   1.48178
 Alpha virt. eigenvalues --    1.48644   1.49634   1.49957   1.50282   1.50681
 Alpha virt. eigenvalues --    1.51344   1.51500   1.52210   1.53172   1.53347
 Alpha virt. eigenvalues --    1.53962   1.54433   1.54680   1.55745   1.56098
 Alpha virt. eigenvalues --    1.56469   1.56575   1.56944   1.57144   1.57401
 Alpha virt. eigenvalues --    1.57987   1.58732   1.58966   1.59120   1.59779
 Alpha virt. eigenvalues --    1.60465   1.60929   1.60994   1.61258   1.61328
 Alpha virt. eigenvalues --    1.62285   1.62391   1.63092   1.63691   1.63920
 Alpha virt. eigenvalues --    1.64309   1.64516   1.64578   1.65362   1.66046
 Alpha virt. eigenvalues --    1.66566   1.66851   1.67241   1.67467   1.67525
 Alpha virt. eigenvalues --    1.67882   1.68264   1.69334   1.70069   1.70172
 Alpha virt. eigenvalues --    1.70285   1.70642   1.71298   1.71350   1.71715
 Alpha virt. eigenvalues --    1.72079   1.72214   1.73258   1.73709   1.74098
 Alpha virt. eigenvalues --    1.74312   1.74603   1.74906   1.75683   1.75928
 Alpha virt. eigenvalues --    1.76280   1.76474   1.76818   1.77096   1.78066
 Alpha virt. eigenvalues --    1.78549   1.78905   1.79281   1.79690   1.79949
 Alpha virt. eigenvalues --    1.80493   1.80559   1.80758   1.80984   1.81458
 Alpha virt. eigenvalues --    1.81647   1.82053   1.82496   1.82835   1.83265
 Alpha virt. eigenvalues --    1.84055   1.84380   1.84562   1.85503   1.85772
 Alpha virt. eigenvalues --    1.86402   1.86632   1.86726   1.87078   1.87371
 Alpha virt. eigenvalues --    1.87910   1.88091   1.88389   1.88543   1.88837
 Alpha virt. eigenvalues --    1.89343   1.89577   1.89723   1.89836   1.90217
 Alpha virt. eigenvalues --    1.90321   1.90755   1.90982   1.91082   1.91607
 Alpha virt. eigenvalues --    1.91760   1.91973   1.92170   1.92296   1.92381
 Alpha virt. eigenvalues --    1.92868   1.92995   1.93454   1.93582   1.93675
 Alpha virt. eigenvalues --    1.93832   1.94088   1.94871   1.95065   1.95323
 Alpha virt. eigenvalues --    1.95488   1.95852   1.95957   1.96431   1.96834
 Alpha virt. eigenvalues --    1.97040   1.97429   1.97606   1.97942   1.98144
 Alpha virt. eigenvalues --    1.98439   1.98586   1.98775   1.99329   1.99596
 Alpha virt. eigenvalues --    1.99690   2.00047   2.00158   2.00518   2.00858
 Alpha virt. eigenvalues --    2.01126   2.01574   2.02015   2.02179   2.02520
 Alpha virt. eigenvalues --    2.02904   2.02950   2.03206   2.03333   2.03990
 Alpha virt. eigenvalues --    2.04046   2.04164   2.04545   2.04720   2.04947
 Alpha virt. eigenvalues --    2.05374   2.05667   2.05761   2.06347   2.06388
 Alpha virt. eigenvalues --    2.06797   2.07298   2.07693   2.08608   2.08777
 Alpha virt. eigenvalues --    2.08876   2.09026   2.09116   2.09334   2.09649
 Alpha virt. eigenvalues --    2.10043   2.10181   2.10527   2.10653   2.11199
 Alpha virt. eigenvalues --    2.11379   2.11419   2.11590   2.12185   2.12335
 Alpha virt. eigenvalues --    2.12557   2.12656   2.13260   2.13586   2.13859
 Alpha virt. eigenvalues --    2.14189   2.14613   2.14955   2.15170   2.15259
 Alpha virt. eigenvalues --    2.15465   2.15524   2.16364   2.16818   2.17203
 Alpha virt. eigenvalues --    2.17695   2.18111   2.18214   2.18442   2.18808
 Alpha virt. eigenvalues --    2.18904   2.19470   2.20066   2.20422   2.20928
 Alpha virt. eigenvalues --    2.21483   2.21580   2.22045   2.22555   2.22715
 Alpha virt. eigenvalues --    2.22884   2.23107   2.23383   2.23768   2.24282
 Alpha virt. eigenvalues --    2.24507   2.24911   2.25336   2.25950   2.26128
 Alpha virt. eigenvalues --    2.26270   2.26572   2.27008   2.27202   2.27284
 Alpha virt. eigenvalues --    2.27453   2.28033   2.28442   2.28603   2.28665
 Alpha virt. eigenvalues --    2.29416   2.29921   2.29926   2.30122   2.30181
 Alpha virt. eigenvalues --    2.30523   2.30652   2.30992   2.31362   2.31501
 Alpha virt. eigenvalues --    2.31705   2.31859   2.32630   2.33060   2.33890
 Alpha virt. eigenvalues --    2.33907   2.34369   2.34636   2.34924   2.35236
 Alpha virt. eigenvalues --    2.35547   2.36045   2.36127   2.36380   2.36800
 Alpha virt. eigenvalues --    2.37010   2.37450   2.37672   2.37866   2.38541
 Alpha virt. eigenvalues --    2.38627   2.39131   2.39537   2.39936   2.40345
 Alpha virt. eigenvalues --    2.40527   2.40617   2.40806   2.40936   2.41397
 Alpha virt. eigenvalues --    2.41579   2.41795   2.42347   2.42722   2.43171
 Alpha virt. eigenvalues --    2.43718   2.44121   2.44359   2.44708   2.44843
 Alpha virt. eigenvalues --    2.45280   2.45453   2.45725   2.45936   2.46044
 Alpha virt. eigenvalues --    2.46335   2.46844   2.47467   2.47880   2.47920
 Alpha virt. eigenvalues --    2.48437   2.48868   2.49400   2.50077   2.50402
 Alpha virt. eigenvalues --    2.50555   2.50796   2.50925   2.51732   2.52100
 Alpha virt. eigenvalues --    2.52284   2.52697   2.53182   2.53583   2.53682
 Alpha virt. eigenvalues --    2.54242   2.54532   2.54966   2.55051   2.55435
 Alpha virt. eigenvalues --    2.55542   2.55767   2.56051   2.56818   2.56957
 Alpha virt. eigenvalues --    2.57417   2.57943   2.58436   2.58631   2.59110
 Alpha virt. eigenvalues --    2.59743   2.59998   2.60098   2.60857   2.61256
 Alpha virt. eigenvalues --    2.61456   2.61918   2.62259   2.62446   2.62885
 Alpha virt. eigenvalues --    2.63005   2.63241   2.63426   2.63671   2.63908
 Alpha virt. eigenvalues --    2.64085   2.64333   2.64634   2.65092   2.65645
 Alpha virt. eigenvalues --    2.65948   2.66536   2.67261   2.67643   2.67910
 Alpha virt. eigenvalues --    2.68359   2.68654   2.68775   2.69218   2.69856
 Alpha virt. eigenvalues --    2.70306   2.70731   2.71187   2.71332   2.71519
 Alpha virt. eigenvalues --    2.71950   2.72365   2.72933   2.73254   2.73844
 Alpha virt. eigenvalues --    2.74060   2.74303   2.74552   2.74805   2.75222
 Alpha virt. eigenvalues --    2.75395   2.75920   2.76074   2.76143   2.76270
 Alpha virt. eigenvalues --    2.76942   2.77489   2.77693   2.78073   2.78219
 Alpha virt. eigenvalues --    2.78611   2.78800   2.79324   2.79479   2.79847
 Alpha virt. eigenvalues --    2.80116   2.80910   2.81450   2.81619   2.82061
 Alpha virt. eigenvalues --    2.82452   2.82564   2.82996   2.83032   2.83471
 Alpha virt. eigenvalues --    2.83695   2.84222   2.84367   2.84786   2.84939
 Alpha virt. eigenvalues --    2.85411   2.85715   2.86286   2.86487   2.86759
 Alpha virt. eigenvalues --    2.87326   2.87498   2.87749   2.87781   2.88033
 Alpha virt. eigenvalues --    2.88252   2.88705   2.88815   2.88855   2.89185
 Alpha virt. eigenvalues --    2.89526   2.90323   2.91041   2.91411   2.91563
 Alpha virt. eigenvalues --    2.91734   2.92024   2.92796   2.93501   2.94192
 Alpha virt. eigenvalues --    2.94348   2.95466   2.95581   2.95764   2.95943
 Alpha virt. eigenvalues --    2.96149   2.96985   2.97175   2.97340   2.97449
 Alpha virt. eigenvalues --    2.97519   2.97991   2.98144   2.98738   2.99090
 Alpha virt. eigenvalues --    2.99544   3.00425   3.00646   3.00774   3.01315
 Alpha virt. eigenvalues --    3.01513   3.01616   3.02356   3.02571   3.03089
 Alpha virt. eigenvalues --    3.03120   3.04081   3.04129   3.04245   3.04801
 Alpha virt. eigenvalues --    3.05062   3.05490   3.06496   3.06991   3.07264
 Alpha virt. eigenvalues --    3.07979   3.08698   3.09009   3.10077   3.10437
 Alpha virt. eigenvalues --    3.11876   3.12221   3.12878   3.13596   3.14446
 Alpha virt. eigenvalues --    3.15804   3.16020   3.16154   3.16996   3.17570
 Alpha virt. eigenvalues --    3.18354   3.18870   3.18983   3.19182   3.20466
 Alpha virt. eigenvalues --    3.20975   3.23296   3.23485   3.24761   3.25400
 Alpha virt. eigenvalues --    3.26070   3.27622   3.28061   3.28728   3.28941
 Alpha virt. eigenvalues --    3.29461   3.30309   3.30458   3.31094   3.32056
 Alpha virt. eigenvalues --    3.32622   3.32751   3.33822   3.35416   3.36165
 Alpha virt. eigenvalues --    3.36403   3.36898   3.37931   3.39020   3.39342
 Alpha virt. eigenvalues --    3.40120   3.40697   3.41249   3.42649   3.43033
 Alpha virt. eigenvalues --    3.43304   3.44234   3.44740   3.44951   3.45612
 Alpha virt. eigenvalues --    3.46502   3.47888   3.48652   3.48774   3.48853
 Alpha virt. eigenvalues --    3.49403   3.50233   3.51514   3.51700   3.51980
 Alpha virt. eigenvalues --    3.52708   3.53452   3.54131   3.54955   3.55053
 Alpha virt. eigenvalues --    3.56261   3.56905   3.57287   3.57558   3.58151
 Alpha virt. eigenvalues --    3.59235   3.59364   3.60110   3.60289   3.60539
 Alpha virt. eigenvalues --    3.60837   3.61008   3.61561   3.62968   3.63616
 Alpha virt. eigenvalues --    3.64024   3.65281   3.66063   3.67309   3.69362
 Alpha virt. eigenvalues --    3.70618   3.71685   3.72341   3.75203   3.82192
 Alpha virt. eigenvalues --    3.83457   3.83718   3.93796   3.95582   4.09585
 Alpha virt. eigenvalues --    4.10243   4.14466   4.21564   4.22089   4.22853
 Alpha virt. eigenvalues --    4.24830   4.26369   4.26689   4.28551   4.29732
 Alpha virt. eigenvalues --    4.30638   4.31788   4.32752   4.33627   4.35568
 Alpha virt. eigenvalues --    4.37189   4.38774   4.39004   4.40272   4.40832
 Alpha virt. eigenvalues --    4.41537   4.43369   4.43786   4.45141   4.45269
 Alpha virt. eigenvalues --    4.46358   4.48105   4.48733   4.51110   4.51745
 Alpha virt. eigenvalues --    4.52140   4.53987   4.54433   4.55073   4.57167
 Alpha virt. eigenvalues --    4.58685   4.59224   4.61201   4.62077   4.62470
 Alpha virt. eigenvalues --    4.63146   4.63649   4.65271   4.65861   4.69621
 Alpha virt. eigenvalues --    4.70275   4.70447   4.73169   4.74162   4.75227
 Alpha virt. eigenvalues --    4.75602   4.78667   4.79371   4.81849   4.82053
 Alpha virt. eigenvalues --    4.86406   4.87144   4.88621   4.88710   4.89878
 Alpha virt. eigenvalues --    4.90617   4.92155   5.06224
          Condensed to atoms (all electrons):
 Mulliken charges:
               1
     1  Mg   0.809574
     2  C    0.084286
     3  C   -0.193609
     4  C   -0.165162
     5  C   -0.162573
     6  N   -0.657193
     7  C    0.319828
     8  C   -0.123422
     9  C   -0.155301
    10  C    0.358228
    11  C   -0.303474
    12  C   -0.180912
    13  C   -0.259401
    14  C    0.618229
    15  O   -0.478807
    16  O   -0.507111
    17  N   -0.741804
    18  C    0.317267
    19  C    0.021175
    20  C    0.000409
    21  C    0.316430
    22  C   -0.388227
    23  C   -0.083426
    24  C   -0.259225
    25  N   -0.669085
    26  C    0.300833
    27  C   -0.040354
    28  C    0.080496
    29  C    0.258298
    30  C   -0.345431
    31  C   -0.231089
    32  C   -0.326184
    33  N   -0.705733
    34  C    0.265395
    35  C   -0.001450
    36  C    0.019515
    37  C    0.230348
    38  C   -0.392183
    39  C    0.396476
    40  O   -0.445262
    41  C   -0.316405
    42  C    0.594204
    43  O   -0.458359
    44  O   -0.454658
    45  C   -0.076583
    46  C    0.043553
    47  C   -0.142795
    48  C    0.121986
    49  C   -0.354767
    50  C   -0.220201
    51  C   -0.212692
    52  C   -0.163560
    53  C   -0.043520
    54  C   -0.294101
    55  C   -0.179895
    56  C   -0.187179
    57  C   -0.160386
    58  C   -0.094516
    59  C   -0.305707
    60  C   -0.136654
    61  C   -0.177648
    62  C   -0.165374
    63  C   -0.074450
    64  C   -0.322771
    65  C   -0.289775
    66  H    0.068353
    67  H    0.080130
    68  H    0.070810
    69  H    0.114075
    70  H    0.108331
    71  H    0.104171
    72  H    0.113127
    73  H    0.122286
    74  H    0.102834
    75  H    0.119428
    76  H    0.137319
    77  H    0.129550
    78  H    0.127425
    79  H    0.141291
    80  H    0.128215
    81  H    0.088467
    82  H    0.110970
    83  H    0.092202
    84  H    0.140777
    85  H    0.102841
    86  H    0.126966
    87  H    0.109887
    88  H    0.107653
    89  H    0.112196
    90  H    0.091809
    91  H    0.116255
    92  H    0.117960
    93  H    0.134638
    94  H    0.136485
    95  H    0.174834
    96  H    0.101259
    97  H    0.143227
    98  H    0.132001
    99  H    0.123864
   100  H    0.115405
   101  H    0.075179
   102  H    0.108621
   103  H    0.107056
   104  H    0.123036
   105  H    0.089561
   106  H    0.098454
   107  H    0.106067
   108  H    0.099820
   109  H    0.100949
   110  H    0.101426
   111  H    0.089959
   112  H    0.054533
   113  H    0.116365
   114  H    0.092009
   115  H    0.061595
   116  H    0.084542
   117  H    0.099806
   118  H    0.086172
   119  H    0.096766
   120  H    0.103506
   121  H    0.092983
   122  H    0.088955
   123  H    0.114348
   124  H    0.072529
   125  H    0.101389
   126  H    0.087383
   127  H    0.076990
   128  H    0.094709
   129  H    0.091637
   130  H    0.054012
   131  H    0.074343
   132  H    0.097356
   133  H    0.090380
   134  H    0.087307
   135  H    0.101984
   136  H    0.120452
   137  H    0.102663
 Sum of Mulliken charges =   0.00000
 Mulliken charges with hydrogens summed into heavy atoms:
               1
     1  Mg   0.809574
     2  C    0.084286
     3  C   -0.125256
     4  C   -0.085032
     5  C   -0.091763
     6  N   -0.657193
     7  C    0.319828
     8  C   -0.009347
     9  C   -0.046970
    10  C    0.358228
    11  C    0.036110
    12  C    0.041351
    13  C    0.007468
    14  C    0.618229
    15  O   -0.478807
    16  O   -0.507111
    17  N   -0.741804
    18  C    0.317267
    19  C    0.021175
    20  C    0.000409
    21  C    0.316430
    22  C    0.008704
    23  C    0.005041
    24  C   -0.056052
    25  N   -0.669085
    26  C    0.300833
    27  C   -0.040354
    28  C    0.080496
    29  C    0.258298
    30  C    0.025153
    31  C   -0.013549
    32  C   -0.005924
    33  N   -0.705733
    34  C    0.265395
    35  C   -0.001450
    36  C    0.019515
    37  C    0.230348
    38  C   -0.003100
    39  C    0.396476
    40  O   -0.445262
    41  C   -0.141571
    42  C    0.594204
    43  O   -0.458359
    44  O   -0.454658
    45  C    0.299903
    46  C    0.282822
    47  C   -0.067616
    48  C    0.121986
    49  C   -0.016054
    50  C   -0.032186
    51  C   -0.006805
    52  C    0.038815
    53  C    0.046439
    54  C   -0.031194
    55  C   -0.033758
    56  C   -0.001201
    57  C    0.039886
    58  C   -0.001533
    59  C   -0.029875
    60  C    0.052118
    61  C   -0.005950
    62  C   -0.019725
    63  C   -0.000107
    64  C   -0.047729
    65  C    0.035324
 Electronic spatial extent (au):  <R**2>=         178602.8054
 Charge=              0.0000 electrons
 Dipole moment (field-independent basis, Debye):
    X=              2.3807    Y=              5.1937    Z=              0.9007  Tot=              5.7839
 Quadrupole moment (field-independent basis, Debye-Ang):
   XX=           -359.6103   YY=           -391.1052   ZZ=           -399.0492
   XY=            -16.5007   XZ=             15.5823   YZ=              0.1826
 Traceless Quadrupole moment (field-independent basis, Debye-Ang):
   XX=             23.6446   YY=             -7.8503   ZZ=            -15.7943
   XY=            -16.5007   XZ=             15.5823   YZ=              0.1826
 Octapole moment (field-independent basis, Debye-Ang**2):
  XXX=           -392.0555  YYY=            135.9581  ZZZ=             15.2460  XYY=            -75.2527
  XXY=            139.1251  XXZ=            -24.7934  XZZ=             15.4641  YZZ=            -22.3849
  YYZ=             32.7188  XYZ=            -54.6326
 Hexadecapole moment (field-independent basis, Debye-Ang**3):
 XXXX=        -218659.3529 YYYY=         -17593.8523 ZZZZ=          -4085.2249 XXXY=           1515.1903
 XXXZ=           3756.4176 YYYX=          -1073.3640 YYYZ=           -132.2018 ZZZX=            -21.6415
 ZZZY=           -120.5203 XXYY=         -40313.6213 XXZZ=         -38839.1207 YYZZ=          -3519.9112
 XXYZ=             73.5822 YYXZ=            270.5907 ZZXY=             81.2603
 N-N= 8.757346035554D+03 E-N=-2.433885663132D+04  KE= 2.907557755232D+03
 1\1\GINC-PEDRO-RYZENSSD\SP\RCAM-B3LYP TD-FC\6-31G(d,p)\C55H72Mg1N4O5\P
 ADAWAN\02-Jul-2019\0\\# td=(NStates=1) CAM-B3LYP/6-31G(d,p)\\TD\\0,1\M
 g,0,-7.1397845515,0.6177905272,0.0736150489\C,0,-4.8422888469,-1.89231
 04094,0.4797345062\C,0,-4.7512450534,2.8295814054,1.0632926942\C,0,-9.
 3163363691,3.0820036959,-0.4750803677\C,0,-9.4606863823,-1.7033258436,
 -0.8544118703\N,0,-5.0817716018,0.4096407822,0.664786897\C,0,-4.314481
 1542,-0.6966494869,0.7358216054\C,0,-2.8581748229,-0.3256719929,1.1657
 869329\C,0,-2.9823016686,1.143547023,1.5882295537\C,0,-4.3509320881,1.
 514252174,1.0785148814\C,0,-2.8794830304,1.2237146596,3.1513965486\C,0
 ,-1.8952729883,-0.5168769491,0.0908430426\C,0,-0.4485222748,-0.5528996
 372,0.5433884681\C,0,0.5318743246,-0.7221557285,-0.5304684273\O,0,0.31
 69129314,-1.0605214597,-1.6755538871\O,0,1.8009119017,-0.4730246989,-0
 .0770244913\N,0,-7.0609365416,2.6219177816,0.3012388194\C,0,-5.9670259
 816,3.3800789837,0.7638899226\C,0,-6.3480820613,4.8239266821,0.6865893
 461\C,0,-7.7045331603,4.8069813296,0.3103494262\C,0,-8.1056248341,3.50
 60297983,-0.057583212\C,0,-5.4744554022,5.8796704329,1.1227670372\C,0,
 -8.4534131389,6.0600070344,0.0997669621\C,0,-8.429636855,7.1910552241,
 0.8121174615\N,0,-9.01657393,0.658998761,-0.6367977135\C,0,-9.81858811
 85,1.7801579689,-0.6522715513\C,0,-11.2129803946,1.4340217413,-1.03924
 56441\C,0,-11.2573981437,0.0794133054,-1.1948481988\C,0,-9.9275384345,
 -0.3914311174,-0.9044354596\C,0,-12.343683192,2.5325338244,-1.37573434
 82\C,0,-12.4157861249,-0.8377011802,-1.5174725558\C,0,-12.4518926777,-
 1.1967720884,-3.0457496936\N,0,-7.1828377521,-1.4220118148,-0.27911258
 83\C,0,-8.2047507149,-2.2718223543,-0.6202569809\C,0,-7.7572318688,-3.
 6339416617,-0.6419514724\C,0,-6.4629701811,-3.65292963,-0.1479865306\C
 ,0,-6.0813007265,-2.187847066,0.0720800122\C,0,-8.686116079,-4.7855113
 935,-0.7386523436\C,0,-5.2529397643,-4.3908829718,0.3235952321\O,0,-5.
 1988187198,-5.5833128147,0.4397910098\C,0,-4.1787614555,-3.36430222,0.
 5047503403\C,0,-3.5566162925,-3.714136635,1.8901293858\O,0,-3.75945754
 64,-3.2289596322,2.9507277539\O,0,-2.6683780315,-4.7234770701,1.789687
 5497\C,0,-2.1203226202,-5.245368766,2.9859935349\C,0,2.8114736591,-0.6
 008578804,-1.1609572961\C,0,4.1116532543,-0.3553337097,-0.6169118402\C
 ,0,5.0628097654,0.4472909945,-0.9635961323\C,0,4.8994083638,1.48800144
 94,-2.1207262379\C,0,6.3649908319,0.4714990001,-0.2409005753\C,0,7.667
 1442523,-0.0517155185,-1.1082477753\C,0,8.8546673393,-0.006085739,-0.1
 686986827\C,0,10.140304655,-0.5039774694,-0.9616371342\C,0,10.06609330
 95,-1.9414550816,-1.2434578108\C,0,11.3402969066,-0.2768814689,-0.1198
 211135\C,0,12.7516200697,-0.552699321,-0.7512951524\C,0,13.9338328517,
 -0.1852297258,0.1860056681\C,0,15.2854446694,-0.1832720563,-0.54027226
 7\C,0,15.589850654,-1.7114287767,-1.0244820659\C,0,16.3324373496,0.270
 0513651,0.436608168\C,0,17.7570502944,0.4292743258,-0.1162174363\C,0,1
 8.6952898985,1.119410158,0.7387743104\C,0,20.2044591151,1.3223525688,0
 .3790126645\C,0,20.1770890627,2.3569339906,-0.8991809108\C,0,21.148685
 7994,1.8280857449,1.3498103444\H,0,-4.0699784823,3.5737728987,1.342468
 8338\H,0,-9.8767280655,4.0672075558,-0.5270780993\H,0,-9.93150644,-2.7
 800973505,-1.2201586681\H,0,-2.3619326502,-1.0065589698,1.8937900702\H
 ,0,-2.1289264978,1.7117147541,1.2810787583\H,0,-1.8356780253,0.9436848
 214,3.4538991034\H,0,-3.0150265627,2.2036944269,3.3677489403\H,0,-3.71
 22246652,0.6949341774,3.7481172245\H,0,-2.0263251174,-1.6043103914,-0.
 2741413233\H,0,-2.1132029928,0.082775528,-0.8197020098\H,0,-0.27201071
 85,0.3929939133,0.9618365828\H,0,-0.1717949815,-1.4849130065,1.3108650
 417\H,0,-6.0099097664,6.7426329074,0.6634520544\H,0,-5.8780447939,6.03
 35867218,2.1575320503\H,0,-4.4311470707,5.8041315796,0.9649396696\H,0,
 -9.3381558681,6.028749023,-0.6975899872\H,0,-8.7901302289,8.1173124701
 ,0.3381834401\H,0,-7.7094204078,7.3367600755,1.6825866442\H,0,-12.1792
 820333,2.9623765637,-2.296942699\H,0,-13.28240791,1.837147606,-1.29894
 10856\H,0,-12.4194336745,3.2567943341,-0.5949807421\H,0,-12.3325580342
 ,-1.8769571408,-1.0503299879\H,0,-13.3820369226,-0.4115978966,-1.18110
 36379\H,0,-13.0984261952,-1.9602907153,-3.3968695715\H,0,-12.420235587
 8,-0.2635708947,-3.7380072964\H,0,-11.4805743367,-1.4891037775,-3.4389
 225123\H,0,-9.2632359266,-4.706831426,-1.65875914\H,0,-8.1053799028,-5
 .7884488491,-0.808110424\H,0,-9.5992898139,-4.920707092,-0.1157433969\
 H,0,-3.3630069966,-3.5330465554,-0.2113164031\H,0,-1.3129494614,-4.508
 5972994,3.2646493802\H,0,-2.8784574543,-5.2546670843,3.7761904579\H,0,
 -1.5832964411,-6.1027195452,2.7052744803\H,0,2.8774370478,-1.665718407
 7,-1.4930532703\H,0,2.563983876,-0.0346491853,-1.9109142436\H,0,4.3265
 33559,-1.0944916644,0.2223754535\H,0,3.9417731408,1.277546465,-2.63697
 20669\H,0,4.7589713088,2.5794782067,-1.7294094091\H,0,5.7993372413,1.4
 069217997,-2.6350522362\H,0,6.6328953524,1.560440044,-0.206157973\H,0,
 6.3304871681,0.1711190745,0.6526849852\H,0,7.4325406388,-1.085127748,-
 1.3477460982\H,0,7.7099534312,0.3805812662,-2.0192248461\H,0,8.9363556
 872,0.9800358886,0.0787555078\H,0,8.7183003187,-0.6185373599,0.5530231
 66\H,0,10.0394614975,0.0517777155,-1.7507599655\H,0,9.299194905,-2.109
 1688934,-2.2358995148\H,0,10.8859711528,-2.4979365776,-1.6484690908\H,
 0,9.7106039464,-2.5485367957,-0.330732513\H,0,11.2795156325,0.74238646
 88,0.4077422617\H,0,11.1384969031,-0.6679527566,0.8636669883\H,0,12.79
 90332222,-1.6681749787,-0.9275004176\H,0,12.7326570182,-0.0138306921,-
 1.7603193932\H,0,13.8549269294,0.8406566217,0.4333206751\H,0,13.850377
 7909,-0.8407936841,1.0510516217\H,0,15.3872420127,0.2796774527,-1.5443
 187899\H,0,15.431660609,-2.4269129834,-0.1339048444\H,0,14.9561686676,
 -1.7407064462,-1.8460520203\H,0,16.7858382132,-1.7333088558,-1.3008215
 517\H,0,15.9830435051,1.2151193456,0.5483813824\H,0,16.4072551727,-0.4
 161607912,1.3801107723\H,0,18.2525461933,-0.5443609835,-0.624425783\H,
 0,17.883825447,1.1912664455,-0.88714229\H,0,18.4263134239,2.0743515929
 ,1.0785958649\H,0,18.900457206,0.5835225333,1.7402640267\H,0,20.601065
 0192,0.3438405323,-0.0103239684\H,0,19.8526693735,3.272410803,-0.41217
 48109\H,0,21.1834725994,2.6592425771,-1.2889402573\H,0,19.4368375882,2
 .1099228031,-1.8137983488\H,0,21.0477407493,1.2473128404,2.2259522124\
 H,0,22.0623179381,1.7040316329,1.019176884\H,0,20.7107008,2.7109911824
 ,1.7293533758\\Version=ES64L-G09RevD.01\State=1-A\HF=-2932.6606985\RMS
 D=5.240e-09\PG=C01 [X(C55H72Mg1N4O5)]\\@


 WHEN YOU REACH FOR THE STARS, YOU MAY NOT QUITE GET ONE,
 BUT YOU WON'T COME UP WITH A HANDFUL OF MUD, EITHER.

                                         -- LEO BURNETT (AD AGENCY HEAD)
 Job cpu time:       0 days  6 hours  6 minutes 26.0 seconds.
 File lengths (MBytes):  RWF=   2106 Int=      0 D2E=      0 Chk=    163 Scr=      1
 Normal termination of Gaussian 09 at Tue Jul  2 20:34:05 2019.
