 Entering Gaussian System, Link 0=g16
 Input=Geometria-499-.com
 Output=Geometria-499-.log
 Initial command:
 /usr/local/g09/l1.exe "/home/padawan/israel-mol/chlorophyll-a/spectra/emi/Gau-33138.inp" -scrdir="/home/padawan/israel-mol/chlorophyll-a/spectra/emi/"
 Entering Link 1 = /usr/local/g09/l1.exe PID=     33140.
  
 Copyright (c) 1988,1990,1992,1993,1995,1998,2003,2009,2013,
            Gaussian, Inc.  All Rights Reserved.
  
 This is part of the Gaussian(R) 09 program.  It is based on
 the Gaussian(R) 03 system (copyright 2003, Gaussian, Inc.),
 the Gaussian(R) 98 system (copyright 1998, Gaussian, Inc.),
 the Gaussian(R) 94 system (copyright 1995, Gaussian, Inc.),
 the Gaussian 92(TM) system (copyright 1992, Gaussian, Inc.),
 the Gaussian 90(TM) system (copyright 1990, Gaussian, Inc.),
 the Gaussian 88(TM) system (copyright 1988, Gaussian, Inc.),
 the Gaussian 86(TM) system (copyright 1986, Carnegie Mellon
 University), and the Gaussian 82(TM) system (copyright 1983,
 Carnegie Mellon University). Gaussian is a federally registered
 trademark of Gaussian, Inc.
  
 This software contains proprietary and confidential information,
 including trade secrets, belonging to Gaussian, Inc.
  
 This software is provided under written license and may be
 used, copied, transmitted, or stored only in accord with that
 written license.
  
 The following legend is applicable only to US Government
 contracts under FAR:
  
                    RESTRICTED RIGHTS LEGEND
  
 Use, reproduction and disclosure by the US Government is
 subject to restrictions as set forth in subparagraphs (a)
 and (c) of the Commercial Computer Software - Restricted
 Rights clause in FAR 52.227-19.
  
 Gaussian, Inc.
 340 Quinnipiac St., Bldg. 40, Wallingford CT 06492
  
  
 ---------------------------------------------------------------
 Warning -- This program may not be used in any manner that
 competes with the business of Gaussian, Inc. or will provide
 assistance to any competitor of Gaussian, Inc.  The licensee
 of this program is prohibited from giving any competitor of
 Gaussian, Inc. access to this program.  By using this program,
 the user acknowledges that Gaussian, Inc. is engaged in the
 business of creating and licensing software in the field of
 computational chemistry and represents and warrants to the
 licensee that it is not a competitor of Gaussian, Inc. and that
 it will not use this program in any manner prohibited above.
 ---------------------------------------------------------------
  

 Cite this work as:
 Gaussian 09, Revision D.01,
 M. J. Frisch, G. W. Trucks, H. B. Schlegel, G. E. Scuseria, 
 M. A. Robb, J. R. Cheeseman, G. Scalmani, V. Barone, B. Mennucci, 
 G. A. Petersson, H. Nakatsuji, M. Caricato, X. Li, H. P. Hratchian, 
 A. F. Izmaylov, J. Bloino, G. Zheng, J. L. Sonnenberg, M. Hada, 
 M. Ehara, K. Toyota, R. Fukuda, J. Hasegawa, M. Ishida, T. Nakajima, 
 Y. Honda, O. Kitao, H. Nakai, T. Vreven, J. A. Montgomery, Jr., 
 J. E. Peralta, F. Ogliaro, M. Bearpark, J. J. Heyd, E. Brothers, 
 K. N. Kudin, V. N. Staroverov, T. Keith, R. Kobayashi, J. Normand, 
 K. Raghavachari, A. Rendell, J. C. Burant, S. S. Iyengar, J. Tomasi, 
 M. Cossi, N. Rega, J. M. Millam, M. Klene, J. E. Knox, J. B. Cross, 
 V. Bakken, C. Adamo, J. Jaramillo, R. Gomperts, R. E. Stratmann, 
 O. Yazyev, A. J. Austin, R. Cammi, C. Pomelli, J. W. Ochterski, 
 R. L. Martin, K. Morokuma, V. G. Zakrzewski, G. A. Voth, 
 P. Salvador, J. J. Dannenberg, S. Dapprich, A. D. Daniels, 
 O. Farkas, J. B. Foresman, J. V. Ortiz, J. Cioslowski, 
 and D. J. Fox, Gaussian, Inc., Wallingford CT, 2013.
 
 ******************************************
 Gaussian 09:  ES64L-G09RevD.01 24-Apr-2013
                 7-Jul-2019 
 ******************************************
 %nproc=4
 Will use up to    4 processors via shared memory.
 %Mem=2GB
 -------------------------------------
 # td=(NStates=1) CAM-B3LYP/6-31G(d,p)
 -------------------------------------
 1/38=1/1;
 2/12=2,17=6,18=5,40=1/2;
 3/5=1,6=6,7=101,11=9,16=1,25=1,30=1,74=-40/1,2,8,3;
 4//1;
 5/5=2,38=5/2;
 8/6=1,10=2,108=1/1;
 9/41=1,42=1,70=2/14;
 6/7=2,8=2,9=2,10=2/1;
 99/5=1,9=1/99;
 --
 TD
 --
 Symbolic Z-matrix:
 Charge =  0 Multiplicity = 1
 12                   -6.97753   0.64856   0.06926 
 6                    -4.83454  -1.95711   0.56481 
 6                    -4.87448   2.80261   1.30415 
 6                    -9.34387   3.11371  -0.57818 
 6                    -9.3772   -1.74724  -0.93743 
 7                    -5.01365   0.43902   0.67176 
 6                    -4.33889  -0.75328   0.90224 
 6                    -2.94609  -0.43945   1.38537 
 6                    -3.0337    1.09522   1.75242 
 6                    -4.43041   1.51107   1.22653 
 6                    -3.13251   1.283     3.25332 
 6                    -1.93304  -0.52047   0.17172 
 6                    -0.42177  -0.58821   0.65036 
 6                     0.50036  -0.70214  -0.51391 
 8                     0.19911  -1.08843  -1.614 
 8                     1.80112  -0.39738  -0.20673 
 7                    -7.08091   2.50758   0.4152 
 6                    -6.11729   3.34754   0.81579 
 6                    -6.45202   4.76655   0.94942 
 6                    -7.6947    4.82221   0.38467 
 6                    -8.16242   3.43357   0.1077 
 6                    -5.52946   5.93921   1.29242 
 6                    -8.52541   5.99482   0.13033 
 6                    -8.52226   7.16123   0.81331 
 7                    -9.08256   0.68509  -0.64568 
 6                    -9.81515   1.76074  -0.83597 
 6                    -11.13559   1.46105  -1.25096 
 6                    -11.18824   0.10522  -1.3496 
 6                    -9.77639  -0.423    -0.97414 
 6                    -12.22303   2.58706  -1.56901 
 6                    -12.35479  -0.77688  -1.82539 
 6                    -12.37667  -0.96374  -3.44198 
 7                    -7.2075   -1.42545  -0.20991 
 6                    -8.2273   -2.20655  -0.55223 
 6                    -7.84535  -3.59438  -0.51732 
 6                    -6.51194  -3.58777  -0.14216 
 6                    -6.22916  -2.1862    0.07054 
 6                    -8.58838  -4.80819  -0.87271 
 6                    -5.34568  -4.39934   0.22518 
 8                    -5.17303  -5.60313   0.18527 
 6                    -4.17609  -3.25222   0.59204 
 6                    -3.57298  -3.63634   2.00875 
 8                    -3.74127  -3.14334   3.16567 
 8                    -2.75384  -4.64303   1.86515 
 6                    -2.16023  -5.18771   3.08918 
 6                     2.75859  -0.61808  -1.23991 
 6                     4.0986   -0.39829  -0.63844 
 6                     5.12878   0.32656  -1.04669 
 6                     5.25967   1.13077  -2.27817 
 6                     6.41189   0.22329  -0.23837 
 6                     7.5903   -0.37816  -0.98889 
 6                     8.9028   -0.27758  -0.18041 
 6                     10.20778  -0.53341  -1.00666 
 6                     10.17478  -2.00175  -1.38473 
 6                     11.32086  -0.31991  -0.07107 
 6                     12.79961  -0.38074  -0.68162 
 6                     13.90915   0.02832   0.20224 
 6                     15.29656  -0.27682  -0.40585 
 6                     15.57827  -1.6539   -0.69435 
 6                     16.31368   0.32753   0.44222 
 6                     17.72171   0.57522  -0.11003 
 6                     18.75788   1.36205   0.68928 
 6                     20.22516   1.48357   0.0631 
 6                     20.33932   2.23977  -1.11638 
 6                     21.25416   2.00853   1.08357 
 1                    -3.96763   3.42144   1.72812 
 1                    -9.85266   3.96002  -0.92523 
 1                    -10.17404  -2.38449  -1.22689 
 1                    -2.63104  -0.99718   2.2282 
 1                    -2.23785   1.55472   1.49124 
 1                    -2.16186   0.79575   3.73675 
 1                    -3.30933   2.35424   3.54874 
 1                    -4.05743   0.81159   3.79739 
 1                    -2.01165  -1.55175  -0.12808 
 1                    -2.13608   0.02517  -0.59855 
 1                     0.03192   0.39475   1.32363 
 1                    -0.05708  -1.27331   1.38383 
 1                    -5.96145   7.01739   1.01005 
 1                    -5.64654   6.10975   2.36274 
 1                    -4.34914   5.98643   1.13369 
 1                    -9.1746    5.83431  -0.77795 
 1                    -9.20406   7.93867   0.29919 
 1                    -7.97752   7.40825   1.83868 
 1                    -11.87392   3.20314  -2.34057 
 1                    -13.15705   2.14332  -1.69185 
 1                    -12.42199   3.18376  -0.6431 
 1                    -12.38286  -1.64629  -1.28727 
 1                    -13.39775  -0.33362  -1.57159 
 1                    -13.08954  -1.60059  -3.85662 
 1                    -12.63954  -0.01104  -3.99116 
 1                    -11.33811  -1.23325  -3.94605 
 1                    -8.92416  -4.74576  -1.93349 
 1                    -8.14707  -5.80519  -0.82227 
 1                    -9.67011  -4.94343  -0.38236 
 1                    -3.38825  -3.6664    0.05198 
 1                    -1.70991  -4.34435   3.64625 
 1                    -3.11911  -5.76805   3.69336 
 1                    -1.62244  -5.92351   2.60634 
 1                     2.64248  -1.49427  -1.83022 
 1                     2.39956   0.20851  -2.07186 
 1                     4.3714   -0.97105   0.24001 
 1                     4.16057   1.10017  -2.51761 
 1                     5.35675   2.28632  -2.2194 
 1                     5.97801   0.74545  -2.94662 
 1                     6.75853   1.19952   0.13691 
 1                     6.04658  -0.30157   0.75267 
 1                     7.48586  -1.38304  -1.41422 
 1                     7.63814   0.14483  -1.95022 
 1                     8.89725   0.81407   0.19601 
 1                     8.72489  -0.94643   0.56979 
 1                     10.36031  -0.09729  -1.91085 
 1                     9.2618   -2.21683  -2.026 
 1                     11.16908  -2.31017  -1.90816 
 1                     10.09116  -2.66265  -0.48909 
 1                     11.23072   0.39872   0.3898 
 1                     10.94356  -1.11155   0.83812 
 1                     13.01529  -1.28293  -1.0627 
 1                     12.65685   0.26457  -1.67583 
 1                     13.52687   1.06651   0.61128 
 1                     13.88425  -0.76951   1.09887 
 1                     15.37032   0.42575  -1.30186 
 1                     15.51702  -2.17317   0.35159 
 1                     15.11859  -2.18205  -1.4683 
 1                     16.6154  -2.03536  -1.09913 
 1                     16.09428   1.27153   0.91007 
 1                     16.56562  -0.1879    1.46797 
 1                     18.33585  -0.5216   -0.57698 
 1                     17.55217   0.86711  -1.33969 
 1                     18.3829   2.32083   0.97251 
 1                     18.87552   0.83668   1.53728 
 1                     20.50457   0.45537  -0.0536 
 1                     20.02906   3.20665  -1.12259 
 1                     21.37702   2.25463  -1.68087 
 1                     19.57227   1.86035  -1.86782 
 1                     21.10854   1.31013   2.00275 
 1                     22.28692   2.07959   0.53221 
 1                     20.85782   2.84709   1.55291 
 
 Stoichiometry    C55H72MgN4O5
 Framework group  C1[X(C55H72MgN4O5)]
 Deg. of freedom   405
 Full point group                 C1      NOp   1
 Largest Abelian subgroup         C1      NOp   1
 Largest concise Abelian subgroup C1      NOp   1
                         Standard orientation:                         
 ---------------------------------------------------------------------
 Center     Atomic      Atomic             Coordinates (Angstroms)
 Number     Number       Type             X           Y           Z
 ---------------------------------------------------------------------
      1         12           0       -6.976386    0.647936    0.068804
      2          6           0       -4.833023   -1.958676    0.557743
      3          6           0       -4.874516    2.798811    1.311201
      4          6           0       -9.342984    3.114420   -0.572568
      5          6           0       -9.374936   -1.745446   -0.946283
      6          7           0       -5.012781    0.437082    0.671715
      7          6           0       -4.337851   -0.755733    0.899008
      8          6           0       -2.945385   -0.443011    1.383810
      9          6           0       -3.033557    1.090545    1.755371
     10          6           0       -4.430092    1.507618    1.229981
     11          6           0       -3.133211    1.273837    3.256770
     12          6           0       -1.931664   -0.520171    0.170465
     13          6           0       -0.420635   -0.588973    0.649702
     14          6           0        0.502141   -0.699219   -0.514407
     15          8           0        0.201569   -1.082310   -1.615801
     16          8           0        1.802665   -0.395051   -0.205632
     17          7           0       -7.080403    2.505887    0.420209
     18          6           0       -6.117203    3.344886    0.823801
     19          6           0       -6.452352    4.763416    0.961471
     20          6           0       -7.694745    4.820456    0.396230
     21          6           0       -8.161978    3.432531    0.114891
     22          6           0       -5.530258    5.935270    1.308454
     23          6           0       -8.525604    5.993613    0.144939
     24          6           0       -8.523097    7.157990    0.831382
     25          7           0       -9.081047    0.686079   -0.647146
     26          6           0       -9.813796    1.762107   -0.834628
     27          6           0      -11.133947    1.463340   -1.251206
     28          6           0      -11.186213    0.107788   -1.353911
     29          6           0       -9.774435   -0.421203   -0.979271
     30          6           0      -12.221491    2.590022   -1.566492
     31          6           0      -12.352293   -0.773167   -1.832940
     32          6           0      -12.373265   -0.955230   -3.450086
     33          7           0       -7.205703   -1.425296   -0.216653
     34          6           0       -8.225134   -2.205616   -0.561840
     35          6           0       -7.842862   -3.593453   -0.530851
     36          6           0       -6.509647   -3.587640   -0.154962
     37          6           0       -6.227322   -2.186634    0.062050
     38          6           0       -8.585402   -4.806387   -0.890239
     39          6           0       -5.343388   -4.400017    0.210575
     40          8           0       -5.170420   -5.603642    0.167179
     41          6           0       -4.174275   -3.253706    0.581469
     42          6           0       -3.571820   -3.641887    1.997353
     43          8           0       -3.740842   -3.152372    3.155642
     44          8           0       -2.752357   -4.647948    1.851190
     45          6           0       -2.159263   -5.196124    3.073920
     46          6           0        2.760733   -0.612449   -1.238952
     47          6           0        4.100374   -0.394122   -0.636128
     48          6           0        5.130588    0.332185   -1.041675
     49          6           0        5.261943    1.140081   -2.270687
     50          6           0        6.413293    0.226829   -0.232980
     51          6           0        7.592249   -0.372104   -0.984653
     52          6           0        8.904300   -0.273615   -0.175185
     53          6           0       10.209780   -0.526668   -1.001500
     54          6           0       10.177342   -1.993887   -1.383951
     55          6           0       11.322315   -0.315676   -0.064683
     56          6           0       12.801404   -0.374339   -0.674627
     57          6           0       13.910370    0.032364    0.211030
     58          6           0       15.298172   -0.270633   -0.397223
     59          6           0       15.580375   -1.646783   -0.689666
     60          6           0       16.314694    0.331438    0.453178
     61          6           0       17.722958    0.581112   -0.097581
     62          6           0       18.758511    1.365819    0.704611
     63          6           0       20.226099    1.489550    0.079577
     64          6           0       20.340694    2.249284   -1.097593
     65          6           0       21.254424    2.011728    1.102152
     66          1           0       -3.968043    3.416596    1.737491
     67          1           0       -9.851793    3.961634   -0.917368
     68          1           0      -10.171470   -2.382023   -1.238059
     69          1           0       -2.630642   -1.003162    2.225150
     70          1           0       -2.237681    1.551009    1.495984
     71          1           0       -2.162701    0.785387    3.739266
     72          1           0       -3.310447    2.344150    3.555280
     73          1           0       -4.058305    0.800583    3.798950
     74          1           0       -2.009870   -1.550572   -0.132439
     75          1           0       -2.134427    0.027704   -0.598288
     76          1           0        0.032457    0.392098    1.326136
     77          1           0       -0.056171   -1.276161    1.381330
     78          1           0       -5.962366    7.014184    1.029053
     79          1           0       -5.647949    6.102607    2.379212
     80          1           0       -4.349864    5.983252    1.150485
     81          1           0       -9.174272    5.835645   -0.764157
     82          1           0       -9.204819    7.936792    0.319215
     83          1           0       -7.978963    7.402087    1.857776
     84          1           0      -11.872123    3.208479   -2.336025
     85          1           0      -13.155332    2.146422   -1.691143
     86          1           0      -12.421091    3.183916   -0.638910
     87          1           0      -12.380440   -1.644189   -1.297422
     88          1           0      -13.395495   -0.330921   -1.578377
     89          1           0      -13.085760   -1.591023   -3.866992
     90          1           0      -12.636078   -0.000962   -3.996574
     91          1           0      -11.334377   -1.222987   -3.954407
     92          1           0       -8.920640   -4.740877   -1.951008
     93          1           0       -8.143884   -5.803422   -0.842535
     94          1           0       -9.667360   -4.943342   -0.400873
     95          1           0       -3.386046   -3.666087    0.040599
     96          1           0       -1.709447   -4.354313    3.633727
     97          1           0       -3.118327   -5.778485    3.675861
     98          1           0       -1.621042   -5.930354    2.589181
     99          1           0        2.645155   -1.486911   -1.831928
    100          1           0        2.401942    0.216518   -2.068637
    101          1           0        4.372843   -0.969426    0.240761
    102          1           0        4.162968    1.109929   -2.510799
    103          1           0        5.358706    2.295478   -2.208427
    104          1           0        5.980722    0.756924   -2.939899
    105          1           0        6.759498    1.202023    0.145382
    106          1           0        6.047588   -0.301066    0.756307
    107          1           0        7.488279   -1.375740   -1.413031
    108          1           0        7.640471    0.153749   -1.944401
    109          1           0        8.898284    0.816912    0.204473
    110          1           0        8.726154   -0.944732    0.572934
    111          1           0       10.362686   -0.087822   -1.904303
    112          1           0        9.264752   -2.207279   -2.026339
    113          1           0       11.171990   -2.300505   -1.907760
    114          1           0       10.093406   -2.657464   -0.490320
    115          1           0       11.231751    0.401557    0.398270
    116          1           0       10.944718   -1.110108    0.841950
    117          1           0       13.017506   -1.275334   -1.058278
    118          1           0       12.659008    0.273888   -1.666993
    119          1           0       13.527624    1.069239    0.622953
    120          1           0       13.885190   -0.768132    1.105270
    121          1           0       15.372241    0.434619   -1.291107
    122          1           0       15.518696   -2.169169    0.354696
    123          1           0       15.121240   -2.172739   -1.465432
    124          1           0       16.617814   -2.026782   -1.095029
    125          1           0       16.094825    1.273998    0.923714
    126          1           0       16.566221   -0.186973    1.477525
    127          1           0       18.337621   -0.514164   -0.567467
    128          1           0       17.554005    0.876620   -1.326458
    129          1           0       18.383150    2.323653    0.990487
    130          1           0       18.875838    0.837952    1.551112
    131          1           0       20.505816    0.461772   -0.040030
    132          1           0       20.030203    3.216105   -1.101087
    133          1           0       21.378697    2.266073   -1.661482
    134          1           0       19.574141    1.871909   -1.850566
    135          1           0       21.108487    1.310559    2.019170
    136          1           0       22.287463    2.084673    0.551549
    137          1           0       20.857630    2.848794    1.573764
 ---------------------------------------------------------------------
 Rotational constants (GHZ):      0.0636300      0.0060996      0.0057546
 Standard basis: 6-31G(d,p) (6D, 7F)
 There are  1339 symmetry adapted cartesian basis functions of A   symmetry.
 There are  1339 symmetry adapted basis functions of A   symmetry.
  1339 basis functions,  2348 primitive gaussians,  1339 cartesian basis functions
   241 alpha electrons      241 beta electrons
       nuclear repulsion energy      8745.9065785728 Hartrees.
 NAtoms=  137 NActive=  137 NUniq=  137 SFac= 1.00D+00 NAtFMM=   60 NAOKFM=T Big=T
 Integral buffers will be    131072 words long.
 Raffenetti 1 integral format.
 Two-electron integral symmetry is turned on.
 One-electron integrals computed using PRISM.
 NBasis=  1339 RedAO= T EigKep=  2.65D-04  NBF=  1339
 NBsUse=  1339 1.00D-06 EigRej= -1.00D+00 NBFU=  1339
 ExpMin= 4.21D-02 ExpMax= 1.17D+04 ExpMxC= 1.76D+03 IAcc=2 IRadAn=         4 AccDes= 0.00D+00
 Harris functional with IExCor=20419 and IRadAn=       4 diagonalized for initial guess.
 HarFok:  IExCor=20419 AccDes= 0.00D+00 IRadAn=         4 IDoV= 1 UseB2=F ITyADJ=14
 ICtDFT=  3500011 ScaDFX=  1.000000  1.000000  1.000000  1.000000
 FoFCou: FMM=F IPFlag=           0 FMFlag=      100000 FMFlg1=        2001
         NFxFlg=           0 DoJE=T BraDBF=F KetDBF=T FulRan=T
         wScrn=  0.000000 ICntrl=     500 IOpCl=  0 I1Cent=   200000004 NGrid=           0
         NMat0=    1 NMatS0=      1 NMatT0=    0 NMatD0=    1 NMtDS0=    0 NMtDT0=    0
 Petite list used in FoFCou.
 Requested convergence on RMS density matrix=1.00D-08 within 128 cycles.
 Requested convergence on MAX density matrix=1.00D-06.
 Requested convergence on             energy=1.00D-06.
 No special actions if energy rises.
 SCF Done:  E(RCAM-B3LYP) =  -2932.55646560     A.U. after   15 cycles
            NFock= 15  Conv=0.10D-07     -V/T= 2.0090
 DoSCS=F DFT=T ScalE2(SS,OS)=  1.000000  1.000000
 ExpMin= 4.21D-02 ExpMax= 1.17D+04 ExpMxC= 1.76D+03 IAcc=3 IRadAn=         5 AccDes= 0.00D+00
 HarFok:  IExCor=  205 AccDes= 0.00D+00 IRadAn=         5 IDoV=-2 UseB2=F ITyADJ=14
 ICtDFT= 12500011 ScaDFX=  1.000000  1.000000  1.000000  1.000000
 Range of M.O.s used for correlation:    70  1339
 NBasis=  1339 NAE=   241 NBE=   241 NFC=    69 NFV=     0
 NROrb=   1270 NOA=   172 NOB=   172 NVA=  1098 NVB=  1098
 Would need an additional       2415464100000 words for in-memory AO integral storage.
 Orbital symmetries:
       Occupied  (A) (A) (A) (A) (A) (A) (A) (A) (A) (A) (A) (A)
                 (A) (A) (A) (A) (A) (A) (A) (A) (A) (A) (A) (A)
                 (A) (A) (A) (A) (A) (A) (A) (A) (A) (A) (A) (A)
                 (A) (A) (A) (A) (A) (A) (A) (A) (A) (A) (A) (A)
                 (A) (A) (A) (A) (A) (A) (A) (A) (A) (A) (A) (A)
                 (A) (A) (A) (A) (A) (A) (A) (A) (A) (A) (A) (A)
                 (A) (A) (A) (A) (A) (A) (A) (A) (A) (A) (A) (A)
                 (A) (A) (A) (A) (A) (A) (A) (A) (A) (A) (A) (A)
                 (A) (A) (A) (A) (A) (A) (A) (A) (A) (A) (A) (A)
                 (A) (A) (A) (A) (A) (A) (A) (A) (A) (A) (A) (A)
                 (A) (A) (A) (A) (A) (A) (A) (A) (A) (A) (A) (A)
                 (A) (A) (A) (A) (A) (A) (A) (A) (A) (A) (A) (A)
                 (A) (A) (A) (A) (A) (A) (A) (A) (A) (A) (A) (A)
                 (A) (A) (A) (A) (A) (A) (A) (A) (A) (A) (A) (A)
                 (A) (A) (A) (A) (A) (A) (A) (A) (A) (A) (A) (A)
                 (A) (A) (A) (A) (A) (A) (A) (A) (A) (A) (A) (A)
                 (A) (A) (A) (A) (A) (A) (A) (A) (A) (A) (A) (A)
                 (A) (A) (A) (A) (A) (A) (A) (A) (A) (A) (A) (A)
                 (A) (A) (A) (A) (A) (A) (A) (A) (A) (A) (A) (A)
                 (A) (A) (A) (A) (A) (A) (A) (A) (A) (A) (A) (A)
                 (A)
       Virtual   (A) (A) (A) (A) (A) (A) (A) (A) (A) (A) (A) (A)
                 (A) (A) (A) (A) (A) (A) (A) (A) (A) (A) (A) (A)
                 (A) (A) (A) (A) (A) (A) (A) (A) (A) (A) (A) (A)
                 (A) (A) (A) (A) (A) (A) (A) (A) (A) (A) (A) (A)
                 (A) (A) (A) (A) (A) (A) (A) (A) (A) (A) (A) (A)
                 (A) (A) (A) (A) (A) (A) (A) (A) (A) (A) (A) (A)
                 (A) (A) (A) (A) (A) (A) (A) (A) (A) (A) (A) (A)
                 (A) (A) (A) (A) (A) (A) (A) (A) (A) (A) (A) (A)
                 (A) (A) (A) (A) (A) (A) (A) (A) (A) (A) (A) (A)
                 (A) (A) (A) (A) (A) (A) (A) (A) (A) (A) (A) (A)
                 (A) (A) (A) (A) (A) (A) (A) (A) (A) (A) (A) (A)
                 (A) (A) (A) (A) (A) (A) (A) (A) (A) (A) (A) (A)
                 (A) (A) (A) (A) (A) (A) (A) (A) (A) (A) (A) (A)
                 (A) (A) (A) (A) (A) (A) (A) (A) (A) (A) (A) (A)
                 (A) (A) (A) (A) (A) (A) (A) (A) (A) (A) (A) (A)
                 (A) (A) (A) (A) (A) (A) (A) (A) (A) (A) (A) (A)
                 (A) (A) (A) (A) (A) (A) (A) (A) (A) (A) (A) (A)
                 (A) (A) (A) (A) (A) (A) (A) (A) (A) (A) (A) (A)
                 (A) (A) (A) (A) (A) (A) (A) (A) (A) (A) (A) (A)
                 (A) (A) (A) (A) (A) (A) (A) (A) (A) (A) (A) (A)
                 (A) (A) (A) (A) (A) (A) (A) (A) (A) (A) (A) (A)
                 (A) (A) (A) (A) (A) (A) (A) (A) (A) (A) (A) (A)
                 (A) (A) (A) (A) (A) (A) (A) (A) (A) (A) (A) (A)
                 (A) (A) (A) (A) (A) (A) (A) (A) (A) (A) (A) (A)
                 (A) (A) (A) (A) (A) (A) (A) (A) (A) (A) (A) (A)
                 (A) (A) (A) (A) (A) (A) (A) (A) (A) (A) (A) (A)
                 (A) (A) (A) (A) (A) (A) (A) (A) (A) (A) (A) (A)
                 (A) (A) (A) (A) (A) (A) (A) (A) (A) (A) (A) (A)
                 (A) (A) (A) (A) (A) (A) (A) (A) (A) (A) (A) (A)
                 (A) (A) (A) (A) (A) (A) (A) (A) (A) (A) (A) (A)
                 (A) (A) (A) (A) (A) (A) (A) (A) (A) (A) (A) (A)
                 (A) (A) (A) (A) (A) (A) (A) (A) (A) (A) (A) (A)
                 (A) (A) (A) (A) (A) (A) (A) (A) (A) (A) (A) (A)
                 (A) (A) (A) (A) (A) (A) (A) (A) (A) (A) (A) (A)
                 (A) (A) (A) (A) (A) (A) (A) (A) (A) (A) (A) (A)
                 (A) (A) (A) (A) (A) (A) (A) (A) (A) (A) (A) (A)
                 (A) (A) (A) (A) (A) (A) (A) (A) (A) (A) (A) (A)
                 (A) (A) (A) (A) (A) (A) (A) (A) (A) (A) (A) (A)
                 (A) (A) (A) (A) (A) (A) (A) (A) (A) (A) (A) (A)
                 (A) (A) (A) (A) (A) (A) (A) (A) (A) (A) (A) (A)
                 (A) (A) (A) (A) (A) (A) (A) (A) (A) (A) (A) (A)
                 (A) (A) (A) (A) (A) (A) (A) (A) (A) (A) (A) (A)
                 (A) (A) (A) (A) (A) (A) (A) (A) (A) (A) (A) (A)
                 (A) (A) (A) (A) (A) (A) (A) (A) (A) (A) (A) (A)
                 (A) (A) (A) (A) (A) (A) (A) (A) (A) (A) (A) (A)
                 (A) (A) (A) (A) (A) (A) (A) (A) (A) (A) (A) (A)
                 (A) (A) (A) (A) (A) (A) (A) (A) (A) (A) (A) (A)
                 (A) (A) (A) (A) (A) (A) (A) (A) (A) (A) (A) (A)
                 (A) (A) (A) (A) (A) (A) (A) (A) (A) (A) (A) (A)
                 (A) (A) (A) (A) (A) (A) (A) (A) (A) (A) (A) (A)
                 (A) (A) (A) (A) (A) (A) (A) (A) (A) (A) (A) (A)
                 (A) (A) (A) (A) (A) (A) (A) (A) (A) (A) (A) (A)
                 (A) (A) (A) (A) (A) (A) (A) (A) (A) (A) (A) (A)
                 (A) (A) (A) (A) (A) (A) (A) (A) (A) (A) (A) (A)
                 (A) (A) (A) (A) (A) (A) (A) (A) (A) (A) (A) (A)
                 (A) (A) (A) (A) (A) (A) (A) (A) (A) (A) (A) (A)
                 (A) (A) (A) (A) (A) (A) (A) (A) (A) (A) (A) (A)
                 (A) (A) (A) (A) (A) (A) (A) (A) (A) (A) (A) (A)
                 (A) (A) (A) (A) (A) (A) (A) (A) (A) (A) (A) (A)
                 (A) (A) (A) (A) (A) (A) (A) (A) (A) (A) (A) (A)
                 (A) (A) (A) (A) (A) (A) (A) (A) (A) (A) (A) (A)
                 (A) (A) (A) (A) (A) (A) (A) (A) (A) (A) (A) (A)
                 (A) (A) (A) (A) (A) (A) (A) (A) (A) (A) (A) (A)
                 (A) (A) (A) (A) (A) (A) (A) (A) (A) (A) (A) (A)
                 (A) (A) (A) (A) (A) (A) (A) (A) (A) (A) (A) (A)
                 (A) (A) (A) (A) (A) (A) (A) (A) (A) (A) (A) (A)
                 (A) (A) (A) (A) (A) (A) (A) (A) (A) (A) (A) (A)
                 (A) (A) (A) (A) (A) (A) (A) (A) (A) (A) (A) (A)
                 (A) (A) (A) (A) (A) (A) (A) (A) (A) (A) (A) (A)
                 (A) (A) (A) (A) (A) (A) (A) (A) (A) (A) (A) (A)
                 (A) (A) (A) (A) (A) (A) (A) (A) (A) (A) (A) (A)
                 (A) (A) (A) (A) (A) (A) (A) (A) (A) (A) (A) (A)
                 (A) (A) (A) (A) (A) (A) (A) (A) (A) (A) (A) (A)
                 (A) (A) (A) (A) (A) (A) (A) (A) (A) (A) (A) (A)
                 (A) (A) (A) (A) (A) (A) (A) (A) (A) (A) (A) (A)
                 (A) (A) (A) (A) (A) (A) (A) (A) (A) (A) (A) (A)
                 (A) (A) (A) (A) (A) (A) (A) (A) (A) (A) (A) (A)
                 (A) (A) (A) (A) (A) (A) (A) (A) (A) (A) (A) (A)
                 (A) (A) (A) (A) (A) (A) (A) (A) (A) (A) (A) (A)
                 (A) (A) (A) (A) (A) (A) (A) (A) (A) (A) (A) (A)
                 (A) (A) (A) (A) (A) (A) (A) (A) (A) (A) (A) (A)
                 (A) (A) (A) (A) (A) (A) (A) (A) (A) (A) (A) (A)
                 (A) (A) (A) (A) (A) (A) (A) (A) (A) (A) (A) (A)
                 (A) (A) (A) (A) (A) (A) (A) (A) (A) (A) (A) (A)
                 (A) (A) (A) (A) (A) (A) (A) (A) (A) (A) (A) (A)
                 (A) (A) (A) (A) (A) (A) (A) (A) (A) (A) (A) (A)
                 (A) (A) (A) (A) (A) (A) (A) (A) (A) (A) (A) (A)
                 (A) (A) (A) (A) (A) (A) (A) (A) (A) (A) (A) (A)
                 (A) (A) (A) (A) (A) (A) (A) (A) (A) (A) (A) (A)
                 (A) (A) (A) (A) (A) (A) (A) (A) (A) (A) (A) (A)
                 (A) (A) (A) (A) (A) (A) (A) (A) (A) (A) (A) (A)
                 (A) (A) (A) (A) (A) (A)
     8 initial guesses have been made.
 Convergence on wavefunction:    0.001000000000000
 Iteration     1 Dimension     8 NMult     0 NNew      8
 CISAX will form     8 AO SS matrices at one time.
 Iteration     2 Dimension    12 NMult     8 NNew      4
 Iteration     3 Dimension    16 NMult    12 NNew      4
 Iteration     4 Dimension    20 NMult    16 NNew      4
 Iteration     5 Dimension    24 NMult    20 NNew      4
 Iteration     6 Dimension    28 NMult    24 NNew      4
 ***********************************************************************
 Excited states from <AA,BB:AA,BB> singles matrix:
 ***********************************************************************
 
 Ground to excited state transition densities written to RWF  633
 Ground to excited state transition electric dipole moments (Au):
       state          X           Y           Z        Dip. S.      Osc.
         1        -0.0173      2.1187      0.2528      4.5532      0.2453
 Ground to excited state transition velocity dipole moments (Au):
       state          X           Y           Z        Dip. S.      Osc.
         1         0.0011     -0.1657     -0.0202      0.0279      0.2299
 Ground to excited state transition magnetic dipole moments (Au):
       state          X           Y           Z
         1        -0.8565     -0.5211      4.4455
 Ground to excited state transition velocity quadrupole moments (Au):
       state          XX          YY          ZZ          XY          XZ          YZ
         1        -0.1198     -0.1278     -0.0639      2.1447      0.1937     -0.1460
 <0|del|b> * <b|rxdel|0> + <0|del|b> * <b|delr+rdel|0>
 Rotatory Strengths (R) in cgs (10**-40 erg-esu-cm/Gauss)
       state          XX          YY          ZZ    R(velocity)    E-M Angle
         1       -62.9623   -207.8247    233.8806    -12.3021       90.32
 1/2[<0|r|b>*<b|rxdel|0> + (<0|rxdel|b>*<b|r|0>)*]
 Rotatory Strengths (R) in cgs (10**-40 erg-esu-cm/Gauss)
       state          XX          YY          ZZ     R(length)
         1       -10.4596    780.7677   -794.8321     -8.1747
  1/2[<0|del|b>*<b|r|0> + (<0|r|b>*<b|del|0>)*] (Au)
       state          X           Y           Z        Dip. S.   Osc.(frdel)
         1         0.0000     -0.3511     -0.0051      0.3562      0.2375

 Excitation energies and oscillator strengths:
 
 Excited State   1:      Singlet-A      2.1992 eV  563.77 nm  f=0.2453  <S**2>=0.000
     240 -> 243       -0.23432
     241 -> 242        0.65139
 This state for optimization and/or second-order correction.
 Total Energy, E(TD-HF/TD-KS) =  -2932.47564648    
 Copying the excited state density for this state as the 1-particle RhoCI density.
 SavETr:  write IOETrn=   770 NScale= 10 NData=  16 NLR=1 NState=    1 LETran=      28.

 **********************************************************************

            Population analysis using the SCF density.

 **********************************************************************

 Orbital symmetries:
       Occupied  (A) (A) (A) (A) (A) (A) (A) (A) (A) (A) (A) (A)
                 (A) (A) (A) (A) (A) (A) (A) (A) (A) (A) (A) (A)
                 (A) (A) (A) (A) (A) (A) (A) (A) (A) (A) (A) (A)
                 (A) (A) (A) (A) (A) (A) (A) (A) (A) (A) (A) (A)
                 (A) (A) (A) (A) (A) (A) (A) (A) (A) (A) (A) (A)
                 (A) (A) (A) (A) (A) (A) (A) (A) (A) (A) (A) (A)
                 (A) (A) (A) (A) (A) (A) (A) (A) (A) (A) (A) (A)
                 (A) (A) (A) (A) (A) (A) (A) (A) (A) (A) (A) (A)
                 (A) (A) (A) (A) (A) (A) (A) (A) (A) (A) (A) (A)
                 (A) (A) (A) (A) (A) (A) (A) (A) (A) (A) (A) (A)
                 (A) (A) (A) (A) (A) (A) (A) (A) (A) (A) (A) (A)
                 (A) (A) (A) (A) (A) (A) (A) (A) (A) (A) (A) (A)
                 (A) (A) (A) (A) (A) (A) (A) (A) (A) (A) (A) (A)
                 (A) (A) (A) (A) (A) (A) (A) (A) (A) (A) (A) (A)
                 (A) (A) (A) (A) (A) (A) (A) (A) (A) (A) (A) (A)
                 (A) (A) (A) (A) (A) (A) (A) (A) (A) (A) (A) (A)
                 (A) (A) (A) (A) (A) (A) (A) (A) (A) (A) (A) (A)
                 (A) (A) (A) (A) (A) (A) (A) (A) (A) (A) (A) (A)
                 (A) (A) (A) (A) (A) (A) (A) (A) (A) (A) (A) (A)
                 (A) (A) (A) (A) (A) (A) (A) (A) (A) (A) (A) (A)
                 (A)
       Virtual   (A) (A) (A) (A) (A) (A) (A) (A) (A) (A) (A) (A)
                 (A) (A) (A) (A) (A) (A) (A) (A) (A) (A) (A) (A)
                 (A) (A) (A) (A) (A) (A) (A) (A) (A) (A) (A) (A)
                 (A) (A) (A) (A) (A) (A) (A) (A) (A) (A) (A) (A)
                 (A) (A) (A) (A) (A) (A) (A) (A) (A) (A) (A) (A)
                 (A) (A) (A) (A) (A) (A) (A) (A) (A) (A) (A) (A)
                 (A) (A) (A) (A) (A) (A) (A) (A) (A) (A) (A) (A)
                 (A) (A) (A) (A) (A) (A) (A) (A) (A) (A) (A) (A)
                 (A) (A) (A) (A) (A) (A) (A) (A) (A) (A) (A) (A)
                 (A) (A) (A) (A) (A) (A) (A) (A) (A) (A) (A) (A)
                 (A) (A) (A) (A) (A) (A) (A) (A) (A) (A) (A) (A)
                 (A) (A) (A) (A) (A) (A) (A) (A) (A) (A) (A) (A)
                 (A) (A) (A) (A) (A) (A) (A) (A) (A) (A) (A) (A)
                 (A) (A) (A) (A) (A) (A) (A) (A) (A) (A) (A) (A)
                 (A) (A) (A) (A) (A) (A) (A) (A) (A) (A) (A) (A)
                 (A) (A) (A) (A) (A) (A) (A) (A) (A) (A) (A) (A)
                 (A) (A) (A) (A) (A) (A) (A) (A) (A) (A) (A) (A)
                 (A) (A) (A) (A) (A) (A) (A) (A) (A) (A) (A) (A)
                 (A) (A) (A) (A) (A) (A) (A) (A) (A) (A) (A) (A)
                 (A) (A) (A) (A) (A) (A) (A) (A) (A) (A) (A) (A)
                 (A) (A) (A) (A) (A) (A) (A) (A) (A) (A) (A) (A)
                 (A) (A) (A) (A) (A) (A) (A) (A) (A) (A) (A) (A)
                 (A) (A) (A) (A) (A) (A) (A) (A) (A) (A) (A) (A)
                 (A) (A) (A) (A) (A) (A) (A) (A) (A) (A) (A) (A)
                 (A) (A) (A) (A) (A) (A) (A) (A) (A) (A) (A) (A)
                 (A) (A) (A) (A) (A) (A) (A) (A) (A) (A) (A) (A)
                 (A) (A) (A) (A) (A) (A) (A) (A) (A) (A) (A) (A)
                 (A) (A) (A) (A) (A) (A) (A) (A) (A) (A) (A) (A)
                 (A) (A) (A) (A) (A) (A) (A) (A) (A) (A) (A) (A)
                 (A) (A) (A) (A) (A) (A) (A) (A) (A) (A) (A) (A)
                 (A) (A) (A) (A) (A) (A) (A) (A) (A) (A) (A) (A)
                 (A) (A) (A) (A) (A) (A) (A) (A) (A) (A) (A) (A)
                 (A) (A) (A) (A) (A) (A) (A) (A) (A) (A) (A) (A)
                 (A) (A) (A) (A) (A) (A) (A) (A) (A) (A) (A) (A)
                 (A) (A) (A) (A) (A) (A) (A) (A) (A) (A) (A) (A)
                 (A) (A) (A) (A) (A) (A) (A) (A) (A) (A) (A) (A)
                 (A) (A) (A) (A) (A) (A) (A) (A) (A) (A) (A) (A)
                 (A) (A) (A) (A) (A) (A) (A) (A) (A) (A) (A) (A)
                 (A) (A) (A) (A) (A) (A) (A) (A) (A) (A) (A) (A)
                 (A) (A) (A) (A) (A) (A) (A) (A) (A) (A) (A) (A)
                 (A) (A) (A) (A) (A) (A) (A) (A) (A) (A) (A) (A)
                 (A) (A) (A) (A) (A) (A) (A) (A) (A) (A) (A) (A)
                 (A) (A) (A) (A) (A) (A) (A) (A) (A) (A) (A) (A)
                 (A) (A) (A) (A) (A) (A) (A) (A) (A) (A) (A) (A)
                 (A) (A) (A) (A) (A) (A) (A) (A) (A) (A) (A) (A)
                 (A) (A) (A) (A) (A) (A) (A) (A) (A) (A) (A) (A)
                 (A) (A) (A) (A) (A) (A) (A) (A) (A) (A) (A) (A)
                 (A) (A) (A) (A) (A) (A) (A) (A) (A) (A) (A) (A)
                 (A) (A) (A) (A) (A) (A) (A) (A) (A) (A) (A) (A)
                 (A) (A) (A) (A) (A) (A) (A) (A) (A) (A) (A) (A)
                 (A) (A) (A) (A) (A) (A) (A) (A) (A) (A) (A) (A)
                 (A) (A) (A) (A) (A) (A) (A) (A) (A) (A) (A) (A)
                 (A) (A) (A) (A) (A) (A) (A) (A) (A) (A) (A) (A)
                 (A) (A) (A) (A) (A) (A) (A) (A) (A) (A) (A) (A)
                 (A) (A) (A) (A) (A) (A) (A) (A) (A) (A) (A) (A)
                 (A) (A) (A) (A) (A) (A) (A) (A) (A) (A) (A) (A)
                 (A) (A) (A) (A) (A) (A) (A) (A) (A) (A) (A) (A)
                 (A) (A) (A) (A) (A) (A) (A) (A) (A) (A) (A) (A)
                 (A) (A) (A) (A) (A) (A) (A) (A) (A) (A) (A) (A)
                 (A) (A) (A) (A) (A) (A) (A) (A) (A) (A) (A) (A)
                 (A) (A) (A) (A) (A) (A) (A) (A) (A) (A) (A) (A)
                 (A) (A) (A) (A) (A) (A) (A) (A) (A) (A) (A) (A)
                 (A) (A) (A) (A) (A) (A) (A) (A) (A) (A) (A) (A)
                 (A) (A) (A) (A) (A) (A) (A) (A) (A) (A) (A) (A)
                 (A) (A) (A) (A) (A) (A) (A) (A) (A) (A) (A) (A)
                 (A) (A) (A) (A) (A) (A) (A) (A) (A) (A) (A) (A)
                 (A) (A) (A) (A) (A) (A) (A) (A) (A) (A) (A) (A)
                 (A) (A) (A) (A) (A) (A) (A) (A) (A) (A) (A) (A)
                 (A) (A) (A) (A) (A) (A) (A) (A) (A) (A) (A) (A)
                 (A) (A) (A) (A) (A) (A) (A) (A) (A) (A) (A) (A)
                 (A) (A) (A) (A) (A) (A) (A) (A) (A) (A) (A) (A)
                 (A) (A) (A) (A) (A) (A) (A) (A) (A) (A) (A) (A)
                 (A) (A) (A) (A) (A) (A) (A) (A) (A) (A) (A) (A)
                 (A) (A) (A) (A) (A) (A) (A) (A) (A) (A) (A) (A)
                 (A) (A) (A) (A) (A) (A) (A) (A) (A) (A) (A) (A)
                 (A) (A) (A) (A) (A) (A) (A) (A) (A) (A) (A) (A)
                 (A) (A) (A) (A) (A) (A) (A) (A) (A) (A) (A) (A)
                 (A) (A) (A) (A) (A) (A) (A) (A) (A) (A) (A) (A)
                 (A) (A) (A) (A) (A) (A) (A) (A) (A) (A) (A) (A)
                 (A) (A) (A) (A) (A) (A) (A) (A) (A) (A) (A) (A)
                 (A) (A) (A) (A) (A) (A) (A) (A) (A) (A) (A) (A)
                 (A) (A) (A) (A) (A) (A) (A) (A) (A) (A) (A) (A)
                 (A) (A) (A) (A) (A) (A) (A) (A) (A) (A) (A) (A)
                 (A) (A) (A) (A) (A) (A) (A) (A) (A) (A) (A) (A)
                 (A) (A) (A) (A) (A) (A) (A) (A) (A) (A) (A) (A)
                 (A) (A) (A) (A) (A) (A) (A) (A) (A) (A) (A) (A)
                 (A) (A) (A) (A) (A) (A) (A) (A) (A) (A) (A) (A)
                 (A) (A) (A) (A) (A) (A) (A) (A) (A) (A) (A) (A)
                 (A) (A) (A) (A) (A) (A) (A) (A) (A) (A) (A) (A)
                 (A) (A) (A) (A) (A) (A) (A) (A) (A) (A) (A) (A)
                 (A) (A) (A) (A) (A) (A) (A) (A) (A) (A) (A) (A)
                 (A) (A) (A) (A) (A) (A)
 The electronic state is 1-A.
 Alpha  occ. eigenvalues --  -46.84819 -19.26125 -19.25720 -19.20919 -19.20872
 Alpha  occ. eigenvalues --  -19.19161 -14.40653 -14.40538 -14.39636 -14.39217
 Alpha  occ. eigenvalues --  -10.38979 -10.38472 -10.35743 -10.32372 -10.32333
 Alpha  occ. eigenvalues --  -10.31649 -10.30577 -10.30565 -10.30054 -10.29414
 Alpha  occ. eigenvalues --  -10.29200 -10.28931 -10.28679 -10.28594 -10.28421
 Alpha  occ. eigenvalues --  -10.28401 -10.28363 -10.28359 -10.28258 -10.28177
 Alpha  occ. eigenvalues --  -10.28163 -10.27695 -10.27511 -10.27195 -10.26887
 Alpha  occ. eigenvalues --  -10.26828 -10.26820 -10.26657 -10.26607 -10.26563
 Alpha  occ. eigenvalues --  -10.26536 -10.26404 -10.26386 -10.26223 -10.26039
 Alpha  occ. eigenvalues --  -10.25964 -10.25712 -10.25685 -10.25666 -10.25541
 Alpha  occ. eigenvalues --  -10.25525 -10.25467 -10.25433 -10.25432 -10.25232
 Alpha  occ. eigenvalues --  -10.25172 -10.25021 -10.24998 -10.24990 -10.24955
 Alpha  occ. eigenvalues --  -10.24894 -10.24760 -10.24635 -10.23643 -10.23551
 Alpha  occ. eigenvalues --   -3.13967  -1.88655  -1.88238  -1.88135  -1.18196
 Alpha  occ. eigenvalues --   -1.18099  -1.11003  -1.09345  -1.07303  -1.05218
 Alpha  occ. eigenvalues --   -1.04142  -1.03603  -1.02746  -0.92336  -0.92328
 Alpha  occ. eigenvalues --   -0.91621  -0.90548  -0.90181  -0.89652  -0.89559
 Alpha  occ. eigenvalues --   -0.89055  -0.87992  -0.87463  -0.86692  -0.86189
 Alpha  occ. eigenvalues --   -0.85393  -0.84506  -0.83612  -0.83485  -0.82239
 Alpha  occ. eigenvalues --   -0.81768  -0.81545  -0.80708  -0.80044  -0.78238
 Alpha  occ. eigenvalues --   -0.77791  -0.76703  -0.76604  -0.76267  -0.76040
 Alpha  occ. eigenvalues --   -0.75892  -0.75532  -0.75519  -0.73096  -0.72646
 Alpha  occ. eigenvalues --   -0.71397  -0.70780  -0.70209  -0.69468  -0.68747
 Alpha  occ. eigenvalues --   -0.67716  -0.66432  -0.66193  -0.65085  -0.64898
 Alpha  occ. eigenvalues --   -0.64332  -0.64268  -0.63422  -0.63165  -0.62808
 Alpha  occ. eigenvalues --   -0.61394  -0.60750  -0.60359  -0.59602  -0.59238
 Alpha  occ. eigenvalues --   -0.59011  -0.58706  -0.57633  -0.56957  -0.56411
 Alpha  occ. eigenvalues --   -0.56190  -0.55998  -0.55669  -0.55312  -0.54718
 Alpha  occ. eigenvalues --   -0.54360  -0.54205  -0.53550  -0.53497  -0.53281
 Alpha  occ. eigenvalues --   -0.53030  -0.52905  -0.52488  -0.52136  -0.51758
 Alpha  occ. eigenvalues --   -0.51422  -0.51202  -0.51085  -0.50895  -0.50695
 Alpha  occ. eigenvalues --   -0.50370  -0.50013  -0.49891  -0.49631  -0.49276
 Alpha  occ. eigenvalues --   -0.48947  -0.48927  -0.48766  -0.48501  -0.48377
 Alpha  occ. eigenvalues --   -0.48117  -0.47821  -0.47466  -0.47369  -0.47079
 Alpha  occ. eigenvalues --   -0.46995  -0.46850  -0.46650  -0.46442  -0.46218
 Alpha  occ. eigenvalues --   -0.46010  -0.45744  -0.45322  -0.45051  -0.44921
 Alpha  occ. eigenvalues --   -0.44737  -0.44606  -0.44595  -0.44275  -0.44182
 Alpha  occ. eigenvalues --   -0.44112  -0.43812  -0.43462  -0.43388  -0.43248
 Alpha  occ. eigenvalues --   -0.43002  -0.42862  -0.42799  -0.42588  -0.42354
 Alpha  occ. eigenvalues --   -0.42139  -0.41931  -0.41694  -0.41435  -0.41357
 Alpha  occ. eigenvalues --   -0.41143  -0.40861  -0.40787  -0.40646  -0.40366
 Alpha  occ. eigenvalues --   -0.40269  -0.39902  -0.39602  -0.39450  -0.39329
 Alpha  occ. eigenvalues --   -0.39022  -0.38948  -0.38797  -0.38144  -0.37712
 Alpha  occ. eigenvalues --   -0.37356  -0.36904  -0.36529  -0.36367  -0.36234
 Alpha  occ. eigenvalues --   -0.36105  -0.35887  -0.35661  -0.35450  -0.34902
 Alpha  occ. eigenvalues --   -0.34859  -0.34772  -0.33843  -0.33759  -0.33132
 Alpha  occ. eigenvalues --   -0.32527  -0.32166  -0.32133  -0.30630  -0.30037
 Alpha  occ. eigenvalues --   -0.29994  -0.29624  -0.29194  -0.28391  -0.23352
 Alpha  occ. eigenvalues --   -0.21500
 Alpha virt. eigenvalues --   -0.05938  -0.02724   0.02080   0.03879   0.05464
 Alpha virt. eigenvalues --    0.06153   0.06340   0.06656   0.06681   0.07356
 Alpha virt. eigenvalues --    0.08709   0.11167   0.11454   0.11455   0.12076
 Alpha virt. eigenvalues --    0.12320   0.12456   0.12580   0.12846   0.12951
 Alpha virt. eigenvalues --    0.13118   0.13211   0.13345   0.13917   0.14216
 Alpha virt. eigenvalues --    0.14326   0.14418   0.14643   0.14893   0.15087
 Alpha virt. eigenvalues --    0.15321   0.15504   0.16081   0.16341   0.16698
 Alpha virt. eigenvalues --    0.16784   0.16898   0.17081   0.17334   0.17565
 Alpha virt. eigenvalues --    0.17615   0.17622   0.17875   0.18006   0.18155
 Alpha virt. eigenvalues --    0.18656   0.18851   0.19081   0.19178   0.19550
 Alpha virt. eigenvalues --    0.19666   0.19837   0.19889   0.20106   0.20149
 Alpha virt. eigenvalues --    0.20378   0.20498   0.20591   0.20713   0.20827
 Alpha virt. eigenvalues --    0.21156   0.21358   0.21669   0.21820   0.21915
 Alpha virt. eigenvalues --    0.21972   0.22174   0.22276   0.22415   0.22471
 Alpha virt. eigenvalues --    0.22536   0.22965   0.23057   0.23140   0.23183
 Alpha virt. eigenvalues --    0.23550   0.23811   0.23979   0.24054   0.24177
 Alpha virt. eigenvalues --    0.24310   0.24468   0.24776   0.24950   0.25072
 Alpha virt. eigenvalues --    0.25314   0.25711   0.25820   0.26209   0.26265
 Alpha virt. eigenvalues --    0.26714   0.26857   0.26922   0.27071   0.27267
 Alpha virt. eigenvalues --    0.27695   0.27804   0.27885   0.28258   0.28298
 Alpha virt. eigenvalues --    0.28464   0.28738   0.29267   0.29527   0.29870
 Alpha virt. eigenvalues --    0.29911   0.30004   0.30266   0.30435   0.30587
 Alpha virt. eigenvalues --    0.30739   0.31137   0.31891   0.31936   0.32222
 Alpha virt. eigenvalues --    0.32503   0.32854   0.33280   0.33688   0.33713
 Alpha virt. eigenvalues --    0.33991   0.34191   0.34420   0.34572   0.34796
 Alpha virt. eigenvalues --    0.35502   0.35539   0.35592   0.36176   0.36642
 Alpha virt. eigenvalues --    0.36898   0.36969   0.37247   0.37325   0.37951
 Alpha virt. eigenvalues --    0.38843   0.39318   0.39727   0.40151   0.40613
 Alpha virt. eigenvalues --    0.41297   0.41371   0.41643   0.41816   0.42098
 Alpha virt. eigenvalues --    0.42878   0.43470   0.43802   0.44083   0.44722
 Alpha virt. eigenvalues --    0.46298   0.47049   0.47760   0.48034   0.49461
 Alpha virt. eigenvalues --    0.50082   0.50365   0.51373   0.51910   0.52455
 Alpha virt. eigenvalues --    0.53013   0.53336   0.54043   0.54423   0.54734
 Alpha virt. eigenvalues --    0.55078   0.55207   0.55286   0.55519   0.55986
 Alpha virt. eigenvalues --    0.56289   0.56465   0.56883   0.57099   0.57236
 Alpha virt. eigenvalues --    0.57312   0.57458   0.57810   0.57992   0.58272
 Alpha virt. eigenvalues --    0.58375   0.58534   0.58610   0.58918   0.59066
 Alpha virt. eigenvalues --    0.59282   0.59537   0.59924   0.60264   0.60493
 Alpha virt. eigenvalues --    0.60726   0.60857   0.60918   0.61124   0.61436
 Alpha virt. eigenvalues --    0.61627   0.61730   0.62067   0.62469   0.62616
 Alpha virt. eigenvalues --    0.63123   0.63469   0.63484   0.63735   0.63872
 Alpha virt. eigenvalues --    0.64473   0.64567   0.64728   0.64791   0.65222
 Alpha virt. eigenvalues --    0.65323   0.65864   0.66013   0.66268   0.66593
 Alpha virt. eigenvalues --    0.66832   0.66963   0.67122   0.67769   0.67895
 Alpha virt. eigenvalues --    0.67943   0.68329   0.68917   0.69156   0.69391
 Alpha virt. eigenvalues --    0.69897   0.69998   0.70389   0.70795   0.70914
 Alpha virt. eigenvalues --    0.71206   0.71569   0.71632   0.72396   0.72625
 Alpha virt. eigenvalues --    0.72696   0.72742   0.73185   0.73323   0.73702
 Alpha virt. eigenvalues --    0.74063   0.74271   0.74496   0.74722   0.75060
 Alpha virt. eigenvalues --    0.75241   0.75339   0.75508   0.75705   0.75734
 Alpha virt. eigenvalues --    0.75863   0.76102   0.76663   0.76884   0.77018
 Alpha virt. eigenvalues --    0.77419   0.77800   0.78092   0.78420   0.78781
 Alpha virt. eigenvalues --    0.78853   0.79085   0.79405   0.79454   0.79675
 Alpha virt. eigenvalues --    0.79761   0.79937   0.80595   0.80776   0.80857
 Alpha virt. eigenvalues --    0.81266   0.81687   0.81961   0.82119   0.82283
 Alpha virt. eigenvalues --    0.82446   0.82603   0.82711   0.83072   0.83636
 Alpha virt. eigenvalues --    0.83679   0.83878   0.84237   0.84278   0.84535
 Alpha virt. eigenvalues --    0.84728   0.84970   0.85168   0.85530   0.85569
 Alpha virt. eigenvalues --    0.85667   0.85752   0.86480   0.86600   0.86703
 Alpha virt. eigenvalues --    0.86814   0.87231   0.87507   0.87714   0.87996
 Alpha virt. eigenvalues --    0.88107   0.88162   0.88398   0.88713   0.88814
 Alpha virt. eigenvalues --    0.89287   0.89499   0.89596   0.89973   0.90069
 Alpha virt. eigenvalues --    0.90333   0.90372   0.90526   0.90667   0.90850
 Alpha virt. eigenvalues --    0.91121   0.91418   0.91450   0.91523   0.91902
 Alpha virt. eigenvalues --    0.92250   0.92405   0.92611   0.92736   0.93219
 Alpha virt. eigenvalues --    0.93420   0.93626   0.93697   0.93774   0.93862
 Alpha virt. eigenvalues --    0.94041   0.94275   0.94544   0.94679   0.94915
 Alpha virt. eigenvalues --    0.95024   0.95219   0.95345   0.95547   0.95637
 Alpha virt. eigenvalues --    0.96122   0.96323   0.96652   0.96786   0.97185
 Alpha virt. eigenvalues --    0.97314   0.97458   0.97626   0.97735   0.97874
 Alpha virt. eigenvalues --    0.98264   0.98384   0.98756   0.98902   0.98953
 Alpha virt. eigenvalues --    0.99181   0.99392   0.99995   1.00133   1.00392
 Alpha virt. eigenvalues --    1.00648   1.00760   1.01085   1.01216   1.01456
 Alpha virt. eigenvalues --    1.01688   1.02038   1.02206   1.02388   1.02561
 Alpha virt. eigenvalues --    1.02744   1.03284   1.03629   1.03781   1.04048
 Alpha virt. eigenvalues --    1.04300   1.04557   1.04711   1.04976   1.05059
 Alpha virt. eigenvalues --    1.05357   1.05494   1.05706   1.05922   1.06061
 Alpha virt. eigenvalues --    1.06663   1.07105   1.07724   1.07958   1.08258
 Alpha virt. eigenvalues --    1.08386   1.08729   1.08746   1.09642   1.09765
 Alpha virt. eigenvalues --    1.10172   1.10330   1.11057   1.11274   1.11535
 Alpha virt. eigenvalues --    1.11812   1.12597   1.12996   1.13299   1.13856
 Alpha virt. eigenvalues --    1.14354   1.14392   1.14755   1.15645   1.15888
 Alpha virt. eigenvalues --    1.16412   1.16718   1.16939   1.17212   1.17745
 Alpha virt. eigenvalues --    1.18885   1.19369   1.20391   1.20574   1.20937
 Alpha virt. eigenvalues --    1.20970   1.21395   1.22521   1.22846   1.23007
 Alpha virt. eigenvalues --    1.23420   1.24098   1.24986   1.25486   1.25864
 Alpha virt. eigenvalues --    1.26344   1.26785   1.27258   1.27329   1.28239
 Alpha virt. eigenvalues --    1.28812   1.28934   1.29745   1.30165   1.31031
 Alpha virt. eigenvalues --    1.31827   1.32173   1.32465   1.33098   1.33753
 Alpha virt. eigenvalues --    1.34270   1.34747   1.34994   1.35304   1.35672
 Alpha virt. eigenvalues --    1.36033   1.36660   1.36934   1.37876   1.38287
 Alpha virt. eigenvalues --    1.38372   1.38921   1.39418   1.39688   1.40140
 Alpha virt. eigenvalues --    1.40375   1.40863   1.41507   1.41555   1.41689
 Alpha virt. eigenvalues --    1.42624   1.43395   1.43560   1.44125   1.44422
 Alpha virt. eigenvalues --    1.45234   1.45745   1.46039   1.46284   1.46474
 Alpha virt. eigenvalues --    1.47394   1.47441   1.48121   1.48312   1.49895
 Alpha virt. eigenvalues --    1.50036   1.51300   1.51522   1.51978   1.52376
 Alpha virt. eigenvalues --    1.53097   1.53322   1.53893   1.54700   1.54925
 Alpha virt. eigenvalues --    1.55040   1.55357   1.55765   1.56766   1.56866
 Alpha virt. eigenvalues --    1.57209   1.57359   1.57767   1.58042   1.58306
 Alpha virt. eigenvalues --    1.58948   1.59238   1.59829   1.60400   1.60631
 Alpha virt. eigenvalues --    1.61050   1.61176   1.61543   1.62063   1.62287
 Alpha virt. eigenvalues --    1.63051   1.63180   1.63627   1.64204   1.64331
 Alpha virt. eigenvalues --    1.64908   1.65304   1.65737   1.66242   1.67015
 Alpha virt. eigenvalues --    1.67288   1.67950   1.68133   1.68299   1.68821
 Alpha virt. eigenvalues --    1.68991   1.69697   1.70200   1.70249   1.70600
 Alpha virt. eigenvalues --    1.70830   1.70914   1.72038   1.72578   1.73638
 Alpha virt. eigenvalues --    1.73759   1.74256   1.75321   1.75772   1.76063
 Alpha virt. eigenvalues --    1.76230   1.76730   1.76848   1.77185   1.77496
 Alpha virt. eigenvalues --    1.77674   1.77891   1.78463   1.78837   1.79083
 Alpha virt. eigenvalues --    1.79601   1.79945   1.80334   1.80780   1.81490
 Alpha virt. eigenvalues --    1.82367   1.82489   1.82889   1.83214   1.83328
 Alpha virt. eigenvalues --    1.83546   1.83743   1.84143   1.84868   1.84920
 Alpha virt. eigenvalues --    1.85553   1.85707   1.86333   1.86387   1.86732
 Alpha virt. eigenvalues --    1.86856   1.87099   1.87412   1.87797   1.88028
 Alpha virt. eigenvalues --    1.88091   1.88237   1.88657   1.88856   1.88910
 Alpha virt. eigenvalues --    1.89177   1.89450   1.89603   1.90106   1.90747
 Alpha virt. eigenvalues --    1.91330   1.91515   1.91919   1.92171   1.92415
 Alpha virt. eigenvalues --    1.92733   1.93290   1.93541   1.93800   1.94104
 Alpha virt. eigenvalues --    1.94279   1.94337   1.94579   1.94985   1.95143
 Alpha virt. eigenvalues --    1.95343   1.95363   1.96011   1.96255   1.96378
 Alpha virt. eigenvalues --    1.96469   1.96855   1.97223   1.97444   1.97869
 Alpha virt. eigenvalues --    1.98102   1.98353   1.98467   1.98850   1.98867
 Alpha virt. eigenvalues --    1.99155   1.99684   1.99905   2.00137   2.00381
 Alpha virt. eigenvalues --    2.00783   2.00841   2.01102   2.01320   2.01477
 Alpha virt. eigenvalues --    2.01619   2.01953   2.02102   2.02451   2.02693
 Alpha virt. eigenvalues --    2.03268   2.03542   2.03914   2.04020   2.04623
 Alpha virt. eigenvalues --    2.04640   2.04950   2.05083   2.05357   2.05910
 Alpha virt. eigenvalues --    2.05979   2.06484   2.06885   2.06946   2.07072
 Alpha virt. eigenvalues --    2.07581   2.08217   2.08472   2.08957   2.09201
 Alpha virt. eigenvalues --    2.09256   2.09768   2.10443   2.10530   2.10922
 Alpha virt. eigenvalues --    2.11407   2.11825   2.11974   2.12247   2.12380
 Alpha virt. eigenvalues --    2.12682   2.12729   2.13017   2.13474   2.13716
 Alpha virt. eigenvalues --    2.13995   2.14108   2.14306   2.14727   2.15074
 Alpha virt. eigenvalues --    2.15152   2.15467   2.15695   2.15999   2.16293
 Alpha virt. eigenvalues --    2.16930   2.17046   2.17185   2.17548   2.17730
 Alpha virt. eigenvalues --    2.18220   2.19213   2.19538   2.19773   2.20373
 Alpha virt. eigenvalues --    2.20624   2.21125   2.21396   2.22336   2.22821
 Alpha virt. eigenvalues --    2.23245   2.23504   2.23691   2.24006   2.24157
 Alpha virt. eigenvalues --    2.24700   2.25176   2.25252   2.25612   2.25803
 Alpha virt. eigenvalues --    2.26001   2.26337   2.26701   2.27190   2.27516
 Alpha virt. eigenvalues --    2.27893   2.28032   2.28584   2.28933   2.29091
 Alpha virt. eigenvalues --    2.30024   2.30056   2.30479   2.30804   2.31129
 Alpha virt. eigenvalues --    2.31217   2.31436   2.31613   2.31955   2.32085
 Alpha virt. eigenvalues --    2.32248   2.32429   2.32819   2.33319   2.33591
 Alpha virt. eigenvalues --    2.33672   2.33992   2.34256   2.34394   2.34730
 Alpha virt. eigenvalues --    2.35073   2.35134   2.35640   2.35787   2.36693
 Alpha virt. eigenvalues --    2.36964   2.37376   2.38126   2.38151   2.38303
 Alpha virt. eigenvalues --    2.38473   2.38964   2.39084   2.39337   2.39446
 Alpha virt. eigenvalues --    2.39984   2.40118   2.40609   2.40952   2.41132
 Alpha virt. eigenvalues --    2.41407   2.41937   2.42085   2.42665   2.42744
 Alpha virt. eigenvalues --    2.43200   2.43663   2.43812   2.44405   2.44642
 Alpha virt. eigenvalues --    2.44728   2.44843   2.45102   2.45370   2.45756
 Alpha virt. eigenvalues --    2.46286   2.46394   2.46919   2.47315   2.47686
 Alpha virt. eigenvalues --    2.47864   2.47983   2.48247   2.48677   2.48823
 Alpha virt. eigenvalues --    2.49022   2.49167   2.49286   2.49512   2.49652
 Alpha virt. eigenvalues --    2.50001   2.50564   2.50942   2.51127   2.51403
 Alpha virt. eigenvalues --    2.51596   2.51870   2.51996   2.52325   2.52957
 Alpha virt. eigenvalues --    2.53718   2.54266   2.54556   2.54944   2.55131
 Alpha virt. eigenvalues --    2.55337   2.55412   2.55814   2.56479   2.56805
 Alpha virt. eigenvalues --    2.57209   2.57934   2.58135   2.58811   2.58941
 Alpha virt. eigenvalues --    2.59665   2.60136   2.61035   2.61289   2.61752
 Alpha virt. eigenvalues --    2.62018   2.62163   2.62444   2.62842   2.63330
 Alpha virt. eigenvalues --    2.63485   2.63923   2.64666   2.65075   2.65837
 Alpha virt. eigenvalues --    2.66272   2.66806   2.66931   2.67508   2.68025
 Alpha virt. eigenvalues --    2.68273   2.68414   2.68735   2.69486   2.69897
 Alpha virt. eigenvalues --    2.69941   2.70226   2.70568   2.70864   2.71412
 Alpha virt. eigenvalues --    2.71556   2.71829   2.71956   2.72337   2.72356
 Alpha virt. eigenvalues --    2.73252   2.73459   2.73798   2.73940   2.74106
 Alpha virt. eigenvalues --    2.74278   2.74642   2.75201   2.75645   2.75699
 Alpha virt. eigenvalues --    2.76038   2.76468   2.76763   2.77539   2.77633
 Alpha virt. eigenvalues --    2.78029   2.78351   2.78587   2.78781   2.79224
 Alpha virt. eigenvalues --    2.79415   2.79540   2.79692   2.79961   2.80103
 Alpha virt. eigenvalues --    2.80270   2.80556   2.81469   2.81666   2.81934
 Alpha virt. eigenvalues --    2.82614   2.82703   2.82792   2.83256   2.83573
 Alpha virt. eigenvalues --    2.83894   2.83970   2.84631   2.84835   2.85301
 Alpha virt. eigenvalues --    2.85559   2.85867   2.86802   2.87085   2.87610
 Alpha virt. eigenvalues --    2.87932   2.88242   2.88717   2.89048   2.89360
 Alpha virt. eigenvalues --    2.90035   2.90387   2.90872   2.91269   2.91681
 Alpha virt. eigenvalues --    2.92164   2.92384   2.92692   2.92958   2.92981
 Alpha virt. eigenvalues --    2.93456   2.93748   2.93815   2.93994   2.94394
 Alpha virt. eigenvalues --    2.94834   2.94984   2.95221   2.95387   2.95607
 Alpha virt. eigenvalues --    2.96226   2.96704   2.97136   2.97302   2.97530
 Alpha virt. eigenvalues --    2.97999   2.98081   2.99082   2.99585   2.99969
 Alpha virt. eigenvalues --    3.00465   3.00536   3.01540   3.02185   3.02433
 Alpha virt. eigenvalues --    3.03055   3.03365   3.03563   3.03837   3.04196
 Alpha virt. eigenvalues --    3.04707   3.04976   3.05757   3.07139   3.07227
 Alpha virt. eigenvalues --    3.07726   3.07768   3.08359   3.08923   3.09039
 Alpha virt. eigenvalues --    3.10511   3.11279   3.11493   3.11583   3.12100
 Alpha virt. eigenvalues --    3.12260   3.14203   3.14287   3.14850   3.16266
 Alpha virt. eigenvalues --    3.16618   3.16956   3.17891   3.18472   3.18875
 Alpha virt. eigenvalues --    3.19490   3.20066   3.20094   3.21403   3.21573
 Alpha virt. eigenvalues --    3.21805   3.22158   3.23181   3.24317   3.24786
 Alpha virt. eigenvalues --    3.26944   3.27301   3.27755   3.28954   3.29806
 Alpha virt. eigenvalues --    3.30730   3.31151   3.31813   3.32186   3.32873
 Alpha virt. eigenvalues --    3.33299   3.34035   3.34215   3.34681   3.35327
 Alpha virt. eigenvalues --    3.35712   3.35808   3.35867   3.37856   3.40530
 Alpha virt. eigenvalues --    3.42117   3.42236   3.42899   3.43119   3.44197
 Alpha virt. eigenvalues --    3.44811   3.44974   3.45489   3.46558   3.46774
 Alpha virt. eigenvalues --    3.47734   3.47759   3.49368   3.50460   3.50759
 Alpha virt. eigenvalues --    3.50801   3.51913   3.52295   3.52446   3.53957
 Alpha virt. eigenvalues --    3.54050   3.55114   3.56476   3.58224   3.58437
 Alpha virt. eigenvalues --    3.58585   3.58890   3.59822   3.60658   3.61181
 Alpha virt. eigenvalues --    3.61875   3.62440   3.62838   3.63013   3.63305
 Alpha virt. eigenvalues --    3.67543   3.67879   3.68570   3.69594   3.69641
 Alpha virt. eigenvalues --    3.71694   3.73267   3.73720   3.75311   3.78850
 Alpha virt. eigenvalues --    3.79840   3.84014   3.89147   4.08758   4.11865
 Alpha virt. eigenvalues --    4.14228   4.19440   4.20607   4.22156   4.22941
 Alpha virt. eigenvalues --    4.24795   4.25579   4.27036   4.27478   4.30627
 Alpha virt. eigenvalues --    4.30754   4.31490   4.31512   4.34066   4.35440
 Alpha virt. eigenvalues --    4.36022   4.37649   4.39241   4.39471   4.42966
 Alpha virt. eigenvalues --    4.43203   4.44001   4.44195   4.45994   4.46442
 Alpha virt. eigenvalues --    4.47588   4.47907   4.49268   4.51093   4.51951
 Alpha virt. eigenvalues --    4.52001   4.54580   4.55979   4.56103   4.57090
 Alpha virt. eigenvalues --    4.58146   4.58240   4.59357   4.60056   4.61892
 Alpha virt. eigenvalues --    4.62766   4.63246   4.63897   4.64155   4.67819
 Alpha virt. eigenvalues --    4.69856   4.70358   4.72940   4.73111   4.74113
 Alpha virt. eigenvalues --    4.74665   4.78134   4.79586   4.80098   4.82104
 Alpha virt. eigenvalues --    4.84885   4.85343   4.85789   4.88636   4.90208
 Alpha virt. eigenvalues --    4.90870   4.95807   5.03757
          Condensed to atoms (all electrons):
 Mulliken charges:
               1
     1  Mg   0.848817
     2  C    0.114546
     3  C   -0.216479
     4  C   -0.159225
     5  C   -0.158861
     6  N   -0.691552
     7  C    0.301387
     8  C   -0.162600
     9  C   -0.117200
    10  C    0.379746
    11  C   -0.314725
    12  C   -0.158198
    13  C   -0.284543
    14  C    0.621047
    15  O   -0.469954
    16  O   -0.485841
    17  N   -0.721474
    18  C    0.305913
    19  C    0.065969
    20  C    0.009477
    21  C    0.265156
    22  C   -0.389631
    23  C   -0.073504
    24  C   -0.249148
    25  N   -0.660293
    26  C    0.286068
    27  C    0.017039
    28  C   -0.026790
    29  C    0.256030
    30  C   -0.354153
    31  C   -0.232973
    32  C   -0.318124
    33  N   -0.702200
    34  C    0.305967
    35  C    0.052118
    36  C   -0.002735
    37  C    0.288903
    38  C   -0.401959
    39  C    0.369252
    40  O   -0.452740
    41  C   -0.350236
    42  C    0.588057
    43  O   -0.530374
    44  O   -0.433369
    45  C   -0.068543
    46  C    0.006913
    47  C   -0.121679
    48  C    0.120588
    49  C   -0.358756
    50  C   -0.218833
    51  C   -0.195986
    52  C   -0.172490
    53  C   -0.074764
    54  C   -0.299322
    55  C   -0.079776
    56  C   -0.183920
    57  C   -0.168911
    58  C   -0.051388
    59  C   -0.305865
    60  C   -0.160496
    61  C   -0.146331
    62  C   -0.185456
    63  C   -0.052223
    64  C   -0.295647
    65  C   -0.304301
    66  H    0.077513
    67  H    0.084452
    68  H    0.095508
    69  H    0.128928
    70  H    0.101188
    71  H    0.084669
    72  H    0.103278
    73  H    0.116977
    74  H    0.131733
    75  H    0.127558
    76  H    0.093659
    77  H    0.157028
    78  H    0.111054
    79  H    0.131449
    80  H    0.122202
    81  H    0.101683
    82  H    0.103527
    83  H    0.117002
    84  H    0.128549
    85  H    0.120514
    86  H    0.113549
    87  H    0.113480
    88  H    0.094168
    89  H    0.113531
    90  H    0.102959
    91  H    0.094292
    92  H    0.125937
    93  H    0.154561
    94  H    0.104037
    95  H    0.165750
    96  H    0.146961
    97  H    0.112719
    98  H    0.140138
    99  H    0.146826
   100  H    0.097585
   101  H    0.091610
   102  H    0.100060
   103  H    0.107037
   104  H    0.131671
   105  H    0.098912
   106  H    0.069511
   107  H    0.097809
   108  H    0.088790
   109  H    0.077749
   110  H    0.115653
   111  H    0.092069
   112  H    0.087825
   113  H    0.085394
   114  H    0.095995
   115  H    0.070637
   116  H    0.032330
   117  H    0.109340
   118  H    0.062887
   119  H    0.090990
   120  H    0.075205
   121  H    0.087480
   122  H    0.094597
   123  H    0.116540
   124  H    0.100885
   125  H    0.102092
   126  H    0.069405
   127  H    0.026996
   128  H    0.047240
   129  H    0.094182
   130  H    0.109473
   131  H    0.097812
   132  H    0.112486
   133  H    0.080901
   134  H    0.087038
   135  H    0.076832
   136  H    0.099333
   137  H    0.110855
 Sum of Mulliken charges =   0.00000
 Mulliken charges with hydrogens summed into heavy atoms:
               1
     1  Mg   0.848817
     2  C    0.114546
     3  C   -0.138966
     4  C   -0.074774
     5  C   -0.063353
     6  N   -0.691552
     7  C    0.301387
     8  C   -0.033672
     9  C   -0.016013
    10  C    0.379746
    11  C   -0.009802
    12  C    0.101093
    13  C   -0.033857
    14  C    0.621047
    15  O   -0.469954
    16  O   -0.485841
    17  N   -0.721474
    18  C    0.305913
    19  C    0.065969
    20  C    0.009477
    21  C    0.265156
    22  C   -0.024926
    23  C    0.028178
    24  C   -0.028619
    25  N   -0.660293
    26  C    0.286068
    27  C    0.017039
    28  C   -0.026790
    29  C    0.256030
    30  C    0.008458
    31  C   -0.025325
    32  C   -0.007342
    33  N   -0.702200
    34  C    0.305967
    35  C    0.052118
    36  C   -0.002735
    37  C    0.288903
    38  C   -0.017425
    39  C    0.369252
    40  O   -0.452740
    41  C   -0.184486
    42  C    0.588057
    43  O   -0.530374
    44  O   -0.433369
    45  C    0.331274
    46  C    0.251323
    47  C   -0.030069
    48  C    0.120588
    49  C   -0.019989
    50  C   -0.050409
    51  C   -0.009387
    52  C    0.020912
    53  C    0.017305
    54  C   -0.030108
    55  C    0.023190
    56  C   -0.011694
    57  C   -0.002716
    58  C    0.036092
    59  C    0.006156
    60  C    0.011001
    61  C   -0.072095
    62  C    0.018198
    63  C    0.045589
    64  C   -0.015222
    65  C   -0.017281
 Electronic spatial extent (au):  <R**2>=         179458.0430
 Charge=              0.0000 electrons
 Dipole moment (field-independent basis, Debye):
    X=              0.1309    Y=              5.0737    Z=             -0.3172  Tot=              5.0853
 Quadrupole moment (field-independent basis, Debye-Ang):
   XX=           -355.3942   YY=           -382.8697   ZZ=           -399.3495
   XY=            -26.9316   XZ=             13.8989   YZ=              2.1324
 Traceless Quadrupole moment (field-independent basis, Debye-Ang):
   XX=             23.8102   YY=             -3.6652   ZZ=            -20.1450
   XY=            -26.9316   XZ=             13.8989   YZ=              2.1324
 Octapole moment (field-independent basis, Debye-Ang**2):
  XXX=           -941.6283  YYY=            152.5007  ZZZ=             -5.2904  XYY=           -129.7302
  XXY=            145.0020  XXZ=           -238.4345  XZZ=              0.1961  YZZ=            -14.9077
  YYZ=             51.7261  XYZ=            -28.5367
 Hexadecapole moment (field-independent basis, Debye-Ang**3):
 XXXX=        -226997.2590 YYYY=         -17001.7595 ZZZZ=          -4686.0763 XXXY=           -497.6751
 XXXZ=           1264.2799 YYYX=          -1303.8265 YYYZ=            -42.8802 ZZZX=            107.9351
 ZZZY=            -69.2485 XXYY=         -39461.9528 XXZZ=         -38877.9622 YYZZ=          -3503.8503
 XXYZ=            341.3110 YYXZ=             -4.5241 ZZXY=            -37.1523
 N-N= 8.745906578573D+03 E-N=-2.431492711670D+04  KE= 2.906475114480D+03
 1\1\GINC-PEDRO-RYZENSSD\SP\RCAM-B3LYP TD-FC\6-31G(d,p)\C55H72Mg1N4O5\P
 ADAWAN\07-Jul-2019\0\\# td=(NStates=1) CAM-B3LYP/6-31G(d,p)\\TD\\0,1\M
 g,0,-6.9775283258,0.6485636045,0.0692646139\C,0,-4.8345380718,-1.95710
 68891,0.564813014\C,0,-4.8744773766,2.8026087082,1.3041467796\C,0,-9.3
 438691224,3.1137068662,-0.5781806778\C,0,-9.3771980335,-1.747240235,-0
 .9374301721\N,0,-5.0136547901,0.4390237205,0.6717575941\C,0,-4.3388935
 955,-0.7532751495,0.902238247\C,0,-2.9460936148,-0.439453371,1.3853688
 911\C,0,-3.0336968081,1.0952221905,1.7524159723\C,0,-4.4304100359,1.51
 1071856,1.2265296829\C,0,-3.1325083329,1.2830005882,3.2533167406\C,0,-
 1.9330367647,-0.5204673081,0.1717211304\C,0,-0.4217695996,-0.588213168
 5,0.6503591652\C,0,0.5003611733,-0.7021437273,-0.5139067712\O,0,0.1991
 111512,-1.088434251,-1.6139977315\O,0,1.8011219227,-0.3973771341,-0.20
 67274616\N,0,-7.0809085388,2.5075763474,0.4152002155\C,0,-6.1172910081
 ,3.3475357294,0.8157851121\C,0,-6.4520224553,4.7665509445,0.9494156288
 \C,0,-7.6947021772,4.8222128528,0.384666858\C,0,-8.1624205137,3.433572
 5526,0.1077033166\C,0,-5.5294609028,5.9392063865,1.2924240029\C,0,-8.5
 254103386,5.9948205158,0.1303300184\C,0,-8.5222561169,7.1612322418,0.8
 133075806\N,0,-9.0825605287,0.6850913702,-0.6456786016\C,0,-9.81514777
 45,1.7607360267,-0.8359699211\C,0,-11.1355926559,1.4610544445,-1.25095
 68152\C,0,-11.188241228,0.1052158857,-1.3496036744\C,0,-9.77639332,-0.
 4230042747,-0.9741424303\C,0,-12.2230311268,2.5870592769,-1.5690136762
 \C,0,-12.3547900253,-0.7768750976,-1.8253933478\C,0,-12.3766651549,-0.
 9637387851,-3.4419793165\N,0,-7.2075002183,-1.4254521588,-0.2099056676
 \C,0,-8.2273029701,-2.2065458267,-0.5522301782\C,0,-7.8453506807,-3.59
 43777053,-0.5173190092\C,0,-6.5119350776,-3.5877731143,-0.1421559475\C
 ,0,-6.229155512,-2.186196901,0.0705398582\C,0,-8.588376305,-4.80819366
 18,-0.872705749\C,0,-5.3456790382,-4.3993438179,0.2251753901\O,0,-5.17
 30261405,-5.6031347969,0.1852655573\C,0,-4.1760911885,-3.2522210119,0.
 5920390692\C,0,-3.5729779287,-3.6363388552,2.008751248\O,0,-3.74126572
 72,-3.1433410703,3.165669248\O,0,-2.7538365774,-4.6430290253,1.8651450
 954\C,0,-2.1602266106,-5.1877130004,3.0891838539\C,0,2.7585883705,-0.6
 180796026,-1.2399051909\C,0,4.0986019492,-0.3982880051,-0.6384439934\C
 ,0,5.128776362,0.3265589213,-1.0466944421\C,0,5.2596743904,1.130765725
 9,-2.2781719825\C,0,6.4118855214,0.2232941796,-0.2383703222\C,0,7.5902
 965676,-0.3781581627,-0.9888858391\C,0,8.9028021528,-0.2775828887,-0.1
 804098538\C,0,10.2077814026,-0.5334104127,-1.0066616367\C,0,10.1747841
 786,-2.0017511112,-1.3847319382\C,0,11.3208649634,-0.3199057714,-0.071
 066238\C,0,12.7996148692,-0.3807421253,-0.6816181847\C,0,13.9091503834
 ,0.0283216294,0.2022372912\C,0,15.2965557805,-0.2768214112,-0.40584882
 47\C,0,15.5782694958,-1.6539030241,-0.6943490526\C,0,16.3136754734,0.3
 275271127,0.4422187291\C,0,17.7217067601,0.5752189203,-0.1100268173\C,
 0,18.7578761571,1.3620544224,0.6892793609\C,0,20.2251611853,1.48356869
 04,0.0631010733\C,0,20.3393152853,2.2397722744,-1.116382631\C,0,21.254
 1563464,2.0085337897,1.0835737208\H,0,-3.9676282473,3.4214376652,1.728
 1173986\H,0,-9.8526556583,3.9600168367,-0.9252279143\H,0,-10.174040693
 5,-2.3844877896,-1.2268893411\H,0,-2.6310395609,-0.9971780317,2.228203
 5116\H,0,-2.2378473899,1.5547190545,1.4912397744\H,0,-2.1618606436,0.7
 957500279,3.7367473882\H,0,-3.3093259926,2.3542394814,3.5487370391\H,0
 ,-4.0574291856,0.8115858426,3.797392152\H,0,-2.0116536503,-1.551745134
 9,-0.1280767169\H,0,-2.13607528,0.0251697674,-0.5985498946\H,0,0.03191
 96746,0.3947540893,1.3236327624\H,0,-0.0570835104,-1.2733118464,1.3838
 323384\H,0,-5.9614549209,7.0173903831,1.0100467139\H,0,-5.6465416436,6
 .1097543385,2.3627425714\H,0,-4.3491388699,5.9864298094,1.1336865443\H
 ,0,-9.1745995125,5.8343095791,-0.777948023\H,0,-9.2040616221,7.9386746
 064,0.2991895408\H,0,-7.9775172175,7.4082472242,1.8386822537\H,0,-11.8
 739214972,3.2031406401,-2.3405670614\H,0,-13.1570453737,2.143318223,-1
 .6918503765\H,0,-12.4219939305,3.1837570304,-0.6430955536\H,0,-12.3828
 630647,-1.6462940745,-1.2872736823\H,0,-13.3977484937,-0.3336200988,-1
 .5715926868\H,0,-13.0895353061,-1.6005947457,-3.8566155461\H,0,-12.639
 537518,-0.0110356412,-3.991162612\H,0,-11.3381100903,-1.2332481919,-3.
 9460532253\H,0,-8.9241620192,-4.7457553184,-1.9334866128\H,0,-8.147074
 0722,-5.8051905233,-0.8222718402\H,0,-9.6701068956,-4.9434293642,-0.38
 23600586\H,0,-3.3882495209,-3.6663998907,0.0519799265\H,0,-1.709909157
 4,-4.3443508748,3.6462475401\H,0,-3.1191115198,-5.7680484224,3.6933621
 751\H,0,-1.6224403555,-5.9235116244,2.6063445874\H,0,2.6424835525,-1.4
 94271263,-1.8302169867\H,0,2.3995574333,0.2085051301,-2.0718603382\H,0
 ,4.3713980454,-0.9710493201,0.2400072167\H,0,4.16056502,1.1001687273,-
 2.5176101307\H,0,5.3567510868,2.2863188908,-2.219398408\H,0,5.97800510
 81,0.7454456521,-2.9466233933\H,0,6.7585279157,1.1995239524,0.13690633
 34\H,0,6.0465787773,-0.3015681942,0.7526749842\H,0,7.4858559703,-1.383
 037539,-1.4142227459\H,0,7.6381362495,0.1448276909,-1.9502179454\H,0,8
 .8972517768,0.8140692919,0.1960072329\H,0,8.7248909778,-0.9464301492,0
 .5697948432\H,0,10.3603135828,-0.097287191,-1.9108459741\H,0,9.2618011
 656,-2.2168296595,-2.0259985247\H,0,11.1690794636,-2.3101678007,-1.908
 1550594\H,0,10.0911620022,-2.6626482068,-0.4890883485\H,0,11.230720753
 ,0.3987221024,0.3898004675\H,0,10.9435574091,-1.111547116,0.838124434\
 H,0,13.0152948484,-1.2829264538,-1.062703938\H,0,12.6568494374,0.26456
 71477,-1.6758309444\H,0,13.5268741241,1.0665092069,0.6112784708\H,0,13
 .8842511782,-0.7695065554,1.0988664031\H,0,15.3703203205,0.4257520602,
 -1.3018645445\H,0,15.5170191448,-2.1731676089,0.3515937055\H,0,15.1185
 949102,-2.1820505807,-1.4683042455\H,0,16.6154011695,-2.0353590608,-1.
 0991313826\H,0,16.0942846292,1.2715349872,0.9100675511\H,0,16.56562100
 93,-0.1878979649,1.4679695582\H,0,18.3358545242,-0.5215987073,-0.57698
 10385\H,0,17.5521722817,0.8671140303,-1.3396875446\H,0,18.3828990825,2
 .3208262403,0.9725052558\H,0,18.8755247128,0.8366778488,1.5372837287\H
 ,0,20.5045653692,0.4553716854,-0.0535982958\H,0,20.0290570123,3.206654
 2273,-1.122585852\H,0,21.3770219543,2.254632116,-1.6808694502\H,0,19.5
 722711315,1.8603478456,-1.8678237514\H,0,21.1085368289,1.310129122,2.0
 027498922\H,0,22.2869203983,2.0795891886,0.5322081871\H,0,20.857815511
 5,2.8470947928,1.5529057311\\Version=ES64L-G09RevD.01\State=1-A\HF=-29
 32.5564656\RMSD=9.972e-09\PG=C01 [X(C55H72Mg1N4O5)]\\@


 I DON'T PRETEND TO UNDERSTAND THE UNIVERSE --
 IT'S A GREAT DEAL BIGGER THAN I AM.
       -- ATTR. TO WILLIAM ALLINGHAM (1828-89)
 Job cpu time:       0 days  4 hours  5 minutes  1.7 seconds.
 File lengths (MBytes):  RWF=   2106 Int=      0 D2E=      0 Chk=    163 Scr=      1
 Normal termination of Gaussian 09 at Sun Jul  7 05:00:32 2019.
