 Entering Gaussian System, Link 0=g16
 Input=Geometria-191-.com
 Output=Geometria-191-.log
 Initial command:
 /usr/local/g09/l1.exe "/home/padawan/israel-mol/chlorophyll-a/spectra/emi/Gau-117699.inp" -scrdir="/home/padawan/israel-mol/chlorophyll-a/spectra/emi/"
 Entering Link 1 = /usr/local/g09/l1.exe PID=    117701.
  
 Copyright (c) 1988,1990,1992,1993,1995,1998,2003,2009,2013,
            Gaussian, Inc.  All Rights Reserved.
  
 This is part of the Gaussian(R) 09 program.  It is based on
 the Gaussian(R) 03 system (copyright 2003, Gaussian, Inc.),
 the Gaussian(R) 98 system (copyright 1998, Gaussian, Inc.),
 the Gaussian(R) 94 system (copyright 1995, Gaussian, Inc.),
 the Gaussian 92(TM) system (copyright 1992, Gaussian, Inc.),
 the Gaussian 90(TM) system (copyright 1990, Gaussian, Inc.),
 the Gaussian 88(TM) system (copyright 1988, Gaussian, Inc.),
 the Gaussian 86(TM) system (copyright 1986, Carnegie Mellon
 University), and the Gaussian 82(TM) system (copyright 1983,
 Carnegie Mellon University). Gaussian is a federally registered
 trademark of Gaussian, Inc.
  
 This software contains proprietary and confidential information,
 including trade secrets, belonging to Gaussian, Inc.
  
 This software is provided under written license and may be
 used, copied, transmitted, or stored only in accord with that
 written license.
  
 The following legend is applicable only to US Government
 contracts under FAR:
  
                    RESTRICTED RIGHTS LEGEND
  
 Use, reproduction and disclosure by the US Government is
 subject to restrictions as set forth in subparagraphs (a)
 and (c) of the Commercial Computer Software - Restricted
 Rights clause in FAR 52.227-19.
  
 Gaussian, Inc.
 340 Quinnipiac St., Bldg. 40, Wallingford CT 06492
  
  
 ---------------------------------------------------------------
 Warning -- This program may not be used in any manner that
 competes with the business of Gaussian, Inc. or will provide
 assistance to any competitor of Gaussian, Inc.  The licensee
 of this program is prohibited from giving any competitor of
 Gaussian, Inc. access to this program.  By using this program,
 the user acknowledges that Gaussian, Inc. is engaged in the
 business of creating and licensing software in the field of
 computational chemistry and represents and warrants to the
 licensee that it is not a competitor of Gaussian, Inc. and that
 it will not use this program in any manner prohibited above.
 ---------------------------------------------------------------
  

 Cite this work as:
 Gaussian 09, Revision D.01,
 M. J. Frisch, G. W. Trucks, H. B. Schlegel, G. E. Scuseria, 
 M. A. Robb, J. R. Cheeseman, G. Scalmani, V. Barone, B. Mennucci, 
 G. A. Petersson, H. Nakatsuji, M. Caricato, X. Li, H. P. Hratchian, 
 A. F. Izmaylov, J. Bloino, G. Zheng, J. L. Sonnenberg, M. Hada, 
 M. Ehara, K. Toyota, R. Fukuda, J. Hasegawa, M. Ishida, T. Nakajima, 
 Y. Honda, O. Kitao, H. Nakai, T. Vreven, J. A. Montgomery, Jr., 
 J. E. Peralta, F. Ogliaro, M. Bearpark, J. J. Heyd, E. Brothers, 
 K. N. Kudin, V. N. Staroverov, T. Keith, R. Kobayashi, J. Normand, 
 K. Raghavachari, A. Rendell, J. C. Burant, S. S. Iyengar, J. Tomasi, 
 M. Cossi, N. Rega, J. M. Millam, M. Klene, J. E. Knox, J. B. Cross, 
 V. Bakken, C. Adamo, J. Jaramillo, R. Gomperts, R. E. Stratmann, 
 O. Yazyev, A. J. Austin, R. Cammi, C. Pomelli, J. W. Ochterski, 
 R. L. Martin, K. Morokuma, V. G. Zakrzewski, G. A. Voth, 
 P. Salvador, J. J. Dannenberg, S. Dapprich, A. D. Daniels, 
 O. Farkas, J. B. Foresman, J. V. Ortiz, J. Cioslowski, 
 and D. J. Fox, Gaussian, Inc., Wallingford CT, 2013.
 
 ******************************************
 Gaussian 09:  ES64L-G09RevD.01 24-Apr-2013
                 4-Jul-2019 
 ******************************************
 %nproc=4
 Will use up to    4 processors via shared memory.
 %Mem=2GB
 -------------------------------------
 # td=(NStates=1) CAM-B3LYP/6-31G(d,p)
 -------------------------------------
 1/38=1/1;
 2/12=2,17=6,18=5,40=1/2;
 3/5=1,6=6,7=101,11=9,16=1,25=1,30=1,74=-40/1,2,8,3;
 4//1;
 5/5=2,38=5/2;
 8/6=1,10=2,108=1/1;
 9/41=1,42=1,70=2/14;
 6/7=2,8=2,9=2,10=2/1;
 99/5=1,9=1/99;
 --
 TD
 --
 Symbolic Z-matrix:
 Charge =  0 Multiplicity = 1
 12                   -7.16952   0.63332   0.09334 
 6                    -4.81146  -1.93427   0.39351 
 6                    -4.73016   2.75484   1.09148 
 6                    -9.44704   3.10103  -0.28332 
 6                    -9.50093  -1.72109  -0.85701 
 7                    -5.09432   0.46082   0.61387 
 6                    -4.32234  -0.6702    0.74913 
 6                    -2.89712  -0.40586   1.10752 
 6                    -2.99973   1.07007   1.62214 
 6                    -4.37289   1.51416   1.08842 
 6                    -2.97528   1.32787   3.126 
 6                    -1.94529  -0.57834   0.01655 
 6                    -0.48419  -0.54495   0.54208 
 6                     0.49401  -0.89445  -0.43538 
 8                     0.19104  -1.51321  -1.6389 
 8                     1.75462  -0.48966  -0.2116 
 7                    -7.10655   2.61594   0.38185 
 6                    -5.94942   3.38035   0.66167 
 6                    -6.4165    4.8092    0.75554 
 6                    -7.78172   4.83648   0.45519 
 6                    -8.18625   3.4146    0.1852 
 6                    -5.43695   5.95878   1.09225 
 6                    -8.68647   5.98533   0.25444 
 6                    -8.44206   7.17705   0.7992 
 7                    -9.14767   0.69915  -0.55797 
 6                    -9.88147   1.82816  -0.68446 
 6                    -11.24762   1.46821  -1.13553 
 6                    -11.27737   0.13415  -1.25811 
 6                    -9.92807  -0.39061  -0.85976 
 6                    -12.31561   2.51737  -1.24898 
 6                    -12.40268  -0.67853  -1.76504 
 6                    -12.55047  -1.15774  -3.21713 
 7                    -7.17049  -1.41272  -0.19054 
 6                    -8.24057  -2.23304  -0.58866 
 6                    -7.8616   -3.5948   -0.53161 
 6                    -6.47773  -3.59776  -0.13309 
 6                    -6.17927  -2.19469   0.12682 
 6                    -8.73715  -4.81582  -0.79184 
 6                    -5.38991  -4.39852   0.23808 
 8                    -5.24441  -5.59972   0.23972 
 6                    -4.14693  -3.26436   0.54421 
 6                    -3.54094  -3.58177   1.86752 
 8                    -3.74333  -3.0858    2.9427 
 8                    -2.6951   -4.67734   1.7963 
 6                    -1.96377  -5.06381   2.96066 
 6                     2.78042  -0.67585  -1.25899 
 6                     4.13918  -0.45216  -0.57866 
 6                     5.08959   0.31927  -0.98403 
 6                     5.06244   1.17994  -2.25972 
 6                     6.45218   0.45227  -0.3631 
 6                     7.67612  -0.11404  -1.1167 
 6                     8.95803  -0.07023  -0.22719 
 6                     10.24536  -0.49614  -0.92675 
 6                     10.17369  -1.96818  -1.36419 
 6                     11.37936  -0.22854  -0.05578 
 6                     12.83163  -0.52655  -0.73416 
 6                     14.00848  -0.07067   0.20062 
 6                     15.43974  -0.2151   -0.31059 
 6                     15.69743  -1.66335  -0.82805 
 6                     16.47556   0.25561   0.65021 
 6                     17.83787   0.44588  -0.04351 
 6                     18.83506   1.24392   0.83738 
 6                     20.3008   1.47804   0.28851 
 6                     20.29077   2.13811  -1.13578 
 6                     21.19035   2.09078   1.25516 
 1                    -4.12393   3.55529   1.74748 
 1                    -10.00311   4.04557  -0.15809 
 1                    -10.22038  -2.3477   -1.35856 
 1                    -2.65498  -0.98038   2.01856 
 1                    -2.10261   1.53335   1.16137 
 1                    -2.07177   0.62917   3.47369 
 1                    -3.19416   2.2996    3.44359 
 1                    -3.86518   0.65564   3.52141 
 1                    -1.92667  -1.50141  -0.56794 
 1                    -1.80942   0.3041   -0.79188 
 1                     0.01424   0.40209   1.05579 
 1                    -0.41919  -1.21012   1.47102 
 1                    -5.34182   6.95298   0.34216 
 1                    -5.50063   6.15436   2.269 
 1                    -4.43553   5.5715    0.98101 
 1                    -9.47884   5.93214  -0.43084 
 1                    -9.11554   8.00198   0.66295 
 1                    -7.78735   7.51293   1.63175 
 1                    -12.07683   3.04973  -2.10693 
 1                    -13.2602   1.96144  -1.42927 
 1                    -12.33085   3.03517  -0.3747 
 1                    -12.53878  -1.62937  -1.1578 
 1                    -13.23897  -0.20406  -1.73146 
 1                    -13.53325  -1.65843  -3.39023 
 1                    -12.47557  -0.2781   -3.82454 
 1                    -11.6172  -1.65256  -3.65671 
 1                    -9.45016  -4.54253  -1.75279 
 1                    -8.09147  -5.8055   -0.79107 
 1                    -9.31349  -4.94015   0.10145 
 1                    -3.49598  -3.36921  -0.36648 
 1                    -1.41837  -4.22648   3.40789 
 1                    -2.64986  -5.22365   3.94103 
 1                    -1.20816  -5.95513   2.71754 
 1                     2.658    -1.66576  -1.53985 
 1                     2.62888  -0.11258  -2.28028 
 1                     4.24663  -0.91216   0.37957 
 1                     3.93369   1.24605  -2.71376 
 1                     5.34162   2.13626  -2.30944 
 1                     5.80496   0.84846  -2.96024 
 1                     6.6438    1.34825   0.15754 
 1                     6.26243  -0.14618   0.61743 
 1                     7.56698  -0.99899  -1.41469 
 1                     7.64434   0.5308   -2.06823 
 1                     9.20764   1.2071   -0.00601 
 1                     8.92554  -0.57231   0.67545 
 1                     10.27091   0.06865  -1.93082 
 1                     9.30861  -2.34913  -1.98959 
 1                     11.00768  -2.27676  -1.70871 
 1                     10.02557  -2.5827   -0.42023 
 1                     11.15402   0.95801   0.13111 
 1                     11.37505  -0.88868   0.92321 
 1                     13.00416  -1.58343  -0.99279 
 1                     12.91141   0.09071  -1.71207 
 1                     13.93686   0.9661    0.53319 
 1                     14.01915  -0.69531   1.15077 
 1                     15.30416   0.49766  -1.13734 
 1                     15.50412  -2.53234  -0.02573 
 1                     14.99259  -1.99891  -1.55999 
 1                     16.54829  -1.66166  -1.27122 
 1                     16.20053   1.23618   1.00066 
 1                     16.4989  -0.30165   1.5238 
 1                     18.41869  -0.50829  -0.11469 
 1                     17.78757   0.90914  -1.11866 
 1                     18.26389   2.21279   0.99582 
 1                     18.97787   0.51467   1.62948 
 1                     20.64445   0.56271   0.00296 
 1                     19.75051   3.08918  -1.03347 
 1                     21.23041   2.42075  -1.56385 
 1                     19.65052   1.5248   -1.83649 
 1                     21.0986   1.69443   2.2698 
 1                     22.16177   1.88972   1.00492 
 1                     20.71199   3.10816   1.53046 
 
 Stoichiometry    C55H72MgN4O5
 Framework group  C1[X(C55H72MgN4O5)]
 Deg. of freedom   405
 Full point group                 C1      NOp   1
 Largest Abelian subgroup         C1      NOp   1
 Largest concise Abelian subgroup C1      NOp   1
                         Standard orientation:                         
 ---------------------------------------------------------------------
 Center     Atomic      Atomic             Coordinates (Angstroms)
 Number     Number       Type             X           Y           Z
 ---------------------------------------------------------------------
      1         12           0       -7.170238    0.631086    0.092547
      2          6           0       -4.811317   -1.933176    0.413738
      3          6           0       -4.730630    2.761991    1.069863
      4          6           0       -9.448653    3.094797   -0.304303
      5          6           0       -9.501809   -1.732247   -0.834991
      6          7           0       -5.094599    0.463714    0.612988
      7          6           0       -4.322237   -0.665866    0.757716
      8          6           0       -2.896802   -0.398010    1.112631
      9          6           0       -2.999379    1.082420    1.614169
     10          6           0       -4.373061    1.521416    1.077574
     11          6           0       -2.973828    1.353602    3.115656
     12          6           0       -1.945773   -0.579974    0.022496
     13          6           0       -0.484273   -0.541555    0.546578
     14          6           0        0.493252   -0.899517   -0.428487
     15          8           0        0.189503   -1.529035   -1.626216
     16          8           0        1.753933   -0.492444   -0.209297
     17          7           0       -7.107533    2.616206    0.363343
     18          6           0       -5.950377    3.383354    0.635451
     19          6           0       -6.417728    4.812869    0.716953
     20          6           0       -7.783188    4.837158    0.417438
     21          6           0       -8.187581    3.412831    0.160431
     22          6           0       -5.438201    5.965637    1.042661
     23          6           0       -8.688369    5.983955    0.207167
     24          6           0       -8.443831    7.180541    0.741097
     25          7           0       -9.148906    0.690645   -0.557786
     26          6           0       -9.883087    1.818309   -0.693760
     27          6           0      -11.249497    1.454025   -1.140537
     28          6           0      -11.279012    0.118923   -1.251220
     29          6           0       -9.929275   -0.401949   -0.849256
     30          6           0      -12.317827    2.501886   -1.262503
     31          6           0      -12.404520   -0.698500   -1.750013
     32          6           0      -12.553314   -1.190659   -3.197663
     33          7           0       -7.170926   -1.417404   -0.173103
     34          6           0       -8.241121   -2.241488   -0.563073
     35          6           0       -7.861772   -3.602596   -0.494190
     36          6           0       -6.477593   -3.601684   -0.096727
     37          6           0       -6.179274   -2.196279    0.150438
     38          6           0       -8.737224   -4.826099   -0.742855
     39          6           0       -5.389293   -4.398849    0.280706
     40          8           0       -5.243498   -5.599953    0.292934
     41          6           0       -4.146348   -3.261711    0.575769
     42          6           0       -3.539264   -3.567183    1.901375
     43          8           0       -3.740935   -3.061698    2.972253
     44          8           0       -2.693208   -4.663141    1.839258
     45          6           0       -1.960879   -5.039052    3.006449
     46          6           0        2.778971   -0.687709   -1.255782
     47          6           0        4.138198   -0.457655   -0.578526
     48          6           0        5.088112    0.310362   -0.991486
     49          6           0        5.059767    1.159635   -2.274769
     50          6           0        6.451146    0.449208   -0.372826
     51          6           0        7.674637   -0.123498   -1.122299
     52          6           0        8.957226   -0.071465   -0.234214
     53          6           0       10.244116   -0.503276   -0.930951
     54          6           0       10.172477   -1.979171   -1.355207
     55          6           0       11.378730   -0.227662   -0.063279
     56          6           0       12.830545   -0.531356   -0.740104
     57          6           0       14.008008   -0.066892    0.189667
     58          6           0       15.438907   -0.215525   -0.321343
     59          6           0       15.696552   -1.668273   -0.826089
     60          6           0       16.475357    0.263963    0.634423
     61          6           0       17.837080    0.448367   -0.062019
     62          6           0       18.834761    1.254463    0.810960
     63          6           0       20.300014    1.484030    0.258890
     64          6           0       20.288723    2.131393   -1.171221
     65          6           0       21.190163    2.105568    1.219353
     66          1           0       -4.124090    3.568391    1.718243
     67          1           0      -10.004858    4.040282   -0.187057
     68          1           0      -10.221489   -2.363475   -1.330384
     69          1           0       -2.653820   -0.964333    2.028564
     70          1           0       -2.102730    1.541789    1.148591
     71          1           0       -2.069878    0.658248    3.468850
     72          1           0       -3.192702    2.328078    3.424743
     73          1           0       -3.863255    0.684713    3.517727
     74          1           0       -1.927377   -1.508205   -0.553762
     75          1           0       -1.810749    0.295265   -0.793859
     76          1           0        0.014316    0.410144    1.051445
     77          1           0       -0.418396   -1.198408    1.481356
     78          1           0       -5.343896    6.953147    0.283670
     79          1           0       -5.501014    6.171673    2.217671
     80          1           0       -4.436769    5.577620    0.934095
     81          1           0       -9.481260    5.924477   -0.477004
     82          1           0       -9.117623    8.004062    0.598030
     83          1           0       -7.788560    7.523971    1.570121
     84          1           0      -12.079843    3.026635   -2.125346
     85          1           0      -13.262416    1.944146   -1.437106
     86          1           0      -12.332522    3.027447   -0.392854
     87          1           0      -12.539912   -1.643935   -1.134229
     88          1           0      -13.240897   -0.223951   -1.720012
     89          1           0      -13.536102   -1.693107   -3.365538
     90          1           0      -12.479097   -0.316449   -3.812939
     91          1           0      -11.620258   -1.689154   -3.633551
     92          1           0       -9.451047   -4.561546   -1.705648
     93          1           0       -8.091299   -5.815576   -0.733775
     94          1           0       -9.312842   -4.942601    0.151949
     95          1           0       -3.496079   -3.374510   -0.334462
     96          1           0       -1.415341   -4.197642    3.445785
     97          1           0       -2.646179   -5.190323    3.988731
     98          1           0       -1.205241   -5.932327    2.770684
     99          1           0        2.656570   -1.680112   -1.527722
    100          1           0        2.626504   -0.133593   -2.281933
    101          1           0        4.246501   -0.909079    0.383678
    102          1           0        3.930648    1.221434   -2.728504
    103          1           0        5.338670    2.115544   -2.333217
    104          1           0        5.801819    0.822102   -2.972890
    105          1           0        6.642947    1.349836    0.139667
    106          1           0        6.262302   -0.140531    0.613145
    107          1           0        7.565492   -1.011089   -1.412316
    108          1           0        7.641965    0.512834   -2.079509
    109          1           0        9.206700    1.207844   -0.024609
    110          1           0        8.925560   -0.565496    0.672886
    111          1           0       10.268761    0.052553   -1.940024
    112          1           0        9.306998   -2.365885   -1.976524
    113          1           0       11.006275   -2.290615   -1.697607
    114          1           0       10.025228   -2.585298   -0.405699
    115          1           0       11.153247    0.960447    0.113222
    116          1           0       11.375338   -0.879067    0.921561
    117          1           0       13.003139   -1.590455   -0.989440
    118          1           0       12.909424    0.077188   -1.723534
    119          1           0       13.936387    0.972779    0.513052
    120          1           0       14.019570   -0.683045    1.145338
    121          1           0       15.302517    0.489807   -1.154300
    122          1           0       15.504072   -2.530130   -0.015915
    123          1           0       14.991229   -2.010503   -1.554466
    124          1           0       16.547072   -1.670325   -1.269912
    125          1           0       16.200352    1.247550    0.976338
    126          1           0       16.499511   -0.285490    1.512918
    127          1           0       18.418082   -0.506254   -0.125155
    128          1           0       17.785833    0.902026   -1.141208
    129          1           0       18.263471    2.224563    0.961203
    130          1           0       18.978363    0.532322    1.609410
    131          1           0       20.643667    0.566279   -0.018771
    132          1           0       19.748308    3.083208   -1.076957
    133          1           0       21.227959    2.410430   -1.602512
    134          1           0       19.648080    1.511718   -1.865941
    135          1           0       21.099290    1.718243    2.237549
    136          1           0       22.161436    1.902517    0.970155
    137          1           0       20.711768    3.125245    1.485957
 ---------------------------------------------------------------------
 Rotational constants (GHZ):      0.0648157      0.0060633      0.0057128
 Standard basis: 6-31G(d,p) (6D, 7F)
 There are  1339 symmetry adapted cartesian basis functions of A   symmetry.
 There are  1339 symmetry adapted basis functions of A   symmetry.
  1339 basis functions,  2348 primitive gaussians,  1339 cartesian basis functions
   241 alpha electrons      241 beta electrons
       nuclear repulsion energy      8733.1771576909 Hartrees.
 NAtoms=  137 NActive=  137 NUniq=  137 SFac= 1.00D+00 NAtFMM=   60 NAOKFM=T Big=T
 Integral buffers will be    131072 words long.
 Raffenetti 1 integral format.
 Two-electron integral symmetry is turned on.
 One-electron integrals computed using PRISM.
 NBasis=  1339 RedAO= T EigKep=  3.61D-04  NBF=  1339
 NBsUse=  1339 1.00D-06 EigRej= -1.00D+00 NBFU=  1339
 ExpMin= 4.21D-02 ExpMax= 1.17D+04 ExpMxC= 1.76D+03 IAcc=2 IRadAn=         4 AccDes= 0.00D+00
 Harris functional with IExCor=20419 and IRadAn=       4 diagonalized for initial guess.
 HarFok:  IExCor=20419 AccDes= 0.00D+00 IRadAn=         4 IDoV= 1 UseB2=F ITyADJ=14
 ICtDFT=  3500011 ScaDFX=  1.000000  1.000000  1.000000  1.000000
 FoFCou: FMM=F IPFlag=           0 FMFlag=      100000 FMFlg1=        2001
         NFxFlg=           0 DoJE=T BraDBF=F KetDBF=T FulRan=T
         wScrn=  0.000000 ICntrl=     500 IOpCl=  0 I1Cent=   200000004 NGrid=           0
         NMat0=    1 NMatS0=      1 NMatT0=    0 NMatD0=    1 NMtDS0=    0 NMtDT0=    0
 Petite list used in FoFCou.
 Requested convergence on RMS density matrix=1.00D-08 within 128 cycles.
 Requested convergence on MAX density matrix=1.00D-06.
 Requested convergence on             energy=1.00D-06.
 No special actions if energy rises.
 SCF Done:  E(RCAM-B3LYP) =  -2932.64952887     A.U. after   16 cycles
            NFock= 16  Conv=0.91D-08     -V/T= 2.0093
 DoSCS=F DFT=T ScalE2(SS,OS)=  1.000000  1.000000
 ExpMin= 4.21D-02 ExpMax= 1.17D+04 ExpMxC= 1.76D+03 IAcc=3 IRadAn=         5 AccDes= 0.00D+00
 HarFok:  IExCor=  205 AccDes= 0.00D+00 IRadAn=         5 IDoV=-2 UseB2=F ITyADJ=14
 ICtDFT= 12500011 ScaDFX=  1.000000  1.000000  1.000000  1.000000
 Range of M.O.s used for correlation:    70  1339
 NBasis=  1339 NAE=   241 NBE=   241 NFC=    69 NFV=     0
 NROrb=   1270 NOA=   172 NOB=   172 NVA=  1098 NVB=  1098
 Would need an additional       2415464100000 words for in-memory AO integral storage.
 Orbital symmetries:
       Occupied  (A) (A) (A) (A) (A) (A) (A) (A) (A) (A) (A) (A)
                 (A) (A) (A) (A) (A) (A) (A) (A) (A) (A) (A) (A)
                 (A) (A) (A) (A) (A) (A) (A) (A) (A) (A) (A) (A)
                 (A) (A) (A) (A) (A) (A) (A) (A) (A) (A) (A) (A)
                 (A) (A) (A) (A) (A) (A) (A) (A) (A) (A) (A) (A)
                 (A) (A) (A) (A) (A) (A) (A) (A) (A) (A) (A) (A)
                 (A) (A) (A) (A) (A) (A) (A) (A) (A) (A) (A) (A)
                 (A) (A) (A) (A) (A) (A) (A) (A) (A) (A) (A) (A)
                 (A) (A) (A) (A) (A) (A) (A) (A) (A) (A) (A) (A)
                 (A) (A) (A) (A) (A) (A) (A) (A) (A) (A) (A) (A)
                 (A) (A) (A) (A) (A) (A) (A) (A) (A) (A) (A) (A)
                 (A) (A) (A) (A) (A) (A) (A) (A) (A) (A) (A) (A)
                 (A) (A) (A) (A) (A) (A) (A) (A) (A) (A) (A) (A)
                 (A) (A) (A) (A) (A) (A) (A) (A) (A) (A) (A) (A)
                 (A) (A) (A) (A) (A) (A) (A) (A) (A) (A) (A) (A)
                 (A) (A) (A) (A) (A) (A) (A) (A) (A) (A) (A) (A)
                 (A) (A) (A) (A) (A) (A) (A) (A) (A) (A) (A) (A)
                 (A) (A) (A) (A) (A) (A) (A) (A) (A) (A) (A) (A)
                 (A) (A) (A) (A) (A) (A) (A) (A) (A) (A) (A) (A)
                 (A) (A) (A) (A) (A) (A) (A) (A) (A) (A) (A) (A)
                 (A)
       Virtual   (A) (A) (A) (A) (A) (A) (A) (A) (A) (A) (A) (A)
                 (A) (A) (A) (A) (A) (A) (A) (A) (A) (A) (A) (A)
                 (A) (A) (A) (A) (A) (A) (A) (A) (A) (A) (A) (A)
                 (A) (A) (A) (A) (A) (A) (A) (A) (A) (A) (A) (A)
                 (A) (A) (A) (A) (A) (A) (A) (A) (A) (A) (A) (A)
                 (A) (A) (A) (A) (A) (A) (A) (A) (A) (A) (A) (A)
                 (A) (A) (A) (A) (A) (A) (A) (A) (A) (A) (A) (A)
                 (A) (A) (A) (A) (A) (A) (A) (A) (A) (A) (A) (A)
                 (A) (A) (A) (A) (A) (A) (A) (A) (A) (A) (A) (A)
                 (A) (A) (A) (A) (A) (A) (A) (A) (A) (A) (A) (A)
                 (A) (A) (A) (A) (A) (A) (A) (A) (A) (A) (A) (A)
                 (A) (A) (A) (A) (A) (A) (A) (A) (A) (A) (A) (A)
                 (A) (A) (A) (A) (A) (A) (A) (A) (A) (A) (A) (A)
                 (A) (A) (A) (A) (A) (A) (A) (A) (A) (A) (A) (A)
                 (A) (A) (A) (A) (A) (A) (A) (A) (A) (A) (A) (A)
                 (A) (A) (A) (A) (A) (A) (A) (A) (A) (A) (A) (A)
                 (A) (A) (A) (A) (A) (A) (A) (A) (A) (A) (A) (A)
                 (A) (A) (A) (A) (A) (A) (A) (A) (A) (A) (A) (A)
                 (A) (A) (A) (A) (A) (A) (A) (A) (A) (A) (A) (A)
                 (A) (A) (A) (A) (A) (A) (A) (A) (A) (A) (A) (A)
                 (A) (A) (A) (A) (A) (A) (A) (A) (A) (A) (A) (A)
                 (A) (A) (A) (A) (A) (A) (A) (A) (A) (A) (A) (A)
                 (A) (A) (A) (A) (A) (A) (A) (A) (A) (A) (A) (A)
                 (A) (A) (A) (A) (A) (A) (A) (A) (A) (A) (A) (A)
                 (A) (A) (A) (A) (A) (A) (A) (A) (A) (A) (A) (A)
                 (A) (A) (A) (A) (A) (A) (A) (A) (A) (A) (A) (A)
                 (A) (A) (A) (A) (A) (A) (A) (A) (A) (A) (A) (A)
                 (A) (A) (A) (A) (A) (A) (A) (A) (A) (A) (A) (A)
                 (A) (A) (A) (A) (A) (A) (A) (A) (A) (A) (A) (A)
                 (A) (A) (A) (A) (A) (A) (A) (A) (A) (A) (A) (A)
                 (A) (A) (A) (A) (A) (A) (A) (A) (A) (A) (A) (A)
                 (A) (A) (A) (A) (A) (A) (A) (A) (A) (A) (A) (A)
                 (A) (A) (A) (A) (A) (A) (A) (A) (A) (A) (A) (A)
                 (A) (A) (A) (A) (A) (A) (A) (A) (A) (A) (A) (A)
                 (A) (A) (A) (A) (A) (A) (A) (A) (A) (A) (A) (A)
                 (A) (A) (A) (A) (A) (A) (A) (A) (A) (A) (A) (A)
                 (A) (A) (A) (A) (A) (A) (A) (A) (A) (A) (A) (A)
                 (A) (A) (A) (A) (A) (A) (A) (A) (A) (A) (A) (A)
                 (A) (A) (A) (A) (A) (A) (A) (A) (A) (A) (A) (A)
                 (A) (A) (A) (A) (A) (A) (A) (A) (A) (A) (A) (A)
                 (A) (A) (A) (A) (A) (A) (A) (A) (A) (A) (A) (A)
                 (A) (A) (A) (A) (A) (A) (A) (A) (A) (A) (A) (A)
                 (A) (A) (A) (A) (A) (A) (A) (A) (A) (A) (A) (A)
                 (A) (A) (A) (A) (A) (A) (A) (A) (A) (A) (A) (A)
                 (A) (A) (A) (A) (A) (A) (A) (A) (A) (A) (A) (A)
                 (A) (A) (A) (A) (A) (A) (A) (A) (A) (A) (A) (A)
                 (A) (A) (A) (A) (A) (A) (A) (A) (A) (A) (A) (A)
                 (A) (A) (A) (A) (A) (A) (A) (A) (A) (A) (A) (A)
                 (A) (A) (A) (A) (A) (A) (A) (A) (A) (A) (A) (A)
                 (A) (A) (A) (A) (A) (A) (A) (A) (A) (A) (A) (A)
                 (A) (A) (A) (A) (A) (A) (A) (A) (A) (A) (A) (A)
                 (A) (A) (A) (A) (A) (A) (A) (A) (A) (A) (A) (A)
                 (A) (A) (A) (A) (A) (A) (A) (A) (A) (A) (A) (A)
                 (A) (A) (A) (A) (A) (A) (A) (A) (A) (A) (A) (A)
                 (A) (A) (A) (A) (A) (A) (A) (A) (A) (A) (A) (A)
                 (A) (A) (A) (A) (A) (A) (A) (A) (A) (A) (A) (A)
                 (A) (A) (A) (A) (A) (A) (A) (A) (A) (A) (A) (A)
                 (A) (A) (A) (A) (A) (A) (A) (A) (A) (A) (A) (A)
                 (A) (A) (A) (A) (A) (A) (A) (A) (A) (A) (A) (A)
                 (A) (A) (A) (A) (A) (A) (A) (A) (A) (A) (A) (A)
                 (A) (A) (A) (A) (A) (A) (A) (A) (A) (A) (A) (A)
                 (A) (A) (A) (A) (A) (A) (A) (A) (A) (A) (A) (A)
                 (A) (A) (A) (A) (A) (A) (A) (A) (A) (A) (A) (A)
                 (A) (A) (A) (A) (A) (A) (A) (A) (A) (A) (A) (A)
                 (A) (A) (A) (A) (A) (A) (A) (A) (A) (A) (A) (A)
                 (A) (A) (A) (A) (A) (A) (A) (A) (A) (A) (A) (A)
                 (A) (A) (A) (A) (A) (A) (A) (A) (A) (A) (A) (A)
                 (A) (A) (A) (A) (A) (A) (A) (A) (A) (A) (A) (A)
                 (A) (A) (A) (A) (A) (A) (A) (A) (A) (A) (A) (A)
                 (A) (A) (A) (A) (A) (A) (A) (A) (A) (A) (A) (A)
                 (A) (A) (A) (A) (A) (A) (A) (A) (A) (A) (A) (A)
                 (A) (A) (A) (A) (A) (A) (A) (A) (A) (A) (A) (A)
                 (A) (A) (A) (A) (A) (A) (A) (A) (A) (A) (A) (A)
                 (A) (A) (A) (A) (A) (A) (A) (A) (A) (A) (A) (A)
                 (A) (A) (A) (A) (A) (A) (A) (A) (A) (A) (A) (A)
                 (A) (A) (A) (A) (A) (A) (A) (A) (A) (A) (A) (A)
                 (A) (A) (A) (A) (A) (A) (A) (A) (A) (A) (A) (A)
                 (A) (A) (A) (A) (A) (A) (A) (A) (A) (A) (A) (A)
                 (A) (A) (A) (A) (A) (A) (A) (A) (A) (A) (A) (A)
                 (A) (A) (A) (A) (A) (A) (A) (A) (A) (A) (A) (A)
                 (A) (A) (A) (A) (A) (A) (A) (A) (A) (A) (A) (A)
                 (A) (A) (A) (A) (A) (A) (A) (A) (A) (A) (A) (A)
                 (A) (A) (A) (A) (A) (A) (A) (A) (A) (A) (A) (A)
                 (A) (A) (A) (A) (A) (A) (A) (A) (A) (A) (A) (A)
                 (A) (A) (A) (A) (A) (A) (A) (A) (A) (A) (A) (A)
                 (A) (A) (A) (A) (A) (A) (A) (A) (A) (A) (A) (A)
                 (A) (A) (A) (A) (A) (A) (A) (A) (A) (A) (A) (A)
                 (A) (A) (A) (A) (A) (A) (A) (A) (A) (A) (A) (A)
                 (A) (A) (A) (A) (A) (A) (A) (A) (A) (A) (A) (A)
                 (A) (A) (A) (A) (A) (A) (A) (A) (A) (A) (A) (A)
                 (A) (A) (A) (A) (A) (A) (A) (A) (A) (A) (A) (A)
                 (A) (A) (A) (A) (A) (A)
     8 initial guesses have been made.
 Convergence on wavefunction:    0.001000000000000
 Iteration     1 Dimension     8 NMult     0 NNew      8
 CISAX will form     8 AO SS matrices at one time.
 Iteration     2 Dimension    12 NMult     8 NNew      4
 Iteration     3 Dimension    16 NMult    12 NNew      4
 Iteration     4 Dimension    20 NMult    16 NNew      4
 Iteration     5 Dimension    24 NMult    20 NNew      4
 Iteration     6 Dimension    28 NMult    24 NNew      4
 ***********************************************************************
 Excited states from <AA,BB:AA,BB> singles matrix:
 ***********************************************************************
 
 Ground to excited state transition densities written to RWF  633
 Ground to excited state transition electric dipole moments (Au):
       state          X           Y           Z        Dip. S.      Osc.
         1        -0.1733      2.4668      0.1847      6.1494      0.3039
 Ground to excited state transition velocity dipole moments (Au):
       state          X           Y           Z        Dip. S.      Osc.
         1         0.0126     -0.1778     -0.0140      0.0320      0.2874
 Ground to excited state transition magnetic dipole moments (Au):
       state          X           Y           Z
         1        -0.4919     -0.3692      3.9282
 Ground to excited state transition velocity quadrupole moments (Au):
       state          XX          YY          ZZ          XY          XZ          YZ
         1        -0.2376     -0.3521     -0.0220      2.2740      0.1767     -0.1647
 <0|del|b> * <b|rxdel|0> + <0|del|b> * <b|delr+rdel|0>
 Rotatory Strengths (R) in cgs (10**-40 erg-esu-cm/Gauss)
       state          XX          YY          ZZ    R(velocity)    E-M Angle
         1        47.6187   -150.1659    143.6204     13.6911       89.65
 1/2[<0|r|b>*<b|rxdel|0> + (<0|rxdel|b>*<b|r|0>)*]
 Rotatory Strengths (R) in cgs (10**-40 erg-esu-cm/Gauss)
       state          XX          YY          ZZ     R(length)
         1       -60.2639    644.1421   -513.2095     23.5562
  1/2[<0|del|b>*<b|r|0> + (<0|r|b>*<b|del|0>)*] (Au)
       state          X           Y           Z        Dip. S.   Osc.(frdel)
         1        -0.0022     -0.4385     -0.0026      0.4433      0.2955

 Excitation energies and oscillator strengths:
 
 Excited State   1:      Singlet-A      2.0172 eV  614.64 nm  f=0.3039  <S**2>=0.000
     240 -> 242       -0.13585
     240 -> 243       -0.22148
     241 -> 242        0.64884
 This state for optimization and/or second-order correction.
 Total Energy, E(TD-HF/TD-KS) =  -2932.57539855    
 Copying the excited state density for this state as the 1-particle RhoCI density.
 SavETr:  write IOETrn=   770 NScale= 10 NData=  16 NLR=1 NState=    1 LETran=      28.

 **********************************************************************

            Population analysis using the SCF density.

 **********************************************************************

 Orbital symmetries:
       Occupied  (A) (A) (A) (A) (A) (A) (A) (A) (A) (A) (A) (A)
                 (A) (A) (A) (A) (A) (A) (A) (A) (A) (A) (A) (A)
                 (A) (A) (A) (A) (A) (A) (A) (A) (A) (A) (A) (A)
                 (A) (A) (A) (A) (A) (A) (A) (A) (A) (A) (A) (A)
                 (A) (A) (A) (A) (A) (A) (A) (A) (A) (A) (A) (A)
                 (A) (A) (A) (A) (A) (A) (A) (A) (A) (A) (A) (A)
                 (A) (A) (A) (A) (A) (A) (A) (A) (A) (A) (A) (A)
                 (A) (A) (A) (A) (A) (A) (A) (A) (A) (A) (A) (A)
                 (A) (A) (A) (A) (A) (A) (A) (A) (A) (A) (A) (A)
                 (A) (A) (A) (A) (A) (A) (A) (A) (A) (A) (A) (A)
                 (A) (A) (A) (A) (A) (A) (A) (A) (A) (A) (A) (A)
                 (A) (A) (A) (A) (A) (A) (A) (A) (A) (A) (A) (A)
                 (A) (A) (A) (A) (A) (A) (A) (A) (A) (A) (A) (A)
                 (A) (A) (A) (A) (A) (A) (A) (A) (A) (A) (A) (A)
                 (A) (A) (A) (A) (A) (A) (A) (A) (A) (A) (A) (A)
                 (A) (A) (A) (A) (A) (A) (A) (A) (A) (A) (A) (A)
                 (A) (A) (A) (A) (A) (A) (A) (A) (A) (A) (A) (A)
                 (A) (A) (A) (A) (A) (A) (A) (A) (A) (A) (A) (A)
                 (A) (A) (A) (A) (A) (A) (A) (A) (A) (A) (A) (A)
                 (A) (A) (A) (A) (A) (A) (A) (A) (A) (A) (A) (A)
                 (A)
       Virtual   (A) (A) (A) (A) (A) (A) (A) (A) (A) (A) (A) (A)
                 (A) (A) (A) (A) (A) (A) (A) (A) (A) (A) (A) (A)
                 (A) (A) (A) (A) (A) (A) (A) (A) (A) (A) (A) (A)
                 (A) (A) (A) (A) (A) (A) (A) (A) (A) (A) (A) (A)
                 (A) (A) (A) (A) (A) (A) (A) (A) (A) (A) (A) (A)
                 (A) (A) (A) (A) (A) (A) (A) (A) (A) (A) (A) (A)
                 (A) (A) (A) (A) (A) (A) (A) (A) (A) (A) (A) (A)
                 (A) (A) (A) (A) (A) (A) (A) (A) (A) (A) (A) (A)
                 (A) (A) (A) (A) (A) (A) (A) (A) (A) (A) (A) (A)
                 (A) (A) (A) (A) (A) (A) (A) (A) (A) (A) (A) (A)
                 (A) (A) (A) (A) (A) (A) (A) (A) (A) (A) (A) (A)
                 (A) (A) (A) (A) (A) (A) (A) (A) (A) (A) (A) (A)
                 (A) (A) (A) (A) (A) (A) (A) (A) (A) (A) (A) (A)
                 (A) (A) (A) (A) (A) (A) (A) (A) (A) (A) (A) (A)
                 (A) (A) (A) (A) (A) (A) (A) (A) (A) (A) (A) (A)
                 (A) (A) (A) (A) (A) (A) (A) (A) (A) (A) (A) (A)
                 (A) (A) (A) (A) (A) (A) (A) (A) (A) (A) (A) (A)
                 (A) (A) (A) (A) (A) (A) (A) (A) (A) (A) (A) (A)
                 (A) (A) (A) (A) (A) (A) (A) (A) (A) (A) (A) (A)
                 (A) (A) (A) (A) (A) (A) (A) (A) (A) (A) (A) (A)
                 (A) (A) (A) (A) (A) (A) (A) (A) (A) (A) (A) (A)
                 (A) (A) (A) (A) (A) (A) (A) (A) (A) (A) (A) (A)
                 (A) (A) (A) (A) (A) (A) (A) (A) (A) (A) (A) (A)
                 (A) (A) (A) (A) (A) (A) (A) (A) (A) (A) (A) (A)
                 (A) (A) (A) (A) (A) (A) (A) (A) (A) (A) (A) (A)
                 (A) (A) (A) (A) (A) (A) (A) (A) (A) (A) (A) (A)
                 (A) (A) (A) (A) (A) (A) (A) (A) (A) (A) (A) (A)
                 (A) (A) (A) (A) (A) (A) (A) (A) (A) (A) (A) (A)
                 (A) (A) (A) (A) (A) (A) (A) (A) (A) (A) (A) (A)
                 (A) (A) (A) (A) (A) (A) (A) (A) (A) (A) (A) (A)
                 (A) (A) (A) (A) (A) (A) (A) (A) (A) (A) (A) (A)
                 (A) (A) (A) (A) (A) (A) (A) (A) (A) (A) (A) (A)
                 (A) (A) (A) (A) (A) (A) (A) (A) (A) (A) (A) (A)
                 (A) (A) (A) (A) (A) (A) (A) (A) (A) (A) (A) (A)
                 (A) (A) (A) (A) (A) (A) (A) (A) (A) (A) (A) (A)
                 (A) (A) (A) (A) (A) (A) (A) (A) (A) (A) (A) (A)
                 (A) (A) (A) (A) (A) (A) (A) (A) (A) (A) (A) (A)
                 (A) (A) (A) (A) (A) (A) (A) (A) (A) (A) (A) (A)
                 (A) (A) (A) (A) (A) (A) (A) (A) (A) (A) (A) (A)
                 (A) (A) (A) (A) (A) (A) (A) (A) (A) (A) (A) (A)
                 (A) (A) (A) (A) (A) (A) (A) (A) (A) (A) (A) (A)
                 (A) (A) (A) (A) (A) (A) (A) (A) (A) (A) (A) (A)
                 (A) (A) (A) (A) (A) (A) (A) (A) (A) (A) (A) (A)
                 (A) (A) (A) (A) (A) (A) (A) (A) (A) (A) (A) (A)
                 (A) (A) (A) (A) (A) (A) (A) (A) (A) (A) (A) (A)
                 (A) (A) (A) (A) (A) (A) (A) (A) (A) (A) (A) (A)
                 (A) (A) (A) (A) (A) (A) (A) (A) (A) (A) (A) (A)
                 (A) (A) (A) (A) (A) (A) (A) (A) (A) (A) (A) (A)
                 (A) (A) (A) (A) (A) (A) (A) (A) (A) (A) (A) (A)
                 (A) (A) (A) (A) (A) (A) (A) (A) (A) (A) (A) (A)
                 (A) (A) (A) (A) (A) (A) (A) (A) (A) (A) (A) (A)
                 (A) (A) (A) (A) (A) (A) (A) (A) (A) (A) (A) (A)
                 (A) (A) (A) (A) (A) (A) (A) (A) (A) (A) (A) (A)
                 (A) (A) (A) (A) (A) (A) (A) (A) (A) (A) (A) (A)
                 (A) (A) (A) (A) (A) (A) (A) (A) (A) (A) (A) (A)
                 (A) (A) (A) (A) (A) (A) (A) (A) (A) (A) (A) (A)
                 (A) (A) (A) (A) (A) (A) (A) (A) (A) (A) (A) (A)
                 (A) (A) (A) (A) (A) (A) (A) (A) (A) (A) (A) (A)
                 (A) (A) (A) (A) (A) (A) (A) (A) (A) (A) (A) (A)
                 (A) (A) (A) (A) (A) (A) (A) (A) (A) (A) (A) (A)
                 (A) (A) (A) (A) (A) (A) (A) (A) (A) (A) (A) (A)
                 (A) (A) (A) (A) (A) (A) (A) (A) (A) (A) (A) (A)
                 (A) (A) (A) (A) (A) (A) (A) (A) (A) (A) (A) (A)
                 (A) (A) (A) (A) (A) (A) (A) (A) (A) (A) (A) (A)
                 (A) (A) (A) (A) (A) (A) (A) (A) (A) (A) (A) (A)
                 (A) (A) (A) (A) (A) (A) (A) (A) (A) (A) (A) (A)
                 (A) (A) (A) (A) (A) (A) (A) (A) (A) (A) (A) (A)
                 (A) (A) (A) (A) (A) (A) (A) (A) (A) (A) (A) (A)
                 (A) (A) (A) (A) (A) (A) (A) (A) (A) (A) (A) (A)
                 (A) (A) (A) (A) (A) (A) (A) (A) (A) (A) (A) (A)
                 (A) (A) (A) (A) (A) (A) (A) (A) (A) (A) (A) (A)
                 (A) (A) (A) (A) (A) (A) (A) (A) (A) (A) (A) (A)
                 (A) (A) (A) (A) (A) (A) (A) (A) (A) (A) (A) (A)
                 (A) (A) (A) (A) (A) (A) (A) (A) (A) (A) (A) (A)
                 (A) (A) (A) (A) (A) (A) (A) (A) (A) (A) (A) (A)
                 (A) (A) (A) (A) (A) (A) (A) (A) (A) (A) (A) (A)
                 (A) (A) (A) (A) (A) (A) (A) (A) (A) (A) (A) (A)
                 (A) (A) (A) (A) (A) (A) (A) (A) (A) (A) (A) (A)
                 (A) (A) (A) (A) (A) (A) (A) (A) (A) (A) (A) (A)
                 (A) (A) (A) (A) (A) (A) (A) (A) (A) (A) (A) (A)
                 (A) (A) (A) (A) (A) (A) (A) (A) (A) (A) (A) (A)
                 (A) (A) (A) (A) (A) (A) (A) (A) (A) (A) (A) (A)
                 (A) (A) (A) (A) (A) (A) (A) (A) (A) (A) (A) (A)
                 (A) (A) (A) (A) (A) (A) (A) (A) (A) (A) (A) (A)
                 (A) (A) (A) (A) (A) (A) (A) (A) (A) (A) (A) (A)
                 (A) (A) (A) (A) (A) (A) (A) (A) (A) (A) (A) (A)
                 (A) (A) (A) (A) (A) (A) (A) (A) (A) (A) (A) (A)
                 (A) (A) (A) (A) (A) (A) (A) (A) (A) (A) (A) (A)
                 (A) (A) (A) (A) (A) (A) (A) (A) (A) (A) (A) (A)
                 (A) (A) (A) (A) (A) (A) (A) (A) (A) (A) (A) (A)
                 (A) (A) (A) (A) (A) (A) (A) (A) (A) (A) (A) (A)
                 (A) (A) (A) (A) (A) (A)
 The electronic state is 1-A.
 Alpha  occ. eigenvalues --  -46.84689 -19.27576 -19.24484 -19.20357 -19.20081
 Alpha  occ. eigenvalues --  -19.19276 -14.41485 -14.40285 -14.40069 -14.39290
 Alpha  occ. eigenvalues --  -10.40025 -10.38643 -10.34802 -10.32674 -10.31898
 Alpha  occ. eigenvalues --  -10.31796 -10.30553 -10.29937 -10.29733 -10.29690
 Alpha  occ. eigenvalues --  -10.29427 -10.29126 -10.29050 -10.28993 -10.28761
 Alpha  occ. eigenvalues --  -10.28565 -10.28561 -10.28116 -10.28034 -10.28010
 Alpha  occ. eigenvalues --  -10.27881 -10.27840 -10.27729 -10.27708 -10.27559
 Alpha  occ. eigenvalues --  -10.27483 -10.27452 -10.27267 -10.27182 -10.27037
 Alpha  occ. eigenvalues --  -10.26873 -10.26486 -10.26453 -10.26441 -10.26191
 Alpha  occ. eigenvalues --  -10.26082 -10.26061 -10.25946 -10.25879 -10.25816
 Alpha  occ. eigenvalues --  -10.25700 -10.25595 -10.25558 -10.25299 -10.25225
 Alpha  occ. eigenvalues --  -10.25172 -10.25159 -10.24995 -10.24833 -10.24723
 Alpha  occ. eigenvalues --  -10.24219 -10.24169 -10.23774 -10.23747 -10.23595
 Alpha  occ. eigenvalues --   -3.13681  -1.88398  -1.87910  -1.87860  -1.16729
 Alpha  occ. eigenvalues --   -1.16678  -1.10742  -1.07944  -1.04676  -1.03712
 Alpha  occ. eigenvalues --   -1.03440  -1.02028  -1.01328  -0.92164  -0.91860
 Alpha  occ. eigenvalues --   -0.91136  -0.90775  -0.90216  -0.89637  -0.89271
 Alpha  occ. eigenvalues --   -0.88713  -0.88555  -0.88003  -0.87260  -0.86713
 Alpha  occ. eigenvalues --   -0.85172  -0.84667  -0.84052  -0.83469  -0.82987
 Alpha  occ. eigenvalues --   -0.81896  -0.80750  -0.80161  -0.79680  -0.78742
 Alpha  occ. eigenvalues --   -0.78434  -0.77144  -0.76934  -0.76473  -0.76134
 Alpha  occ. eigenvalues --   -0.75716  -0.75283  -0.74760  -0.73886  -0.72691
 Alpha  occ. eigenvalues --   -0.71558  -0.71291  -0.70235  -0.69897  -0.68434
 Alpha  occ. eigenvalues --   -0.67529  -0.67338  -0.66232  -0.65353  -0.64827
 Alpha  occ. eigenvalues --   -0.63688  -0.63404  -0.62932  -0.62237  -0.61842
 Alpha  occ. eigenvalues --   -0.61664  -0.60986  -0.60436  -0.60270  -0.59416
 Alpha  occ. eigenvalues --   -0.58697  -0.58599  -0.57898  -0.57197  -0.56704
 Alpha  occ. eigenvalues --   -0.56301  -0.55285  -0.55232  -0.54838  -0.54756
 Alpha  occ. eigenvalues --   -0.54414  -0.53931  -0.53712  -0.53382  -0.52831
 Alpha  occ. eigenvalues --   -0.52614  -0.52462  -0.52385  -0.52305  -0.52214
 Alpha  occ. eigenvalues --   -0.51238  -0.51227  -0.51173  -0.51050  -0.50663
 Alpha  occ. eigenvalues --   -0.50601  -0.50346  -0.50177  -0.50069  -0.49988
 Alpha  occ. eigenvalues --   -0.49424  -0.49301  -0.49015  -0.48888  -0.48425
 Alpha  occ. eigenvalues --   -0.48068  -0.47765  -0.47613  -0.47321  -0.47181
 Alpha  occ. eigenvalues --   -0.47062  -0.46884  -0.46774  -0.46573  -0.46072
 Alpha  occ. eigenvalues --   -0.45892  -0.45751  -0.45427  -0.45054  -0.45044
 Alpha  occ. eigenvalues --   -0.44980  -0.44746  -0.44608  -0.44420  -0.44357
 Alpha  occ. eigenvalues --   -0.44176  -0.43827  -0.43634  -0.43492  -0.43402
 Alpha  occ. eigenvalues --   -0.43213  -0.43070  -0.42760  -0.42594  -0.42280
 Alpha  occ. eigenvalues --   -0.42039  -0.41882  -0.41447  -0.41370  -0.41272
 Alpha  occ. eigenvalues --   -0.40907  -0.40788  -0.40574  -0.40412  -0.40157
 Alpha  occ. eigenvalues --   -0.39919  -0.39890  -0.39625  -0.39530  -0.39027
 Alpha  occ. eigenvalues --   -0.38589  -0.38319  -0.38050  -0.37483  -0.37430
 Alpha  occ. eigenvalues --   -0.37316  -0.36976  -0.36782  -0.36753  -0.36470
 Alpha  occ. eigenvalues --   -0.36107  -0.36098  -0.35844  -0.35626  -0.35565
 Alpha  occ. eigenvalues --   -0.35294  -0.34024  -0.33862  -0.33771  -0.33564
 Alpha  occ. eigenvalues --   -0.33235  -0.32462  -0.31999  -0.31409  -0.30752
 Alpha  occ. eigenvalues --   -0.29562  -0.29302  -0.28860  -0.27906  -0.23360
 Alpha  occ. eigenvalues --   -0.21656
 Alpha virt. eigenvalues --   -0.07278  -0.02868   0.01564   0.02753   0.03917
 Alpha virt. eigenvalues --    0.05843   0.06182   0.06481   0.06822   0.07771
 Alpha virt. eigenvalues --    0.08299   0.10236   0.10358   0.11187   0.11276
 Alpha virt. eigenvalues --    0.12038   0.12392   0.12594   0.12945   0.12957
 Alpha virt. eigenvalues --    0.13265   0.13615   0.13793   0.14126   0.14189
 Alpha virt. eigenvalues --    0.14219   0.15079   0.15190   0.15423   0.15554
 Alpha virt. eigenvalues --    0.15751   0.15926   0.15965   0.16323   0.16501
 Alpha virt. eigenvalues --    0.16787   0.16853   0.17274   0.17328   0.17738
 Alpha virt. eigenvalues --    0.17766   0.18218   0.18356   0.18741   0.18829
 Alpha virt. eigenvalues --    0.18850   0.18961   0.19152   0.19257   0.19410
 Alpha virt. eigenvalues --    0.19577   0.19862   0.20087   0.20240   0.20294
 Alpha virt. eigenvalues --    0.20406   0.20456   0.20698   0.20786   0.21132
 Alpha virt. eigenvalues --    0.21245   0.21307   0.21507   0.21532   0.21661
 Alpha virt. eigenvalues --    0.21991   0.22056   0.22069   0.22140   0.22215
 Alpha virt. eigenvalues --    0.22408   0.22677   0.22925   0.23076   0.23432
 Alpha virt. eigenvalues --    0.23601   0.23839   0.24129   0.24149   0.24423
 Alpha virt. eigenvalues --    0.24676   0.24906   0.25166   0.25348   0.25434
 Alpha virt. eigenvalues --    0.25568   0.25616   0.26034   0.26232   0.26522
 Alpha virt. eigenvalues --    0.26636   0.26725   0.26931   0.27200   0.27403
 Alpha virt. eigenvalues --    0.27654   0.27694   0.27803   0.27907   0.28123
 Alpha virt. eigenvalues --    0.28252   0.28398   0.28756   0.28773   0.29148
 Alpha virt. eigenvalues --    0.29257   0.29383   0.29564   0.29880   0.29991
 Alpha virt. eigenvalues --    0.30304   0.30400   0.30529   0.31518   0.31623
 Alpha virt. eigenvalues --    0.31819   0.32401   0.32511   0.32697   0.32917
 Alpha virt. eigenvalues --    0.33206   0.33348   0.33608   0.33917   0.34073
 Alpha virt. eigenvalues --    0.34444   0.35077   0.35476   0.35796   0.36612
 Alpha virt. eigenvalues --    0.36767   0.36932   0.37329   0.37736   0.38497
 Alpha virt. eigenvalues --    0.39081   0.39561   0.39731   0.40941   0.41173
 Alpha virt. eigenvalues --    0.41718   0.41836   0.42191   0.42276   0.42974
 Alpha virt. eigenvalues --    0.43154   0.43547   0.44137   0.44958   0.45785
 Alpha virt. eigenvalues --    0.46079   0.47206   0.47875   0.48322   0.49057
 Alpha virt. eigenvalues --    0.49836   0.49922   0.50138   0.51942   0.52410
 Alpha virt. eigenvalues --    0.52801   0.53002   0.53060   0.53767   0.54032
 Alpha virt. eigenvalues --    0.54124   0.54265   0.54672   0.55130   0.55413
 Alpha virt. eigenvalues --    0.55594   0.55951   0.56069   0.56370   0.56818
 Alpha virt. eigenvalues --    0.57044   0.57258   0.57288   0.57713   0.57930
 Alpha virt. eigenvalues --    0.58103   0.58593   0.58885   0.59033   0.59242
 Alpha virt. eigenvalues --    0.59416   0.59615   0.59780   0.60115   0.60160
 Alpha virt. eigenvalues --    0.60390   0.60610   0.60673   0.61148   0.61379
 Alpha virt. eigenvalues --    0.61677   0.61930   0.62188   0.62409   0.62670
 Alpha virt. eigenvalues --    0.62703   0.62782   0.62965   0.63343   0.63483
 Alpha virt. eigenvalues --    0.63810   0.64425   0.64913   0.65045   0.65369
 Alpha virt. eigenvalues --    0.65387   0.65538   0.66278   0.66384   0.66518
 Alpha virt. eigenvalues --    0.66672   0.66959   0.67348   0.67479   0.67568
 Alpha virt. eigenvalues --    0.67751   0.68394   0.68485   0.68606   0.68853
 Alpha virt. eigenvalues --    0.69259   0.69695   0.69848   0.69891   0.70031
 Alpha virt. eigenvalues --    0.70287   0.71113   0.71274   0.71468   0.71605
 Alpha virt. eigenvalues --    0.71826   0.72571   0.72858   0.73021   0.73178
 Alpha virt. eigenvalues --    0.73310   0.73529   0.73823   0.74069   0.74259
 Alpha virt. eigenvalues --    0.74406   0.74839   0.74967   0.75089   0.75670
 Alpha virt. eigenvalues --    0.75746   0.75920   0.76221   0.76349   0.76928
 Alpha virt. eigenvalues --    0.77292   0.77303   0.77522   0.77796   0.77868
 Alpha virt. eigenvalues --    0.78427   0.78544   0.78823   0.79061   0.79410
 Alpha virt. eigenvalues --    0.79686   0.80021   0.80349   0.80652   0.80803
 Alpha virt. eigenvalues --    0.80907   0.81337   0.81680   0.81844   0.81943
 Alpha virt. eigenvalues --    0.82064   0.82203   0.82282   0.82722   0.82911
 Alpha virt. eigenvalues --    0.83077   0.83329   0.83630   0.84013   0.84190
 Alpha virt. eigenvalues --    0.84234   0.84391   0.84802   0.85465   0.85669
 Alpha virt. eigenvalues --    0.85865   0.85949   0.86036   0.86232   0.86490
 Alpha virt. eigenvalues --    0.86608   0.86793   0.87001   0.87410   0.87666
 Alpha virt. eigenvalues --    0.87870   0.88000   0.88165   0.88487   0.88757
 Alpha virt. eigenvalues --    0.88841   0.88895   0.89178   0.89316   0.89518
 Alpha virt. eigenvalues --    0.90042   0.90118   0.90204   0.90450   0.90666
 Alpha virt. eigenvalues --    0.91076   0.91464   0.91593   0.91770   0.92022
 Alpha virt. eigenvalues --    0.92160   0.92250   0.92375   0.92444   0.92481
 Alpha virt. eigenvalues --    0.92918   0.92958   0.93455   0.93518   0.93798
 Alpha virt. eigenvalues --    0.93890   0.93986   0.94370   0.94513   0.94612
 Alpha virt. eigenvalues --    0.94774   0.94869   0.95017   0.95214   0.95680
 Alpha virt. eigenvalues --    0.95976   0.96294   0.96514   0.96623   0.96767
 Alpha virt. eigenvalues --    0.96912   0.97399   0.97659   0.97804   0.97962
 Alpha virt. eigenvalues --    0.98167   0.98393   0.98575   0.98825   0.98959
 Alpha virt. eigenvalues --    0.99004   0.99489   0.99707   0.99924   1.00052
 Alpha virt. eigenvalues --    1.00321   1.00375   1.00806   1.01071   1.01285
 Alpha virt. eigenvalues --    1.01412   1.01702   1.01974   1.02060   1.02169
 Alpha virt. eigenvalues --    1.02512   1.02544   1.03320   1.03344   1.03544
 Alpha virt. eigenvalues --    1.04006   1.04205   1.04340   1.04404   1.05096
 Alpha virt. eigenvalues --    1.05453   1.05546   1.05825   1.05952   1.06131
 Alpha virt. eigenvalues --    1.06505   1.06611   1.07245   1.07585   1.07838
 Alpha virt. eigenvalues --    1.08593   1.08744   1.09027   1.09434   1.10086
 Alpha virt. eigenvalues --    1.10147   1.10562   1.10836   1.11133   1.11531
 Alpha virt. eigenvalues --    1.11828   1.11912   1.12169   1.12717   1.13183
 Alpha virt. eigenvalues --    1.13344   1.13758   1.13908   1.14856   1.15354
 Alpha virt. eigenvalues --    1.15816   1.15937   1.16550   1.17221   1.18237
 Alpha virt. eigenvalues --    1.18894   1.19171   1.19719   1.19945   1.20346
 Alpha virt. eigenvalues --    1.20869   1.21399   1.21934   1.22160   1.22687
 Alpha virt. eigenvalues --    1.23559   1.24290   1.24517   1.25136   1.25508
 Alpha virt. eigenvalues --    1.25657   1.26592   1.27002   1.27387   1.27845
 Alpha virt. eigenvalues --    1.27940   1.28143   1.28833   1.29969   1.30433
 Alpha virt. eigenvalues --    1.30523   1.30898   1.31111   1.31390   1.32346
 Alpha virt. eigenvalues --    1.33370   1.33490   1.33871   1.34572   1.35348
 Alpha virt. eigenvalues --    1.35875   1.36582   1.37247   1.37315   1.37706
 Alpha virt. eigenvalues --    1.38128   1.38292   1.38601   1.38879   1.39357
 Alpha virt. eigenvalues --    1.39823   1.40363   1.40927   1.41019   1.41232
 Alpha virt. eigenvalues --    1.41790   1.42573   1.43073   1.43467   1.44188
 Alpha virt. eigenvalues --    1.44528   1.44775   1.45210   1.45830   1.46639
 Alpha virt. eigenvalues --    1.48212   1.48460   1.49349   1.49664   1.49876
 Alpha virt. eigenvalues --    1.50561   1.51336   1.51523   1.51671   1.52855
 Alpha virt. eigenvalues --    1.53489   1.54102   1.54561   1.54801   1.55441
 Alpha virt. eigenvalues --    1.55612   1.56119   1.56255   1.56324   1.56768
 Alpha virt. eigenvalues --    1.57651   1.57981   1.58214   1.58509   1.59472
 Alpha virt. eigenvalues --    1.59642   1.59696   1.60041   1.60189   1.60663
 Alpha virt. eigenvalues --    1.61878   1.62077   1.62480   1.62569   1.63174
 Alpha virt. eigenvalues --    1.63797   1.64050   1.64282   1.64940   1.65282
 Alpha virt. eigenvalues --    1.66031   1.66366   1.66496   1.67452   1.67532
 Alpha virt. eigenvalues --    1.67712   1.68481   1.68552   1.69048   1.69484
 Alpha virt. eigenvalues --    1.69579   1.70653   1.70882   1.71222   1.71440
 Alpha virt. eigenvalues --    1.71579   1.71817   1.72576   1.73758   1.73954
 Alpha virt. eigenvalues --    1.73989   1.74463   1.74971   1.75220   1.75574
 Alpha virt. eigenvalues --    1.76002   1.76410   1.76597   1.76886   1.78045
 Alpha virt. eigenvalues --    1.78354   1.78571   1.79197   1.79549   1.79886
 Alpha virt. eigenvalues --    1.80674   1.81334   1.81551   1.82237   1.82443
 Alpha virt. eigenvalues --    1.82564   1.82799   1.83046   1.83384   1.83975
 Alpha virt. eigenvalues --    1.84151   1.84308   1.84443   1.84529   1.85171
 Alpha virt. eigenvalues --    1.85233   1.85745   1.86253   1.86620   1.86903
 Alpha virt. eigenvalues --    1.86977   1.87138   1.87389   1.87549   1.87887
 Alpha virt. eigenvalues --    1.88145   1.88260   1.88739   1.88858   1.88882
 Alpha virt. eigenvalues --    1.89348   1.89857   1.90255   1.90492   1.90564
 Alpha virt. eigenvalues --    1.90588   1.90716   1.91245   1.91555   1.91884
 Alpha virt. eigenvalues --    1.91903   1.92210   1.92683   1.92898   1.93113
 Alpha virt. eigenvalues --    1.93430   1.93644   1.94023   1.94544   1.94657
 Alpha virt. eigenvalues --    1.94979   1.95327   1.95492   1.95537   1.95653
 Alpha virt. eigenvalues --    1.95751   1.96489   1.96670   1.96840   1.96954
 Alpha virt. eigenvalues --    1.97208   1.97485   1.97638   1.98027   1.98107
 Alpha virt. eigenvalues --    1.98730   1.98948   1.99016   1.99144   1.99993
 Alpha virt. eigenvalues --    2.00232   2.00517   2.00695   2.01183   2.01403
 Alpha virt. eigenvalues --    2.01665   2.01851   2.02214   2.02310   2.02780
 Alpha virt. eigenvalues --    2.03158   2.03470   2.03550   2.03572   2.04009
 Alpha virt. eigenvalues --    2.04691   2.04762   2.05092   2.05377   2.05644
 Alpha virt. eigenvalues --    2.06182   2.06219   2.06618   2.06761   2.07047
 Alpha virt. eigenvalues --    2.07520   2.07657   2.07971   2.08549   2.08808
 Alpha virt. eigenvalues --    2.09103   2.09360   2.09536   2.10270   2.10408
 Alpha virt. eigenvalues --    2.10669   2.11124   2.11263   2.12077   2.12424
 Alpha virt. eigenvalues --    2.12577   2.13124   2.13405   2.13840   2.14012
 Alpha virt. eigenvalues --    2.14235   2.14770   2.15365   2.15554   2.15838
 Alpha virt. eigenvalues --    2.16134   2.16278   2.16321   2.16479   2.16793
 Alpha virt. eigenvalues --    2.17073   2.17606   2.17715   2.18150   2.18292
 Alpha virt. eigenvalues --    2.18788   2.19152   2.19289   2.19403   2.20036
 Alpha virt. eigenvalues --    2.20115   2.20298   2.20964   2.20973   2.21505
 Alpha virt. eigenvalues --    2.21641   2.22204   2.22241   2.23103   2.23298
 Alpha virt. eigenvalues --    2.23628   2.24009   2.24383   2.24583   2.24748
 Alpha virt. eigenvalues --    2.25167   2.25655   2.25863   2.25936   2.26635
 Alpha virt. eigenvalues --    2.26694   2.26839   2.27289   2.27697   2.28011
 Alpha virt. eigenvalues --    2.28283   2.28992   2.29020   2.29286   2.29544
 Alpha virt. eigenvalues --    2.29798   2.30596   2.31136   2.31412   2.31735
 Alpha virt. eigenvalues --    2.32141   2.32417   2.32518   2.32789   2.33294
 Alpha virt. eigenvalues --    2.33427   2.33531   2.34315   2.34411   2.34972
 Alpha virt. eigenvalues --    2.35009   2.35250   2.35457   2.35501   2.36048
 Alpha virt. eigenvalues --    2.36524   2.36737   2.37014   2.37444   2.37937
 Alpha virt. eigenvalues --    2.38741   2.39103   2.39210   2.39228   2.39604
 Alpha virt. eigenvalues --    2.39789   2.39881   2.40396   2.40586   2.40666
 Alpha virt. eigenvalues --    2.41199   2.41718   2.41976   2.42177   2.42461
 Alpha virt. eigenvalues --    2.42852   2.43296   2.43383   2.43636   2.44025
 Alpha virt. eigenvalues --    2.44079   2.44336   2.44823   2.45002   2.45162
 Alpha virt. eigenvalues --    2.45396   2.45670   2.45869   2.45904   2.46063
 Alpha virt. eigenvalues --    2.47033   2.47175   2.47568   2.47748   2.48021
 Alpha virt. eigenvalues --    2.48287   2.48369   2.49119   2.49649   2.49835
 Alpha virt. eigenvalues --    2.50633   2.50852   2.51468   2.51609   2.51778
 Alpha virt. eigenvalues --    2.51948   2.52213   2.52323   2.52774   2.53104
 Alpha virt. eigenvalues --    2.53265   2.53883   2.54142   2.54260   2.54780
 Alpha virt. eigenvalues --    2.55181   2.55867   2.56335   2.56488   2.57025
 Alpha virt. eigenvalues --    2.57223   2.58000   2.58622   2.59334   2.59624
 Alpha virt. eigenvalues --    2.59804   2.60189   2.60606   2.60761   2.61104
 Alpha virt. eigenvalues --    2.61263   2.61693   2.62096   2.62662   2.62987
 Alpha virt. eigenvalues --    2.63201   2.63687   2.63918   2.64541   2.64882
 Alpha virt. eigenvalues --    2.64990   2.65595   2.66198   2.66212   2.66557
 Alpha virt. eigenvalues --    2.66850   2.67319   2.67997   2.68481   2.68585
 Alpha virt. eigenvalues --    2.69075   2.69198   2.69751   2.70073   2.70865
 Alpha virt. eigenvalues --    2.71227   2.71351   2.71948   2.72211   2.72318
 Alpha virt. eigenvalues --    2.72377   2.72734   2.72836   2.72880   2.73577
 Alpha virt. eigenvalues --    2.74158   2.74292   2.75128   2.75210   2.75726
 Alpha virt. eigenvalues --    2.76209   2.76679   2.76763   2.76814   2.77310
 Alpha virt. eigenvalues --    2.77528   2.77834   2.78402   2.78927   2.79350
 Alpha virt. eigenvalues --    2.79672   2.79760   2.80361   2.80544   2.80713
 Alpha virt. eigenvalues --    2.80889   2.81144   2.81450   2.81865   2.82121
 Alpha virt. eigenvalues --    2.82538   2.82901   2.83401   2.83698   2.83884
 Alpha virt. eigenvalues --    2.84236   2.84810   2.85097   2.85126   2.85337
 Alpha virt. eigenvalues --    2.85914   2.86059   2.86547   2.86569   2.87168
 Alpha virt. eigenvalues --    2.87473   2.87531   2.87936   2.88424   2.88503
 Alpha virt. eigenvalues --    2.89014   2.89280   2.89842   2.90252   2.90704
 Alpha virt. eigenvalues --    2.90946   2.91169   2.91345   2.91673   2.92123
 Alpha virt. eigenvalues --    2.93401   2.93822   2.94056   2.94339   2.94645
 Alpha virt. eigenvalues --    2.95102   2.95189   2.95502   2.96177   2.96850
 Alpha virt. eigenvalues --    2.96965   2.97367   2.97482   2.98087   2.98647
 Alpha virt. eigenvalues --    2.98936   2.99572   2.99713   2.99871   3.00211
 Alpha virt. eigenvalues --    3.00770   3.00946   3.01575   3.01743   3.02254
 Alpha virt. eigenvalues --    3.02574   3.03685   3.04284   3.04482   3.04756
 Alpha virt. eigenvalues --    3.05309   3.05488   3.05523   3.05730   3.06153
 Alpha virt. eigenvalues --    3.06450   3.08042   3.08193   3.08869   3.09041
 Alpha virt. eigenvalues --    3.10131   3.10264   3.10754   3.11148   3.11284
 Alpha virt. eigenvalues --    3.12603   3.13050   3.14295   3.14929   3.15011
 Alpha virt. eigenvalues --    3.16537   3.17473   3.18337   3.18477   3.19387
 Alpha virt. eigenvalues --    3.19666   3.20573   3.21682   3.22864   3.23737
 Alpha virt. eigenvalues --    3.25220   3.25589   3.25907   3.26047   3.26357
 Alpha virt. eigenvalues --    3.26770   3.27801   3.28182   3.28361   3.29629
 Alpha virt. eigenvalues --    3.30313   3.30728   3.30862   3.31222   3.32182
 Alpha virt. eigenvalues --    3.33128   3.34413   3.34442   3.34917   3.35814
 Alpha virt. eigenvalues --    3.36279   3.36621   3.36638   3.36947   3.37435
 Alpha virt. eigenvalues --    3.40030   3.40547   3.41700   3.41802   3.42725
 Alpha virt. eigenvalues --    3.43088   3.44750   3.46078   3.46514   3.46743
 Alpha virt. eigenvalues --    3.47658   3.48010   3.48222   3.48960   3.50350
 Alpha virt. eigenvalues --    3.51024   3.51659   3.51726   3.52064   3.53453
 Alpha virt. eigenvalues --    3.53833   3.54624   3.54681   3.55631   3.56283
 Alpha virt. eigenvalues --    3.57758   3.57813   3.58348   3.59212   3.59941
 Alpha virt. eigenvalues --    3.60126   3.60483   3.61461   3.61538   3.62661
 Alpha virt. eigenvalues --    3.64089   3.64640   3.65932   3.66852   3.66857
 Alpha virt. eigenvalues --    3.66993   3.68890   3.76177   3.78518   3.83209
 Alpha virt. eigenvalues --    3.87891   3.89188   3.91076   3.96948   4.03402
 Alpha virt. eigenvalues --    4.10088   4.13962   4.17243   4.17697   4.20308
 Alpha virt. eigenvalues --    4.21606   4.23925   4.24370   4.25351   4.27755
 Alpha virt. eigenvalues --    4.29373   4.29967   4.31265   4.31296   4.32063
 Alpha virt. eigenvalues --    4.34947   4.36301   4.38055   4.38746   4.39280
 Alpha virt. eigenvalues --    4.41003   4.41197   4.43097   4.44686   4.45170
 Alpha virt. eigenvalues --    4.46351   4.46632   4.47820   4.49283   4.50303
 Alpha virt. eigenvalues --    4.50595   4.51913   4.52852   4.54335   4.55137
 Alpha virt. eigenvalues --    4.56681   4.58297   4.59189   4.59384   4.60841
 Alpha virt. eigenvalues --    4.60873   4.61359   4.63078   4.63786   4.68170
 Alpha virt. eigenvalues --    4.69475   4.70936   4.71193   4.72443   4.73103
 Alpha virt. eigenvalues --    4.75097   4.76124   4.80015   4.80627   4.81401
 Alpha virt. eigenvalues --    4.83669   4.85282   4.86751   4.87840   4.88311
 Alpha virt. eigenvalues --    4.90067   4.94831   5.03011
          Condensed to atoms (all electrons):
 Mulliken charges:
               1
     1  Mg   0.821437
     2  C    0.029918
     3  C   -0.231427
     4  C   -0.148437
     5  C   -0.161408
     6  N   -0.636831
     7  C    0.306344
     8  C   -0.159608
     9  C   -0.144447
    10  C    0.402990
    11  C   -0.307329
    12  C   -0.169963
    13  C   -0.290946
    14  C    0.615476
    15  O   -0.552859
    16  O   -0.473993
    17  N   -0.726194
    18  C    0.271574
    19  C    0.000738
    20  C    0.012682
    21  C    0.317253
    22  C   -0.364178
    23  C   -0.089104
    24  C   -0.241720
    25  N   -0.686118
    26  C    0.291320
    27  C   -0.008105
    28  C    0.025902
    29  C    0.275992
    30  C   -0.345637
    31  C   -0.236554
    32  C   -0.319968
    33  N   -0.701569
    34  C    0.274455
    35  C    0.033799
    36  C    0.004718
    37  C    0.302796
    38  C   -0.368795
    39  C    0.338967
    40  O   -0.450576
    41  C   -0.337703
    42  C    0.625770
    43  O   -0.474970
    44  O   -0.460543
    45  C   -0.072477
    46  C    0.023734
    47  C   -0.144723
    48  C    0.144995
    49  C   -0.365969
    50  C   -0.245061
    51  C   -0.149251
    52  C   -0.148048
    53  C   -0.057762
    54  C   -0.310602
    55  C   -0.148069
    56  C   -0.190311
    57  C   -0.175680
    58  C   -0.064523
    59  C   -0.303861
    60  C   -0.159035
    61  C   -0.193414
    62  C   -0.180598
    63  C   -0.055993
    64  C   -0.320427
    65  C   -0.298786
    66  H    0.081236
    67  H    0.093997
    68  H    0.098744
    69  H    0.131033
    70  H    0.104235
    71  H    0.097662
    72  H    0.129309
    73  H    0.110108
    74  H    0.161775
    75  H    0.111669
    76  H    0.132067
    77  H    0.143806
    78  H    0.110290
    79  H    0.111538
    80  H    0.121350
    81  H    0.111360
    82  H    0.095762
    83  H    0.113267
    84  H    0.134560
    85  H    0.106947
    86  H    0.134429
    87  H    0.094461
    88  H    0.110802
    89  H    0.111500
    90  H    0.108883
    91  H    0.097392
    92  H    0.105237
    93  H    0.145053
    94  H    0.146700
    95  H    0.166929
    96  H    0.112418
    97  H    0.107954
    98  H    0.118682
    99  H    0.150073
   100  H    0.124850
   101  H    0.096051
   102  H    0.077750
   103  H    0.130175
   104  H    0.118208
   105  H    0.119935
   106  H    0.066909
   107  H    0.114770
   108  H    0.084121
   109  H    0.033555
   110  H    0.107788
   111  H    0.080831
   112  H    0.095982
   113  H    0.114525
   114  H    0.078365
   115  H    0.075609
   116  H    0.084192
   117  H    0.105898
   118  H    0.081308
   119  H    0.086568
   120  H    0.067770
   121  H    0.083487
   122  H    0.076541
   123  H    0.099323
   124  H    0.114499
   125  H    0.089106
   126  H    0.101083
   127  H    0.088370
   128  H    0.081059
   129  H    0.081086
   130  H    0.097626
   131  H    0.092603
   132  H    0.092256
   133  H    0.103275
   134  H    0.095890
   135  H    0.097801
   136  H    0.110405
   137  H    0.091907
 Sum of Mulliken charges =   0.00000
 Mulliken charges with hydrogens summed into heavy atoms:
               1
     1  Mg   0.821437
     2  C    0.029918
     3  C   -0.150191
     4  C   -0.054439
     5  C   -0.062664
     6  N   -0.636831
     7  C    0.306344
     8  C   -0.028575
     9  C   -0.040212
    10  C    0.402990
    11  C    0.029750
    12  C    0.103481
    13  C   -0.015072
    14  C    0.615476
    15  O   -0.552859
    16  O   -0.473993
    17  N   -0.726194
    18  C    0.271574
    19  C    0.000738
    20  C    0.012682
    21  C    0.317253
    22  C   -0.020999
    23  C    0.022257
    24  C   -0.032691
    25  N   -0.686118
    26  C    0.291320
    27  C   -0.008105
    28  C    0.025902
    29  C    0.275992
    30  C    0.030299
    31  C   -0.031291
    32  C   -0.002193
    33  N   -0.701569
    34  C    0.274455
    35  C    0.033799
    36  C    0.004718
    37  C    0.302796
    38  C    0.028196
    39  C    0.338967
    40  O   -0.450576
    41  C   -0.170774
    42  C    0.625770
    43  O   -0.474970
    44  O   -0.460543
    45  C    0.266577
    46  C    0.298658
    47  C   -0.048672
    48  C    0.144995
    49  C   -0.039836
    50  C   -0.058217
    51  C    0.049640
    52  C   -0.006706
    53  C    0.023068
    54  C   -0.021730
    55  C    0.011732
    56  C   -0.003105
    57  C   -0.021342
    58  C    0.018964
    59  C   -0.013498
    60  C    0.031154
    61  C   -0.023985
    62  C   -0.001886
    63  C    0.036610
    64  C   -0.029005
    65  C    0.001327
 Electronic spatial extent (au):  <R**2>=         180318.9748
 Charge=              0.0000 electrons
 Dipole moment (field-independent basis, Debye):
    X=              0.7691    Y=              6.2809    Z=              0.4842  Tot=              6.3463
 Quadrupole moment (field-independent basis, Debye-Ang):
   XX=           -311.7045   YY=           -401.2961   ZZ=           -397.8107
   XY=            -38.0375   XZ=             12.0721   YZ=              0.1732
 Traceless Quadrupole moment (field-independent basis, Debye-Ang):
   XX=             58.5659   YY=            -31.0257   ZZ=            -27.5402
   XY=            -38.0375   XZ=             12.0721   YZ=              0.1732
 Octapole moment (field-independent basis, Debye-Ang**2):
  XXX=           -586.2255  YYY=            196.9581  ZZZ=              7.8931  XYY=            -67.2513
  XXY=              1.7153  XXZ=           -181.6094  XZZ=              3.9704  YZZ=            -11.3421
  YYZ=             38.3117  XYZ=            -58.5556
 Hexadecapole moment (field-independent basis, Debye-Ang**3):
 XXXX=        -210497.1752 YYYY=         -17611.1032 ZZZZ=          -4242.4368 XXXY=          -3501.0322
 XXXZ=           2609.5521 YYYX=          -1565.9517 YYYZ=             25.9765 ZZZX=              1.0679
 ZZZY=           -113.0518 XXYY=         -40629.8325 XXZZ=         -38940.3998 YYZZ=          -3529.8216
 XXYZ=             48.8704 YYXZ=            -38.7919 ZZXY=            -25.9999
 N-N= 8.733177157691D+03 E-N=-2.428903707493D+04  KE= 2.905684029499D+03
 1\1\GINC-PEDRO-RYZENSSD\SP\RCAM-B3LYP TD-FC\6-31G(d,p)\C55H72Mg1N4O5\P
 ADAWAN\04-Jul-2019\0\\# td=(NStates=1) CAM-B3LYP/6-31G(d,p)\\TD\\0,1\M
 g,0,-7.1695175248,0.6333220803,0.0933370211\C,0,-4.8114557636,-1.93427
 46059,0.3935058833\C,0,-4.7301629452,2.7548439317,1.0914755125\C,0,-9.
 4470394394,3.1010255981,-0.2833211918\C,0,-9.5009304067,-1.7210876198,
 -0.8570121303\N,0,-5.0943228569,0.4608158997,0.6138718055\C,0,-4.32234
 19403,-0.6701968417,0.7491329365\C,0,-2.8971187173,-0.4058600117,1.107
 5211063\C,0,-2.9997334117,1.0700696753,1.622142945\C,0,-4.3728942843,1
 .514162165,1.0884158715\C,0,-2.9752826104,1.3278650746,3.1260040093\C,
 0,-1.9452879898,-0.5783430957,0.0165456129\C,0,-0.4841858412,-0.544948
 8421,0.5420783371\C,0,0.4940105383,-0.8944529582,-0.4353789184\O,0,0.1
 910403441,-1.5132067283,-1.6389002217\O,0,1.7546172722,-0.489656362,-0
 .2115979487\N,0,-7.106551103,2.6159371835,0.3818468802\C,0,-5.94942422
 14,3.3803490107,0.6616697006\C,0,-6.416498903,4.8091952089,0.755536240
 8\C,0,-7.7817208791,4.8364842799,0.4551939107\C,0,-8.1862528969,3.4146
 006554,0.1852010664\C,0,-5.4369516519,5.9587783437,1.0922539859\C,0,-8
 .6864664442,5.9853295667,0.2544424296\C,0,-8.4420580971,7.177053824,0.
 7991961694\N,0,-9.1476670393,0.6991527764,-0.5579698307\C,0,-9.8814744
 071,1.8281627694,-0.6844647706\C,0,-11.247623859,1.4682051596,-1.13552
 5272\C,0,-11.2773701409,0.134148779,-1.2581145255\C,0,-9.9280684875,-0
 .3906110354,-0.8597609922\C,0,-12.3156103847,2.5173723082,-1.248981673
 \C,0,-12.4026848148,-0.6785252626,-1.7650373122\C,0,-12.5504725357,-1.
 157738185,-3.2171268313\N,0,-7.170486517,-1.4127208857,-0.1905437314\C
 ,0,-8.2405742972,-2.2330384759,-0.5886638216\C,0,-7.8616023058,-3.5947
 977473,-0.5316104383\C,0,-6.4777316573,-3.5977641134,-0.1330850404\C,0
 ,-6.1792705235,-2.1946877501,0.1268154857\C,0,-8.7371511825,-4.8158244
 248,-0.7918376622\C,0,-5.3899134616,-4.3985237359,0.2380766803\O,0,-5.
 2444132792,-5.5997244558,0.2397210028\C,0,-4.1469282722,-3.264362226,0
 .5442142867\C,0,-3.5409447254,-3.5817733986,1.8675171246\O,0,-3.743325
 9332,-3.0857953157,2.9426969508\O,0,-2.6951007038,-4.6773424566,1.7962
 982107\C,0,-1.9637669646,-5.0638106102,2.9606610016\C,0,2.7804205538,-
 0.6758453791,-1.2589870991\C,0,4.1391760066,-0.4521633926,-0.578658014
 8\C,0,5.0895924436,0.3192681922,-0.9840281755\C,0,5.0624446675,1.17994
 06434,-2.2597201373\C,0,6.4521795508,0.4522670769,-0.3631027955\C,0,7.
 6761151494,-0.1140417511,-1.1166986204\C,0,8.9580276754,-0.0702321536,
 -0.2271945323\C,0,10.24535516,-0.4961366854,-0.9267536459\C,0,10.17369
 40696,-1.9681777539,-1.364189884\C,0,11.379360813,-0.2285366345,-0.055
 7847099\C,0,12.8316280705,-0.5265467058,-0.7341634392\C,0,14.008480316
 4,-0.0706682696,0.2006171292\C,0,15.4397400989,-0.2150952386,-0.310589
 2987\C,0,15.697431412,-1.6633539692,-0.8280524229\C,0,16.4755616621,0.
 255609921,0.6502095282\C,0,17.8378683762,0.445875986,-0.0435101656\C,0
 ,18.8350638759,1.2439226093,0.8373841714\C,0,20.3007987491,1.478038137
 3,0.2885136146\C,0,20.2907704308,2.1381121084,-1.1357845712\C,0,21.190
 3499658,2.0907820145,1.2551608795\H,0,-4.1239338779,3.5552910505,1.747
 4793348\H,0,-10.0031107038,4.0455653915,-0.1580912006\H,0,-10.22037532
 69,-2.3477041112,-1.3585625085\H,0,-2.6549819551,-0.9803763515,2.01856
 25475\H,0,-2.1026138666,1.5333469173,1.1613667871\H,0,-2.0717716347,0.
 6291733702,3.4736910826\H,0,-3.1941644764,2.2996040179,3.4435865241\H,
 0,-3.8651799607,0.655640248,3.5214145543\H,0,-1.9266651514,-1.50141010
 14,-0.5679407033\H,0,-1.8094226148,0.3040976602,-0.7918792275\H,0,0.01
 42379064,0.4020948234,1.0557859777\H,0,-0.419189721,-1.2101155268,1.47
 10210573\H,0,-5.3418229577,6.9529839425,0.3421599252\H,0,-5.5006270521
 ,6.154358799,2.2690031974\H,0,-4.4355275088,5.5714983162,0.9810112767\
 H,0,-9.4788399365,5.932139362,-0.4308433125\H,0,-9.1155427702,8.001980
 937,0.6629459164\H,0,-7.7873482006,7.5129276923,1.6317515607\H,0,-12.0
 768317883,3.0497252985,-2.1069336981\H,0,-13.2601956888,1.9614400352,-
 1.4292741189\H,0,-12.3308548166,3.0351721719,-0.3746987139\H,0,-12.538
 7786563,-1.6293723823,-1.157800735\H,0,-13.2389726162,-0.2040571425,-1
 .7314586734\H,0,-13.5332496776,-1.6584305293,-3.3902289074\H,0,-12.475
 5711213,-0.2781023478,-3.8245359493\H,0,-11.6171979991,-1.6525601231,-
 3.6567142914\H,0,-9.4501646195,-4.5425349964,-1.752788543\H,0,-8.09146
 85117,-5.8055005543,-0.7910687199\H,0,-9.313491234,-4.9401490362,0.101
 4483222\H,0,-3.4959802939,-3.3692101717,-0.3664819197\H,0,-1.418370003
 5,-4.2264790876,3.4078937047\H,0,-2.6498645951,-5.223653983,3.94102694
 16\H,0,-1.2081589274,-5.9551347867,2.7175357065\H,0,2.6579951036,-1.66
 57584117,-1.5398479498\H,0,2.6288803656,-0.1125769781,-2.2802811803\H,
 0,4.2466255682,-0.9121634315,0.3795711731\H,0,3.9336923327,1.246053315
 7,-2.7137597457\H,0,5.3416195737,2.1362638853,-2.3094374119\H,0,5.8049
 578034,0.8484559531,-2.9602447555\H,0,6.6437964425,1.3482488249,0.1575
 383966\H,0,6.2624303624,-0.1461826557,0.6174314598\H,0,7.5669840831,-0
 .9989891341,-1.4146927929\H,0,7.6443368696,0.5307962877,-2.0682297466\
 H,0,9.2076428159,1.2070985949,-0.0060129691\H,0,8.9255410428,-0.572312
 7375,0.6754454082\H,0,10.2709146429,0.0686494026,-1.9308179713\H,0,9.3
 086058461,-2.3491328898,-1.9895948843\H,0,11.007683324,-2.2767644603,-
 1.7087051144\H,0,10.0255654425,-2.582700212,-0.4202314628\H,0,11.15402
 30832,0.958008031,0.131114599\H,0,11.3750505585,-0.8886848298,0.923212
 9429\H,0,13.0041637353,-1.5834265039,-0.9927869463\H,0,12.911414894,0.
 090709762,-1.7120745688\H,0,13.9368551222,0.9660991659,0.5331906621\H,
 0,14.0191546686,-0.6953091356,1.1507715937\H,0,15.3041637049,0.4976592
 509,-1.1373380918\H,0,15.5041178547,-2.5323435265,-0.0257340273\H,0,14
 .9925923099,-1.9989122668,-1.5599934144\H,0,16.5482944588,-1.661661691
 1,-1.2712185914\H,0,16.2005252532,1.2361814518,1.00065661\H,0,16.49890
 43376,-0.30164934,1.5237951407\H,0,18.418692808,-0.5082873761,-0.11469
 48099\H,0,17.7875658211,0.9091382327,-1.1186554413\H,0,18.2638871813,2
 .2127854362,0.9958175871\H,0,18.9778749478,0.5146656476,1.6294829486\H
 ,0,20.6444493576,0.5627124194,0.0029573597\H,0,19.7505091575,3.0891824
 801,-1.0334669401\H,0,21.2304072928,2.4207487277,-1.5638477481\H,0,19.
 6505189563,1.5248042912,-1.8364906181\H,0,21.0985958348,1.6944275519,2
 .2697965969\H,0,22.1617678831,1.8897202017,1.0049154578\H,0,20.7119909
 29,3.1081608994,1.5304634868\\Version=ES64L-G09RevD.01\State=1-A\HF=-2
 932.6495289\RMSD=9.052e-09\PG=C01 [X(C55H72Mg1N4O5)]\\@


  THE LARGE PRINT GIVETH,
  AND THE SMALL PRINT TAKETH AWAY.

                     -- TOM WAITS
 Job cpu time:       0 days  6 hours  4 minutes 21.1 seconds.
 File lengths (MBytes):  RWF=   2106 Int=      0 D2E=      0 Chk=    163 Scr=      1
 Normal termination of Gaussian 09 at Thu Jul  4 06:11:23 2019.
