 Entering Gaussian System, Link 0=g16
 Input=Geometria-90-.com
 Output=Geometria-90-.log
 Initial command:
 /usr/local/g09/l1.exe "/home/padawan/israel-mol/pheophytin/spectra/abs/Gau-61531.inp" -scrdir="/home/padawan/israel-mol/pheophytin/spectra/abs/"
 Entering Link 1 = /usr/local/g09/l1.exe PID=     61533.
  
 Copyright (c) 1988,1990,1992,1993,1995,1998,2003,2009,2013,
            Gaussian, Inc.  All Rights Reserved.
  
 This is part of the Gaussian(R) 09 program.  It is based on
 the Gaussian(R) 03 system (copyright 2003, Gaussian, Inc.),
 the Gaussian(R) 98 system (copyright 1998, Gaussian, Inc.),
 the Gaussian(R) 94 system (copyright 1995, Gaussian, Inc.),
 the Gaussian 92(TM) system (copyright 1992, Gaussian, Inc.),
 the Gaussian 90(TM) system (copyright 1990, Gaussian, Inc.),
 the Gaussian 88(TM) system (copyright 1988, Gaussian, Inc.),
 the Gaussian 86(TM) system (copyright 1986, Carnegie Mellon
 University), and the Gaussian 82(TM) system (copyright 1983,
 Carnegie Mellon University). Gaussian is a federally registered
 trademark of Gaussian, Inc.
  
 This software contains proprietary and confidential information,
 including trade secrets, belonging to Gaussian, Inc.
  
 This software is provided under written license and may be
 used, copied, transmitted, or stored only in accord with that
 written license.
  
 The following legend is applicable only to US Government
 contracts under FAR:
  
                    RESTRICTED RIGHTS LEGEND
  
 Use, reproduction and disclosure by the US Government is
 subject to restrictions as set forth in subparagraphs (a)
 and (c) of the Commercial Computer Software - Restricted
 Rights clause in FAR 52.227-19.
  
 Gaussian, Inc.
 340 Quinnipiac St., Bldg. 40, Wallingford CT 06492
  
  
 ---------------------------------------------------------------
 Warning -- This program may not be used in any manner that
 competes with the business of Gaussian, Inc. or will provide
 assistance to any competitor of Gaussian, Inc.  The licensee
 of this program is prohibited from giving any competitor of
 Gaussian, Inc. access to this program.  By using this program,
 the user acknowledges that Gaussian, Inc. is engaged in the
 business of creating and licensing software in the field of
 computational chemistry and represents and warrants to the
 licensee that it is not a competitor of Gaussian, Inc. and that
 it will not use this program in any manner prohibited above.
 ---------------------------------------------------------------
  

 Cite this work as:
 Gaussian 09, Revision D.01,
 M. J. Frisch, G. W. Trucks, H. B. Schlegel, G. E. Scuseria, 
 M. A. Robb, J. R. Cheeseman, G. Scalmani, V. Barone, B. Mennucci, 
 G. A. Petersson, H. Nakatsuji, M. Caricato, X. Li, H. P. Hratchian, 
 A. F. Izmaylov, J. Bloino, G. Zheng, J. L. Sonnenberg, M. Hada, 
 M. Ehara, K. Toyota, R. Fukuda, J. Hasegawa, M. Ishida, T. Nakajima, 
 Y. Honda, O. Kitao, H. Nakai, T. Vreven, J. A. Montgomery, Jr., 
 J. E. Peralta, F. Ogliaro, M. Bearpark, J. J. Heyd, E. Brothers, 
 K. N. Kudin, V. N. Staroverov, T. Keith, R. Kobayashi, J. Normand, 
 K. Raghavachari, A. Rendell, J. C. Burant, S. S. Iyengar, J. Tomasi, 
 M. Cossi, N. Rega, J. M. Millam, M. Klene, J. E. Knox, J. B. Cross, 
 V. Bakken, C. Adamo, J. Jaramillo, R. Gomperts, R. E. Stratmann, 
 O. Yazyev, A. J. Austin, R. Cammi, C. Pomelli, J. W. Ochterski, 
 R. L. Martin, K. Morokuma, V. G. Zakrzewski, G. A. Voth, 
 P. Salvador, J. J. Dannenberg, S. Dapprich, A. D. Daniels, 
 O. Farkas, J. B. Foresman, J. V. Ortiz, J. Cioslowski, 
 and D. J. Fox, Gaussian, Inc., Wallingford CT, 2013.
 
 ******************************************
 Gaussian 09:  ES64L-G09RevD.01 24-Apr-2013
                27-Jul-2019 
 ******************************************
 %nproc=3
 Will use up to    3 processors via shared memory.
 %Mem=2GB
 --------------------------
 # td=(NStates=1) B3LYP/SVP
 --------------------------
 1/38=1/1;
 2/12=2,17=6,18=5,40=1/2;
 3/5=18,7=101,11=9,16=1,25=1,30=1,74=-5/1,2,8,3;
 4//1;
 5/5=2,38=5/2;
 8/6=1,10=1,108=1/1;
 9/41=1,42=1,70=2/14;
 6/7=2,8=2,9=2,10=2/1;
 99/5=1,9=1/99;
 --
 TD
 --
 Symbolic Z-matrix:
 Charge =  0 Multiplicity = 1
 6                    -5.0846   -1.96216   0.25858 
 6                    -4.76179   2.80208   1.29095 
 6                    -9.40188   3.20745  -0.15058 
 6                    -9.89598  -1.50515  -0.81931 
 7                    -5.23045   0.45206   0.86078 
 6                    -4.46342  -0.73914   0.83492 
 6                    -3.02801  -0.55821   1.38005 
 6                    -3.11163   0.82369   1.79803 
 6                    -4.44417   1.45682   1.27989 
 6                    -2.96762   1.13344   3.31794 
 6                    -2.00121  -0.75272   0.10944 
 6                    -0.54471  -0.74973   0.48905 
 6                     0.4465   -0.89362  -0.66609 
 8                     0.07709  -1.36069  -1.71893 
 8                     1.70323  -0.50129  -0.45608 
 7                    -7.05208   2.78642   0.50205 
 6                    -6.00092   3.39966   0.98987 
 6                    -6.24592   4.83713   0.95392 
 6                    -7.60925   4.94529   0.56805 
 6                    -8.10932   3.62558   0.16699 
 6                    -5.20189   5.90645   1.39854 
 6                    -8.26623   6.26906   0.31292 
 6                    -8.97509   6.62503  -0.73771 
 7                    -9.32693   0.76666  -0.34791 
 6                    -9.95784   2.02116  -0.48941 
 6                    -11.38552   1.7971   -0.73729 
 6                    -11.56041   0.47514  -0.97311 
 6                    -10.19407  -0.15413  -0.75171 
 6                    -12.39806   2.8512   -0.73863 
 6                    -12.79906  -0.31062  -1.24651 
 6                    -13.0433  -0.54265  -2.84728 
 7                    -7.47832  -1.2628   -0.29546 
 6                    -8.58087  -2.11037  -0.62445 
 6                    -8.0981   -3.35569  -0.63943 
 6                    -6.72712  -3.35923  -0.39025 
 6                    -6.40578  -2.0486   -0.09481 
 6                    -8.97807  -4.59003  -0.93854 
 6                    -5.62987  -4.21472  -0.08386 
 8                    -5.55185  -5.44613  -0.157 
 6                    -4.44762  -3.28309   0.3642 
 6                    -3.86135  -3.75187   1.63577 
 8                    -4.20808  -3.31378   2.70247 
 8                    -2.94495  -4.76562   1.39499 
 6                    -2.32918  -5.32219   2.53791 
 6                     2.67905  -1.05944  -1.42904 
 6                     4.00625  -0.76706  -0.73437 
 6                     5.08116   0.0329   -1.25165 
 6                     5.02092   0.86736  -2.50234 
 6                     6.2824    0.16755  -0.41521 
 6                     7.55717  -0.54203  -1.00838 
 6                     8.84427  -0.30996  -0.20632 
 6                     10.09771  -0.89678  -0.83391 
 6                     9.9768   -2.50087  -0.73347 
 6                     11.33279  -0.35239  -0.00933 
 6                     12.60328  -0.54594  -0.62634 
 6                     13.82465   0.02053   0.17054 
 6                     15.20988  -0.17413  -0.25487 
 6                     15.73167  -1.77283  -0.11577 
 6                     16.19891   0.85462   0.50107 
 6                     17.63262   0.70688   0.09933 
 6                     18.57847   1.717     0.60465 
 6                     20.08531   1.61851   0.24537 
 6                     20.43924   1.75959  -1.31568 
 6                     20.7716   2.5996    1.25901 
 1                    -4.03047   3.56569   1.4956 
 1                    -10.01728   4.17237  -0.17872 
 1                    -10.70952  -2.16111  -1.13127 
 1                    -2.72935  -1.39299   2.03937 
 1                    -2.19368   1.3918    1.22143 
 1                    -1.99345   0.76821   3.67363 
 1                    -3.12271   2.38018   3.44517 
 1                    -3.69383   0.53313   3.99711 
 1                    -2.38376  -1.80203  -0.41321 
 1                    -2.10407  -0.16143  -0.80918 
 1                    -0.16138   0.10814   1.01755 
 1                    -0.46816  -1.46106   1.229 
 1                    -4.3273    5.99322   0.77191 
 1                    -5.77178   6.78736   1.4515 
 1                    -4.77534   5.31835   2.34928 
 1                    -7.75414   7.03671   0.8642 
 1                    -9.21917   5.87423  -1.6277 
 1                    -9.31997   7.62651  -1.10564 
 1                    -12.41085   3.39981   0.2568 
 1                    -12.46395   3.57793  -1.58184 
 1                    -13.305    2.41415  -0.79434 
 1                    -12.73246  -1.18859  -0.64072 
 1                    -13.54616   0.18616  -0.8631 
 1                    -13.02575   0.42733  -3.461 
 1                    -12.06528  -1.05395  -3.38949 
 1                    -13.93341  -1.05618  -3.16545 
 1                    -9.90836  -4.95916  -0.48219 
 1                    -9.36736  -4.58969  -1.955 
 1                    -8.35188  -5.55455  -1.01316 
 1                    -3.79569  -3.36987  -0.6066 
 1                    -1.68258  -5.97039   1.95462 
 1                    -1.69484  -4.62245   2.92335 
 1                    -2.90938  -5.91811   3.1783 
 1                     2.4034   -2.15439  -1.66442 
 1                     2.47823  -0.47468  -2.30847 
 1                     4.05597  -1.4164    0.17123 
 1                     5.6122    1.6839   -2.56998 
 1                     5.49484   0.24796  -3.34122 
 1                     4.02809   1.01637  -3.12501 
 1                     6.5165    1.3256   -0.27694 
 1                     6.19891  -0.30979   0.65375 
 1                     7.23717  -1.7482   -1.10158 
 1                     7.73609  -0.27874  -2.17659 
 1                     9.03488   0.76629  -0.12208 
 1                     8.61119  -0.6566    0.8427 
 1                     10.22417  -0.3984   -1.81388 
 1                     9.31102  -2.92764  -1.30572 
 1                     10.9376  -2.86353  -1.0343 
 1                     10.00376  -2.83373   0.28291 
 1                     10.97252   0.90962   0.16388 
 1                     11.28713  -0.89562   1.00337 
 1                     12.9585  -1.54287  -0.79969 
 1                     12.95837  -0.14448  -1.55848 
 1                     13.37794   1.1988    0.36175 
 1                     13.66888  -0.25345   1.25933 
 1                     15.24111  -0.07458  -1.51475 
 1                     15.31303  -2.49478  -0.80559 
 1                     16.73413  -1.92365  -0.52028 
 1                     15.65722  -2.03895   1.0454 
 1                     15.55278   1.73906   0.3922 
 1                     16.02338   0.80916   1.64477 
 1                     17.81837  -0.37196   0.49476 
 1                     17.50163   0.74536  -1.0249 
 1                     18.08211   2.719     0.42616 
 1                     18.85185   1.62638   1.78141 
 1                     20.3067   0.4538    0.64881 
 1                     20.11077   2.77278  -1.6804 
 1                     21.40186   1.71875  -1.56513 
 1                     19.95443   0.89062  -2.02249 
 1                     20.65478   2.58244   2.54665 
 1                     21.89173   2.4581    1.12533 
 1                     20.67314   3.74964   0.8639 
 1                    -6.97807   1.8183    0.33755 
 1                    -7.41145  -0.24001   0.03193 
 
 Stoichiometry    C55H74N4O5
 Framework group  C1[X(C55H74N4O5)]
 Deg. of freedom   408
 Full point group                 C1      NOp   1
 Largest Abelian subgroup         C1      NOp   1
 Largest concise Abelian subgroup C1      NOp   1
                         Standard orientation:                         
 ---------------------------------------------------------------------
 Center     Atomic      Atomic             Coordinates (Angstroms)
 Number     Number       Type             X           Y           Z
 ---------------------------------------------------------------------
      1          6           0       -5.082562   -1.962125    0.297095
      2          6           0       -4.767746    2.820847    1.241568
      3          6           0       -9.409733    3.191172   -0.203290
      4          6           0       -9.895642   -1.533811   -0.784996
      5          7           0       -5.232405    0.462470    0.855005
      6          6           0       -4.463195   -0.727592    0.850367
      7          6           0       -3.027685   -0.534052    1.390894
      8          6           0       -3.113522    0.855136    1.783504
      9          6           0       -4.447653    1.476194    1.254944
     10          6           0       -2.968869    1.192997    3.297353
     11          6           0       -2.001543   -0.749961    0.123208
     12          6           0       -0.544743   -0.737337    0.501488
     13          6           0        0.445803   -0.900580   -0.651642
     14          8           0        0.076418   -1.387578   -1.695420
     15          8           0        1.701975   -0.502155   -0.449916
     16          7           0       -7.058636    2.786502    0.455002
     17          6           0       -6.008225    3.410531    0.930608
     18          6           0       -6.255910    4.846642    0.868485
     19          6           0       -7.619749    4.945201    0.481833
     20          6           0       -8.117698    3.617433    0.105474
     21          6           0       -5.213509    5.925855    1.292532
     22          6           0       -8.279385    6.262854    0.202992
     23          6           0       -8.989734    6.598177   -0.853400
     24          7           0       -9.330424    0.747315   -0.355842
     25          6           0       -9.963767    1.997847   -0.519820
     26          6           0      -11.391230    1.766652   -0.762354
     27          6           0      -11.563859    0.440269   -0.973729
     28          6           0      -10.196182   -0.182322   -0.741951
     29          6           0      -12.405716    2.818690   -0.782198
     30          6           0      -12.801269   -0.352658   -1.231621
     31          6           0      -13.046366   -0.614476   -2.827665
     32          7           0       -7.478016   -1.277445   -0.267692
     33          6           0       -8.579261   -2.132935   -0.580148
     34          6           0       -8.094201   -3.377435   -0.572670
     35          6           0       -6.723014   -3.373883   -0.324610
     36          6           0       -6.403868   -2.057458   -0.053553
     37          6           0       -8.972123   -4.618668   -0.848346
     38          6           0       -5.623940   -4.221583   -0.003485
     39          8           0       -5.543704   -5.453990   -0.054080
     40          6           0       -4.443061   -3.279719    0.426407
     41          6           0       -3.854905   -3.724001    1.705882
     42          8           0       -4.201588   -3.267041    2.764648
     43          8           0       -2.936826   -4.740318    1.482986
     44          6           0       -2.319108   -5.274683    2.635412
     45          6           0        2.678047   -1.076282   -1.413279
     46          6           0        4.005263   -0.768761   -0.725198
     47          6           0        5.078273    0.023542   -1.257974
     48          6           0        5.015489    0.834785   -2.523717
     49          6           0        6.279930    0.175729   -0.425149
     50          6           0        7.555533   -0.542283   -1.006254
     51          6           0        8.842842   -0.293171   -0.209664
     52          6           0       10.096868   -0.889110   -0.827423
     53          6           0        9.979010   -2.491305   -0.697458
     54          6           0       11.331594   -0.327404   -0.014005
     55          6           0       12.601951   -0.529915   -0.628413
     56          6           0       13.822906    0.053334    0.156913
     57          6           0       15.208152   -0.146562   -0.266005
     58          6           0       15.733014   -1.741477   -0.098021
     59          6           0       16.195881    0.897703    0.470098
     60          6           0       17.629538    0.745249    0.069939
     61          6           0       18.573921    1.766202    0.555850
     62          6           0       20.080655    1.663904    0.197177
     63          6           0       20.433079    1.776957   -1.366490
     64          6           0       20.765938    2.664696    1.192068
     65          1           0       -4.037681    3.589427    1.431567
     66          1           0      -10.026940    4.154285   -0.248619
     67          1           0      -10.708213   -2.196882   -1.084183
     68          1           0       -2.726946   -1.356035    2.065178
     69          1           0       -2.197091    1.414248    1.195805
     70          1           0       -1.993745    0.836149    3.658871
     71          1           0       -3.126167    2.441578    3.401811
     72          1           0       -3.693427    0.603921    3.988037
     73          1           0       -2.382569   -1.809398   -0.379769
     74          1           0       -2.106233   -0.175828   -0.806020
     75          1           0       -0.162583    0.130800    1.013834
     76          1           0       -0.466284   -1.434817    1.254305
     77          1           0       -4.339579    6.002720    0.663684
     78          1           0       -5.784988    6.806548    1.329792
     79          1           0       -4.785106    5.356094    2.253548
     80          1           0       -7.768273    7.041436    0.739660
     81          1           0       -9.233138    5.830715   -1.729263
     82          1           0       -9.336763    7.592099   -1.239367
     83          1           0      -12.418723    3.385451    0.203000
     84          1           0      -12.473627    3.529695   -1.638550
     85          1           0      -13.311893    2.379022   -0.829127
     86          1           0      -12.732557   -1.219231   -0.609877
     87          1           0      -13.548984    0.149710   -0.856774
     88          1           0      -13.031096    0.344102   -3.459101
     89          1           0      -12.067832   -1.133852   -3.361209
     90          1           0      -13.935774   -1.135401   -3.135615
     91          1           0       -9.901359   -4.981062   -0.384520
     92          1           0       -9.362225   -4.637699   -1.864316
     93          1           0       -8.344208   -5.583248   -0.905768
     94          1           0       -3.791747   -3.383112   -0.543177
     95          1           0       -1.671777   -5.932294    2.063582
     96          1           0       -1.685756   -4.566816    3.007415
     97          1           0       -2.897698   -5.859807    3.287125
     98          1           0        2.404241   -2.175876   -1.628292
     99          1           0        2.475445   -0.508129   -2.303128
    100          1           0        4.056903   -1.401282    0.192117
    101          1           0        5.605204    1.651033   -2.606831
    102          1           0        5.489879    0.200964   -3.351480
    103          1           0        4.021889    0.970522   -3.148196
    104          1           0        6.511996    1.336544   -0.308351
    105          1           0        6.198176   -0.282066    0.652465
    106          1           0        7.237695   -1.750547   -1.077036
    107          1           0        7.733037   -0.300149   -2.179254
    108          1           0        9.031529    0.784792   -0.145355
    109          1           0        8.611251   -0.620919    0.845732
    110          1           0       10.221616   -0.408564   -1.816476
    111          1           0        9.313562   -2.929727   -1.261220
    112          1           0       10.940234   -2.857655   -0.992383
    113          1           0       10.007391   -2.805392    0.324840
    114          1           0       10.969133    0.936909    0.136318
    115          1           0       11.287757   -0.852041    1.008535
    116          1           0       12.958875   -1.529201   -0.783737
    117          1           0       12.955553   -0.144987   -1.568061
    118          1           0       13.374167    1.234088    0.326836
    119          1           0       13.668514   -0.200906    1.250682
    120          1           0       15.238187   -0.070097   -1.527530
    121          1           0       15.315154   -2.476741   -0.774123
    122          1           0       16.735422   -1.897856   -0.500527
    123          1           0       15.659984   -1.986376    1.067904
    124          1           0       15.548024    1.778808    0.345552
    125          1           0       16.021347    0.872925    1.614585
    126          1           0       17.817606   -0.325812    0.484954
    127          1           0       17.497585    0.762838   -1.054695
    128          1           0       18.075569    2.763846    0.359409
    129          1           0       18.848408    1.697703    1.733841
    130          1           0       20.304519    0.507208    0.621743
    131          1           0       20.102436    2.782670   -1.749472
    132          1           0       21.395566    1.733310   -1.615950
    133          1           0       19.949309    0.894272   -2.056831
    134          1           0       20.650180    2.670959    2.479901
    135          1           0       21.886223    2.522817    1.060073
    136          1           0       20.665031    3.807103    0.775995
    137          1           0       -6.982966    1.815668    0.308234
    138          1           0       -7.412783   -0.248702    0.040815
 ---------------------------------------------------------------------
 Rotational constants (GHZ):      0.0650728      0.0061384      0.0057684
 Standard basis: SVP (5D, 7F)
 There are  1330 symmetry adapted cartesian basis functions of A   symmetry.
 There are  1266 symmetry adapted basis functions of A   symmetry.
  1266 basis functions,  2118 primitive gaussians,  1330 cartesian basis functions
   236 alpha electrons      236 beta electrons
       nuclear repulsion energy      8280.0794784107 Hartrees.
 NAtoms=  138 NActive=  138 NUniq=  138 SFac= 1.00D+00 NAtFMM=   60 NAOKFM=T Big=T
 Integral buffers will be    131072 words long.
 Regular integral format.
 Two-electron integral symmetry is turned on.
 One-electron integrals computed using PRISM.
 NBasis=  1266 RedAO= T EigKep=  2.41D-04  NBF=  1266
 NBsUse=  1266 1.00D-06 EigRej= -1.00D+00 NBFU=  1266
 ExpMin= 1.22D-01 ExpMax= 2.27D+03 ExpMxC= 3.41D+02 IAcc=1 IRadAn=         1 AccDes= 0.00D+00
 Harris functional with IExCor=  402 and IRadAn=       1 diagonalized for initial guess.
 HarFok:  IExCor=  402 AccDes= 0.00D+00 IRadAn=         1 IDoV= 1 UseB2=F ITyADJ=14
 ICtDFT=  3500011 ScaDFX=  1.000000  1.000000  1.000000  1.000000
 FoFCou: FMM=F IPFlag=           0 FMFlag=      100000 FMFlg1=        2001
         NFxFlg=           0 DoJE=T BraDBF=F KetDBF=T FulRan=T
         wScrn=  0.000000 ICntrl=     500 IOpCl=  0 I1Cent=   200000004 NGrid=           0
         NMat0=    1 NMatS0=      1 NMatT0=    0 NMatD0=    1 NMtDS0=    0 NMtDT0=    0
 Petite list used in FoFCou.
 Requested convergence on RMS density matrix=1.00D-08 within 128 cycles.
 Requested convergence on MAX density matrix=1.00D-06.
 Requested convergence on             energy=1.00D-06.
 No special actions if energy rises.
 Integral accuracy reduced to 1.0D-05 until final iterations.
 Initial convergence to 1.0D-05 achieved.  Increase integral accuracy.
 SCF Done:  E(RB3LYP) =  -2733.02306705     A.U. after   17 cycles
            NFock= 17  Conv=0.56D-08     -V/T= 2.0119
 DoSCS=F DFT=T ScalE2(SS,OS)=  1.000000  1.000000
 ExpMin= 1.22D-01 ExpMax= 2.27D+03 ExpMxC= 3.41D+02 IAcc=3 IRadAn=         5 AccDes= 0.00D+00
 HarFok:  IExCor=  205 AccDes= 0.00D+00 IRadAn=         5 IDoV=-2 UseB2=F ITyADJ=14
 ICtDFT= 12500011 ScaDFX=  1.000000  1.000000  1.000000  1.000000
 Range of M.O.s used for correlation:    65  1266
 NBasis=  1266 NAE=   236 NBE=   236 NFC=    64 NFV=     0
 NROrb=   1202 NOA=   172 NOB=   172 NVA=  1030 NVB=  1030

 **** Warning!!: The smallest alpha delta epsilon is  0.84962157D-01

 Would need an additional        965744300000 words for in-memory AO integral storage.
 Orbital symmetries:
       Occupied  (A) (A) (A) (A) (A) (A) (A) (A) (A) (A) (A) (A)
                 (A) (A) (A) (A) (A) (A) (A) (A) (A) (A) (A) (A)
                 (A) (A) (A) (A) (A) (A) (A) (A) (A) (A) (A) (A)
                 (A) (A) (A) (A) (A) (A) (A) (A) (A) (A) (A) (A)
                 (A) (A) (A) (A) (A) (A) (A) (A) (A) (A) (A) (A)
                 (A) (A) (A) (A) (A) (A) (A) (A) (A) (A) (A) (A)
                 (A) (A) (A) (A) (A) (A) (A) (A) (A) (A) (A) (A)
                 (A) (A) (A) (A) (A) (A) (A) (A) (A) (A) (A) (A)
                 (A) (A) (A) (A) (A) (A) (A) (A) (A) (A) (A) (A)
                 (A) (A) (A) (A) (A) (A) (A) (A) (A) (A) (A) (A)
                 (A) (A) (A) (A) (A) (A) (A) (A) (A) (A) (A) (A)
                 (A) (A) (A) (A) (A) (A) (A) (A) (A) (A) (A) (A)
                 (A) (A) (A) (A) (A) (A) (A) (A) (A) (A) (A) (A)
                 (A) (A) (A) (A) (A) (A) (A) (A) (A) (A) (A) (A)
                 (A) (A) (A) (A) (A) (A) (A) (A) (A) (A) (A) (A)
                 (A) (A) (A) (A) (A) (A) (A) (A) (A) (A) (A) (A)
                 (A) (A) (A) (A) (A) (A) (A) (A) (A) (A) (A) (A)
                 (A) (A) (A) (A) (A) (A) (A) (A) (A) (A) (A) (A)
                 (A) (A) (A) (A) (A) (A) (A) (A) (A) (A) (A) (A)
                 (A) (A) (A) (A) (A) (A) (A) (A)
       Virtual   (A) (A) (A) (A) (A) (A) (A) (A) (A) (A) (A) (A)
                 (A) (A) (A) (A) (A) (A) (A) (A) (A) (A) (A) (A)
                 (A) (A) (A) (A) (A) (A) (A) (A) (A) (A) (A) (A)
                 (A) (A) (A) (A) (A) (A) (A) (A) (A) (A) (A) (A)
                 (A) (A) (A) (A) (A) (A) (A) (A) (A) (A) (A) (A)
                 (A) (A) (A) (A) (A) (A) (A) (A) (A) (A) (A) (A)
                 (A) (A) (A) (A) (A) (A) (A) (A) (A) (A) (A) (A)
                 (A) (A) (A) (A) (A) (A) (A) (A) (A) (A) (A) (A)
                 (A) (A) (A) (A) (A) (A) (A) (A) (A) (A) (A) (A)
                 (A) (A) (A) (A) (A) (A) (A) (A) (A) (A) (A) (A)
                 (A) (A) (A) (A) (A) (A) (A) (A) (A) (A) (A) (A)
                 (A) (A) (A) (A) (A) (A) (A) (A) (A) (A) (A) (A)
                 (A) (A) (A) (A) (A) (A) (A) (A) (A) (A) (A) (A)
                 (A) (A) (A) (A) (A) (A) (A) (A) (A) (A) (A) (A)
                 (A) (A) (A) (A) (A) (A) (A) (A) (A) (A) (A) (A)
                 (A) (A) (A) (A) (A) (A) (A) (A) (A) (A) (A) (A)
                 (A) (A) (A) (A) (A) (A) (A) (A) (A) (A) (A) (A)
                 (A) (A) (A) (A) (A) (A) (A) (A) (A) (A) (A) (A)
                 (A) (A) (A) (A) (A) (A) (A) (A) (A) (A) (A) (A)
                 (A) (A) (A) (A) (A) (A) (A) (A) (A) (A) (A) (A)
                 (A) (A) (A) (A) (A) (A) (A) (A) (A) (A) (A) (A)
                 (A) (A) (A) (A) (A) (A) (A) (A) (A) (A) (A) (A)
                 (A) (A) (A) (A) (A) (A) (A) (A) (A) (A) (A) (A)
                 (A) (A) (A) (A) (A) (A) (A) (A) (A) (A) (A) (A)
                 (A) (A) (A) (A) (A) (A) (A) (A) (A) (A) (A) (A)
                 (A) (A) (A) (A) (A) (A) (A) (A) (A) (A) (A) (A)
                 (A) (A) (A) (A) (A) (A) (A) (A) (A) (A) (A) (A)
                 (A) (A) (A) (A) (A) (A) (A) (A) (A) (A) (A) (A)
                 (A) (A) (A) (A) (A) (A) (A) (A) (A) (A) (A) (A)
                 (A) (A) (A) (A) (A) (A) (A) (A) (A) (A) (A) (A)
                 (A) (A) (A) (A) (A) (A) (A) (A) (A) (A) (A) (A)
                 (A) (A) (A) (A) (A) (A) (A) (A) (A) (A) (A) (A)
                 (A) (A) (A) (A) (A) (A) (A) (A) (A) (A) (A) (A)
                 (A) (A) (A) (A) (A) (A) (A) (A) (A) (A) (A) (A)
                 (A) (A) (A) (A) (A) (A) (A) (A) (A) (A) (A) (A)
                 (A) (A) (A) (A) (A) (A) (A) (A) (A) (A) (A) (A)
                 (A) (A) (A) (A) (A) (A) (A) (A) (A) (A) (A) (A)
                 (A) (A) (A) (A) (A) (A) (A) (A) (A) (A) (A) (A)
                 (A) (A) (A) (A) (A) (A) (A) (A) (A) (A) (A) (A)
                 (A) (A) (A) (A) (A) (A) (A) (A) (A) (A) (A) (A)
                 (A) (A) (A) (A) (A) (A) (A) (A) (A) (A) (A) (A)
                 (A) (A) (A) (A) (A) (A) (A) (A) (A) (A) (A) (A)
                 (A) (A) (A) (A) (A) (A) (A) (A) (A) (A) (A) (A)
                 (A) (A) (A) (A) (A) (A) (A) (A) (A) (A) (A) (A)
                 (A) (A) (A) (A) (A) (A) (A) (A) (A) (A) (A) (A)
                 (A) (A) (A) (A) (A) (A) (A) (A) (A) (A) (A) (A)
                 (A) (A) (A) (A) (A) (A) (A) (A) (A) (A) (A) (A)
                 (A) (A) (A) (A) (A) (A) (A) (A) (A) (A) (A) (A)
                 (A) (A) (A) (A) (A) (A) (A) (A) (A) (A) (A) (A)
                 (A) (A) (A) (A) (A) (A) (A) (A) (A) (A) (A) (A)
                 (A) (A) (A) (A) (A) (A) (A) (A) (A) (A) (A) (A)
                 (A) (A) (A) (A) (A) (A) (A) (A) (A) (A) (A) (A)
                 (A) (A) (A) (A) (A) (A) (A) (A) (A) (A) (A) (A)
                 (A) (A) (A) (A) (A) (A) (A) (A) (A) (A) (A) (A)
                 (A) (A) (A) (A) (A) (A) (A) (A) (A) (A) (A) (A)
                 (A) (A) (A) (A) (A) (A) (A) (A) (A) (A) (A) (A)
                 (A) (A) (A) (A) (A) (A) (A) (A) (A) (A) (A) (A)
                 (A) (A) (A) (A) (A) (A) (A) (A) (A) (A) (A) (A)
                 (A) (A) (A) (A) (A) (A) (A) (A) (A) (A) (A) (A)
                 (A) (A) (A) (A) (A) (A) (A) (A) (A) (A) (A) (A)
                 (A) (A) (A) (A) (A) (A) (A) (A) (A) (A) (A) (A)
                 (A) (A) (A) (A) (A) (A) (A) (A) (A) (A) (A) (A)
                 (A) (A) (A) (A) (A) (A) (A) (A) (A) (A) (A) (A)
                 (A) (A) (A) (A) (A) (A) (A) (A) (A) (A) (A) (A)
                 (A) (A) (A) (A) (A) (A) (A) (A) (A) (A) (A) (A)
                 (A) (A) (A) (A) (A) (A) (A) (A) (A) (A) (A) (A)
                 (A) (A) (A) (A) (A) (A) (A) (A) (A) (A) (A) (A)
                 (A) (A) (A) (A) (A) (A) (A) (A) (A) (A) (A) (A)
                 (A) (A) (A) (A) (A) (A) (A) (A) (A) (A) (A) (A)
                 (A) (A) (A) (A) (A) (A) (A) (A) (A) (A) (A) (A)
                 (A) (A) (A) (A) (A) (A) (A) (A) (A) (A) (A) (A)
                 (A) (A) (A) (A) (A) (A) (A) (A) (A) (A) (A) (A)
                 (A) (A) (A) (A) (A) (A) (A) (A) (A) (A) (A) (A)
                 (A) (A) (A) (A) (A) (A) (A) (A) (A) (A) (A) (A)
                 (A) (A) (A) (A) (A) (A) (A) (A) (A) (A) (A) (A)
                 (A) (A) (A) (A) (A) (A) (A) (A) (A) (A) (A) (A)
                 (A) (A) (A) (A) (A) (A) (A) (A) (A) (A) (A) (A)
                 (A) (A) (A) (A) (A) (A) (A) (A) (A) (A) (A) (A)
                 (A) (A) (A) (A) (A) (A) (A) (A) (A) (A) (A) (A)
                 (A) (A) (A) (A) (A) (A) (A) (A) (A) (A) (A) (A)
                 (A) (A) (A) (A) (A) (A) (A) (A) (A) (A) (A) (A)
                 (A) (A) (A) (A) (A) (A) (A) (A) (A) (A) (A) (A)
                 (A) (A) (A) (A) (A) (A) (A) (A) (A) (A) (A) (A)
                 (A) (A) (A) (A) (A) (A) (A) (A) (A) (A) (A) (A)
                 (A) (A) (A) (A) (A) (A) (A) (A) (A) (A) (A) (A)
                 (A) (A) (A) (A) (A) (A) (A) (A) (A) (A)
     8 initial guesses have been made.
 Convergence on wavefunction:    0.001000000000000
 Iteration     1 Dimension     8 NMult     0 NNew      8
 CISAX will form     8 AO SS matrices at one time.
 Iteration     2 Dimension    12 NMult     8 NNew      4
 Iteration     3 Dimension    16 NMult    12 NNew      4
 Iteration     4 Dimension    20 NMult    16 NNew      4
 Iteration     5 Dimension    24 NMult    20 NNew      4
 Iteration     6 Dimension    28 NMult    24 NNew      4
 ***********************************************************************
 Excited states from <AA,BB:AA,BB> singles matrix:
 ***********************************************************************
 
 Ground to excited state transition densities written to RWF  633
 Ground to excited state transition electric dipole moments (Au):
       state          X           Y           Z        Dip. S.      Osc.
         1         0.3874     -1.8684     -0.0734      3.6464      0.1820
 Ground to excited state transition velocity dipole moments (Au):
       state          X           Y           Z        Dip. S.      Osc.
         1        -0.0284      0.1374      0.0055      0.0197      0.1755
 Ground to excited state transition magnetic dipole moments (Au):
       state          X           Y           Z
         1         0.1944      0.1627     -2.8445
 Ground to excited state transition velocity quadrupole moments (Au):
       state          XX          YY          ZZ          XY          XZ          YZ
         1         0.6792      0.2331      0.0230     -1.7866     -0.0250      0.0412
 <0|del|b> * <b|rxdel|0> + <0|del|b> * <b|delr+rdel|0>
 Rotatory Strengths (R) in cgs (10**-40 erg-esu-cm/Gauss)
       state          XX          YY          ZZ    R(velocity)    E-M Angle
         1         2.2649    -58.8788     68.7378      4.0413       89.82
 1/2[<0|r|b>*<b|rxdel|0> + (<0|rxdel|b>*<b|r|0>)*]
 Rotatory Strengths (R) in cgs (10**-40 erg-esu-cm/Gauss)
       state          XX          YY          ZZ     R(length)
         1       -53.2373    214.9311   -147.6220      4.6906
  1/2[<0|del|b>*<b|r|0> + (<0|r|b>*<b|del|0>)*] (Au)
       state          X           Y           Z        Dip. S.   Osc.(frdel)
         1        -0.0110     -0.2567     -0.0004      0.2681      0.1787

 Excitation energies and oscillator strengths:
 
 Excited State   1:      Singlet-A      2.0377 eV  608.46 nm  f=0.1820  <S**2>=0.000
     235 -> 237       -0.20335
     235 -> 238        0.29218
     236 -> 237        0.60170
 This state for optimization and/or second-order correction.
 Total Energy, E(TD-HF/TD-KS) =  -2732.94818399    
 Copying the excited state density for this state as the 1-particle RhoCI density.
 SavETr:  write IOETrn=   770 NScale= 10 NData=  16 NLR=1 NState=    1 LETran=      28.

 **********************************************************************

            Population analysis using the SCF density.

 **********************************************************************

 Orbital symmetries:
       Occupied  (A) (A) (A) (A) (A) (A) (A) (A) (A) (A) (A) (A)
                 (A) (A) (A) (A) (A) (A) (A) (A) (A) (A) (A) (A)
                 (A) (A) (A) (A) (A) (A) (A) (A) (A) (A) (A) (A)
                 (A) (A) (A) (A) (A) (A) (A) (A) (A) (A) (A) (A)
                 (A) (A) (A) (A) (A) (A) (A) (A) (A) (A) (A) (A)
                 (A) (A) (A) (A) (A) (A) (A) (A) (A) (A) (A) (A)
                 (A) (A) (A) (A) (A) (A) (A) (A) (A) (A) (A) (A)
                 (A) (A) (A) (A) (A) (A) (A) (A) (A) (A) (A) (A)
                 (A) (A) (A) (A) (A) (A) (A) (A) (A) (A) (A) (A)
                 (A) (A) (A) (A) (A) (A) (A) (A) (A) (A) (A) (A)
                 (A) (A) (A) (A) (A) (A) (A) (A) (A) (A) (A) (A)
                 (A) (A) (A) (A) (A) (A) (A) (A) (A) (A) (A) (A)
                 (A) (A) (A) (A) (A) (A) (A) (A) (A) (A) (A) (A)
                 (A) (A) (A) (A) (A) (A) (A) (A) (A) (A) (A) (A)
                 (A) (A) (A) (A) (A) (A) (A) (A) (A) (A) (A) (A)
                 (A) (A) (A) (A) (A) (A) (A) (A) (A) (A) (A) (A)
                 (A) (A) (A) (A) (A) (A) (A) (A) (A) (A) (A) (A)
                 (A) (A) (A) (A) (A) (A) (A) (A) (A) (A) (A) (A)
                 (A) (A) (A) (A) (A) (A) (A) (A) (A) (A) (A) (A)
                 (A) (A) (A) (A) (A) (A) (A) (A)
       Virtual   (A) (A) (A) (A) (A) (A) (A) (A) (A) (A) (A) (A)
                 (A) (A) (A) (A) (A) (A) (A) (A) (A) (A) (A) (A)
                 (A) (A) (A) (A) (A) (A) (A) (A) (A) (A) (A) (A)
                 (A) (A) (A) (A) (A) (A) (A) (A) (A) (A) (A) (A)
                 (A) (A) (A) (A) (A) (A) (A) (A) (A) (A) (A) (A)
                 (A) (A) (A) (A) (A) (A) (A) (A) (A) (A) (A) (A)
                 (A) (A) (A) (A) (A) (A) (A) (A) (A) (A) (A) (A)
                 (A) (A) (A) (A) (A) (A) (A) (A) (A) (A) (A) (A)
                 (A) (A) (A) (A) (A) (A) (A) (A) (A) (A) (A) (A)
                 (A) (A) (A) (A) (A) (A) (A) (A) (A) (A) (A) (A)
                 (A) (A) (A) (A) (A) (A) (A) (A) (A) (A) (A) (A)
                 (A) (A) (A) (A) (A) (A) (A) (A) (A) (A) (A) (A)
                 (A) (A) (A) (A) (A) (A) (A) (A) (A) (A) (A) (A)
                 (A) (A) (A) (A) (A) (A) (A) (A) (A) (A) (A) (A)
                 (A) (A) (A) (A) (A) (A) (A) (A) (A) (A) (A) (A)
                 (A) (A) (A) (A) (A) (A) (A) (A) (A) (A) (A) (A)
                 (A) (A) (A) (A) (A) (A) (A) (A) (A) (A) (A) (A)
                 (A) (A) (A) (A) (A) (A) (A) (A) (A) (A) (A) (A)
                 (A) (A) (A) (A) (A) (A) (A) (A) (A) (A) (A) (A)
                 (A) (A) (A) (A) (A) (A) (A) (A) (A) (A) (A) (A)
                 (A) (A) (A) (A) (A) (A) (A) (A) (A) (A) (A) (A)
                 (A) (A) (A) (A) (A) (A) (A) (A) (A) (A) (A) (A)
                 (A) (A) (A) (A) (A) (A) (A) (A) (A) (A) (A) (A)
                 (A) (A) (A) (A) (A) (A) (A) (A) (A) (A) (A) (A)
                 (A) (A) (A) (A) (A) (A) (A) (A) (A) (A) (A) (A)
                 (A) (A) (A) (A) (A) (A) (A) (A) (A) (A) (A) (A)
                 (A) (A) (A) (A) (A) (A) (A) (A) (A) (A) (A) (A)
                 (A) (A) (A) (A) (A) (A) (A) (A) (A) (A) (A) (A)
                 (A) (A) (A) (A) (A) (A) (A) (A) (A) (A) (A) (A)
                 (A) (A) (A) (A) (A) (A) (A) (A) (A) (A) (A) (A)
                 (A) (A) (A) (A) (A) (A) (A) (A) (A) (A) (A) (A)
                 (A) (A) (A) (A) (A) (A) (A) (A) (A) (A) (A) (A)
                 (A) (A) (A) (A) (A) (A) (A) (A) (A) (A) (A) (A)
                 (A) (A) (A) (A) (A) (A) (A) (A) (A) (A) (A) (A)
                 (A) (A) (A) (A) (A) (A) (A) (A) (A) (A) (A) (A)
                 (A) (A) (A) (A) (A) (A) (A) (A) (A) (A) (A) (A)
                 (A) (A) (A) (A) (A) (A) (A) (A) (A) (A) (A) (A)
                 (A) (A) (A) (A) (A) (A) (A) (A) (A) (A) (A) (A)
                 (A) (A) (A) (A) (A) (A) (A) (A) (A) (A) (A) (A)
                 (A) (A) (A) (A) (A) (A) (A) (A) (A) (A) (A) (A)
                 (A) (A) (A) (A) (A) (A) (A) (A) (A) (A) (A) (A)
                 (A) (A) (A) (A) (A) (A) (A) (A) (A) (A) (A) (A)
                 (A) (A) (A) (A) (A) (A) (A) (A) (A) (A) (A) (A)
                 (A) (A) (A) (A) (A) (A) (A) (A) (A) (A) (A) (A)
                 (A) (A) (A) (A) (A) (A) (A) (A) (A) (A) (A) (A)
                 (A) (A) (A) (A) (A) (A) (A) (A) (A) (A) (A) (A)
                 (A) (A) (A) (A) (A) (A) (A) (A) (A) (A) (A) (A)
                 (A) (A) (A) (A) (A) (A) (A) (A) (A) (A) (A) (A)
                 (A) (A) (A) (A) (A) (A) (A) (A) (A) (A) (A) (A)
                 (A) (A) (A) (A) (A) (A) (A) (A) (A) (A) (A) (A)
                 (A) (A) (A) (A) (A) (A) (A) (A) (A) (A) (A) (A)
                 (A) (A) (A) (A) (A) (A) (A) (A) (A) (A) (A) (A)
                 (A) (A) (A) (A) (A) (A) (A) (A) (A) (A) (A) (A)
                 (A) (A) (A) (A) (A) (A) (A) (A) (A) (A) (A) (A)
                 (A) (A) (A) (A) (A) (A) (A) (A) (A) (A) (A) (A)
                 (A) (A) (A) (A) (A) (A) (A) (A) (A) (A) (A) (A)
                 (A) (A) (A) (A) (A) (A) (A) (A) (A) (A) (A) (A)
                 (A) (A) (A) (A) (A) (A) (A) (A) (A) (A) (A) (A)
                 (A) (A) (A) (A) (A) (A) (A) (A) (A) (A) (A) (A)
                 (A) (A) (A) (A) (A) (A) (A) (A) (A) (A) (A) (A)
                 (A) (A) (A) (A) (A) (A) (A) (A) (A) (A) (A) (A)
                 (A) (A) (A) (A) (A) (A) (A) (A) (A) (A) (A) (A)
                 (A) (A) (A) (A) (A) (A) (A) (A) (A) (A) (A) (A)
                 (A) (A) (A) (A) (A) (A) (A) (A) (A) (A) (A) (A)
                 (A) (A) (A) (A) (A) (A) (A) (A) (A) (A) (A) (A)
                 (A) (A) (A) (A) (A) (A) (A) (A) (A) (A) (A) (A)
                 (A) (A) (A) (A) (A) (A) (A) (A) (A) (A) (A) (A)
                 (A) (A) (A) (A) (A) (A) (A) (A) (A) (A) (A) (A)
                 (A) (A) (A) (A) (A) (A) (A) (A) (A) (A) (A) (A)
                 (A) (A) (A) (A) (A) (A) (A) (A) (A) (A) (A) (A)
                 (A) (A) (A) (A) (A) (A) (A) (A) (A) (A) (A) (A)
                 (A) (A) (A) (A) (A) (A) (A) (A) (A) (A) (A) (A)
                 (A) (A) (A) (A) (A) (A) (A) (A) (A) (A) (A) (A)
                 (A) (A) (A) (A) (A) (A) (A) (A) (A) (A) (A) (A)
                 (A) (A) (A) (A) (A) (A) (A) (A) (A) (A) (A) (A)
                 (A) (A) (A) (A) (A) (A) (A) (A) (A) (A) (A) (A)
                 (A) (A) (A) (A) (A) (A) (A) (A) (A) (A) (A) (A)
                 (A) (A) (A) (A) (A) (A) (A) (A) (A) (A) (A) (A)
                 (A) (A) (A) (A) (A) (A) (A) (A) (A) (A) (A) (A)
                 (A) (A) (A) (A) (A) (A) (A) (A) (A) (A) (A) (A)
                 (A) (A) (A) (A) (A) (A) (A) (A) (A) (A) (A) (A)
                 (A) (A) (A) (A) (A) (A) (A) (A) (A) (A) (A) (A)
                 (A) (A) (A) (A) (A) (A) (A) (A) (A) (A) (A) (A)
                 (A) (A) (A) (A) (A) (A) (A) (A) (A) (A) (A) (A)
                 (A) (A) (A) (A) (A) (A) (A) (A) (A) (A) (A) (A)
                 (A) (A) (A) (A) (A) (A) (A) (A) (A) (A)
 The electronic state is 1-A.
 Alpha  occ. eigenvalues --  -19.17397 -19.17345 -19.13041 -19.11394 -19.11114
 Alpha  occ. eigenvalues --  -14.36689 -14.36123 -14.32898 -14.29558 -10.31696
 Alpha  occ. eigenvalues --  -10.30880 -10.26999 -10.25191 -10.24202 -10.23894
 Alpha  occ. eigenvalues --  -10.23368 -10.23122 -10.23119 -10.22866 -10.22095
 Alpha  occ. eigenvalues --  -10.21940 -10.21855 -10.21699 -10.21247 -10.21227
 Alpha  occ. eigenvalues --  -10.21209 -10.21201 -10.21147 -10.21101 -10.21034
 Alpha  occ. eigenvalues --  -10.20956 -10.20936 -10.20924 -10.20898 -10.20779
 Alpha  occ. eigenvalues --  -10.20764 -10.20731 -10.20663 -10.20634 -10.20634
 Alpha  occ. eigenvalues --  -10.20520 -10.20194 -10.20189 -10.20150 -10.20146
 Alpha  occ. eigenvalues --  -10.20141 -10.19789 -10.19499 -10.19348 -10.19280
 Alpha  occ. eigenvalues --  -10.19234 -10.19204 -10.18958 -10.18822 -10.18814
 Alpha  occ. eigenvalues --  -10.18680 -10.18643 -10.18531 -10.18361 -10.18210
 Alpha  occ. eigenvalues --  -10.18108 -10.17772 -10.17551 -10.16871  -1.09098
 Alpha  occ. eigenvalues --   -1.08694  -1.01506  -1.00680  -0.99746  -0.99353
 Alpha  occ. eigenvalues --   -0.97895  -0.93655  -0.92810  -0.85666  -0.82347
 Alpha  occ. eigenvalues --   -0.81854  -0.81563  -0.81071  -0.80770  -0.80569
 Alpha  occ. eigenvalues --   -0.79969  -0.79732  -0.78905  -0.78469  -0.77343
 Alpha  occ. eigenvalues --   -0.76332  -0.76190  -0.76079  -0.74943  -0.74439
 Alpha  occ. eigenvalues --   -0.73577  -0.73073  -0.72419  -0.71649  -0.70761
 Alpha  occ. eigenvalues --   -0.69763  -0.69091  -0.68903  -0.68026  -0.67879
 Alpha  occ. eigenvalues --   -0.67703  -0.67212  -0.66424  -0.66099  -0.64716
 Alpha  occ. eigenvalues --   -0.64087  -0.62881  -0.62483  -0.62071  -0.61690
 Alpha  occ. eigenvalues --   -0.60977  -0.58811  -0.58194  -0.57498  -0.57025
 Alpha  occ. eigenvalues --   -0.56510  -0.56247  -0.55794  -0.55606  -0.55414
 Alpha  occ. eigenvalues --   -0.55093  -0.54207  -0.53917  -0.53701  -0.53291
 Alpha  occ. eigenvalues --   -0.53163  -0.52463  -0.51688  -0.51527  -0.50812
 Alpha  occ. eigenvalues --   -0.49694  -0.49580  -0.49263  -0.48725  -0.47930
 Alpha  occ. eigenvalues --   -0.47803  -0.47592  -0.47239  -0.47071  -0.46646
 Alpha  occ. eigenvalues --   -0.46148  -0.46073  -0.45825  -0.45709  -0.45454
 Alpha  occ. eigenvalues --   -0.45306  -0.44959  -0.44825  -0.44539  -0.44419
 Alpha  occ. eigenvalues --   -0.44319  -0.44213  -0.43861  -0.43632  -0.43346
 Alpha  occ. eigenvalues --   -0.43263  -0.43119  -0.43004  -0.42654  -0.42545
 Alpha  occ. eigenvalues --   -0.42391  -0.42274  -0.41917  -0.41659  -0.41448
 Alpha  occ. eigenvalues --   -0.41287  -0.41056  -0.40861  -0.39966  -0.39753
 Alpha  occ. eigenvalues --   -0.39651  -0.39536  -0.39439  -0.39068  -0.39003
 Alpha  occ. eigenvalues --   -0.38760  -0.38575  -0.38493  -0.38103  -0.38006
 Alpha  occ. eigenvalues --   -0.37974  -0.37857  -0.37687  -0.37631  -0.37464
 Alpha  occ. eigenvalues --   -0.37382  -0.37283  -0.37074  -0.37008  -0.36707
 Alpha  occ. eigenvalues --   -0.36501  -0.36205  -0.36001  -0.35867  -0.35574
 Alpha  occ. eigenvalues --   -0.35413  -0.35198  -0.35065  -0.34920  -0.34826
 Alpha  occ. eigenvalues --   -0.34698  -0.34541  -0.34407  -0.34163  -0.33874
 Alpha  occ. eigenvalues --   -0.33522  -0.33510  -0.32994  -0.32506  -0.32462
 Alpha  occ. eigenvalues --   -0.31925  -0.31754  -0.31477  -0.31154  -0.31006
 Alpha  occ. eigenvalues --   -0.30858  -0.30820  -0.30500  -0.30401  -0.30132
 Alpha  occ. eigenvalues --   -0.29459  -0.28949  -0.28547  -0.27941  -0.27850
 Alpha  occ. eigenvalues --   -0.27550  -0.27079  -0.26326  -0.25792  -0.25770
 Alpha  occ. eigenvalues --   -0.24211  -0.23972  -0.23704  -0.22820  -0.19390
 Alpha  occ. eigenvalues --   -0.19100
 Alpha virt. eigenvalues --   -0.10604  -0.07095  -0.04244  -0.02171  -0.01650
 Alpha virt. eigenvalues --   -0.00570   0.00651   0.00720   0.01933   0.03323
 Alpha virt. eigenvalues --    0.03346   0.03740   0.04358   0.04456   0.04599
 Alpha virt. eigenvalues --    0.05093   0.05182   0.05313   0.05824   0.06253
 Alpha virt. eigenvalues --    0.06343   0.06530   0.06675   0.06713   0.06966
 Alpha virt. eigenvalues --    0.07194   0.07238   0.07469   0.07670   0.07898
 Alpha virt. eigenvalues --    0.07978   0.08408   0.08493   0.08605   0.08759
 Alpha virt. eigenvalues --    0.08967   0.09218   0.09385   0.09650   0.09682
 Alpha virt. eigenvalues --    0.09869   0.09916   0.10493   0.10723   0.10922
 Alpha virt. eigenvalues --    0.11056   0.11203   0.11341   0.11415   0.11472
 Alpha virt. eigenvalues --    0.11637   0.11731   0.11975   0.12086   0.12162
 Alpha virt. eigenvalues --    0.12372   0.12449   0.12475   0.12546   0.12896
 Alpha virt. eigenvalues --    0.12960   0.13199   0.13264   0.13476   0.13643
 Alpha virt. eigenvalues --    0.13724   0.13787   0.13988   0.14029   0.14142
 Alpha virt. eigenvalues --    0.14359   0.14708   0.14938   0.15197   0.15338
 Alpha virt. eigenvalues --    0.15580   0.15785   0.15913   0.16127   0.16196
 Alpha virt. eigenvalues --    0.16726   0.16847   0.17074   0.17388   0.17504
 Alpha virt. eigenvalues --    0.17748   0.17935   0.18050   0.18179   0.18320
 Alpha virt. eigenvalues --    0.18493   0.18883   0.19190   0.19428   0.19793
 Alpha virt. eigenvalues --    0.20036   0.20241   0.20395   0.20431   0.20560
 Alpha virt. eigenvalues --    0.20690   0.20889   0.21160   0.21757   0.21895
 Alpha virt. eigenvalues --    0.21956   0.22389   0.22575   0.22735   0.22984
 Alpha virt. eigenvalues --    0.23509   0.23643   0.24013   0.24153   0.24191
 Alpha virt. eigenvalues --    0.24629   0.24985   0.25244   0.25455   0.25600
 Alpha virt. eigenvalues --    0.25928   0.26135   0.26241   0.26834   0.27427
 Alpha virt. eigenvalues --    0.27830   0.28409   0.28933   0.29256   0.29305
 Alpha virt. eigenvalues --    0.29435   0.30280   0.30616   0.31470   0.31801
 Alpha virt. eigenvalues --    0.31906   0.32924   0.33183   0.33488   0.33785
 Alpha virt. eigenvalues --    0.33818   0.33936   0.34573   0.34619   0.35403
 Alpha virt. eigenvalues --    0.35490   0.35951   0.36214   0.36317   0.37186
 Alpha virt. eigenvalues --    0.37665   0.38048   0.38307   0.38423   0.38659
 Alpha virt. eigenvalues --    0.38862   0.39097   0.39300   0.39615   0.39709
 Alpha virt. eigenvalues --    0.39960   0.40064   0.40634   0.40761   0.40832
 Alpha virt. eigenvalues --    0.40950   0.41271   0.41455   0.41565   0.41692
 Alpha virt. eigenvalues --    0.41790   0.42054   0.42187   0.42347   0.42680
 Alpha virt. eigenvalues --    0.42787   0.42980   0.43355   0.43488   0.44032
 Alpha virt. eigenvalues --    0.44256   0.44465   0.44679   0.45018   0.45101
 Alpha virt. eigenvalues --    0.45600   0.45787   0.45985   0.46242   0.46838
 Alpha virt. eigenvalues --    0.46959   0.47234   0.47418   0.47664   0.47840
 Alpha virt. eigenvalues --    0.48078   0.48418   0.48891   0.49061   0.49274
 Alpha virt. eigenvalues --    0.49326   0.49715   0.49734   0.49910   0.50268
 Alpha virt. eigenvalues --    0.50394   0.50581   0.51089   0.51265   0.51729
 Alpha virt. eigenvalues --    0.51994   0.52113   0.52412   0.52547   0.52702
 Alpha virt. eigenvalues --    0.52901   0.53031   0.53253   0.53733   0.54317
 Alpha virt. eigenvalues --    0.54384   0.54625   0.54736   0.54861   0.55151
 Alpha virt. eigenvalues --    0.55259   0.55364   0.55683   0.55775   0.56248
 Alpha virt. eigenvalues --    0.56503   0.56605   0.56771   0.56943   0.57594
 Alpha virt. eigenvalues --    0.57804   0.57919   0.58086   0.58138   0.58298
 Alpha virt. eigenvalues --    0.58644   0.58716   0.58844   0.59006   0.59313
 Alpha virt. eigenvalues --    0.59444   0.59534   0.59850   0.59867   0.59910
 Alpha virt. eigenvalues --    0.60202   0.60275   0.60446   0.60512   0.60738
 Alpha virt. eigenvalues --    0.60868   0.61328   0.61546   0.61991   0.62192
 Alpha virt. eigenvalues --    0.62209   0.62275   0.62309   0.62384   0.62441
 Alpha virt. eigenvalues --    0.62751   0.62861   0.63133   0.63222   0.63480
 Alpha virt. eigenvalues --    0.63553   0.63721   0.63923   0.63945   0.64016
 Alpha virt. eigenvalues --    0.64183   0.64376   0.64469   0.64512   0.64776
 Alpha virt. eigenvalues --    0.64833   0.64981   0.65193   0.65257   0.65337
 Alpha virt. eigenvalues --    0.65400   0.65450   0.65552   0.65925   0.66060
 Alpha virt. eigenvalues --    0.66131   0.66216   0.66318   0.66483   0.66663
 Alpha virt. eigenvalues --    0.66678   0.66819   0.67021   0.67106   0.67289
 Alpha virt. eigenvalues --    0.67391   0.67569   0.67647   0.67678   0.67839
 Alpha virt. eigenvalues --    0.67987   0.68010   0.68030   0.68230   0.68501
 Alpha virt. eigenvalues --    0.68678   0.68831   0.68935   0.69040   0.69180
 Alpha virt. eigenvalues --    0.69299   0.69460   0.69633   0.69839   0.69933
 Alpha virt. eigenvalues --    0.70155   0.70201   0.70241   0.70351   0.70524
 Alpha virt. eigenvalues --    0.70694   0.70916   0.70928   0.71384   0.71544
 Alpha virt. eigenvalues --    0.71699   0.71838   0.71906   0.71969   0.72117
 Alpha virt. eigenvalues --    0.72366   0.72427   0.72629   0.72789   0.72948
 Alpha virt. eigenvalues --    0.73237   0.73384   0.73600   0.73857   0.74062
 Alpha virt. eigenvalues --    0.74346   0.74506   0.74842   0.75140   0.75328
 Alpha virt. eigenvalues --    0.75529   0.75842   0.75933   0.75988   0.76258
 Alpha virt. eigenvalues --    0.76408   0.76698   0.76932   0.76996   0.77324
 Alpha virt. eigenvalues --    0.77573   0.78000   0.78276   0.78410   0.78902
 Alpha virt. eigenvalues --    0.79223   0.79341   0.79616   0.79752   0.80183
 Alpha virt. eigenvalues --    0.80352   0.80987   0.81212   0.81359   0.81416
 Alpha virt. eigenvalues --    0.82040   0.82233   0.82429   0.82628   0.82917
 Alpha virt. eigenvalues --    0.83820   0.83956   0.84144   0.85084   0.85383
 Alpha virt. eigenvalues --    0.85618   0.86404   0.86443   0.86744   0.86974
 Alpha virt. eigenvalues --    0.88370   0.88461   0.89236   0.90231   0.90754
 Alpha virt. eigenvalues --    0.90843   0.91476   0.91878   0.92093   0.92791
 Alpha virt. eigenvalues --    0.93344   0.93892   0.94401   0.94519   0.94815
 Alpha virt. eigenvalues --    0.95401   0.95676   0.96748   0.96770   0.97002
 Alpha virt. eigenvalues --    0.97538   0.97812   0.98512   0.99112   0.99206
 Alpha virt. eigenvalues --    0.99847   0.99950   1.00171   1.00264   1.01132
 Alpha virt. eigenvalues --    1.01472   1.01584   1.01961   1.02750   1.02930
 Alpha virt. eigenvalues --    1.03618   1.03828   1.04422   1.04836   1.05032
 Alpha virt. eigenvalues --    1.05188   1.05543   1.06247   1.06624   1.06978
 Alpha virt. eigenvalues --    1.07550   1.08114   1.08307   1.08864   1.09654
 Alpha virt. eigenvalues --    1.10152   1.10619   1.10690   1.10993   1.11262
 Alpha virt. eigenvalues --    1.11492   1.12018   1.13098   1.13404   1.14013
 Alpha virt. eigenvalues --    1.14355   1.14507   1.14922   1.15597   1.15945
 Alpha virt. eigenvalues --    1.16496   1.16826   1.17452   1.17600   1.18034
 Alpha virt. eigenvalues --    1.18670   1.19140   1.19880   1.20085   1.20723
 Alpha virt. eigenvalues --    1.21108   1.21437   1.21548   1.22122   1.22333
 Alpha virt. eigenvalues --    1.22600   1.22869   1.23401   1.23470   1.23799
 Alpha virt. eigenvalues --    1.24688   1.24973   1.25077   1.25318   1.25778
 Alpha virt. eigenvalues --    1.26242   1.26593   1.26970   1.27241   1.27712
 Alpha virt. eigenvalues --    1.28161   1.28362   1.28770   1.29317   1.29356
 Alpha virt. eigenvalues --    1.29648   1.29929   1.30663   1.30678   1.31174
 Alpha virt. eigenvalues --    1.31402   1.32042   1.32865   1.33084   1.33784
 Alpha virt. eigenvalues --    1.33957   1.34556   1.34908   1.35459   1.35726
 Alpha virt. eigenvalues --    1.35987   1.36631   1.36983   1.37743   1.37866
 Alpha virt. eigenvalues --    1.38720   1.38754   1.39713   1.40274   1.40434
 Alpha virt. eigenvalues --    1.41299   1.41769   1.42278   1.42359   1.43167
 Alpha virt. eigenvalues --    1.43780   1.44503   1.45221   1.45318   1.45563
 Alpha virt. eigenvalues --    1.45666   1.46713   1.47232   1.47731   1.47931
 Alpha virt. eigenvalues --    1.48379   1.49156   1.49382   1.49836   1.50239
 Alpha virt. eigenvalues --    1.50777   1.51270   1.51447   1.51517   1.52011
 Alpha virt. eigenvalues --    1.52195   1.52377   1.52754   1.52834   1.53065
 Alpha virt. eigenvalues --    1.53098   1.53649   1.53878   1.54294   1.54560
 Alpha virt. eigenvalues --    1.54827   1.55128   1.55674   1.56097   1.56559
 Alpha virt. eigenvalues --    1.56882   1.57002   1.57062   1.57471   1.57783
 Alpha virt. eigenvalues --    1.58088   1.58562   1.59621   1.60134   1.60584
 Alpha virt. eigenvalues --    1.60871   1.61304   1.61524   1.61786   1.62002
 Alpha virt. eigenvalues --    1.62314   1.62728   1.62741   1.62906   1.63152
 Alpha virt. eigenvalues --    1.63827   1.64348   1.64961   1.65193   1.65366
 Alpha virt. eigenvalues --    1.65484   1.66414   1.66476   1.66735   1.66785
 Alpha virt. eigenvalues --    1.67020   1.67395   1.67429   1.67726   1.68369
 Alpha virt. eigenvalues --    1.68466   1.68623   1.68724   1.69176   1.69741
 Alpha virt. eigenvalues --    1.69771   1.70259   1.70460   1.70762   1.70839
 Alpha virt. eigenvalues --    1.70936   1.71327   1.71381   1.71670   1.71764
 Alpha virt. eigenvalues --    1.71945   1.72155   1.72203   1.72846   1.72935
 Alpha virt. eigenvalues --    1.72955   1.73126   1.73558   1.73685   1.73930
 Alpha virt. eigenvalues --    1.74268   1.74538   1.74696   1.75089   1.75114
 Alpha virt. eigenvalues --    1.75215   1.75546   1.75782   1.75947   1.76187
 Alpha virt. eigenvalues --    1.76415   1.76583   1.76782   1.76885   1.77030
 Alpha virt. eigenvalues --    1.77464   1.77635   1.77719   1.77925   1.78307
 Alpha virt. eigenvalues --    1.78473   1.78911   1.78992   1.79227   1.79434
 Alpha virt. eigenvalues --    1.79606   1.79862   1.80045   1.80423   1.80544
 Alpha virt. eigenvalues --    1.81048   1.81203   1.81297   1.81549   1.81855
 Alpha virt. eigenvalues --    1.81904   1.82054   1.82314   1.82830   1.82984
 Alpha virt. eigenvalues --    1.83297   1.83381   1.83523   1.83798   1.84184
 Alpha virt. eigenvalues --    1.84209   1.84289   1.84608   1.85176   1.85339
 Alpha virt. eigenvalues --    1.85583   1.85894   1.86166   1.86207   1.86455
 Alpha virt. eigenvalues --    1.86487   1.86865   1.87020   1.87143   1.87537
 Alpha virt. eigenvalues --    1.87820   1.88048   1.88103   1.88253   1.88446
 Alpha virt. eigenvalues --    1.88744   1.89112   1.89175   1.89248   1.89444
 Alpha virt. eigenvalues --    1.89531   1.89834   1.90162   1.90638   1.90764
 Alpha virt. eigenvalues --    1.90874   1.90936   1.91377   1.91687   1.92040
 Alpha virt. eigenvalues --    1.92256   1.92428   1.92564   1.93040   1.93472
 Alpha virt. eigenvalues --    1.93852   1.93961   1.94284   1.94416   1.94831
 Alpha virt. eigenvalues --    1.94983   1.95452   1.95742   1.95807   1.96004
 Alpha virt. eigenvalues --    1.96055   1.96385   1.96485   1.96628   1.97151
 Alpha virt. eigenvalues --    1.97704   1.97816   1.98417   1.98663   1.98958
 Alpha virt. eigenvalues --    1.99286   1.99474   1.99571   1.99940   2.00155
 Alpha virt. eigenvalues --    2.00318   2.00379   2.00892   2.00981   2.01198
 Alpha virt. eigenvalues --    2.01584   2.01761   2.02431   2.02583   2.03087
 Alpha virt. eigenvalues --    2.03199   2.03337   2.03816   2.04473   2.05281
 Alpha virt. eigenvalues --    2.05392   2.05856   2.06002   2.06258   2.06457
 Alpha virt. eigenvalues --    2.06571   2.06768   2.06934   2.07230   2.07544
 Alpha virt. eigenvalues --    2.07696   2.08123   2.08623   2.08891   2.09570
 Alpha virt. eigenvalues --    2.09875   2.10255   2.10838   2.11587   2.11641
 Alpha virt. eigenvalues --    2.11874   2.12598   2.12825   2.13175   2.13395
 Alpha virt. eigenvalues --    2.13624   2.14257   2.15114   2.15236   2.15565
 Alpha virt. eigenvalues --    2.15880   2.16408   2.16614   2.16754   2.16977
 Alpha virt. eigenvalues --    2.17973   2.18004   2.18684   2.19299   2.19420
 Alpha virt. eigenvalues --    2.19609   2.20203   2.20432   2.20820   2.21540
 Alpha virt. eigenvalues --    2.22002   2.22555   2.22863   2.22972   2.23400
 Alpha virt. eigenvalues --    2.23489   2.23944   2.24358   2.25541   2.25754
 Alpha virt. eigenvalues --    2.26000   2.26413   2.26542   2.27050   2.27362
 Alpha virt. eigenvalues --    2.27516   2.27894   2.28590   2.28779   2.29293
 Alpha virt. eigenvalues --    2.29493   2.30129   2.30214   2.30909   2.31067
 Alpha virt. eigenvalues --    2.31514   2.31994   2.32066   2.32124   2.32751
 Alpha virt. eigenvalues --    2.32853   2.33174   2.33284   2.34265   2.34551
 Alpha virt. eigenvalues --    2.34807   2.35273   2.35310   2.35663   2.35954
 Alpha virt. eigenvalues --    2.36033   2.36225   2.36813   2.37643   2.37905
 Alpha virt. eigenvalues --    2.38219   2.38400   2.38554   2.38831   2.39158
 Alpha virt. eigenvalues --    2.39597   2.40117   2.40675   2.41703   2.41830
 Alpha virt. eigenvalues --    2.42016   2.42451   2.42635   2.43399   2.43581
 Alpha virt. eigenvalues --    2.43715   2.44580   2.44710   2.44998   2.45191
 Alpha virt. eigenvalues --    2.45352   2.45675   2.46117   2.46801   2.47113
 Alpha virt. eigenvalues --    2.47497   2.47711   2.47969   2.48111   2.49024
 Alpha virt. eigenvalues --    2.49467   2.49682   2.49986   2.50301   2.50510
 Alpha virt. eigenvalues --    2.51215   2.51228   2.51886   2.52290   2.52890
 Alpha virt. eigenvalues --    2.53164   2.53772   2.53925   2.54723   2.54995
 Alpha virt. eigenvalues --    2.56102   2.56831   2.57036   2.57467   2.57677
 Alpha virt. eigenvalues --    2.57987   2.58847   2.58975   2.59237   2.59513
 Alpha virt. eigenvalues --    2.59928   2.59979   2.60156   2.61503   2.62078
 Alpha virt. eigenvalues --    2.62684   2.62892   2.63053   2.63506   2.63999
 Alpha virt. eigenvalues --    2.64404   2.65091   2.65201   2.65449   2.65871
 Alpha virt. eigenvalues --    2.65903   2.66907   2.67501   2.68946   2.69604
 Alpha virt. eigenvalues --    2.70032   2.70262   2.70837   2.71502   2.71944
 Alpha virt. eigenvalues --    2.72009   2.72442   2.72824   2.73333   2.73754
 Alpha virt. eigenvalues --    2.73998   2.74564   2.75187   2.75393   2.75809
 Alpha virt. eigenvalues --    2.76181   2.76650   2.77294   2.77527   2.77812
 Alpha virt. eigenvalues --    2.78358   2.78373   2.79112   2.79374   2.79918
 Alpha virt. eigenvalues --    2.80130   2.80205   2.80857   2.81279   2.82251
 Alpha virt. eigenvalues --    2.82819   2.82938   2.83594   2.83731   2.84082
 Alpha virt. eigenvalues --    2.84307   2.84704   2.85588   2.86432   2.86847
 Alpha virt. eigenvalues --    2.87001   2.87103   2.87591   2.88266   2.88399
 Alpha virt. eigenvalues --    2.88575   2.88926   2.89225   2.89556   2.89853
 Alpha virt. eigenvalues --    2.90160   2.90883   2.91434   2.92186   2.92358
 Alpha virt. eigenvalues --    2.92957   2.93106   2.93271   2.93770   2.93872
 Alpha virt. eigenvalues --    2.95329   2.95727   2.96187   2.96273   2.97227
 Alpha virt. eigenvalues --    2.97635   2.97842   2.98750   2.99724   2.99813
 Alpha virt. eigenvalues --    3.00372   3.00917   3.01851   3.02169   3.02754
 Alpha virt. eigenvalues --    3.03176   3.03243   3.04093   3.04833   3.05315
 Alpha virt. eigenvalues --    3.05744   3.06192   3.06419   3.06753   3.07394
 Alpha virt. eigenvalues --    3.08137   3.08626   3.09363   3.10522   3.10972
 Alpha virt. eigenvalues --    3.12668   3.13759   3.14425   3.14725   3.15803
 Alpha virt. eigenvalues --    3.16118   3.17247   3.17595   3.19552   3.19985
 Alpha virt. eigenvalues --    3.20511   3.20686   3.20852   3.21366   3.22272
 Alpha virt. eigenvalues --    3.22786   3.24703   3.26438   3.27350   3.33739
 Alpha virt. eigenvalues --    3.34472   3.39373   3.40804   3.41943   3.42197
 Alpha virt. eigenvalues --    3.47059   3.52617   3.54113   3.56636   3.61986
 Alpha virt. eigenvalues --    3.63289   3.64324   3.65635   3.66444   3.68621
          Condensed to atoms (all electrons):
 Mulliken charges:
               1
     1  C   -0.109345
     2  C   -0.056479
     3  C   -0.079558
     4  C   -0.072281
     5  N   -0.226993
     6  C   -0.029650
     7  C    0.013663
     8  C   -0.022240
     9  C    0.054777
    10  C    0.005258
    11  C   -0.066885
    12  C    0.138638
    13  C    0.151843
    14  O   -0.246373
    15  O   -0.316696
    16  N    0.017000
    17  C    0.014779
    18  C   -0.159006
    19  C   -0.019008
    20  C    0.031368
    21  C    0.114921
    22  C    0.018478
    23  C   -0.090187
    24  N   -0.234398
    25  C    0.116703
    26  C   -0.137946
    27  C   -0.118271
    28  C    0.055532
    29  C    0.156206
    30  C    0.199978
    31  C   -0.054279
    32  N   -0.086063
    33  C    0.113172
    34  C   -0.094413
    35  C    0.024905
    36  C    0.106195
    37  C    0.050132
    38  C    0.003028
    39  O   -0.191229
    40  C   -0.010481
    41  C    0.238587
    42  O   -0.212620
    43  O   -0.329135
    44  C    0.258734
    45  C    0.247730
    46  C   -0.098351
    47  C   -0.072132
    48  C    0.083952
    49  C    0.025046
    50  C   -0.098145
    51  C    0.068949
    52  C   -0.068314
    53  C    0.145234
    54  C   -0.031855
    55  C    0.134956
    56  C   -0.085742
    57  C   -0.099422
    58  C   -0.012493
    59  C   -0.016558
    60  C    0.093607
    61  C   -0.004354
    62  C   -0.118425
    63  C    0.040069
    64  C   -0.072100
    65  H   -0.040011
    66  H    0.005096
    67  H   -0.018188
    68  H    0.018752
    69  H    0.022807
    70  H    0.014287
    71  H    0.039138
    72  H    0.038165
    73  H    0.028963
    74  H    0.012067
    75  H    0.004080
    76  H   -0.010804
    77  H    0.031858
    78  H    0.009867
    79  H    0.052256
    80  H   -0.007583
    81  H    0.046758
    82  H    0.038956
    83  H    0.022460
    84  H    0.023658
    85  H   -0.050602
    86  H   -0.004653
    87  H   -0.059105
    88  H    0.018910
    89  H    0.026826
    90  H    0.021877
    91  H    0.021781
    92  H    0.002522
    93  H    0.032463
    94  H    0.087459
    95  H    0.013943
    96  H   -0.010721
    97  H    0.032035
    98  H    0.051017
    99  H    0.002128
   100  H    0.006589
   101  H   -0.012969
   102  H    0.021195
   103  H    0.034755
   104  H    0.023105
   105  H    0.023208
   106  H    0.019921
   107  H    0.008477
   108  H   -0.019320
   109  H   -0.006621
   110  H   -0.007093
   111  H   -0.019712
   112  H   -0.024974
   113  H   -0.007077
   114  H    0.017450
   115  H    0.010123
   116  H   -0.028988
   117  H   -0.028907
   118  H   -0.005714
   119  H   -0.013697
   120  H    0.008720
   121  H    0.004540
   122  H    0.008178
   123  H    0.035355
   124  H   -0.012869
   125  H   -0.008141
   126  H    0.018404
   127  H    0.006206
   128  H    0.001185
   129  H    0.009290
   130  H    0.014127
   131  H    0.014306
   132  H   -0.017995
   133  H    0.033750
   134  H    0.060294
   135  H    0.011852
   136  H    0.026536
   137  H    0.109992
   138  H    0.186044
 Sum of Mulliken charges =   0.00000
 Mulliken charges with hydrogens summed into heavy atoms:
               1
     1  C   -0.109345
     2  C   -0.096490
     3  C   -0.074463
     4  C   -0.090469
     5  N   -0.226993
     6  C   -0.029650
     7  C    0.032415
     8  C    0.000567
     9  C    0.054777
    10  C    0.096847
    11  C   -0.025855
    12  C    0.131915
    13  C    0.151843
    14  O   -0.246373
    15  O   -0.316696
    16  N    0.126992
    17  C    0.014779
    18  C   -0.159006
    19  C   -0.019008
    20  C    0.031368
    21  C    0.208902
    22  C    0.010894
    23  C   -0.004473
    24  N   -0.234398
    25  C    0.116703
    26  C   -0.137946
    27  C   -0.118271
    28  C    0.055532
    29  C    0.151722
    30  C    0.136220
    31  C    0.013334
    32  N    0.099981
    33  C    0.113172
    34  C   -0.094413
    35  C    0.024905
    36  C    0.106195
    37  C    0.106899
    38  C    0.003028
    39  O   -0.191229
    40  C    0.076978
    41  C    0.238587
    42  O   -0.212620
    43  O   -0.329135
    44  C    0.293991
    45  C    0.300874
    46  C   -0.091762
    47  C   -0.072132
    48  C    0.126933
    49  C    0.071359
    50  C   -0.069747
    51  C    0.043008
    52  C   -0.075407
    53  C    0.093471
    54  C   -0.004281
    55  C    0.077061
    56  C   -0.105153
    57  C   -0.090702
    58  C    0.035579
    59  C   -0.037568
    60  C    0.118216
    61  C    0.006121
    62  C   -0.104298
    63  C    0.070131
    64  C    0.026582
 Electronic spatial extent (au):  <R**2>=         178720.7349
 Charge=              0.0000 electrons
 Dipole moment (field-independent basis, Debye):
    X=              4.0342    Y=              4.4399    Z=             -0.3165  Tot=              6.0072
 Quadrupole moment (field-independent basis, Debye-Ang):
   XX=           -328.8333   YY=           -385.1570   ZZ=           -393.4348
   XY=            -32.8695   XZ=              3.5362   YZ=             -6.7445
 Traceless Quadrupole moment (field-independent basis, Debye-Ang):
   XX=             40.3084   YY=            -16.0153   ZZ=            -24.2932
   XY=            -32.8695   XZ=              3.5362   YZ=             -6.7445
 Octapole moment (field-independent basis, Debye-Ang**2):
  XXX=            -77.3676  YYY=            143.6642  ZZZ=             -9.6419  XYY=            -75.6793
  XXY=             84.2604  XXZ=           -318.1876  XZZ=             43.5049  YZZ=            -28.8593
  YYZ=             25.7055  XYZ=            -11.2021
 Hexadecapole moment (field-independent basis, Debye-Ang**3):
 XXXX=        -209117.1026 YYYY=         -17488.5352 ZZZZ=          -3967.2055 XXXY=           -438.3066
 XXXZ=           -267.7593 YYYX=          -1397.4346 YYYZ=           -396.7278 ZZZX=             -4.6314
 ZZZY=           -152.5529 XXYY=         -40622.2348 XXZZ=         -38901.7463 YYZZ=          -3531.8941
 XXYZ=           -149.9224 YYXZ=             98.4765 ZZXY=             58.4928
 N-N= 8.280079478411D+03 E-N=-2.289469543964D+04  KE= 2.700938863804D+03
 1\1\GINC-PEDRO-RYZENSSD\SP\RB3LYP TD-FC\SVP\C55H74N4O5\PADAWAN\27-Jul-
 2019\0\\# td=(NStates=1) B3LYP/SVP\\TD\\0,1\C,0,-5.0845961577,-1.96216
 24583,0.258580734\C,0,-4.7617864976,2.8020766594,1.2909454804\C,0,-9.4
 018800977,3.2074515444,-0.1505835263\C,0,-9.8959776523,-1.5051513185,-
 0.8193144848\N,0,-5.2304522075,0.4520568286,0.8607845155\C,0,-4.463424
 9586,-0.7391406351,0.8349169351\C,0,-3.0280124877,-0.5582122559,1.3800
 530011\C,0,-3.111626128,0.8236912614,1.7980289087\C,0,-4.4441736105,1.
 4568154994,1.2798915862\C,0,-2.96761533,1.1334408564,3.3179396566\C,0,
 -2.0012121919,-0.7527152332,0.1094388895\C,0,-0.544707683,-0.749733189
 9,0.4890513578\C,0,0.4464983112,-0.8936162345,-0.6660881664\O,0,0.0770
 894765,-1.3606884354,-1.7189255041\O,0,1.7032305202,-0.5012869018,-0.4
 560780505\N,0,-7.0520798026,2.7864159134,0.5020497142\C,0,-6.000921667
 6,3.3996643847,0.9898698439\C,0,-6.2459177775,4.8371301525,0.953921885
 \C,0,-7.6092500218,4.9452933648,0.5680533327\C,0,-8.1093218781,3.62558
 10518,0.1669868541\C,0,-5.2018907056,5.9064461597,1.3985411201\C,0,-8.
 2662339061,6.2690609177,0.3129197933\C,0,-8.9750854067,6.6250322251,-0
 .7377062494\N,0,-9.3269308937,0.7666638994,-0.3479072591\C,0,-9.957839
 6469,2.0211646152,-0.48940821\C,0,-11.3855224187,1.7971032713,-0.73728
 75627\C,0,-11.5604099915,0.4751448546,-0.9731122659\C,0,-10.1940716329
 ,-0.1541253642,-0.7517084133\C,0,-12.3980583067,2.851203622,-0.7386269
 53\C,0,-12.7990576453,-0.3106235419,-1.2465056103\C,0,-13.0433044611,-
 0.5426475292,-2.8472828996\N,0,-7.4783167893,-1.262797965,-0.295458074
 3\C,0,-8.5808696745,-2.1103697638,-0.624445807\C,0,-8.0981022492,-3.35
 56924514,-0.63942651\C,0,-6.7271176209,-3.3592327516,-0.3902466486\C,0
 ,-6.4057816816,-2.0485976784,-0.0948144052\C,0,-8.9780705647,-4.590029
 7525,-0.9385428487\C,0,-5.6298699322,-4.2147165068,-0.0838574401\O,0,-
 5.5518546757,-5.4461341435,-0.1570029662\C,0,-4.4476223908,-3.28308907
 05,0.3641954816\C,0,-3.8613499329,-3.7518692804,1.6357701027\O,0,-4.20
 80758811,-3.3137793118,2.7024683149\O,0,-2.9449531829,-4.7656215351,1.
 3949899269\C,0,-2.3291776216,-5.3221916653,2.5379059302\C,0,2.67905007
 36,-1.0594398416,-1.4290369295\C,0,4.0062538722,-0.7670572081,-0.73436
 55367\C,0,5.0811603726,0.0329043453,-1.2516491215\C,0,5.0209212878,0.8
 673574674,-2.5023373505\C,0,6.2823999852,0.1675544946,-0.4152104352\C,
 0,7.5571669571,-0.5420303859,-1.0083777047\C,0,8.8442660277,-0.3099649
 816,-0.2063189794\C,0,10.0977106968,-0.896784005,-0.8339107459\C,0,9.9
 76803719,-2.5008738903,-0.7334726322\C,0,11.3327871289,-0.3523895537,-
 0.0093314888\C,0,12.6032820024,-0.5459399112,-0.6263371568\C,0,13.8246
 510545,0.0205348273,0.1705391094\C,0,15.2098798998,-0.1741282943,-0.25
 48690448\C,0,15.7316727391,-1.772826148,-0.1157703453\C,0,16.198910635
 4,0.8546199793,0.5010691292\C,0,17.6326181506,0.7068836061,0.099326031
 2\C,0,18.5784687712,1.7169960285,0.6046512813\C,0,20.0853104326,1.6185
 096556,0.2453662641\C,0,20.4392446234,1.7595925354,-1.3156796458\C,0,2
 0.7715996813,2.5996012989,1.259007689\H,0,-4.0304707074,3.5656878008,1
 .4956044413\H,0,-10.0172795811,4.1723744795,-0.1787191946\H,0,-10.7095
 152079,-2.1611132668,-1.1312726004\H,0,-2.7293452615,-1.3929885341,2.0
 393748132\H,0,-2.1936806826,1.3917994031,1.2214250547\H,0,-1.993449603
 ,0.7682131897,3.6736264666\H,0,-3.1227077627,2.380183068,3.4451747127\
 H,0,-3.6938289798,0.5331284973,3.9971148877\H,0,-2.3837638848,-1.80203
 49366,-0.4132057678\H,0,-2.1040737468,-0.161429952,-0.809177612\H,0,-0
 .161381958,0.1081446681,1.0175521165\H,0,-0.468157155,-1.4610580644,1.
 2290004084\H,0,-4.3272975463,5.9932236905,0.7719099908\H,0,-5.77178238
 46,6.7873636511,1.451504445\H,0,-4.7753356204,5.318349879,2.3492790619
 \H,0,-7.7541404234,7.0367135459,0.8641979737\H,0,-9.2191672686,5.87422
 75833,-1.6277043565\H,0,-9.3199667433,7.6265113786,-1.105640787\H,0,-1
 2.4108454465,3.3998091681,0.2567978667\H,0,-12.4639502433,3.5779317506
 ,-1.5818375006\H,0,-13.305001523,2.4141492506,-0.7943437898\H,0,-12.73
 24556188,-1.1885877855,-0.640718823\H,0,-13.5461616407,0.186162771,-0.
 8630986687\H,0,-13.0257482047,0.4273295461,-3.4610034446\H,0,-12.06528
 14961,-1.0539529689,-3.3894879009\H,0,-13.9334100945,-1.0561847133,-3.
 1654540877\H,0,-9.9083573845,-4.9591552353,-0.4821905211\H,0,-9.367360
 715,-4.5896869147,-1.9550023984\H,0,-8.3518803627,-5.5545537224,-1.013
 1592714\H,0,-3.7956914205,-3.3698732775,-0.6066020088\H,0,-1.682578650
 9,-5.9703921349,1.954618796\H,0,-1.6948379302,-4.6224457285,2.92334677
 73\H,0,-2.9093839548,-5.9181069023,3.1783047061\H,0,2.4034042479,-2.15
 43930828,-1.6644176088\H,0,2.4782327178,-0.4746750483,-2.3084686141\H,
 0,4.0559683685,-1.4164039547,0.1712250255\H,0,5.6122030495,1.683900899
 1,-2.569981718\H,0,5.4948361008,0.2479607586,-3.3412155232\H,0,4.02809
 29275,1.0163728241,-3.1250133264\H,0,6.5164996662,1.3255986849,-0.2769
 378849\H,0,6.1989079355,-0.3097908687,0.6537530827\H,0,7.237170502,-1.
 7482015448,-1.1015809177\H,0,7.7360931518,-0.278735853,-2.1765924882\H
 ,0,9.0348789753,0.7662854698,-0.1220820599\H,0,8.6111941822,-0.6565998
 115,0.8426970821\H,0,10.2241650851,-0.398397283,-1.8138759626\H,0,9.31
 10214183,-2.9276414573,-1.3057191197\H,0,10.937598791,-2.8635279526,-1
 .0343040353\H,0,10.0037553956,-2.8337250581,0.2829100217\H,0,10.972522
 5497,0.9096197421,0.1638849737\H,0,11.287134677,-0.895624799,1.0033702
 672\H,0,12.9585005607,-1.5428658578,-0.7996931823\H,0,12.9583739896,-0
 .1444845275,-1.5584773814\H,0,13.3779389488,1.1987995908,0.3617490858\
 H,0,13.6688811151,-0.253451773,1.2593327792\H,0,15.2411064548,-0.07457
 62515,-1.5147534886\H,0,15.3130268556,-2.49478206,-0.8055898922\H,0,16
 .7341272862,-1.9236464012,-0.5202778117\H,0,15.6572210009,-2.038949027
 5,1.0454038118\H,0,15.5527755508,1.7390604763,0.392199679\H,0,16.02337
 69945,0.8091615395,1.6447678994\H,0,17.818373059,-0.3719614066,0.49475
 96082\H,0,17.5016347491,0.7453564239,-1.0249009226\H,0,18.0821129008,2
 .7189982957,0.4261580055\H,0,18.8518474389,1.6263784473,1.7814052905\H
 ,0,20.3066970021,0.4538033413,0.6488060368\H,0,20.1107684334,2.7727755
 477,-1.6803999424\H,0,21.4018574294,1.7187499447,-1.5651296196\H,0,19.
 954430416,0.8906246842,-2.0224944309\H,0,20.6547807146,2.582439712,2.5
 466457012\H,0,21.8917320304,2.458095837,1.1253266898\H,0,20.6731369431
 ,3.7496381634,0.8638951274\H,0,-6.9780696401,1.8183007033,0.3375456007
 \H,0,-7.4114526937,-0.2400141774,0.0319330657\\Version=ES64L-G09RevD.0
 1\State=1-A\HF=-2733.023067\RMSD=5.588e-09\PG=C01 [X(C55H74N4O5)]\\@


 NECESSARY EVIL: ONE WE LIKE TOO MUCH TO RELINQUISH.
 Job cpu time:       0 days  5 hours 40 minutes 42.3 seconds.
 File lengths (MBytes):  RWF=   1953 Int=      0 D2E=      0 Chk=    148 Scr=      1
 Normal termination of Gaussian 09 at Sat Jul 27 08:07:21 2019.
