 Entering Gaussian System, Link 0=g16
 Input=Geometria-253-.com
 Output=Geometria-253-.log
 Initial command:
 /usr/local/g09/l1.exe "/home/padawan/israel-mol/pheophytin/spectra/abs/Gau-101202.inp" -scrdir="/home/padawan/israel-mol/pheophytin/spectra/abs/"
 Entering Link 1 = /usr/local/g09/l1.exe PID=    101204.
  
 Copyright (c) 1988,1990,1992,1993,1995,1998,2003,2009,2013,
            Gaussian, Inc.  All Rights Reserved.
  
 This is part of the Gaussian(R) 09 program.  It is based on
 the Gaussian(R) 03 system (copyright 2003, Gaussian, Inc.),
 the Gaussian(R) 98 system (copyright 1998, Gaussian, Inc.),
 the Gaussian(R) 94 system (copyright 1995, Gaussian, Inc.),
 the Gaussian 92(TM) system (copyright 1992, Gaussian, Inc.),
 the Gaussian 90(TM) system (copyright 1990, Gaussian, Inc.),
 the Gaussian 88(TM) system (copyright 1988, Gaussian, Inc.),
 the Gaussian 86(TM) system (copyright 1986, Carnegie Mellon
 University), and the Gaussian 82(TM) system (copyright 1983,
 Carnegie Mellon University). Gaussian is a federally registered
 trademark of Gaussian, Inc.
  
 This software contains proprietary and confidential information,
 including trade secrets, belonging to Gaussian, Inc.
  
 This software is provided under written license and may be
 used, copied, transmitted, or stored only in accord with that
 written license.
  
 The following legend is applicable only to US Government
 contracts under FAR:
  
                    RESTRICTED RIGHTS LEGEND
  
 Use, reproduction and disclosure by the US Government is
 subject to restrictions as set forth in subparagraphs (a)
 and (c) of the Commercial Computer Software - Restricted
 Rights clause in FAR 52.227-19.
  
 Gaussian, Inc.
 340 Quinnipiac St., Bldg. 40, Wallingford CT 06492
  
  
 ---------------------------------------------------------------
 Warning -- This program may not be used in any manner that
 competes with the business of Gaussian, Inc. or will provide
 assistance to any competitor of Gaussian, Inc.  The licensee
 of this program is prohibited from giving any competitor of
 Gaussian, Inc. access to this program.  By using this program,
 the user acknowledges that Gaussian, Inc. is engaged in the
 business of creating and licensing software in the field of
 computational chemistry and represents and warrants to the
 licensee that it is not a competitor of Gaussian, Inc. and that
 it will not use this program in any manner prohibited above.
 ---------------------------------------------------------------
  

 Cite this work as:
 Gaussian 09, Revision D.01,
 M. J. Frisch, G. W. Trucks, H. B. Schlegel, G. E. Scuseria, 
 M. A. Robb, J. R. Cheeseman, G. Scalmani, V. Barone, B. Mennucci, 
 G. A. Petersson, H. Nakatsuji, M. Caricato, X. Li, H. P. Hratchian, 
 A. F. Izmaylov, J. Bloino, G. Zheng, J. L. Sonnenberg, M. Hada, 
 M. Ehara, K. Toyota, R. Fukuda, J. Hasegawa, M. Ishida, T. Nakajima, 
 Y. Honda, O. Kitao, H. Nakai, T. Vreven, J. A. Montgomery, Jr., 
 J. E. Peralta, F. Ogliaro, M. Bearpark, J. J. Heyd, E. Brothers, 
 K. N. Kudin, V. N. Staroverov, T. Keith, R. Kobayashi, J. Normand, 
 K. Raghavachari, A. Rendell, J. C. Burant, S. S. Iyengar, J. Tomasi, 
 M. Cossi, N. Rega, J. M. Millam, M. Klene, J. E. Knox, J. B. Cross, 
 V. Bakken, C. Adamo, J. Jaramillo, R. Gomperts, R. E. Stratmann, 
 O. Yazyev, A. J. Austin, R. Cammi, C. Pomelli, J. W. Ochterski, 
 R. L. Martin, K. Morokuma, V. G. Zakrzewski, G. A. Voth, 
 P. Salvador, J. J. Dannenberg, S. Dapprich, A. D. Daniels, 
 O. Farkas, J. B. Foresman, J. V. Ortiz, J. Cioslowski, 
 and D. J. Fox, Gaussian, Inc., Wallingford CT, 2013.
 
 ******************************************
 Gaussian 09:  ES64L-G09RevD.01 24-Apr-2013
                 2-Aug-2019 
 ******************************************
 %nproc=3
 Will use up to    3 processors via shared memory.
 %Mem=2GB
 --------------------------
 # td=(NStates=1) B3LYP/SVP
 --------------------------
 1/38=1/1;
 2/12=2,17=6,18=5,40=1/2;
 3/5=18,7=101,11=9,16=1,25=1,30=1,74=-5/1,2,8,3;
 4//1;
 5/5=2,38=5/2;
 8/6=1,10=1,108=1/1;
 9/41=1,42=1,70=2/14;
 6/7=2,8=2,9=2,10=2/1;
 99/5=1,9=1/99;
 --
 TD
 --
 Symbolic Z-matrix:
 Charge =  0 Multiplicity = 1
 6                    -5.20669  -2.04951   0.44427 
 6                    -4.65616   2.71705   1.49383 
 6                    -9.23596   3.44013  -0.26391 
 6                    -9.86981  -1.35178  -0.97579 
 7                    -5.18051   0.38704   0.83671 
 6                    -4.54954  -0.81026   0.76219 
 6                    -3.11727  -0.59553   1.26425 
 6                    -3.12631   0.78134   1.88984 
 6                    -4.35934   1.36739   1.36511 
 6                    -2.9736    0.78681   3.34328 
 6                    -2.1027   -0.92611   0.15539 
 6                    -0.52455  -0.79346   0.60418 
 6                     0.37053  -1.15375  -0.52002 
 8                     0.03627  -1.63388  -1.55289 
 8                     1.68516  -0.86891  -0.16346 
 7                    -6.98625   2.77708   0.48482 
 6                    -5.83819   3.31103   1.0172 
 6                    -6.12853   4.7491    1.05057 
 6                    -7.43372   5.03937   0.48059 
 6                    -8.05948   3.69629   0.21849 
 6                    -5.0875    5.71581   1.61211 
 6                    -8.1072    6.22086   0.44201 
 6                    -9.00805   6.67098  -0.39282 
 7                    -9.26118   0.95575  -0.40186 
 6                    -9.87601   2.11676  -0.55444 
 6                    -11.22698   1.9826   -1.15478 
 6                    -11.30288   0.64489  -1.32124 
 6                    -10.09733  -0.02295  -0.86001 
 6                    -12.18851   2.98257  -1.43203 
 6                    -12.68189  -0.11481  -1.7884 
 6                    -12.30284  -0.56296  -3.271 
 7                    -7.49747  -1.21217  -0.35413 
 6                    -8.58086  -1.95338  -0.60297 
 6                    -8.25149  -3.36592  -0.6077 
 6                    -6.92174  -3.39012  -0.303 
 6                    -6.51145  -2.05842   0.00003 
 6                    -9.06518  -4.57213  -1.01988 
 6                    -5.82767  -4.35223   0.05275 
 8                    -5.8001   -5.47198   0.05865 
 6                    -4.61397  -3.38759   0.52468 
 6                    -3.93517  -3.96408   1.726 
 8                    -4.10776  -3.52266   2.86053 
 8                    -3.08807  -4.94409   1.41541 
 6                    -2.57232  -5.59037   2.63822 
 6                     2.62617  -0.96675  -1.18208 
 6                     3.9564   -0.75415  -0.50707 
 6                     4.8556   -0.00978  -1.0533 
 6                     4.78419   0.9173   -2.27297 
 6                     6.24328   0.16922  -0.31799 
 6                     7.49419  -0.37426  -0.9947 
 6                     8.68772  -0.17129  -0.13254 
 6                     10.09852  -0.65144  -0.72545 
 6                     9.88953  -2.32844  -0.75503 
 6                     11.33725  -0.09838   0.06328 
 6                     12.70875  -0.57645  -0.4912 
 6                     13.83648   0.22304   0.27144 
 6                     15.26838  -0.10824  -0.28611 
 6                     15.65532  -1.66551  -0.09921 
 6                     16.18156   0.78481   0.48302 
 6                     17.69867   0.72477  -0.17287 
 6                     18.65103   1.74761   0.44548 
 6                     20.11832   1.69838  -0.08216 
 6                     20.17945   1.90233  -1.57797 
 6                     20.88007   2.67011   0.6771 
 1                    -3.81968   3.39064   1.97441 
 1                    -9.88255   4.32688  -0.52234 
 1                    -10.86077  -1.95082  -1.02793 
 1                    -3.07609  -1.47952   2.05257 
 1                    -2.19079   1.55384   1.70987 
 1                    -2.14322  -0.22489   3.78156 
 1                    -2.64837   1.56654   3.88258 
 1                    -4.06054   0.39226   3.72874 
 1                    -2.33703  -1.90505  -0.37254 
 1                    -2.2332   -0.33536  -0.54881 
 1                    -0.26068   0.11171   1.01294 
 1                    -0.39263  -1.41815   1.62067 
 1                    -4.13952   5.89822   0.93618 
 1                    -5.54004   6.60483   1.62433 
 1                    -4.61683   5.4543    2.44912 
 1                    -7.79972   7.10089   1.1838 
 1                    -9.43294   5.88277  -1.08042 
 1                    -9.23163   7.77003  -0.36715 
 1                    -12.30364   3.87184  -0.66646 
 1                    -11.81791   3.62057  -2.30215 
 1                    -13.19477   2.52723  -1.62276 
 1                    -12.71699  -1.1482   -1.04158 
 1                    -13.6288   0.50046  -1.77078 
 1                    -11.85583   0.24788  -3.84202 
 1                    -11.62753  -1.45131  -3.29165 
 1                    -13.36972  -0.91242  -3.72782 
 1                    -9.9432   -4.78922  -0.30388 
 1                    -9.40633  -4.22971  -2.14789 
 1                    -8.53501  -5.37331  -1.22789 
 1                    -4.09479  -3.47196  -0.39404 
 1                    -1.69377  -6.3652    2.36307 
 1                    -2.04558  -4.89996   3.40845 
 1                    -3.44591  -5.85528   3.1106 
 1                     2.66297  -1.83348  -1.7635 
 1                     2.40504  -0.19567  -1.88631 
 1                     4.31927  -1.29802   0.40642 
 1                     5.20961   2.03509  -2.13505 
 1                     5.53227   0.60335  -3.04476 
 1                     3.59174   1.13265  -2.60122 
 1                     6.36276   1.29382   0.07458 
 1                     6.16051  -0.46624   0.55445 
 1                     7.51245  -1.31529  -1.38789 
 1                     7.65439   0.18661  -1.96263 
 1                     8.95433   1.0279    0.05819 
 1                     8.44563  -0.53153   0.95679 
 1                     10.12836  -0.40685  -1.71467 
 1                     9.14885  -2.61179  -1.24492 
 1                     10.76467  -2.72832  -1.09977 
 1                     9.71266  -2.84193   0.26355 
 1                     11.09585   0.98273   0.12404 
 1                     11.09227  -0.5465    1.20136 
 1                     12.93512  -1.75907  -0.22769 
 1                     12.82124  -0.38079  -1.55428 
 1                     13.61326   1.4904    0.10786 
 1                     13.7381   0.10662   1.43461 
 1                     15.25048  -0.00841  -1.35941 
 1                     14.85273  -2.243    -0.60389 
 1                     16.48942  -1.82893  -0.52693 
 1                     15.67435  -1.99872   0.96486 
 1                     15.83371   1.84094   0.41585 
 1                     16.06975   0.51107   1.54805 
 1                     18.28716  -0.22645  -0.08133 
 1                     17.43912   0.94904  -1.22271 
 1                     18.15756   2.67967   0.07636 
 1                     18.66298   1.72333   1.65934 
 1                     20.4795   0.43014  -0.03906 
 1                     19.52613   2.80728  -1.82911 
 1                     21.22823   2.11068  -1.88491 
 1                     19.85691   0.93095  -2.18088 
 1                     21.00916   2.37991   1.77733 
 1                     21.96581   2.83613   0.19654 
 1                     20.41351   3.66826   0.68301 
 1                    -6.96682   1.57563   0.53473 
 1                    -7.59941  -0.20526  -0.16975 
 
 Stoichiometry    C55H74N4O5
 Framework group  C1[X(C55H74N4O5)]
 Deg. of freedom   408
 Full point group                 C1      NOp   1
 Largest Abelian subgroup         C1      NOp   1
 Largest concise Abelian subgroup C1      NOp   1
                         Standard orientation:                         
 ---------------------------------------------------------------------
 Center     Atomic      Atomic             Coordinates (Angstroms)
 Number     Number       Type             X           Y           Z
 ---------------------------------------------------------------------
      1          6           0       -5.214163   -2.039137    0.415073
      2          6           0       -4.649093    2.710220    1.532679
      3          6           0       -9.226518    3.472411   -0.214718
      4          6           0       -9.875001   -1.306866   -0.995043
      5          7           0       -5.180538    0.391464    0.842306
      6          6           0       -4.553245   -0.806577    0.750700
      7          6           0       -3.120361   -0.603441    1.255833
      8          6           0       -3.125224    0.764360    1.901038
      9          6           0       -4.356405    1.361632    1.384694
     10          6           0       -2.972614    0.748584    3.354417
     11          6           0       -2.106721   -0.921256    0.142401
     12          6           0       -0.528201   -0.799873    0.593100
     13          6           0        0.365857   -1.146807   -0.536108
     14          8           0        0.030204   -1.611089   -1.575744
     15          8           0        1.681324   -0.871130   -0.175459
     16          7           0       -6.978913    2.791825    0.524545
     17          6           0       -5.829256    3.314575    1.064551
     18          6           0       -6.115186    4.752911    1.118462
     19          6           0       -7.419439    5.055305    0.552644
     20          6           0       -8.049290    3.718031    0.271346
     21          6           0       -5.071244    5.708292    1.693804
     22          6           0       -8.089283    6.239280    0.530930
     23          6           0       -8.988681    6.704051   -0.297419
     24          7           0       -9.259350    0.990344   -0.388166
     25          6           0       -9.870600    2.155299   -0.524159
     26          6           0      -11.221921    2.033879   -1.126401
     27          6           0      -11.301919    0.698924   -1.311966
     28          6           0      -10.098459    0.020859   -0.860287
     29          6           0      -12.180357    3.040651   -1.389361
     30          6           0      -12.683207   -0.049790   -1.789993
     31          6           0      -12.305418   -0.477858   -3.278829
     32          7           0       -7.502298   -1.183445   -0.371365
     33          6           0       -8.587938   -1.917695   -0.630816
     34          6           0       -8.262901   -3.331027   -0.655724
     35          6           0       -6.933256   -3.363653   -0.351346
     36          6           0       -6.518912   -2.037689   -0.029303
     37          6           0       -9.080256   -4.528713   -1.085133
     38          6           0       -5.842174   -4.334108   -0.009350
     39          8           0       -5.818041   -5.453903   -0.019454
     40          6           0       -4.625558   -3.380041    0.476371
     41          6           0       -3.948626   -3.975726    1.669351
     42          8           0       -4.119952   -3.550041    2.810074
     43          8           0       -3.104512   -4.953790    1.344818
     44          6           0       -2.590851   -5.619062    2.558278
     45          6           0        2.622118   -0.957284   -1.195341
     46          6           0        3.952933   -0.758433   -0.517312
     47          6           0        4.854456   -0.009099   -1.052809
     48          6           0        4.785990    0.935538   -2.259109
     49          6           0        6.242617    0.155117   -0.314964
     50          6           0        7.491914   -0.382479   -0.999323
     51          6           0        8.685990   -0.195515   -0.134310
     52          6           0       10.095359   -0.671467   -0.733968
     53          6           0        9.881231   -2.347221   -0.787530
     54          6           0       11.335713   -0.133547    0.062629
     55          6           0       12.705790   -0.607848   -0.498576
     56          6           0       13.835905    0.177192    0.275459
     57          6           0       15.266821   -0.150474   -0.286717
     58          6           0       15.648965   -1.711430   -0.122079
     59          6           0       16.182677    0.728688    0.495134
     60          6           0       17.699655    0.673367   -0.161489
     61          6           0       18.655090    1.684339    0.471451
     62          6           0       20.122272    1.638152   -0.056775
     63          6           0       20.184144    1.863274   -1.549514
     64          6           0       20.886935    2.596588    0.716322
     65          1           0       -3.810593    3.374303    2.022876
     66          1           0       -9.870356    4.364740   -0.460468
     67          1           0      -10.867795   -1.902062   -1.055780
     68          1           0       -3.081956   -1.498733    2.031433
     69          1           0       -2.187326    1.536477    1.732170
     70          1           0       -2.145387   -0.271814    3.778217
     71          1           0       -2.645042    1.519529    3.904817
     72          1           0       -4.060791    0.351910    3.734153
     73          1           0       -2.344007   -1.891818   -0.399482
     74          1           0       -2.235345   -0.320097   -0.553292
     75          1           0       -0.261595    0.098540    1.014766
     76          1           0       -0.398285   -1.439438    1.600558
     77          1           0       -4.122653    5.897442    1.020580
     78          1           0       -5.521055    6.598429    1.718713
     79          1           0       -4.601447    5.433407    2.527004
     80          1           0       -7.779172    7.107673    1.285232
     81          1           0       -9.415931    5.927060   -0.996230
     82          1           0       -9.208889    7.803302   -0.256045
     83          1           0      -12.292827    3.919236   -0.611170
     84          1           0      -11.807728    3.689883   -2.250262
     85          1           0      -13.187997    2.591178   -1.586619
     86          1           0      -12.721547   -1.093637   -1.058021
     87          1           0      -13.628231    0.568077   -1.763614
     88          1           0      -11.855877    0.339687   -3.838189
     89          1           0      -11.632832   -1.367894   -3.312153
     90          1           0      -13.373331   -0.817477   -3.740642
     91          1           0       -9.958998   -4.753320   -0.372344
     92          1           0       -9.420268   -4.169161   -2.208146
     93          1           0       -8.552529   -5.328459   -1.304554
     94          1           0       -4.106567   -3.452867   -0.443444
     95          1           0       -1.714658   -6.392576    2.272117
     96          1           0       -2.062059   -4.941358    3.338318
     97          1           0       -3.465284   -5.888018    3.026793
     98          1           0        2.656301   -1.815724   -1.789086
     99          1           0        2.403403   -0.175538   -1.888480
    100          1           0        4.314064   -1.316423    0.388325
    101          1           0        5.214832    2.049925   -2.105203
    102          1           0        5.533168    0.630352   -3.035272
    103          1           0        3.594235    1.159219   -2.584289
    104          1           0        6.365524    1.273609    0.093644
    105          1           0        6.157835   -0.492493    0.548304
    106          1           0        7.507316   -1.317839   -1.405927
    107          1           0        7.653917    0.191680   -1.959135
    108          1           0        8.956263    1.000005    0.073550
    109          1           0        8.442705   -0.570541    0.949750
    110          1           0       10.126025   -0.412853   -1.719586
    111          1           0        9.139715   -2.621268   -1.281447
    112          1           0       10.755165   -2.744824   -1.137914
    113          1           0        9.702695   -2.874672    0.223602
    114          1           0       11.097633    0.947321    0.138833
    115          1           0       11.089264   -0.597131    1.194182
    116          1           0       12.928504   -1.794797   -0.251982
    117          1           0       12.818964   -0.397353   -1.558740
    118          1           0       13.616588    1.447444    0.130009
    119          1           0       13.737069    0.044469    1.436844
    120          1           0       15.249316   -0.035255   -1.358477
    121          1           0       14.844654   -2.279183   -0.634993
    122          1           0       16.482602   -1.871280   -0.552060
    123          1           0       15.666894   -2.059873    0.937115
    124          1           0       15.838079    1.786731    0.443060
    125          1           0       16.069944    0.440096    1.556139
    126          1           0       18.285211   -0.280858   -0.083530
    127          1           0       17.440873    0.913418   -1.208025
    128          1           0       18.164516    2.623096    0.115682
    129          1           0       18.666869    1.642673    1.684848
    130          1           0       20.479556    0.368327   -0.031801
    131          1           0       19.533626    2.773724   -1.787726
    132          1           0       21.233585    2.072773   -1.853411
    133          1           0       19.858676    0.901608   -2.166265
    134          1           0       21.015040    2.290297    1.812296
    135          1           0       21.973217    2.766133    0.238230
    136          1           0       20.423440    3.595980    0.736480
    137          1           0       -6.963169    1.589722    0.557274
    138          1           0       -7.601166   -0.178963   -0.172608
 ---------------------------------------------------------------------
 Rotational constants (GHZ):      0.0630502      0.0061806      0.0058022
 Standard basis: SVP (5D, 7F)
 There are  1330 symmetry adapted cartesian basis functions of A   symmetry.
 There are  1266 symmetry adapted basis functions of A   symmetry.
  1266 basis functions,  2118 primitive gaussians,  1330 cartesian basis functions
   236 alpha electrons      236 beta electrons
       nuclear repulsion energy      8299.4166490051 Hartrees.
 NAtoms=  138 NActive=  138 NUniq=  138 SFac= 1.00D+00 NAtFMM=   60 NAOKFM=T Big=T
 Integral buffers will be    131072 words long.
 Regular integral format.
 Two-electron integral symmetry is turned on.
 One-electron integrals computed using PRISM.
 NBasis=  1266 RedAO= T EigKep=  2.71D-04  NBF=  1266
 NBsUse=  1266 1.00D-06 EigRej= -1.00D+00 NBFU=  1266
 ExpMin= 1.22D-01 ExpMax= 2.27D+03 ExpMxC= 3.41D+02 IAcc=1 IRadAn=         1 AccDes= 0.00D+00
 Harris functional with IExCor=  402 and IRadAn=       1 diagonalized for initial guess.
 HarFok:  IExCor=  402 AccDes= 0.00D+00 IRadAn=         1 IDoV= 1 UseB2=F ITyADJ=14
 ICtDFT=  3500011 ScaDFX=  1.000000  1.000000  1.000000  1.000000
 FoFCou: FMM=F IPFlag=           0 FMFlag=      100000 FMFlg1=        2001
         NFxFlg=           0 DoJE=T BraDBF=F KetDBF=T FulRan=T
         wScrn=  0.000000 ICntrl=     500 IOpCl=  0 I1Cent=   200000004 NGrid=           0
         NMat0=    1 NMatS0=      1 NMatT0=    0 NMatD0=    1 NMtDS0=    0 NMtDT0=    0
 Petite list used in FoFCou.
 Requested convergence on RMS density matrix=1.00D-08 within 128 cycles.
 Requested convergence on MAX density matrix=1.00D-06.
 Requested convergence on             energy=1.00D-06.
 No special actions if energy rises.
 Integral accuracy reduced to 1.0D-05 until final iterations.
 Initial convergence to 1.0D-05 achieved.  Increase integral accuracy.
 SCF Done:  E(RB3LYP) =  -2732.94446736     A.U. after   17 cycles
            NFock= 17  Conv=0.47D-08     -V/T= 2.0116
 DoSCS=F DFT=T ScalE2(SS,OS)=  1.000000  1.000000
 ExpMin= 1.22D-01 ExpMax= 2.27D+03 ExpMxC= 3.41D+02 IAcc=3 IRadAn=         5 AccDes= 0.00D+00
 HarFok:  IExCor=  205 AccDes= 0.00D+00 IRadAn=         5 IDoV=-2 UseB2=F ITyADJ=14
 ICtDFT= 12500011 ScaDFX=  1.000000  1.000000  1.000000  1.000000
 Range of M.O.s used for correlation:    65  1266
 NBasis=  1266 NAE=   236 NBE=   236 NFC=    64 NFV=     0
 NROrb=   1202 NOA=   172 NOB=   172 NVA=  1030 NVB=  1030

 **** Warning!!: The smallest alpha delta epsilon is  0.81505330D-01

 Would need an additional        965744300000 words for in-memory AO integral storage.
 Orbital symmetries:
       Occupied  (A) (A) (A) (A) (A) (A) (A) (A) (A) (A) (A) (A)
                 (A) (A) (A) (A) (A) (A) (A) (A) (A) (A) (A) (A)
                 (A) (A) (A) (A) (A) (A) (A) (A) (A) (A) (A) (A)
                 (A) (A) (A) (A) (A) (A) (A) (A) (A) (A) (A) (A)
                 (A) (A) (A) (A) (A) (A) (A) (A) (A) (A) (A) (A)
                 (A) (A) (A) (A) (A) (A) (A) (A) (A) (A) (A) (A)
                 (A) (A) (A) (A) (A) (A) (A) (A) (A) (A) (A) (A)
                 (A) (A) (A) (A) (A) (A) (A) (A) (A) (A) (A) (A)
                 (A) (A) (A) (A) (A) (A) (A) (A) (A) (A) (A) (A)
                 (A) (A) (A) (A) (A) (A) (A) (A) (A) (A) (A) (A)
                 (A) (A) (A) (A) (A) (A) (A) (A) (A) (A) (A) (A)
                 (A) (A) (A) (A) (A) (A) (A) (A) (A) (A) (A) (A)
                 (A) (A) (A) (A) (A) (A) (A) (A) (A) (A) (A) (A)
                 (A) (A) (A) (A) (A) (A) (A) (A) (A) (A) (A) (A)
                 (A) (A) (A) (A) (A) (A) (A) (A) (A) (A) (A) (A)
                 (A) (A) (A) (A) (A) (A) (A) (A) (A) (A) (A) (A)
                 (A) (A) (A) (A) (A) (A) (A) (A) (A) (A) (A) (A)
                 (A) (A) (A) (A) (A) (A) (A) (A) (A) (A) (A) (A)
                 (A) (A) (A) (A) (A) (A) (A) (A) (A) (A) (A) (A)
                 (A) (A) (A) (A) (A) (A) (A) (A)
       Virtual   (A) (A) (A) (A) (A) (A) (A) (A) (A) (A) (A) (A)
                 (A) (A) (A) (A) (A) (A) (A) (A) (A) (A) (A) (A)
                 (A) (A) (A) (A) (A) (A) (A) (A) (A) (A) (A) (A)
                 (A) (A) (A) (A) (A) (A) (A) (A) (A) (A) (A) (A)
                 (A) (A) (A) (A) (A) (A) (A) (A) (A) (A) (A) (A)
                 (A) (A) (A) (A) (A) (A) (A) (A) (A) (A) (A) (A)
                 (A) (A) (A) (A) (A) (A) (A) (A) (A) (A) (A) (A)
                 (A) (A) (A) (A) (A) (A) (A) (A) (A) (A) (A) (A)
                 (A) (A) (A) (A) (A) (A) (A) (A) (A) (A) (A) (A)
                 (A) (A) (A) (A) (A) (A) (A) (A) (A) (A) (A) (A)
                 (A) (A) (A) (A) (A) (A) (A) (A) (A) (A) (A) (A)
                 (A) (A) (A) (A) (A) (A) (A) (A) (A) (A) (A) (A)
                 (A) (A) (A) (A) (A) (A) (A) (A) (A) (A) (A) (A)
                 (A) (A) (A) (A) (A) (A) (A) (A) (A) (A) (A) (A)
                 (A) (A) (A) (A) (A) (A) (A) (A) (A) (A) (A) (A)
                 (A) (A) (A) (A) (A) (A) (A) (A) (A) (A) (A) (A)
                 (A) (A) (A) (A) (A) (A) (A) (A) (A) (A) (A) (A)
                 (A) (A) (A) (A) (A) (A) (A) (A) (A) (A) (A) (A)
                 (A) (A) (A) (A) (A) (A) (A) (A) (A) (A) (A) (A)
                 (A) (A) (A) (A) (A) (A) (A) (A) (A) (A) (A) (A)
                 (A) (A) (A) (A) (A) (A) (A) (A) (A) (A) (A) (A)
                 (A) (A) (A) (A) (A) (A) (A) (A) (A) (A) (A) (A)
                 (A) (A) (A) (A) (A) (A) (A) (A) (A) (A) (A) (A)
                 (A) (A) (A) (A) (A) (A) (A) (A) (A) (A) (A) (A)
                 (A) (A) (A) (A) (A) (A) (A) (A) (A) (A) (A) (A)
                 (A) (A) (A) (A) (A) (A) (A) (A) (A) (A) (A) (A)
                 (A) (A) (A) (A) (A) (A) (A) (A) (A) (A) (A) (A)
                 (A) (A) (A) (A) (A) (A) (A) (A) (A) (A) (A) (A)
                 (A) (A) (A) (A) (A) (A) (A) (A) (A) (A) (A) (A)
                 (A) (A) (A) (A) (A) (A) (A) (A) (A) (A) (A) (A)
                 (A) (A) (A) (A) (A) (A) (A) (A) (A) (A) (A) (A)
                 (A) (A) (A) (A) (A) (A) (A) (A) (A) (A) (A) (A)
                 (A) (A) (A) (A) (A) (A) (A) (A) (A) (A) (A) (A)
                 (A) (A) (A) (A) (A) (A) (A) (A) (A) (A) (A) (A)
                 (A) (A) (A) (A) (A) (A) (A) (A) (A) (A) (A) (A)
                 (A) (A) (A) (A) (A) (A) (A) (A) (A) (A) (A) (A)
                 (A) (A) (A) (A) (A) (A) (A) (A) (A) (A) (A) (A)
                 (A) (A) (A) (A) (A) (A) (A) (A) (A) (A) (A) (A)
                 (A) (A) (A) (A) (A) (A) (A) (A) (A) (A) (A) (A)
                 (A) (A) (A) (A) (A) (A) (A) (A) (A) (A) (A) (A)
                 (A) (A) (A) (A) (A) (A) (A) (A) (A) (A) (A) (A)
                 (A) (A) (A) (A) (A) (A) (A) (A) (A) (A) (A) (A)
                 (A) (A) (A) (A) (A) (A) (A) (A) (A) (A) (A) (A)
                 (A) (A) (A) (A) (A) (A) (A) (A) (A) (A) (A) (A)
                 (A) (A) (A) (A) (A) (A) (A) (A) (A) (A) (A) (A)
                 (A) (A) (A) (A) (A) (A) (A) (A) (A) (A) (A) (A)
                 (A) (A) (A) (A) (A) (A) (A) (A) (A) (A) (A) (A)
                 (A) (A) (A) (A) (A) (A) (A) (A) (A) (A) (A) (A)
                 (A) (A) (A) (A) (A) (A) (A) (A) (A) (A) (A) (A)
                 (A) (A) (A) (A) (A) (A) (A) (A) (A) (A) (A) (A)
                 (A) (A) (A) (A) (A) (A) (A) (A) (A) (A) (A) (A)
                 (A) (A) (A) (A) (A) (A) (A) (A) (A) (A) (A) (A)
                 (A) (A) (A) (A) (A) (A) (A) (A) (A) (A) (A) (A)
                 (A) (A) (A) (A) (A) (A) (A) (A) (A) (A) (A) (A)
                 (A) (A) (A) (A) (A) (A) (A) (A) (A) (A) (A) (A)
                 (A) (A) (A) (A) (A) (A) (A) (A) (A) (A) (A) (A)
                 (A) (A) (A) (A) (A) (A) (A) (A) (A) (A) (A) (A)
                 (A) (A) (A) (A) (A) (A) (A) (A) (A) (A) (A) (A)
                 (A) (A) (A) (A) (A) (A) (A) (A) (A) (A) (A) (A)
                 (A) (A) (A) (A) (A) (A) (A) (A) (A) (A) (A) (A)
                 (A) (A) (A) (A) (A) (A) (A) (A) (A) (A) (A) (A)
                 (A) (A) (A) (A) (A) (A) (A) (A) (A) (A) (A) (A)
                 (A) (A) (A) (A) (A) (A) (A) (A) (A) (A) (A) (A)
                 (A) (A) (A) (A) (A) (A) (A) (A) (A) (A) (A) (A)
                 (A) (A) (A) (A) (A) (A) (A) (A) (A) (A) (A) (A)
                 (A) (A) (A) (A) (A) (A) (A) (A) (A) (A) (A) (A)
                 (A) (A) (A) (A) (A) (A) (A) (A) (A) (A) (A) (A)
                 (A) (A) (A) (A) (A) (A) (A) (A) (A) (A) (A) (A)
                 (A) (A) (A) (A) (A) (A) (A) (A) (A) (A) (A) (A)
                 (A) (A) (A) (A) (A) (A) (A) (A) (A) (A) (A) (A)
                 (A) (A) (A) (A) (A) (A) (A) (A) (A) (A) (A) (A)
                 (A) (A) (A) (A) (A) (A) (A) (A) (A) (A) (A) (A)
                 (A) (A) (A) (A) (A) (A) (A) (A) (A) (A) (A) (A)
                 (A) (A) (A) (A) (A) (A) (A) (A) (A) (A) (A) (A)
                 (A) (A) (A) (A) (A) (A) (A) (A) (A) (A) (A) (A)
                 (A) (A) (A) (A) (A) (A) (A) (A) (A) (A) (A) (A)
                 (A) (A) (A) (A) (A) (A) (A) (A) (A) (A) (A) (A)
                 (A) (A) (A) (A) (A) (A) (A) (A) (A) (A) (A) (A)
                 (A) (A) (A) (A) (A) (A) (A) (A) (A) (A) (A) (A)
                 (A) (A) (A) (A) (A) (A) (A) (A) (A) (A) (A) (A)
                 (A) (A) (A) (A) (A) (A) (A) (A) (A) (A) (A) (A)
                 (A) (A) (A) (A) (A) (A) (A) (A) (A) (A) (A) (A)
                 (A) (A) (A) (A) (A) (A) (A) (A) (A) (A) (A) (A)
                 (A) (A) (A) (A) (A) (A) (A) (A) (A) (A) (A) (A)
                 (A) (A) (A) (A) (A) (A) (A) (A) (A) (A) (A) (A)
                 (A) (A) (A) (A) (A) (A) (A) (A) (A) (A)
     8 initial guesses have been made.
 Convergence on wavefunction:    0.001000000000000
 Iteration     1 Dimension     8 NMult     0 NNew      8
 CISAX will form     8 AO SS matrices at one time.
 Iteration     2 Dimension    12 NMult     8 NNew      4
 Iteration     3 Dimension    16 NMult    12 NNew      4
 Iteration     4 Dimension    20 NMult    16 NNew      4
 Iteration     5 Dimension    24 NMult    20 NNew      4
 Iteration     6 Dimension    28 NMult    24 NNew      4
 ***********************************************************************
 Excited states from <AA,BB:AA,BB> singles matrix:
 ***********************************************************************
 
 Ground to excited state transition densities written to RWF  633
 Ground to excited state transition electric dipole moments (Au):
       state          X           Y           Z        Dip. S.      Osc.
         1         0.3966     -2.1286     -0.1261      4.7042      0.2327
 Ground to excited state transition velocity dipole moments (Au):
       state          X           Y           Z        Dip. S.      Osc.
         1        -0.0268      0.1536      0.0101      0.0244      0.2194
 Ground to excited state transition magnetic dipole moments (Au):
       state          X           Y           Z
         1         0.0993      0.2239     -2.6257
 Ground to excited state transition velocity quadrupole moments (Au):
       state          XX          YY          ZZ          XY          XZ          YZ
         1         0.5886      0.4391      0.0229     -2.0409     -0.1073      0.0906
 <0|del|b> * <b|rxdel|0> + <0|del|b> * <b|delr+rdel|0>
 Rotatory Strengths (R) in cgs (10**-40 erg-esu-cm/Gauss)
       state          XX          YY          ZZ    R(velocity)    E-M Angle
         1        18.6645    -52.2911     84.1947     16.8560       89.26
 1/2[<0|r|b>*<b|rxdel|0> + (<0|rxdel|b>*<b|r|0>)*]
 Rotatory Strengths (R) in cgs (10**-40 erg-esu-cm/Gauss)
       state          XX          YY          ZZ     R(length)
         1       -27.8540    336.9971   -234.2100     24.9777
  1/2[<0|del|b>*<b|r|0> + (<0|r|b>*<b|del|0>)*] (Au)
       state          X           Y           Z        Dip. S.   Osc.(frdel)
         1        -0.0106     -0.3270     -0.0013      0.3389      0.2259

 Excitation energies and oscillator strengths:
 
 Excited State   1:      Singlet-A      2.0192 eV  614.03 nm  f=0.2327  <S**2>=0.000
     235 -> 237       -0.11260
     235 -> 238        0.24100
     236 -> 237        0.64926
 This state for optimization and/or second-order correction.
 Total Energy, E(TD-HF/TD-KS) =  -2732.87026343    
 Copying the excited state density for this state as the 1-particle RhoCI density.
 SavETr:  write IOETrn=   770 NScale= 10 NData=  16 NLR=1 NState=    1 LETran=      28.

 **********************************************************************

            Population analysis using the SCF density.

 **********************************************************************

 Orbital symmetries:
       Occupied  (A) (A) (A) (A) (A) (A) (A) (A) (A) (A) (A) (A)
                 (A) (A) (A) (A) (A) (A) (A) (A) (A) (A) (A) (A)
                 (A) (A) (A) (A) (A) (A) (A) (A) (A) (A) (A) (A)
                 (A) (A) (A) (A) (A) (A) (A) (A) (A) (A) (A) (A)
                 (A) (A) (A) (A) (A) (A) (A) (A) (A) (A) (A) (A)
                 (A) (A) (A) (A) (A) (A) (A) (A) (A) (A) (A) (A)
                 (A) (A) (A) (A) (A) (A) (A) (A) (A) (A) (A) (A)
                 (A) (A) (A) (A) (A) (A) (A) (A) (A) (A) (A) (A)
                 (A) (A) (A) (A) (A) (A) (A) (A) (A) (A) (A) (A)
                 (A) (A) (A) (A) (A) (A) (A) (A) (A) (A) (A) (A)
                 (A) (A) (A) (A) (A) (A) (A) (A) (A) (A) (A) (A)
                 (A) (A) (A) (A) (A) (A) (A) (A) (A) (A) (A) (A)
                 (A) (A) (A) (A) (A) (A) (A) (A) (A) (A) (A) (A)
                 (A) (A) (A) (A) (A) (A) (A) (A) (A) (A) (A) (A)
                 (A) (A) (A) (A) (A) (A) (A) (A) (A) (A) (A) (A)
                 (A) (A) (A) (A) (A) (A) (A) (A) (A) (A) (A) (A)
                 (A) (A) (A) (A) (A) (A) (A) (A) (A) (A) (A) (A)
                 (A) (A) (A) (A) (A) (A) (A) (A) (A) (A) (A) (A)
                 (A) (A) (A) (A) (A) (A) (A) (A) (A) (A) (A) (A)
                 (A) (A) (A) (A) (A) (A) (A) (A)
       Virtual   (A) (A) (A) (A) (A) (A) (A) (A) (A) (A) (A) (A)
                 (A) (A) (A) (A) (A) (A) (A) (A) (A) (A) (A) (A)
                 (A) (A) (A) (A) (A) (A) (A) (A) (A) (A) (A) (A)
                 (A) (A) (A) (A) (A) (A) (A) (A) (A) (A) (A) (A)
                 (A) (A) (A) (A) (A) (A) (A) (A) (A) (A) (A) (A)
                 (A) (A) (A) (A) (A) (A) (A) (A) (A) (A) (A) (A)
                 (A) (A) (A) (A) (A) (A) (A) (A) (A) (A) (A) (A)
                 (A) (A) (A) (A) (A) (A) (A) (A) (A) (A) (A) (A)
                 (A) (A) (A) (A) (A) (A) (A) (A) (A) (A) (A) (A)
                 (A) (A) (A) (A) (A) (A) (A) (A) (A) (A) (A) (A)
                 (A) (A) (A) (A) (A) (A) (A) (A) (A) (A) (A) (A)
                 (A) (A) (A) (A) (A) (A) (A) (A) (A) (A) (A) (A)
                 (A) (A) (A) (A) (A) (A) (A) (A) (A) (A) (A) (A)
                 (A) (A) (A) (A) (A) (A) (A) (A) (A) (A) (A) (A)
                 (A) (A) (A) (A) (A) (A) (A) (A) (A) (A) (A) (A)
                 (A) (A) (A) (A) (A) (A) (A) (A) (A) (A) (A) (A)
                 (A) (A) (A) (A) (A) (A) (A) (A) (A) (A) (A) (A)
                 (A) (A) (A) (A) (A) (A) (A) (A) (A) (A) (A) (A)
                 (A) (A) (A) (A) (A) (A) (A) (A) (A) (A) (A) (A)
                 (A) (A) (A) (A) (A) (A) (A) (A) (A) (A) (A) (A)
                 (A) (A) (A) (A) (A) (A) (A) (A) (A) (A) (A) (A)
                 (A) (A) (A) (A) (A) (A) (A) (A) (A) (A) (A) (A)
                 (A) (A) (A) (A) (A) (A) (A) (A) (A) (A) (A) (A)
                 (A) (A) (A) (A) (A) (A) (A) (A) (A) (A) (A) (A)
                 (A) (A) (A) (A) (A) (A) (A) (A) (A) (A) (A) (A)
                 (A) (A) (A) (A) (A) (A) (A) (A) (A) (A) (A) (A)
                 (A) (A) (A) (A) (A) (A) (A) (A) (A) (A) (A) (A)
                 (A) (A) (A) (A) (A) (A) (A) (A) (A) (A) (A) (A)
                 (A) (A) (A) (A) (A) (A) (A) (A) (A) (A) (A) (A)
                 (A) (A) (A) (A) (A) (A) (A) (A) (A) (A) (A) (A)
                 (A) (A) (A) (A) (A) (A) (A) (A) (A) (A) (A) (A)
                 (A) (A) (A) (A) (A) (A) (A) (A) (A) (A) (A) (A)
                 (A) (A) (A) (A) (A) (A) (A) (A) (A) (A) (A) (A)
                 (A) (A) (A) (A) (A) (A) (A) (A) (A) (A) (A) (A)
                 (A) (A) (A) (A) (A) (A) (A) (A) (A) (A) (A) (A)
                 (A) (A) (A) (A) (A) (A) (A) (A) (A) (A) (A) (A)
                 (A) (A) (A) (A) (A) (A) (A) (A) (A) (A) (A) (A)
                 (A) (A) (A) (A) (A) (A) (A) (A) (A) (A) (A) (A)
                 (A) (A) (A) (A) (A) (A) (A) (A) (A) (A) (A) (A)
                 (A) (A) (A) (A) (A) (A) (A) (A) (A) (A) (A) (A)
                 (A) (A) (A) (A) (A) (A) (A) (A) (A) (A) (A) (A)
                 (A) (A) (A) (A) (A) (A) (A) (A) (A) (A) (A) (A)
                 (A) (A) (A) (A) (A) (A) (A) (A) (A) (A) (A) (A)
                 (A) (A) (A) (A) (A) (A) (A) (A) (A) (A) (A) (A)
                 (A) (A) (A) (A) (A) (A) (A) (A) (A) (A) (A) (A)
                 (A) (A) (A) (A) (A) (A) (A) (A) (A) (A) (A) (A)
                 (A) (A) (A) (A) (A) (A) (A) (A) (A) (A) (A) (A)
                 (A) (A) (A) (A) (A) (A) (A) (A) (A) (A) (A) (A)
                 (A) (A) (A) (A) (A) (A) (A) (A) (A) (A) (A) (A)
                 (A) (A) (A) (A) (A) (A) (A) (A) (A) (A) (A) (A)
                 (A) (A) (A) (A) (A) (A) (A) (A) (A) (A) (A) (A)
                 (A) (A) (A) (A) (A) (A) (A) (A) (A) (A) (A) (A)
                 (A) (A) (A) (A) (A) (A) (A) (A) (A) (A) (A) (A)
                 (A) (A) (A) (A) (A) (A) (A) (A) (A) (A) (A) (A)
                 (A) (A) (A) (A) (A) (A) (A) (A) (A) (A) (A) (A)
                 (A) (A) (A) (A) (A) (A) (A) (A) (A) (A) (A) (A)
                 (A) (A) (A) (A) (A) (A) (A) (A) (A) (A) (A) (A)
                 (A) (A) (A) (A) (A) (A) (A) (A) (A) (A) (A) (A)
                 (A) (A) (A) (A) (A) (A) (A) (A) (A) (A) (A) (A)
                 (A) (A) (A) (A) (A) (A) (A) (A) (A) (A) (A) (A)
                 (A) (A) (A) (A) (A) (A) (A) (A) (A) (A) (A) (A)
                 (A) (A) (A) (A) (A) (A) (A) (A) (A) (A) (A) (A)
                 (A) (A) (A) (A) (A) (A) (A) (A) (A) (A) (A) (A)
                 (A) (A) (A) (A) (A) (A) (A) (A) (A) (A) (A) (A)
                 (A) (A) (A) (A) (A) (A) (A) (A) (A) (A) (A) (A)
                 (A) (A) (A) (A) (A) (A) (A) (A) (A) (A) (A) (A)
                 (A) (A) (A) (A) (A) (A) (A) (A) (A) (A) (A) (A)
                 (A) (A) (A) (A) (A) (A) (A) (A) (A) (A) (A) (A)
                 (A) (A) (A) (A) (A) (A) (A) (A) (A) (A) (A) (A)
                 (A) (A) (A) (A) (A) (A) (A) (A) (A) (A) (A) (A)
                 (A) (A) (A) (A) (A) (A) (A) (A) (A) (A) (A) (A)
                 (A) (A) (A) (A) (A) (A) (A) (A) (A) (A) (A) (A)
                 (A) (A) (A) (A) (A) (A) (A) (A) (A) (A) (A) (A)
                 (A) (A) (A) (A) (A) (A) (A) (A) (A) (A) (A) (A)
                 (A) (A) (A) (A) (A) (A) (A) (A) (A) (A) (A) (A)
                 (A) (A) (A) (A) (A) (A) (A) (A) (A) (A) (A) (A)
                 (A) (A) (A) (A) (A) (A) (A) (A) (A) (A) (A) (A)
                 (A) (A) (A) (A) (A) (A) (A) (A) (A) (A) (A) (A)
                 (A) (A) (A) (A) (A) (A) (A) (A) (A) (A) (A) (A)
                 (A) (A) (A) (A) (A) (A) (A) (A) (A) (A) (A) (A)
                 (A) (A) (A) (A) (A) (A) (A) (A) (A) (A) (A) (A)
                 (A) (A) (A) (A) (A) (A) (A) (A) (A) (A) (A) (A)
                 (A) (A) (A) (A) (A) (A) (A) (A) (A) (A) (A) (A)
                 (A) (A) (A) (A) (A) (A) (A) (A) (A) (A) (A) (A)
                 (A) (A) (A) (A) (A) (A) (A) (A) (A) (A) (A) (A)
                 (A) (A) (A) (A) (A) (A) (A) (A) (A) (A)
 The electronic state is 1-A.
 Alpha  occ. eigenvalues --  -19.18882 -19.16968 -19.13664 -19.13322 -19.12189
 Alpha  occ. eigenvalues --  -14.37614 -14.37163 -14.32656 -14.29854 -10.31907
 Alpha  occ. eigenvalues --  -10.31573 -10.28255 -10.25620 -10.24262 -10.23829
 Alpha  occ. eigenvalues --  -10.23602 -10.23360 -10.23318 -10.23141 -10.22911
 Alpha  occ. eigenvalues --  -10.22029 -10.21926 -10.21389 -10.21312 -10.21033
 Alpha  occ. eigenvalues --  -10.21012 -10.20935 -10.20866 -10.20822 -10.20750
 Alpha  occ. eigenvalues --  -10.20542 -10.20498 -10.20486 -10.20440 -10.20413
 Alpha  occ. eigenvalues --  -10.20402 -10.20238 -10.20224 -10.20181 -10.20062
 Alpha  occ. eigenvalues --  -10.19998 -10.19974 -10.19877 -10.19706 -10.19564
 Alpha  occ. eigenvalues --  -10.19398 -10.19337 -10.19329 -10.19255 -10.18955
 Alpha  occ. eigenvalues --  -10.18939 -10.18839 -10.18837 -10.18818 -10.18635
 Alpha  occ. eigenvalues --  -10.18605 -10.18419 -10.18235 -10.18225 -10.18125
 Alpha  occ. eigenvalues --  -10.17926 -10.17672 -10.16836 -10.16087  -1.10021
 Alpha  occ. eigenvalues --   -1.09577  -1.09203  -1.02210  -1.00247  -0.99891
 Alpha  occ. eigenvalues --   -0.95624  -0.94455  -0.94014  -0.85816  -0.82588
 Alpha  occ. eigenvalues --   -0.82208  -0.81321  -0.81133  -0.80634  -0.80270
 Alpha  occ. eigenvalues --   -0.80228  -0.79517  -0.79302  -0.78905  -0.77895
 Alpha  occ. eigenvalues --   -0.76801  -0.76040  -0.75820  -0.74692  -0.73805
 Alpha  occ. eigenvalues --   -0.73179  -0.72951  -0.71865  -0.71341  -0.70463
 Alpha  occ. eigenvalues --   -0.69981  -0.69685  -0.68563  -0.67872  -0.67627
 Alpha  occ. eigenvalues --   -0.67241  -0.67130  -0.66557  -0.65756  -0.64617
 Alpha  occ. eigenvalues --   -0.64046  -0.63183  -0.62696  -0.61663  -0.60701
 Alpha  occ. eigenvalues --   -0.59695  -0.58797  -0.58233  -0.57948  -0.57469
 Alpha  occ. eigenvalues --   -0.56998  -0.56460  -0.56005  -0.55740  -0.55513
 Alpha  occ. eigenvalues --   -0.55073  -0.54486  -0.53114  -0.53081  -0.52812
 Alpha  occ. eigenvalues --   -0.52579  -0.52149  -0.51652  -0.51212  -0.50938
 Alpha  occ. eigenvalues --   -0.49910  -0.49604  -0.49259  -0.49112  -0.48071
 Alpha  occ. eigenvalues --   -0.47846  -0.47631  -0.47369  -0.47307  -0.47219
 Alpha  occ. eigenvalues --   -0.46598  -0.46327  -0.46084  -0.45982  -0.45729
 Alpha  occ. eigenvalues --   -0.45423  -0.45214  -0.45004  -0.44617  -0.44542
 Alpha  occ. eigenvalues --   -0.44421  -0.44129  -0.43908  -0.43749  -0.43442
 Alpha  occ. eigenvalues --   -0.43370  -0.43319  -0.43127  -0.42915  -0.42685
 Alpha  occ. eigenvalues --   -0.42260  -0.42037  -0.41967  -0.41913  -0.41690
 Alpha  occ. eigenvalues --   -0.41444  -0.41212  -0.41001  -0.40941  -0.40642
 Alpha  occ. eigenvalues --   -0.40195  -0.39885  -0.39794  -0.39752  -0.39531
 Alpha  occ. eigenvalues --   -0.39069  -0.38928  -0.38894  -0.38778  -0.38627
 Alpha  occ. eigenvalues --   -0.38524  -0.38288  -0.38150  -0.37990  -0.37932
 Alpha  occ. eigenvalues --   -0.37903  -0.37403  -0.37183  -0.36959  -0.36716
 Alpha  occ. eigenvalues --   -0.36706  -0.36380  -0.36180  -0.36131  -0.35740
 Alpha  occ. eigenvalues --   -0.35716  -0.35345  -0.35201  -0.34714  -0.34704
 Alpha  occ. eigenvalues --   -0.34606  -0.34540  -0.34213  -0.33886  -0.33339
 Alpha  occ. eigenvalues --   -0.33221  -0.33147  -0.32770  -0.32352  -0.32181
 Alpha  occ. eigenvalues --   -0.32019  -0.31493  -0.31423  -0.30996  -0.30834
 Alpha  occ. eigenvalues --   -0.30726  -0.30551  -0.30468  -0.30260  -0.30120
 Alpha  occ. eigenvalues --   -0.29547  -0.28921  -0.28687  -0.28280  -0.27813
 Alpha  occ. eigenvalues --   -0.27643  -0.27056  -0.26853  -0.26273  -0.25771
 Alpha  occ. eigenvalues --   -0.25533  -0.25107  -0.23059  -0.22500  -0.20774
 Alpha  occ. eigenvalues --   -0.18070
 Alpha virt. eigenvalues --   -0.09920  -0.07981  -0.03941  -0.01186  -0.00641
 Alpha virt. eigenvalues --   -0.00470   0.00953   0.01592   0.01974   0.03461
 Alpha virt. eigenvalues --    0.03556   0.03562   0.04007   0.04131   0.04387
 Alpha virt. eigenvalues --    0.04653   0.05020   0.05118   0.05573   0.05702
 Alpha virt. eigenvalues --    0.05814   0.05962   0.06426   0.06433   0.06574
 Alpha virt. eigenvalues --    0.06733   0.06841   0.07151   0.07339   0.07752
 Alpha virt. eigenvalues --    0.07877   0.07964   0.08286   0.08757   0.08839
 Alpha virt. eigenvalues --    0.09026   0.09150   0.09276   0.09412   0.09767
 Alpha virt. eigenvalues --    0.09927   0.10122   0.10173   0.10332   0.10750
 Alpha virt. eigenvalues --    0.10971   0.11006   0.11131   0.11461   0.11663
 Alpha virt. eigenvalues --    0.11798   0.11954   0.12132   0.12182   0.12251
 Alpha virt. eigenvalues --    0.12453   0.12594   0.12780   0.12961   0.13138
 Alpha virt. eigenvalues --    0.13175   0.13463   0.13764   0.13840   0.13951
 Alpha virt. eigenvalues --    0.14275   0.14424   0.14540   0.14885   0.15036
 Alpha virt. eigenvalues --    0.15114   0.15162   0.15819   0.15930   0.16120
 Alpha virt. eigenvalues --    0.16290   0.16477   0.16601   0.16936   0.16981
 Alpha virt. eigenvalues --    0.17220   0.17456   0.17780   0.17826   0.18038
 Alpha virt. eigenvalues --    0.18108   0.18459   0.18477   0.18668   0.18941
 Alpha virt. eigenvalues --    0.19126   0.19262   0.19405   0.19570   0.19781
 Alpha virt. eigenvalues --    0.20046   0.20245   0.20487   0.20699   0.20829
 Alpha virt. eigenvalues --    0.21160   0.21341   0.21750   0.21908   0.22063
 Alpha virt. eigenvalues --    0.22223   0.22513   0.22645   0.22866   0.23067
 Alpha virt. eigenvalues --    0.23487   0.23754   0.23989   0.24223   0.24410
 Alpha virt. eigenvalues --    0.24770   0.24933   0.25363   0.25617   0.25692
 Alpha virt. eigenvalues --    0.26457   0.26503   0.26611   0.26898   0.27330
 Alpha virt. eigenvalues --    0.27588   0.27922   0.28596   0.28824   0.29078
 Alpha virt. eigenvalues --    0.29603   0.29946   0.30174   0.30479   0.31289
 Alpha virt. eigenvalues --    0.31996   0.32088   0.32664   0.32997   0.33487
 Alpha virt. eigenvalues --    0.33604   0.33831   0.34105   0.34418   0.34738
 Alpha virt. eigenvalues --    0.35491   0.35848   0.36534   0.37005   0.37342
 Alpha virt. eigenvalues --    0.37611   0.38204   0.38435   0.38574   0.38915
 Alpha virt. eigenvalues --    0.39011   0.39270   0.39498   0.40136   0.40187
 Alpha virt. eigenvalues --    0.40226   0.40414   0.40733   0.40797   0.40925
 Alpha virt. eigenvalues --    0.41134   0.41214   0.41443   0.41819   0.42053
 Alpha virt. eigenvalues --    0.42229   0.42499   0.42729   0.43079   0.43088
 Alpha virt. eigenvalues --    0.43524   0.43647   0.43816   0.44016   0.44294
 Alpha virt. eigenvalues --    0.44400   0.44515   0.45097   0.45296   0.45377
 Alpha virt. eigenvalues --    0.45694   0.45860   0.46092   0.46288   0.46348
 Alpha virt. eigenvalues --    0.46560   0.46989   0.47245   0.47361   0.47623
 Alpha virt. eigenvalues --    0.47720   0.48064   0.48208   0.48422   0.48608
 Alpha virt. eigenvalues --    0.48751   0.49153   0.49665   0.50146   0.50218
 Alpha virt. eigenvalues --    0.50338   0.50592   0.50771   0.51149   0.51403
 Alpha virt. eigenvalues --    0.51688   0.51828   0.52111   0.52288   0.52568
 Alpha virt. eigenvalues --    0.52663   0.53071   0.53274   0.53491   0.53716
 Alpha virt. eigenvalues --    0.54417   0.54499   0.54644   0.54969   0.55421
 Alpha virt. eigenvalues --    0.55673   0.55804   0.56123   0.56129   0.56297
 Alpha virt. eigenvalues --    0.56436   0.56726   0.56824   0.56895   0.57049
 Alpha virt. eigenvalues --    0.57299   0.57389   0.57668   0.57798   0.58222
 Alpha virt. eigenvalues --    0.58325   0.58387   0.58492   0.58573   0.58912
 Alpha virt. eigenvalues --    0.59057   0.59230   0.59390   0.59717   0.59833
 Alpha virt. eigenvalues --    0.59918   0.60101   0.60296   0.60529   0.60703
 Alpha virt. eigenvalues --    0.61027   0.61126   0.61249   0.61491   0.61658
 Alpha virt. eigenvalues --    0.61773   0.62016   0.62071   0.62244   0.62515
 Alpha virt. eigenvalues --    0.62619   0.62662   0.62690   0.62872   0.63315
 Alpha virt. eigenvalues --    0.63450   0.63698   0.63718   0.63806   0.64042
 Alpha virt. eigenvalues --    0.64161   0.64223   0.64496   0.64543   0.64607
 Alpha virt. eigenvalues --    0.64726   0.64838   0.65013   0.65176   0.65275
 Alpha virt. eigenvalues --    0.65589   0.65716   0.65787   0.65847   0.65937
 Alpha virt. eigenvalues --    0.65975   0.66217   0.66366   0.66541   0.66563
 Alpha virt. eigenvalues --    0.66641   0.66818   0.66884   0.67011   0.67142
 Alpha virt. eigenvalues --    0.67352   0.67553   0.67722   0.67788   0.68023
 Alpha virt. eigenvalues --    0.68079   0.68246   0.68414   0.68634   0.68766
 Alpha virt. eigenvalues --    0.68895   0.68931   0.69072   0.69216   0.69227
 Alpha virt. eigenvalues --    0.69410   0.69647   0.69863   0.69994   0.70131
 Alpha virt. eigenvalues --    0.70373   0.70596   0.70765   0.70850   0.70963
 Alpha virt. eigenvalues --    0.71068   0.71297   0.71364   0.71445   0.71604
 Alpha virt. eigenvalues --    0.71794   0.71957   0.72018   0.72096   0.72572
 Alpha virt. eigenvalues --    0.72893   0.73023   0.73196   0.73369   0.73539
 Alpha virt. eigenvalues --    0.73697   0.73746   0.74048   0.74284   0.74480
 Alpha virt. eigenvalues --    0.74578   0.74613   0.74943   0.75418   0.75631
 Alpha virt. eigenvalues --    0.75658   0.75808   0.75900   0.76117   0.76374
 Alpha virt. eigenvalues --    0.76576   0.76716   0.76826   0.76940   0.77491
 Alpha virt. eigenvalues --    0.77589   0.77849   0.78129   0.78189   0.78359
 Alpha virt. eigenvalues --    0.78692   0.78984   0.79213   0.79814   0.79970
 Alpha virt. eigenvalues --    0.80033   0.80414   0.80810   0.80896   0.81149
 Alpha virt. eigenvalues --    0.81349   0.81645   0.82175   0.82498   0.82854
 Alpha virt. eigenvalues --    0.83728   0.84117   0.85197   0.85392   0.85947
 Alpha virt. eigenvalues --    0.86296   0.87335   0.87640   0.87813   0.88348
 Alpha virt. eigenvalues --    0.89393   0.89711   0.90267   0.90817   0.90916
 Alpha virt. eigenvalues --    0.90969   0.91590   0.92195   0.92291   0.92597
 Alpha virt. eigenvalues --    0.93237   0.93967   0.94229   0.94545   0.95166
 Alpha virt. eigenvalues --    0.95559   0.95843   0.96355   0.97342   0.97503
 Alpha virt. eigenvalues --    0.98345   0.98625   0.99145   0.99845   0.99875
 Alpha virt. eigenvalues --    1.00565   1.00852   1.01396   1.01907   1.02090
 Alpha virt. eigenvalues --    1.02282   1.02425   1.03093   1.03215   1.03544
 Alpha virt. eigenvalues --    1.04128   1.04171   1.05032   1.05398   1.05975
 Alpha virt. eigenvalues --    1.06296   1.06593   1.06896   1.07462   1.07987
 Alpha virt. eigenvalues --    1.08357   1.09200   1.09377   1.09862   1.10002
 Alpha virt. eigenvalues --    1.10227   1.10895   1.11210   1.12004   1.12334
 Alpha virt. eigenvalues --    1.12787   1.13743   1.13974   1.14414   1.14594
 Alpha virt. eigenvalues --    1.15249   1.15443   1.15979   1.16266   1.16914
 Alpha virt. eigenvalues --    1.17097   1.18021   1.18114   1.18722   1.19296
 Alpha virt. eigenvalues --    1.19469   1.19775   1.19935   1.20331   1.20986
 Alpha virt. eigenvalues --    1.21358   1.21578   1.22099   1.22517   1.23287
 Alpha virt. eigenvalues --    1.23409   1.23632   1.23847   1.24666   1.25062
 Alpha virt. eigenvalues --    1.25675   1.25850   1.26276   1.26558   1.26771
 Alpha virt. eigenvalues --    1.26864   1.27432   1.27810   1.28199   1.28467
 Alpha virt. eigenvalues --    1.29145   1.29356   1.29414   1.29560   1.29620
 Alpha virt. eigenvalues --    1.30689   1.31110   1.31788   1.31998   1.32263
 Alpha virt. eigenvalues --    1.32384   1.32723   1.32754   1.33088   1.33836
 Alpha virt. eigenvalues --    1.34047   1.34694   1.35062   1.35435   1.35840
 Alpha virt. eigenvalues --    1.36236   1.36427   1.36752   1.37071   1.37414
 Alpha virt. eigenvalues --    1.38625   1.38978   1.39333   1.40230   1.40295
 Alpha virt. eigenvalues --    1.41235   1.41662   1.41682   1.42085   1.43029
 Alpha virt. eigenvalues --    1.43804   1.44003   1.45053   1.45347   1.45814
 Alpha virt. eigenvalues --    1.46541   1.46675   1.46943   1.47812   1.48009
 Alpha virt. eigenvalues --    1.49037   1.49212   1.49306   1.49576   1.49678
 Alpha virt. eigenvalues --    1.50070   1.50324   1.50664   1.50937   1.51276
 Alpha virt. eigenvalues --    1.51375   1.51725   1.51934   1.52262   1.52378
 Alpha virt. eigenvalues --    1.52691   1.53159   1.53297   1.53527   1.53852
 Alpha virt. eigenvalues --    1.54325   1.55004   1.55263   1.55503   1.55731
 Alpha virt. eigenvalues --    1.56220   1.56576   1.56666   1.57025   1.57290
 Alpha virt. eigenvalues --    1.57630   1.58231   1.58365   1.59217   1.59567
 Alpha virt. eigenvalues --    1.59672   1.59893   1.60171   1.61471   1.61670
 Alpha virt. eigenvalues --    1.61971   1.62180   1.62772   1.63050   1.63095
 Alpha virt. eigenvalues --    1.63140   1.63308   1.63698   1.64017   1.64186
 Alpha virt. eigenvalues --    1.64629   1.65027   1.65606   1.65736   1.66472
 Alpha virt. eigenvalues --    1.66498   1.66559   1.66716   1.66977   1.67344
 Alpha virt. eigenvalues --    1.67525   1.67735   1.68096   1.68274   1.68310
 Alpha virt. eigenvalues --    1.68655   1.68833   1.69246   1.69525   1.70131
 Alpha virt. eigenvalues --    1.70174   1.70470   1.70949   1.71303   1.71513
 Alpha virt. eigenvalues --    1.71727   1.71812   1.71872   1.72056   1.72355
 Alpha virt. eigenvalues --    1.72538   1.72996   1.73276   1.73583   1.73786
 Alpha virt. eigenvalues --    1.73904   1.74223   1.74333   1.74396   1.74557
 Alpha virt. eigenvalues --    1.74840   1.75257   1.75726   1.75799   1.75945
 Alpha virt. eigenvalues --    1.75978   1.76063   1.76320   1.76646   1.77055
 Alpha virt. eigenvalues --    1.77394   1.77735   1.77902   1.77998   1.78148
 Alpha virt. eigenvalues --    1.78376   1.78555   1.78628   1.78707   1.79116
 Alpha virt. eigenvalues --    1.79204   1.79281   1.79305   1.79480   1.79573
 Alpha virt. eigenvalues --    1.79879   1.80151   1.80248   1.80383   1.80575
 Alpha virt. eigenvalues --    1.80895   1.81050   1.81077   1.81570   1.81825
 Alpha virt. eigenvalues --    1.82066   1.82509   1.82526   1.82600   1.82862
 Alpha virt. eigenvalues --    1.82893   1.83488   1.83545   1.83669   1.83796
 Alpha virt. eigenvalues --    1.84210   1.84495   1.84979   1.85007   1.85244
 Alpha virt. eigenvalues --    1.85451   1.85570   1.85652   1.86294   1.86888
 Alpha virt. eigenvalues --    1.87001   1.87150   1.87593   1.88066   1.88257
 Alpha virt. eigenvalues --    1.88520   1.88623   1.89328   1.89428   1.89909
 Alpha virt. eigenvalues --    1.90000   1.90184   1.90413   1.90613   1.90844
 Alpha virt. eigenvalues --    1.91051   1.91304   1.91695   1.91740   1.91813
 Alpha virt. eigenvalues --    1.92257   1.92576   1.92900   1.93115   1.93266
 Alpha virt. eigenvalues --    1.93586   1.93875   1.94223   1.94500   1.95039
 Alpha virt. eigenvalues --    1.95280   1.95452   1.95659   1.95740   1.95951
 Alpha virt. eigenvalues --    1.96573   1.96660   1.96855   1.97045   1.97375
 Alpha virt. eigenvalues --    1.97471   1.97752   1.98229   1.98454   1.98802
 Alpha virt. eigenvalues --    1.99156   1.99346   1.99489   1.99809   2.00350
 Alpha virt. eigenvalues --    2.00663   2.00753   2.00886   2.01472   2.01799
 Alpha virt. eigenvalues --    2.02056   2.02184   2.02287   2.02647   2.02910
 Alpha virt. eigenvalues --    2.03190   2.03509   2.03925   2.04238   2.04433
 Alpha virt. eigenvalues --    2.04755   2.05184   2.05237   2.05726   2.06789
 Alpha virt. eigenvalues --    2.07387   2.07445   2.08030   2.08360   2.08574
 Alpha virt. eigenvalues --    2.08760   2.08942   2.09255   2.09711   2.09890
 Alpha virt. eigenvalues --    2.09935   2.10255   2.10773   2.11108   2.11541
 Alpha virt. eigenvalues --    2.12036   2.12375   2.12484   2.13256   2.13626
 Alpha virt. eigenvalues --    2.13725   2.14601   2.15259   2.15939   2.16044
 Alpha virt. eigenvalues --    2.16259   2.16799   2.17185   2.17768   2.18223
 Alpha virt. eigenvalues --    2.18277   2.18723   2.18914   2.19480   2.19574
 Alpha virt. eigenvalues --    2.19955   2.20222   2.20460   2.21001   2.21112
 Alpha virt. eigenvalues --    2.21387   2.21719   2.21823   2.22372   2.23455
 Alpha virt. eigenvalues --    2.23573   2.24171   2.24318   2.24547   2.25206
 Alpha virt. eigenvalues --    2.25513   2.25981   2.26553   2.26975   2.27583
 Alpha virt. eigenvalues --    2.27761   2.27852   2.28647   2.28924   2.29136
 Alpha virt. eigenvalues --    2.29389   2.29704   2.30015   2.30375   2.30526
 Alpha virt. eigenvalues --    2.31403   2.31922   2.32173   2.32354   2.32576
 Alpha virt. eigenvalues --    2.33021   2.33611   2.34190   2.34664   2.34731
 Alpha virt. eigenvalues --    2.34913   2.36094   2.36234   2.36428   2.36999
 Alpha virt. eigenvalues --    2.37109   2.37533   2.37828   2.37944   2.38082
 Alpha virt. eigenvalues --    2.38515   2.38842   2.39604   2.40021   2.40408
 Alpha virt. eigenvalues --    2.40735   2.41160   2.41390   2.41973   2.42093
 Alpha virt. eigenvalues --    2.42401   2.42910   2.43228   2.43452   2.43850
 Alpha virt. eigenvalues --    2.44002   2.44502   2.44559   2.45102   2.45961
 Alpha virt. eigenvalues --    2.47317   2.47397   2.47575   2.47742   2.48295
 Alpha virt. eigenvalues --    2.48889   2.48985   2.49543   2.49731   2.49833
 Alpha virt. eigenvalues --    2.50113   2.50481   2.51164   2.51938   2.52245
 Alpha virt. eigenvalues --    2.52260   2.53069   2.53347   2.53530   2.53564
 Alpha virt. eigenvalues --    2.53790   2.54443   2.54808   2.54982   2.56462
 Alpha virt. eigenvalues --    2.56862   2.57560   2.57772   2.58274   2.58654
 Alpha virt. eigenvalues --    2.59471   2.59546   2.59736   2.61127   2.61307
 Alpha virt. eigenvalues --    2.61447   2.61900   2.61958   2.62160   2.62863
 Alpha virt. eigenvalues --    2.63314   2.63448   2.64000   2.64248   2.64471
 Alpha virt. eigenvalues --    2.64932   2.65086   2.65262   2.66108   2.66229
 Alpha virt. eigenvalues --    2.66791   2.67172   2.67758   2.68020   2.68581
 Alpha virt. eigenvalues --    2.69124   2.69812   2.70589   2.70813   2.70895
 Alpha virt. eigenvalues --    2.71244   2.72189   2.72316   2.72660   2.73146
 Alpha virt. eigenvalues --    2.73851   2.74196   2.75066   2.75201   2.75295
 Alpha virt. eigenvalues --    2.75467   2.76576   2.76856   2.77141   2.77454
 Alpha virt. eigenvalues --    2.78382   2.78440   2.78903   2.79658   2.79708
 Alpha virt. eigenvalues --    2.79890   2.80140   2.80561   2.80949   2.81618
 Alpha virt. eigenvalues --    2.81858   2.82610   2.82647   2.82957   2.83604
 Alpha virt. eigenvalues --    2.84111   2.84691   2.85526   2.85924   2.86202
 Alpha virt. eigenvalues --    2.86335   2.86771   2.87009   2.87416   2.87454
 Alpha virt. eigenvalues --    2.87805   2.88714   2.89431   2.89838   2.90280
 Alpha virt. eigenvalues --    2.90856   2.91201   2.91319   2.91871   2.92028
 Alpha virt. eigenvalues --    2.92442   2.92627   2.93033   2.93750   2.94369
 Alpha virt. eigenvalues --    2.94704   2.94953   2.95152   2.95333   2.95667
 Alpha virt. eigenvalues --    2.96259   2.96481   2.97607   2.97921   2.98440
 Alpha virt. eigenvalues --    2.99240   2.99959   3.00590   3.02703   3.03591
 Alpha virt. eigenvalues --    3.04049   3.04220   3.04878   3.04954   3.05827
 Alpha virt. eigenvalues --    3.06416   3.07254   3.07664   3.07910   3.09294
 Alpha virt. eigenvalues --    3.09358   3.09409   3.09922   3.12150   3.13101
 Alpha virt. eigenvalues --    3.14157   3.15151   3.16188   3.16741   3.17539
 Alpha virt. eigenvalues --    3.18627   3.18918   3.18993   3.19505   3.20952
 Alpha virt. eigenvalues --    3.23117   3.23603   3.24745   3.25097   3.25442
 Alpha virt. eigenvalues --    3.28023   3.28267   3.29793   3.33978   3.35731
 Alpha virt. eigenvalues --    3.38890   3.39406   3.40010   3.42190   3.44791
 Alpha virt. eigenvalues --    3.47092   3.49884   3.54646   3.57180   3.60172
 Alpha virt. eigenvalues --    3.63699   3.65169   3.65437   3.67218   3.74596
          Condensed to atoms (all electrons):
 Mulliken charges:
               1
     1  C   -0.067542
     2  C   -0.117437
     3  C   -0.112073
     4  C   -0.102630
     5  N   -0.218071
     6  C   -0.093540
     7  C   -0.036045
     8  C   -0.027621
     9  C    0.047310
    10  C   -0.019482
    11  C    0.167933
    12  C    0.017500
    13  C    0.196600
    14  O   -0.199558
    15  O   -0.333415
    16  N   -0.213934
    17  C    0.153892
    18  C   -0.181040
    19  C    0.106522
    20  C    0.197118
    21  C    0.199490
    22  C   -0.135615
    23  C   -0.050755
    24  N   -0.198910
    25  C    0.001531
    26  C   -0.096410
    27  C   -0.098021
    28  C    0.069348
    29  C    0.053761
    30  C   -0.033257
    31  C   -0.027542
    32  N    0.030351
    33  C    0.026118
    34  C   -0.182057
    35  C   -0.059469
    36  C    0.111106
    37  C    0.126651
    38  C    0.024507
    39  O   -0.046990
    40  C    0.014391
    41  C    0.221473
    42  O   -0.256365
    43  O   -0.289811
    44  C    0.176760
    45  C    0.349985
    46  C   -0.091972
    47  C   -0.112913
    48  C   -0.013495
    49  C    0.029532
    50  C    0.111561
    51  C   -0.076885
    52  C   -0.037843
    53  C    0.104202
    54  C    0.010207
    55  C    0.031558
    56  C   -0.092256
    57  C   -0.069536
    58  C    0.095370
    59  C    0.061956
    60  C    0.005604
    61  C   -0.012302
    62  C   -0.142105
    63  C   -0.004432
    64  C    0.039598
    65  H    0.012197
    66  H   -0.018159
    67  H    0.023271
    68  H    0.048613
    69  H    0.014181
    70  H    0.024308
    71  H   -0.002952
    72  H    0.036816
    73  H    0.024375
    74  H   -0.082517
    75  H   -0.005345
    76  H    0.049499
    77  H    0.019128
    78  H   -0.033980
    79  H   -0.013702
    80  H    0.018293
    81  H    0.030283
    82  H    0.036636
    83  H    0.027348
    84  H    0.021653
    85  H    0.018880
    86  H    0.036212
    87  H    0.032130
    88  H    0.031122
    89  H    0.029508
    90  H    0.015307
    91  H    0.051826
    92  H    0.038803
    93  H   -0.019301
    94  H    0.042214
    95  H    0.065184
    96  H    0.041596
    97  H    0.018230
    98  H    0.006396
    99  H   -0.026464
   100  H   -0.001058
   101  H    0.027113
   102  H    0.034491
   103  H    0.042740
   104  H    0.031079
   105  H   -0.022684
   106  H   -0.037648
   107  H   -0.021026
   108  H   -0.008239
   109  H    0.009950
   110  H   -0.033596
   111  H   -0.064734
   112  H   -0.022223
   113  H   -0.000980
   114  H    0.008402
   115  H    0.017086
   116  H    0.046176
   117  H    0.002382
   118  H    0.007517
   119  H    0.017744
   120  H   -0.016775
   121  H   -0.001329
   122  H   -0.044242
   123  H    0.007559
   124  H   -0.009805
   125  H   -0.006669
   126  H    0.008752
   127  H    0.004480
   128  H   -0.007315
   129  H    0.019485
   130  H    0.004825
   131  H    0.009729
   132  H    0.010771
   133  H    0.031923
   134  H    0.022350
   135  H    0.013245
   136  H    0.007433
   137  H    0.229852
   138  H    0.141045
 Sum of Mulliken charges =   0.00000
 Mulliken charges with hydrogens summed into heavy atoms:
               1
     1  C   -0.067542
     2  C   -0.105241
     3  C   -0.130232
     4  C   -0.079359
     5  N   -0.218071
     6  C   -0.093540
     7  C    0.012568
     8  C   -0.013440
     9  C    0.047310
    10  C    0.038690
    11  C    0.109790
    12  C    0.061654
    13  C    0.196600
    14  O   -0.199558
    15  O   -0.333415
    16  N    0.015918
    17  C    0.153892
    18  C   -0.181040
    19  C    0.106522
    20  C    0.197118
    21  C    0.170935
    22  C   -0.117322
    23  C    0.016165
    24  N   -0.198910
    25  C    0.001531
    26  C   -0.096410
    27  C   -0.098021
    28  C    0.069348
    29  C    0.121642
    30  C    0.035085
    31  C    0.048395
    32  N    0.171397
    33  C    0.026118
    34  C   -0.182057
    35  C   -0.059469
    36  C    0.111106
    37  C    0.197980
    38  C    0.024507
    39  O   -0.046990
    40  C    0.056605
    41  C    0.221473
    42  O   -0.256365
    43  O   -0.289811
    44  C    0.301770
    45  C    0.329917
    46  C   -0.093030
    47  C   -0.112913
    48  C    0.090849
    49  C    0.037927
    50  C    0.052887
    51  C   -0.075174
    52  C   -0.071438
    53  C    0.016265
    54  C    0.035695
    55  C    0.080116
    56  C   -0.066995
    57  C   -0.086311
    58  C    0.057358
    59  C    0.045483
    60  C    0.018835
    61  C   -0.000132
    62  C   -0.137279
    63  C    0.047991
    64  C    0.082625
 Electronic spatial extent (au):  <R**2>=         177854.8109
 Charge=              0.0000 electrons
 Dipole moment (field-independent basis, Debye):
    X=              2.2321    Y=              3.1716    Z=              0.0674  Tot=              3.8790
 Quadrupole moment (field-independent basis, Debye-Ang):
   XX=           -368.7219   YY=           -377.1185   ZZ=           -396.9436
   XY=            -16.4829   XZ=              2.6969   YZ=             -0.3008
 Traceless Quadrupole moment (field-independent basis, Debye-Ang):
   XX=             12.2061   YY=              3.8095   ZZ=            -16.0156
   XY=            -16.4829   XZ=              2.6969   YZ=             -0.3008
 Octapole moment (field-independent basis, Debye-Ang**2):
  XXX=           -391.9795  YYY=             67.7626  ZZZ=             12.1486  XYY=           -109.9748
  XXY=             98.4193  XXZ=           -247.8686  XZZ=             50.1370  YZZ=            -26.5351
  YYZ=             64.4626  XYZ=            -23.5554
 Hexadecapole moment (field-independent basis, Debye-Ang**3):
 XXXX=        -226061.8391 YYYY=         -17457.8785 ZZZZ=          -4378.8873 XXXY=           -125.1574
 XXXZ=            -81.0136 YYYX=          -1034.2596 YYYZ=           -184.7366 ZZZX=            -51.4484
 ZZZY=            -55.3218 XXYY=         -40211.4494 XXZZ=         -39331.4609 YYZZ=          -3630.5260
 XXYZ=            -43.4672 YYXZ=            -64.5720 ZZXY=             17.9949
 N-N= 8.299416649005D+03 E-N=-2.293350172415D+04  KE= 2.701735076852D+03
 1\1\GINC-PEDRO-RYZENSSD\SP\RB3LYP TD-FC\SVP\C55H74N4O5\PADAWAN\02-Aug-
 2019\0\\# td=(NStates=1) B3LYP/SVP\\TD\\0,1\C,0,-5.2066883669,-2.04951
 11932,0.4442693028\C,0,-4.6561559346,2.7170481565,1.4938257685\C,0,-9.
 2359635061,3.4401348127,-0.2639148594\C,0,-9.869805035,-1.351775981,-0
 .9757901324\N,0,-5.180507213,0.3870403269,0.8367121082\C,0,-4.54954357
 05,-0.8102577468,0.7621896624\C,0,-3.1172714136,-0.5955259873,1.264251
 4209\C,0,-3.1263075962,0.781337026,1.8898380896\C,0,-4.3593351266,1.36
 73865566,1.365110108\C,0,-2.9735959281,0.7868061929,3.3432821908\C,0,-
 2.1027023409,-0.926112573,0.1553934849\C,0,-0.5245456668,-0.7934575624
 ,0.604182871\C,0,0.3705307145,-1.1537522481,-0.52002356\O,0,0.03626539
 41,-1.6338757542,-1.5528889004\O,0,1.685158713,-0.8689136645,-0.163458
 7886\N,0,-6.9862532199,2.7770849803,0.484817991\C,0,-5.8381853939,3.31
 10255209,1.0172025772\C,0,-6.1285260383,4.7491013496,1.05057155\C,0,-7
 .433722469,5.0393727728,0.4805945869\C,0,-8.0594768936,3.6962881225,0.
 2184920046\C,0,-5.0874992664,5.7158070958,1.6121124772\C,0,-8.10719800
 25,6.2208560972,0.4420127026\C,0,-9.0080487031,6.6709768196,-0.3928217
 61\N,0,-9.261184319,0.9557528083,-0.4018626547\C,0,-9.876011464,2.1167
 641751,-0.5544447137\C,0,-11.2269765642,1.9826018212,-1.1547793118\C,0
 ,-11.3028842389,0.6448918293,-1.3212370784\C,0,-10.0973319589,-0.02295
 22469,-0.8600092434\C,0,-12.1885073516,2.9825667583,-1.4320262929\C,0,
 -12.6818859281,-0.1148139609,-1.7883997997\C,0,-12.3028404147,-0.56295
 95604,-3.2709952708\N,0,-7.4974687045,-1.2121729025,-0.3541339419\C,0,
 -8.5808596735,-1.9533840652,-0.6029736598\C,0,-8.2514875878,-3.3659234
 745,-0.6077033376\C,0,-6.9217370828,-3.3901158399,-0.3029979237\C,0,-6
 .5114522486,-2.0584186605,0.0000250787\C,0,-9.0651792755,-4.5721279623
 ,-1.0198809825\C,0,-5.8276697122,-4.3522302581,0.0527462202\O,0,-5.800
 0995002,-5.4719767278,0.058648599\C,0,-4.6139690255,-3.3875895206,0.52
 46815303\C,0,-3.9351673146,-3.9640805016,1.7259991256\O,0,-4.107755849
 1,-3.5226601999,2.8605341215\O,0,-3.0880674943,-4.9440893818,1.4154119
 691\C,0,-2.572321936,-5.5903684829,2.6382159612\C,0,2.6261747861,-0.96
 67505727,-1.182082234\C,0,3.9563988867,-0.754145917,-0.5070728074\C,0,
 4.8555978164,-0.0097799231,-1.0532992865\C,0,4.7841876145,0.9173024619
 ,-2.2729744142\C,0,6.2432760728,0.1692246617,-0.3179907133\C,0,7.49419
 06595,-0.3742636093,-0.9946963365\C,0,8.6877203731,-0.1712911142,-0.13
 25416017\C,0,10.0985207778,-0.6514394705,-0.7254498998\C,0,9.889534992
 1,-2.3284366466,-0.7550347884\C,0,11.337247575,-0.0983841531,0.0632757
 719\C,0,12.7087525495,-0.5764529625,-0.4912036435\C,0,13.8364822376,0.
 2230350773,0.2714391994\C,0,15.2683757494,-0.1082417057,-0.2861121691\
 C,0,15.6553151033,-1.6655054159,-0.0992086892\C,0,16.1815589002,0.7848
 129986,0.483017324\C,0,17.6986747563,0.7247653942,-0.1728711885\C,0,18
 .6510260269,1.7476090898,0.4454753637\C,0,20.118323734,1.6983776424,-0
 .0821564881\C,0,20.1794486438,1.9023268088,-1.5779658744\C,0,20.880070
 5284,2.6701083496,0.6770994981\H,0,-3.8196796283,3.390640296,1.9744123
 221\H,0,-9.8825461077,4.3268799301,-0.5223435571\H,0,-10.8607703334,-1
 .9508222377,-1.0279322663\H,0,-3.076089936,-1.4795171869,2.0525661323\
 H,0,-2.1907903935,1.5538356068,1.7098738996\H,0,-2.1432245805,-0.22488
 61202,3.7815572597\H,0,-2.6483703289,1.5665417039,3.882578453\H,0,-4.0
 605356505,0.3922644109,3.72873805\H,0,-2.3370292113,-1.9050452376,-0.3
 725417014\H,0,-2.2331966591,-0.3353573447,-0.5488115754\H,0,-0.2606818
 88,0.1117050241,1.0129416555\H,0,-0.3926296023,-1.418153774,1.62066957
 54\H,0,-4.1395187684,5.8982241905,0.9361764174\H,0,-5.5400392103,6.604
 8253972,1.6243317278\H,0,-4.6168297698,5.4543034743,2.4491190459\H,0,-
 7.7997249819,7.1008899635,1.1837999339\H,0,-9.4329386458,5.8827684373,
 -1.0804196281\H,0,-9.2316279094,7.7700257301,-0.3671469376\H,0,-12.303
 6447265,3.8718363708,-0.6664644595\H,0,-11.8179056389,3.620566014,-2.3
 021495318\H,0,-13.1947704998,2.5272305588,-1.6227566311\H,0,-12.716994
 0726,-1.1482037471,-1.041578909\H,0,-13.6287999045,0.5004642011,-1.770
 7794367\H,0,-11.855831213,0.2478816013,-3.8420215465\H,0,-11.627527720
 8,-1.4513127049,-3.2916481169\H,0,-13.3697237259,-0.9124203368,-3.7278
 203243\H,0,-9.9432008689,-4.7892182416,-0.3038826903\H,0,-9.4063346124
 ,-4.2297109171,-2.1478916874\H,0,-8.5350086756,-5.3733055976,-1.227890
 7446\H,0,-4.0947913305,-3.4719634865,-0.3940407527\H,0,-1.69376977,-6.
 3652016159,2.3630696411\H,0,-2.0455830047,-4.8999634802,3.4084452871\H
 ,0,-3.4459076072,-5.8552806197,3.1105979354\H,0,2.6629702045,-1.833480
 9916,-1.7634975168\H,0,2.405035398,-0.1956671475,-1.8863063978\H,0,4.3
 192746992,-1.2980221165,0.4064185449\H,0,5.2096127905,2.0350860176,-2.
 1350482246\H,0,5.5322698442,0.6033462971,-3.0447558772\H,0,3.591739292
 1,1.1326544522,-2.6012209472\H,0,6.3627642926,1.2938155066,0.074577266
 6\H,0,6.1605140961,-0.4662365133,0.5544531527\H,0,7.5124480297,-1.3152
 882534,-1.3878895486\H,0,7.654394982,0.1866106817,-1.9626310921\H,0,8.
 9543309205,1.0279016315,0.0581859669\H,0,8.4456276256,-0.5315273042,0.
 9567884912\H,0,10.1283555042,-0.4068481281,-1.7146660416\H,0,9.1488452
 007,-2.6117898722,-1.2449230401\H,0,10.7646714982,-2.7283244322,-1.099
 770582\H,0,9.7126562857,-2.8419258782,0.2635480855\H,0,11.0958548829,0
 .9827270528,0.1240409893\H,0,11.09226519,-0.5464998865,1.2013600662\H,
 0,12.9351182224,-1.7590674779,-0.2276859816\H,0,12.8212402762,-0.38078
 81578,-1.5542769614\H,0,13.6132624811,1.4903987507,0.1078636973\H,0,13
 .7380980368,0.1066242346,1.4346103069\H,0,15.2504773919,-0.0084096349,
 -1.3594079541\H,0,14.852730826,-2.2429968815,-0.6038897222\H,0,16.4894
 228158,-1.8289269293,-0.5269284767\H,0,15.6743527141,-1.9987150041,0.9
 64855757\H,0,15.8337136446,1.8409406644,0.4158520442\H,0,16.069751632,
 0.5110717305,1.5480482274\H,0,18.2871599377,-0.2264468552,-0.081328000
 6\H,0,17.4391184974,0.949036792,-1.2227107036\H,0,18.1575604455,2.6796
 743633,0.076363026\H,0,18.6629785521,1.7233281423,1.6593430843\H,0,20.
 4795042828,0.4301409751,-0.0390627501\H,0,19.5261299696,2.807278998,-1
 .8291148139\H,0,21.2282300667,2.1106791376,-1.8849115978\H,0,19.856910
 6641,0.9309487166,-2.1808802695\H,0,21.0091561521,2.3799094589,1.77732
 87695\H,0,21.9658094381,2.8361336408,0.1965438115\H,0,20.4135109805,3.
 6682600256,0.6830070386\H,0,-6.966818515,1.5756264358,0.5347253186\H,0
 ,-7.5994114895,-0.2052607021,-0.1697471023\\Version=ES64L-G09RevD.01\S
 tate=1-A\HF=-2732.9444674\RMSD=4.694e-09\PG=C01 [X(C55H74N4O5)]\\@


 THE MOST INCOMPREHENSIBLE THING ABOUT THE WORLD
 IS THAT IT IS COMPREHENSIBLE. -- A. EINSTEIN
 Job cpu time:       0 days  5 hours  7 minutes 43.5 seconds.
 File lengths (MBytes):  RWF=   1953 Int=      0 D2E=      0 Chk=    148 Scr=      1
 Normal termination of Gaussian 09 at Fri Aug  2 12:28:13 2019.
