 Entering Gaussian System, Link 0=g16
 Input=Geometria-241-.com
 Output=Geometria-241-.log
 Initial command:
 /usr/local/g09/l1.exe "/home/padawan/israel-mol/pheophytin/spectra/abs/Gau-97164.inp" -scrdir="/home/padawan/israel-mol/pheophytin/spectra/abs/"
 Entering Link 1 = /usr/local/g09/l1.exe PID=     97166.
  
 Copyright (c) 1988,1990,1992,1993,1995,1998,2003,2009,2013,
            Gaussian, Inc.  All Rights Reserved.
  
 This is part of the Gaussian(R) 09 program.  It is based on
 the Gaussian(R) 03 system (copyright 2003, Gaussian, Inc.),
 the Gaussian(R) 98 system (copyright 1998, Gaussian, Inc.),
 the Gaussian(R) 94 system (copyright 1995, Gaussian, Inc.),
 the Gaussian 92(TM) system (copyright 1992, Gaussian, Inc.),
 the Gaussian 90(TM) system (copyright 1990, Gaussian, Inc.),
 the Gaussian 88(TM) system (copyright 1988, Gaussian, Inc.),
 the Gaussian 86(TM) system (copyright 1986, Carnegie Mellon
 University), and the Gaussian 82(TM) system (copyright 1983,
 Carnegie Mellon University). Gaussian is a federally registered
 trademark of Gaussian, Inc.
  
 This software contains proprietary and confidential information,
 including trade secrets, belonging to Gaussian, Inc.
  
 This software is provided under written license and may be
 used, copied, transmitted, or stored only in accord with that
 written license.
  
 The following legend is applicable only to US Government
 contracts under FAR:
  
                    RESTRICTED RIGHTS LEGEND
  
 Use, reproduction and disclosure by the US Government is
 subject to restrictions as set forth in subparagraphs (a)
 and (c) of the Commercial Computer Software - Restricted
 Rights clause in FAR 52.227-19.
  
 Gaussian, Inc.
 340 Quinnipiac St., Bldg. 40, Wallingford CT 06492
  
  
 ---------------------------------------------------------------
 Warning -- This program may not be used in any manner that
 competes with the business of Gaussian, Inc. or will provide
 assistance to any competitor of Gaussian, Inc.  The licensee
 of this program is prohibited from giving any competitor of
 Gaussian, Inc. access to this program.  By using this program,
 the user acknowledges that Gaussian, Inc. is engaged in the
 business of creating and licensing software in the field of
 computational chemistry and represents and warrants to the
 licensee that it is not a competitor of Gaussian, Inc. and that
 it will not use this program in any manner prohibited above.
 ---------------------------------------------------------------
  

 Cite this work as:
 Gaussian 09, Revision D.01,
 M. J. Frisch, G. W. Trucks, H. B. Schlegel, G. E. Scuseria, 
 M. A. Robb, J. R. Cheeseman, G. Scalmani, V. Barone, B. Mennucci, 
 G. A. Petersson, H. Nakatsuji, M. Caricato, X. Li, H. P. Hratchian, 
 A. F. Izmaylov, J. Bloino, G. Zheng, J. L. Sonnenberg, M. Hada, 
 M. Ehara, K. Toyota, R. Fukuda, J. Hasegawa, M. Ishida, T. Nakajima, 
 Y. Honda, O. Kitao, H. Nakai, T. Vreven, J. A. Montgomery, Jr., 
 J. E. Peralta, F. Ogliaro, M. Bearpark, J. J. Heyd, E. Brothers, 
 K. N. Kudin, V. N. Staroverov, T. Keith, R. Kobayashi, J. Normand, 
 K. Raghavachari, A. Rendell, J. C. Burant, S. S. Iyengar, J. Tomasi, 
 M. Cossi, N. Rega, J. M. Millam, M. Klene, J. E. Knox, J. B. Cross, 
 V. Bakken, C. Adamo, J. Jaramillo, R. Gomperts, R. E. Stratmann, 
 O. Yazyev, A. J. Austin, R. Cammi, C. Pomelli, J. W. Ochterski, 
 R. L. Martin, K. Morokuma, V. G. Zakrzewski, G. A. Voth, 
 P. Salvador, J. J. Dannenberg, S. Dapprich, A. D. Daniels, 
 O. Farkas, J. B. Foresman, J. V. Ortiz, J. Cioslowski, 
 and D. J. Fox, Gaussian, Inc., Wallingford CT, 2013.
 
 ******************************************
 Gaussian 09:  ES64L-G09RevD.01 24-Apr-2013
                 2-Aug-2019 
 ******************************************
 %nproc=3
 Will use up to    3 processors via shared memory.
 %Mem=2GB
 --------------------------
 # td=(NStates=1) B3LYP/SVP
 --------------------------
 1/38=1/1;
 2/12=2,17=6,18=5,40=1/2;
 3/5=18,7=101,11=9,16=1,25=1,30=1,74=-5/1,2,8,3;
 4//1;
 5/5=2,38=5/2;
 8/6=1,10=1,108=1/1;
 9/41=1,42=1,70=2/14;
 6/7=2,8=2,9=2,10=2/1;
 99/5=1,9=1/99;
 --
 TD
 --
 Symbolic Z-matrix:
 Charge =  0 Multiplicity = 1
 6                    -5.07554  -1.87067   0.51862 
 6                    -4.87393   2.87034   1.34054 
 6                    -9.44857   3.20024  -0.14426 
 6                    -9.81553  -1.55248  -0.94198 
 7                    -5.26508   0.47387   0.88517 
 6                    -4.51257  -0.68014   0.83004 
 6                    -3.03582  -0.39427   1.25169 
 6                    -3.01823   1.04725   1.77928 
 6                    -4.46279   1.50506   1.29003 
 6                    -2.99308   1.16604   3.3115 
 6                    -2.05495  -0.57852   0.00349 
 6                    -0.60515  -0.47575   0.55182 
 6                     0.31498  -0.80193  -0.68587 
 8                     0.09651  -1.33814  -1.76211 
 8                     1.54811  -0.62112  -0.21496 
 7                    -7.12081   2.69727   0.58433 
 6                    -6.05844   3.49327   1.02869 
 6                    -6.46745   4.90691   1.15588 
 6                    -7.74286   4.96535   0.50473 
 6                    -8.12031   3.52696   0.22102 
 6                    -5.49071   6.00461   1.57347 
 6                    -8.48802   6.20689   0.33652 
 6                    -9.28735   6.57954  -0.66288 
 7                    -9.28465   0.81503  -0.40226 
 6                    -10.00058   1.97123  -0.51366 
 6                    -11.3686   1.68567  -1.02625 
 6                    -11.44527   0.3127   -1.12289 
 6                    -10.15989  -0.2766   -0.88483 
 6                    -12.41411   2.68792  -1.28567 
 6                    -12.62225  -0.51071  -1.67474 
 6                    -12.74925  -0.67192  -3.23722 
 7                    -7.44769  -1.30971  -0.17313 
 6                    -8.5024   -2.05629  -0.55906 
 6                    -8.11897  -3.4871   -0.53477 
 6                    -6.87319  -3.41502  -0.11444 
 6                    -6.39852  -2.11647   0.0528 
 6                    -8.81627  -4.65302  -1.04748 
 6                    -5.67791  -4.3007    0.25501 
 8                    -5.55759  -5.48797   0.07983 
 6                    -4.47704  -3.32174   0.58156 
 6                    -3.81634  -3.7017    1.87348 
 8                    -3.99452  -3.2741    2.92686 
 8                    -2.91541  -4.76024   1.62554 
 6                    -2.31691  -5.39214   2.86999 
 6                     2.62795  -0.90684  -1.26454 
 6                     3.97263  -0.60635  -0.57253 
 6                     5.00136   0.15113  -1.10169 
 6                     4.84673   1.18131  -2.36882 
 6                     6.34971   0.22096  -0.4691 
 6                     7.48825  -0.29945  -1.31596 
 6                     8.87674  -0.1843   -0.45568 
 6                     10.17964  -0.56758  -1.11097 
 6                     10.21288  -2.13177  -1.53529 
 6                     11.39639  -0.19992  -0.06747 
 6                     12.70172  -0.39998  -0.77879 
 6                     13.82514  -0.04771   0.13212 
 6                     15.31135  -0.22225  -0.5088 
 6                     15.54168  -1.72457  -0.88171 
 6                     16.31656   0.25968   0.45953 
 6                     17.83802   0.55929  -0.16772 
 6                     18.59781   1.29547   1.02447 
 6                     20.1482   1.29417   0.50195 
 6                     20.40517   1.88485  -0.88623 
 6                     21.027    2.10404   1.56244 
 1                    -4.12116   3.61596   1.81299 
 1                    -10.07529   4.00638  -0.39273 
 1                    -10.50797  -2.38527  -1.19577 
 1                    -2.64336  -0.99653   2.16605 
 1                    -2.20169   1.8049    1.48844 
 1                    -1.94855   0.84044   3.66384 
 1                    -3.02807   2.25057   3.73238 
 1                    -3.69731   0.56578   3.74153 
 1                    -1.99263  -1.4577   -0.62954 
 1                    -2.24156   0.26621  -0.67123 
 1                    -0.28844   0.47241   0.8562 
 1                    -0.14303  -1.23339   1.20917 
 1                    -4.59217   6.04849   0.80089 
 1                    -6.01449   6.87219   1.89216 
 1                    -5.16846   5.60381   2.60113 
 1                    -8.14525   6.99736   1.11397 
 1                    -9.66142   5.87299  -1.3327 
 1                    -9.69783   7.39771  -0.81166 
 1                    -12.65224   3.39509  -0.39862 
 1                    -12.07578   3.27827  -2.20175 
 1                    -13.27504   2.40743  -1.81094 
 1                    -12.68421  -1.40479  -1.25219 
 1                    -13.50897   0.02681  -1.0336 
 1                    -12.9687   0.44262  -3.41584 
 1                    -11.64439  -0.97771  -3.54572 
 1                    -13.81997  -1.21514  -3.41427 
 1                    -9.98962  -4.8872   -0.82725 
 1                    -8.8886   -4.50474  -2.25824 
 1                    -8.25636  -5.49274  -0.77491 
 1                    -3.64923  -3.28343  -0.12285 
 1                    -1.69843  -6.20638   2.66282 
 1                    -1.78659  -4.65974   3.54005 
 1                    -3.07176  -5.89423   3.78844 
 1                     2.65074  -1.88493  -1.46682 
 1                     2.48675  -0.16954  -2.13726 
 1                     4.2594   -1.29146   0.17871 
 1                     5.52195   2.05236  -2.13711 
 1                     5.34472   0.5922   -3.14244 
 1                     3.79764   1.33872  -2.77068 
 1                     6.57434   1.26514  -0.24388 
 1                     6.40455  -0.27691   0.5965 
 1                     7.39489  -1.30132  -1.79214 
 1                     7.63783   0.50241  -2.22108 
 1                     8.71885   0.68     -0.02269 
 1                     8.70583  -0.9975    0.61409 
 1                     10.22518   0.05434  -2.0604 
 1                     9.28691  -2.21414  -2.26025 
 1                     11.07952  -2.34124  -1.93132 
 1                     10.23158  -2.69707  -0.6941 
 1                     11.20432   0.74231   0.30936 
 1                     11.16998  -1.16106   0.69382 
 1                     12.58116  -1.49386  -1.07639 
 1                     12.89484  -0.01416  -1.85202 
 1                     13.79483   1.08425   0.60811 
 1                     13.64272  -0.55378   1.09041 
 1                     15.45173   0.35207  -1.42341 
 1                     14.79544  -1.99033  -1.60701 
 1                     16.41154  -1.87928  -1.56646 
 1                     15.7134  -2.42935   0.00157 
 1                     16.01777   1.22927   1.10505 
 1                     16.85827  -0.53998   1.34554 
 1                     18.46125  -0.32458  -0.33243 
 1                     17.49343   1.02646  -1.16145 
 1                     18.19765   2.42538   0.93834 
 1                     18.26962   0.80628   1.85707 
 1                     20.31329   0.11508   0.62876 
 1                     19.87611   2.78334  -1.12711 
 1                     21.49963   2.22422  -0.8645 
 1                     20.05563   1.15829  -1.79889 
 1                     20.83584   1.6955    2.69145 
 1                     22.14116   2.05029   1.40481 
 1                     20.75852   3.16973   1.62619 
 1                    -7.11331   1.8432    0.42844 
 1                    -7.80795  -0.10683  -0.34941 
 
 Stoichiometry    C55H74N4O5
 Framework group  C1[X(C55H74N4O5)]
 Deg. of freedom   408
 Full point group                 C1      NOp   1
 Largest Abelian subgroup         C1      NOp   1
 Largest concise Abelian subgroup C1      NOp   1
                         Standard orientation:                         
 ---------------------------------------------------------------------
 Center     Atomic      Atomic             Coordinates (Angstroms)
 Number     Number       Type             X           Y           Z
 ---------------------------------------------------------------------
      1          6           0       -5.068050   -1.890047    0.543822
      2          6           0       -4.891013    2.860470    1.314987
      3          6           0       -9.468245    3.150340   -0.170206
      4          6           0       -9.810549   -1.612490   -0.916927
      5          7           0       -5.269761    0.457240    0.885465
      6          6           0       -4.511198   -0.693306    0.842148
      7          6           0       -3.035727   -0.395149    1.259745
      8          6           0       -3.025431    1.051991    1.771912
      9          6           0       -4.472689    1.496916    1.278773
     10          6           0       -2.999977    1.187257    3.302762
     11          6           0       -2.054651   -0.587529    0.012927
     12          6           0       -0.605087   -0.471256    0.559164
     13          6           0        0.315999   -0.805763   -0.675586
     14          8           0        0.099718   -1.354573   -1.745898
     15          8           0        1.548442   -0.613431   -0.207457
     16          7           0       -7.137406    2.667470    0.562159
     17          6           0       -6.078990    3.473773    0.997301
     18          6           0       -6.495394    4.886503    1.109673
     19          6           0       -7.771495    4.931253    0.458781
     20          6           0       -8.141507    3.487950    0.190688
     21          6           0       -5.524218    5.993739    1.514875
     22          6           0       -8.523305    6.166984    0.277837
     23          6           0       -9.325204    6.524715   -0.724951
     24          7           0       -9.291864    0.763410   -0.402855
     25          6           0      -10.013972    1.914559   -0.526104
     26          6           0      -11.380772    1.616327   -1.034704
     27          6           0      -11.450238    0.242015   -1.116641
     28          6           0      -10.161615   -0.337911   -0.873168
     29          6           0      -12.431724    2.610212   -1.304110
     30          6           0      -12.623185   -0.593443   -1.658893
     31          6           0      -12.750278   -0.771984   -3.219482
     32          7           0       -7.443562   -1.349035   -0.152287
     33          6           0       -8.494543   -2.105252   -0.529531
     34          6           0       -8.103540   -3.533668   -0.490231
     35          6           0       -6.857901   -3.450531   -0.071526
     36          6           0       -6.390001   -2.147788    0.081535
     37          6           0       -8.794978   -4.708660   -0.990017
     38          6           0       -5.657732   -4.325891    0.306551
     39          8           0       -5.531233   -5.514314    0.143972
     40          6           0       -4.461847   -3.337181    0.621841
     41          6           0       -3.798360   -3.699840    1.917307
     42          8           0       -3.978166   -3.261961    2.966181
     43          8           0       -2.892002   -4.756190    1.680073
     44          6           0       -2.289407   -5.371602    2.930791
     45          6           0        2.629148   -0.904634   -1.254644
     46          6           0        3.972638   -0.589676   -0.566773
     47          6           0        4.997027    0.167533   -1.104673
     48          6           0        4.836182    1.183304   -2.382618
     49          6           0        6.345369    0.251233   -0.473754
     50          6           0        7.486132   -0.272160   -1.315774
     51          6           0        8.874517   -0.140512   -0.457701
     52          6           0       10.179025   -0.523876   -1.109727
     53          6           0       10.220275   -2.092304   -1.517362
     54          6           0       11.394454   -0.138684   -0.071017
     55          6           0       12.700388   -0.339418   -0.781037
     56          6           0       13.822484    0.028474    0.125313
     57          6           0       15.309204   -0.145046   -0.514697
     58          6           0       15.547251   -1.650021   -0.871705
     59          6           0       16.312444    0.352495    0.447776
     60          6           0       17.831913    0.653423   -0.183653
     61          6           0       18.588527    1.406291    1.000114
     62          6           0       20.138580    1.407596    0.476604
     63          6           0       20.391582    1.984775   -0.917968
     64          6           0       21.013730    2.233371    1.527805
     65          1           0       -4.141911    3.615053    1.778950
     66          1           0      -10.099360    3.950459   -0.426842
     67          1           0      -10.498726   -2.451586   -1.161360
     68          1           0       -2.639524   -0.985540    2.180214
     69          1           0       -2.213091    1.810793    1.472467
     70          1           0       -1.953523    0.870952    3.657857
     71          1           0       -3.040446    2.276013    3.712076
     72          1           0       -3.700763    0.587907    3.739640
     73          1           0       -1.988076   -1.473075   -0.610725
     74          1           0       -2.246136    0.248956   -0.670644
     75          1           0       -0.293211    0.481754    0.853199
     76          1           0       -0.138568   -1.219387    1.224252
     77          1           0       -4.626398    6.034119    0.741277
     78          1           0       -6.052381    6.861898    1.824640
     79          1           0       -5.199232    5.605638    2.546543
     80          1           0       -8.184249    6.967500    1.046582
     81          1           0       -9.695945    5.809091   -1.386952
     82          1           0       -9.740103    7.339072   -0.882180
     83          1           0      -12.673049    3.325542   -0.424492
     84          1           0      -12.097080    3.192535   -2.226659
     85          1           0      -13.291478    2.319591   -1.825778
     86          1           0      -12.680160   -1.483274   -1.226789
     87          1           0      -13.512342   -0.053802   -1.022931
     88          1           0      -12.975734    0.339414   -3.409833
     89          1           0      -11.644009   -1.075204   -3.525440
     90          1           0      -13.818222   -1.322709   -3.390012
     91          1           0       -9.966930   -4.946671   -0.766511
     92          1           0       -8.868827   -4.573695   -2.202240
     93          1           0       -8.230466   -5.542456   -0.708868
     94          1           0       -3.634682   -3.302021   -0.083490
     95          1           0       -1.666760   -6.184726    2.731908
     96          1           0       -1.762559   -4.629303    3.592646
     97          1           0       -3.041035   -5.867847    3.855044
     98          1           0        2.656981   -1.884684   -1.446490
     99          1           0        2.483519   -0.177445   -2.135087
    100          1           0        4.263482   -1.265206    0.191537
    101          1           0        5.506927    2.060330   -2.160658
    102          1           0        5.336805    0.588607   -3.150232
    103          1           0        3.786025    1.330871   -2.785430
    104          1           0        6.564610    1.298932   -0.259844
    105          1           0        6.403492   -0.234938    0.597053
    106          1           0        7.397777   -1.279535   -1.781178
    107          1           0        7.630921    0.520772   -2.229495
    108          1           0        8.712320    0.727513   -0.033850
    109          1           0        8.708565   -0.943142    0.620805
    110          1           0       10.220694    0.088108   -2.065770
    111          1           0        9.294314   -2.187297   -2.240787
    112          1           0       11.087775   -2.301407   -1.911713
    113          1           0       10.242478   -2.648492   -0.670197
    114          1           0       11.197626    0.806494    0.295864
    115          1           0       11.173593   -1.092824    0.700630
    116          1           0       12.585434   -1.437039   -1.066868
    117          1           0       12.890808    0.035935   -1.858444
    118          1           0       13.786479    1.165273    0.589229
    119          1           0       13.643324   -0.468297    1.089069
    120          1           0       15.445986    0.420214   -1.435475
    121          1           0       14.801977   -1.927443   -1.593635
    122          1           0       16.417491   -1.807434   -1.555350
    123          1           0       15.723227   -2.344415    0.018925
    124          1           0       16.008924    1.327326    1.083111
    125          1           0       16.858913   -0.434796    1.341899
    126          1           0       18.459706   -0.228846   -0.339341
    127          1           0       17.484257    1.108142   -1.182084
    128          1           0       18.182350    2.533084    0.902197
    129          1           0       18.263435    0.924280    1.838103
    130          1           0       20.309981    0.230817    0.615878
    131          1           0       19.857635    2.877838   -1.168075
    132          1           0       21.484241    2.330138   -0.900591
    133          1           0       20.045332    1.246687   -1.822597
    134          1           0       20.825424    1.835898    2.661238
    135          1           0       22.128064    2.183820    1.370022
    136          1           0       20.739658    3.298246    1.580364
    137          1           0       -7.125492    1.811843    0.415391
    138          1           0       -7.810284   -0.150022   -0.341148
 ---------------------------------------------------------------------
 Rotational constants (GHZ):      0.0639398      0.0060918      0.0057475
 Standard basis: SVP (5D, 7F)
 There are  1330 symmetry adapted cartesian basis functions of A   symmetry.
 There are  1266 symmetry adapted basis functions of A   symmetry.
  1266 basis functions,  2118 primitive gaussians,  1330 cartesian basis functions
   236 alpha electrons      236 beta electrons
       nuclear repulsion energy      8250.9030612046 Hartrees.
 NAtoms=  138 NActive=  138 NUniq=  138 SFac= 1.00D+00 NAtFMM=   60 NAOKFM=T Big=T
 Integral buffers will be    131072 words long.
 Regular integral format.
 Two-electron integral symmetry is turned on.
 One-electron integrals computed using PRISM.
 NBasis=  1266 RedAO= T EigKep=  3.13D-04  NBF=  1266
 NBsUse=  1266 1.00D-06 EigRej= -1.00D+00 NBFU=  1266
 ExpMin= 1.22D-01 ExpMax= 2.27D+03 ExpMxC= 3.41D+02 IAcc=1 IRadAn=         1 AccDes= 0.00D+00
 Harris functional with IExCor=  402 and IRadAn=       1 diagonalized for initial guess.
 HarFok:  IExCor=  402 AccDes= 0.00D+00 IRadAn=         1 IDoV= 1 UseB2=F ITyADJ=14
 ICtDFT=  3500011 ScaDFX=  1.000000  1.000000  1.000000  1.000000
 FoFCou: FMM=F IPFlag=           0 FMFlag=      100000 FMFlg1=        2001
         NFxFlg=           0 DoJE=T BraDBF=F KetDBF=T FulRan=T
         wScrn=  0.000000 ICntrl=     500 IOpCl=  0 I1Cent=   200000004 NGrid=           0
         NMat0=    1 NMatS0=      1 NMatT0=    0 NMatD0=    1 NMtDS0=    0 NMtDT0=    0
 Petite list used in FoFCou.
 Requested convergence on RMS density matrix=1.00D-08 within 128 cycles.
 Requested convergence on MAX density matrix=1.00D-06.
 Requested convergence on             energy=1.00D-06.
 No special actions if energy rises.
 Integral accuracy reduced to 1.0D-05 until final iterations.
 Initial convergence to 1.0D-05 achieved.  Increase integral accuracy.
 SCF Done:  E(RB3LYP) =  -2732.94555369     A.U. after   17 cycles
            NFock= 17  Conv=0.42D-08     -V/T= 2.0120
 DoSCS=F DFT=T ScalE2(SS,OS)=  1.000000  1.000000
 ExpMin= 1.22D-01 ExpMax= 2.27D+03 ExpMxC= 3.41D+02 IAcc=3 IRadAn=         5 AccDes= 0.00D+00
 HarFok:  IExCor=  205 AccDes= 0.00D+00 IRadAn=         5 IDoV=-2 UseB2=F ITyADJ=14
 ICtDFT= 12500011 ScaDFX=  1.000000  1.000000  1.000000  1.000000
 Range of M.O.s used for correlation:    65  1266
 NBasis=  1266 NAE=   236 NBE=   236 NFC=    64 NFV=     0
 NROrb=   1202 NOA=   172 NOB=   172 NVA=  1030 NVB=  1030

 **** Warning!!: The smallest alpha delta epsilon is  0.86471695D-01

 Would need an additional        965744300000 words for in-memory AO integral storage.
 Orbital symmetries:
       Occupied  (A) (A) (A) (A) (A) (A) (A) (A) (A) (A) (A) (A)
                 (A) (A) (A) (A) (A) (A) (A) (A) (A) (A) (A) (A)
                 (A) (A) (A) (A) (A) (A) (A) (A) (A) (A) (A) (A)
                 (A) (A) (A) (A) (A) (A) (A) (A) (A) (A) (A) (A)
                 (A) (A) (A) (A) (A) (A) (A) (A) (A) (A) (A) (A)
                 (A) (A) (A) (A) (A) (A) (A) (A) (A) (A) (A) (A)
                 (A) (A) (A) (A) (A) (A) (A) (A) (A) (A) (A) (A)
                 (A) (A) (A) (A) (A) (A) (A) (A) (A) (A) (A) (A)
                 (A) (A) (A) (A) (A) (A) (A) (A) (A) (A) (A) (A)
                 (A) (A) (A) (A) (A) (A) (A) (A) (A) (A) (A) (A)
                 (A) (A) (A) (A) (A) (A) (A) (A) (A) (A) (A) (A)
                 (A) (A) (A) (A) (A) (A) (A) (A) (A) (A) (A) (A)
                 (A) (A) (A) (A) (A) (A) (A) (A) (A) (A) (A) (A)
                 (A) (A) (A) (A) (A) (A) (A) (A) (A) (A) (A) (A)
                 (A) (A) (A) (A) (A) (A) (A) (A) (A) (A) (A) (A)
                 (A) (A) (A) (A) (A) (A) (A) (A) (A) (A) (A) (A)
                 (A) (A) (A) (A) (A) (A) (A) (A) (A) (A) (A) (A)
                 (A) (A) (A) (A) (A) (A) (A) (A) (A) (A) (A) (A)
                 (A) (A) (A) (A) (A) (A) (A) (A) (A) (A) (A) (A)
                 (A) (A) (A) (A) (A) (A) (A) (A)
       Virtual   (A) (A) (A) (A) (A) (A) (A) (A) (A) (A) (A) (A)
                 (A) (A) (A) (A) (A) (A) (A) (A) (A) (A) (A) (A)
                 (A) (A) (A) (A) (A) (A) (A) (A) (A) (A) (A) (A)
                 (A) (A) (A) (A) (A) (A) (A) (A) (A) (A) (A) (A)
                 (A) (A) (A) (A) (A) (A) (A) (A) (A) (A) (A) (A)
                 (A) (A) (A) (A) (A) (A) (A) (A) (A) (A) (A) (A)
                 (A) (A) (A) (A) (A) (A) (A) (A) (A) (A) (A) (A)
                 (A) (A) (A) (A) (A) (A) (A) (A) (A) (A) (A) (A)
                 (A) (A) (A) (A) (A) (A) (A) (A) (A) (A) (A) (A)
                 (A) (A) (A) (A) (A) (A) (A) (A) (A) (A) (A) (A)
                 (A) (A) (A) (A) (A) (A) (A) (A) (A) (A) (A) (A)
                 (A) (A) (A) (A) (A) (A) (A) (A) (A) (A) (A) (A)
                 (A) (A) (A) (A) (A) (A) (A) (A) (A) (A) (A) (A)
                 (A) (A) (A) (A) (A) (A) (A) (A) (A) (A) (A) (A)
                 (A) (A) (A) (A) (A) (A) (A) (A) (A) (A) (A) (A)
                 (A) (A) (A) (A) (A) (A) (A) (A) (A) (A) (A) (A)
                 (A) (A) (A) (A) (A) (A) (A) (A) (A) (A) (A) (A)
                 (A) (A) (A) (A) (A) (A) (A) (A) (A) (A) (A) (A)
                 (A) (A) (A) (A) (A) (A) (A) (A) (A) (A) (A) (A)
                 (A) (A) (A) (A) (A) (A) (A) (A) (A) (A) (A) (A)
                 (A) (A) (A) (A) (A) (A) (A) (A) (A) (A) (A) (A)
                 (A) (A) (A) (A) (A) (A) (A) (A) (A) (A) (A) (A)
                 (A) (A) (A) (A) (A) (A) (A) (A) (A) (A) (A) (A)
                 (A) (A) (A) (A) (A) (A) (A) (A) (A) (A) (A) (A)
                 (A) (A) (A) (A) (A) (A) (A) (A) (A) (A) (A) (A)
                 (A) (A) (A) (A) (A) (A) (A) (A) (A) (A) (A) (A)
                 (A) (A) (A) (A) (A) (A) (A) (A) (A) (A) (A) (A)
                 (A) (A) (A) (A) (A) (A) (A) (A) (A) (A) (A) (A)
                 (A) (A) (A) (A) (A) (A) (A) (A) (A) (A) (A) (A)
                 (A) (A) (A) (A) (A) (A) (A) (A) (A) (A) (A) (A)
                 (A) (A) (A) (A) (A) (A) (A) (A) (A) (A) (A) (A)
                 (A) (A) (A) (A) (A) (A) (A) (A) (A) (A) (A) (A)
                 (A) (A) (A) (A) (A) (A) (A) (A) (A) (A) (A) (A)
                 (A) (A) (A) (A) (A) (A) (A) (A) (A) (A) (A) (A)
                 (A) (A) (A) (A) (A) (A) (A) (A) (A) (A) (A) (A)
                 (A) (A) (A) (A) (A) (A) (A) (A) (A) (A) (A) (A)
                 (A) (A) (A) (A) (A) (A) (A) (A) (A) (A) (A) (A)
                 (A) (A) (A) (A) (A) (A) (A) (A) (A) (A) (A) (A)
                 (A) (A) (A) (A) (A) (A) (A) (A) (A) (A) (A) (A)
                 (A) (A) (A) (A) (A) (A) (A) (A) (A) (A) (A) (A)
                 (A) (A) (A) (A) (A) (A) (A) (A) (A) (A) (A) (A)
                 (A) (A) (A) (A) (A) (A) (A) (A) (A) (A) (A) (A)
                 (A) (A) (A) (A) (A) (A) (A) (A) (A) (A) (A) (A)
                 (A) (A) (A) (A) (A) (A) (A) (A) (A) (A) (A) (A)
                 (A) (A) (A) (A) (A) (A) (A) (A) (A) (A) (A) (A)
                 (A) (A) (A) (A) (A) (A) (A) (A) (A) (A) (A) (A)
                 (A) (A) (A) (A) (A) (A) (A) (A) (A) (A) (A) (A)
                 (A) (A) (A) (A) (A) (A) (A) (A) (A) (A) (A) (A)
                 (A) (A) (A) (A) (A) (A) (A) (A) (A) (A) (A) (A)
                 (A) (A) (A) (A) (A) (A) (A) (A) (A) (A) (A) (A)
                 (A) (A) (A) (A) (A) (A) (A) (A) (A) (A) (A) (A)
                 (A) (A) (A) (A) (A) (A) (A) (A) (A) (A) (A) (A)
                 (A) (A) (A) (A) (A) (A) (A) (A) (A) (A) (A) (A)
                 (A) (A) (A) (A) (A) (A) (A) (A) (A) (A) (A) (A)
                 (A) (A) (A) (A) (A) (A) (A) (A) (A) (A) (A) (A)
                 (A) (A) (A) (A) (A) (A) (A) (A) (A) (A) (A) (A)
                 (A) (A) (A) (A) (A) (A) (A) (A) (A) (A) (A) (A)
                 (A) (A) (A) (A) (A) (A) (A) (A) (A) (A) (A) (A)
                 (A) (A) (A) (A) (A) (A) (A) (A) (A) (A) (A) (A)
                 (A) (A) (A) (A) (A) (A) (A) (A) (A) (A) (A) (A)
                 (A) (A) (A) (A) (A) (A) (A) (A) (A) (A) (A) (A)
                 (A) (A) (A) (A) (A) (A) (A) (A) (A) (A) (A) (A)
                 (A) (A) (A) (A) (A) (A) (A) (A) (A) (A) (A) (A)
                 (A) (A) (A) (A) (A) (A) (A) (A) (A) (A) (A) (A)
                 (A) (A) (A) (A) (A) (A) (A) (A) (A) (A) (A) (A)
                 (A) (A) (A) (A) (A) (A) (A) (A) (A) (A) (A) (A)
                 (A) (A) (A) (A) (A) (A) (A) (A) (A) (A) (A) (A)
                 (A) (A) (A) (A) (A) (A) (A) (A) (A) (A) (A) (A)
                 (A) (A) (A) (A) (A) (A) (A) (A) (A) (A) (A) (A)
                 (A) (A) (A) (A) (A) (A) (A) (A) (A) (A) (A) (A)
                 (A) (A) (A) (A) (A) (A) (A) (A) (A) (A) (A) (A)
                 (A) (A) (A) (A) (A) (A) (A) (A) (A) (A) (A) (A)
                 (A) (A) (A) (A) (A) (A) (A) (A) (A) (A) (A) (A)
                 (A) (A) (A) (A) (A) (A) (A) (A) (A) (A) (A) (A)
                 (A) (A) (A) (A) (A) (A) (A) (A) (A) (A) (A) (A)
                 (A) (A) (A) (A) (A) (A) (A) (A) (A) (A) (A) (A)
                 (A) (A) (A) (A) (A) (A) (A) (A) (A) (A) (A) (A)
                 (A) (A) (A) (A) (A) (A) (A) (A) (A) (A) (A) (A)
                 (A) (A) (A) (A) (A) (A) (A) (A) (A) (A) (A) (A)
                 (A) (A) (A) (A) (A) (A) (A) (A) (A) (A) (A) (A)
                 (A) (A) (A) (A) (A) (A) (A) (A) (A) (A) (A) (A)
                 (A) (A) (A) (A) (A) (A) (A) (A) (A) (A) (A) (A)
                 (A) (A) (A) (A) (A) (A) (A) (A) (A) (A) (A) (A)
                 (A) (A) (A) (A) (A) (A) (A) (A) (A) (A) (A) (A)
                 (A) (A) (A) (A) (A) (A) (A) (A) (A) (A) (A) (A)
                 (A) (A) (A) (A) (A) (A) (A) (A) (A) (A)
     8 initial guesses have been made.
 Convergence on wavefunction:    0.001000000000000
 Iteration     1 Dimension     8 NMult     0 NNew      8
 CISAX will form     8 AO SS matrices at one time.
 Iteration     2 Dimension    12 NMult     8 NNew      4
 Iteration     3 Dimension    16 NMult    12 NNew      4
 Iteration     4 Dimension    20 NMult    16 NNew      4
 Iteration     5 Dimension    24 NMult    20 NNew      4
 Iteration     6 Dimension    28 NMult    24 NNew      4
 ***********************************************************************
 Excited states from <AA,BB:AA,BB> singles matrix:
 ***********************************************************************
 
 Ground to excited state transition densities written to RWF  633
 Ground to excited state transition electric dipole moments (Au):
       state          X           Y           Z        Dip. S.      Osc.
         1        -0.2897      1.8892      0.0974      3.6623      0.1851
 Ground to excited state transition velocity dipole moments (Au):
       state          X           Y           Z        Dip. S.      Osc.
         1         0.0210     -0.1408     -0.0081      0.0203      0.1788
 Ground to excited state transition magnetic dipole moments (Au):
       state          X           Y           Z
         1         0.0410     -0.1294      2.1253
 Ground to excited state transition velocity quadrupole moments (Au):
       state          XX          YY          ZZ          XY          XZ          YZ
         1        -0.4440     -0.2783     -0.0098      1.9013      0.0885     -0.0581
 <0|del|b> * <b|rxdel|0> + <0|del|b> * <b|delr+rdel|0>
 Rotatory Strengths (R) in cgs (10**-40 erg-esu-cm/Gauss)
       state          XX          YY          ZZ    R(velocity)    E-M Angle
         1        -9.7630    -10.1813     36.5698      5.5418       89.66
 1/2[<0|r|b>*<b|rxdel|0> + (<0|rxdel|b>*<b|r|0>)*]
 Rotatory Strengths (R) in cgs (10**-40 erg-esu-cm/Gauss)
       state          XX          YY          ZZ     R(length)
         1         8.3924    172.9265   -146.3548     11.6547
  1/2[<0|del|b>*<b|r|0> + (<0|r|b>*<b|del|0>)*] (Au)
       state          X           Y           Z        Dip. S.   Osc.(frdel)
         1        -0.0061     -0.2660     -0.0008      0.2729      0.1819

 Excitation energies and oscillator strengths:
 
 Excited State   1:      Singlet-A      2.0627 eV  601.08 nm  f=0.1851  <S**2>=0.000
     235 -> 238       -0.28805
     236 -> 237        0.64358
 This state for optimization and/or second-order correction.
 Total Energy, E(TD-HF/TD-KS) =  -2732.86975083    
 Copying the excited state density for this state as the 1-particle RhoCI density.
 SavETr:  write IOETrn=   770 NScale= 10 NData=  16 NLR=1 NState=    1 LETran=      28.

 **********************************************************************

            Population analysis using the SCF density.

 **********************************************************************

 Orbital symmetries:
       Occupied  (A) (A) (A) (A) (A) (A) (A) (A) (A) (A) (A) (A)
                 (A) (A) (A) (A) (A) (A) (A) (A) (A) (A) (A) (A)
                 (A) (A) (A) (A) (A) (A) (A) (A) (A) (A) (A) (A)
                 (A) (A) (A) (A) (A) (A) (A) (A) (A) (A) (A) (A)
                 (A) (A) (A) (A) (A) (A) (A) (A) (A) (A) (A) (A)
                 (A) (A) (A) (A) (A) (A) (A) (A) (A) (A) (A) (A)
                 (A) (A) (A) (A) (A) (A) (A) (A) (A) (A) (A) (A)
                 (A) (A) (A) (A) (A) (A) (A) (A) (A) (A) (A) (A)
                 (A) (A) (A) (A) (A) (A) (A) (A) (A) (A) (A) (A)
                 (A) (A) (A) (A) (A) (A) (A) (A) (A) (A) (A) (A)
                 (A) (A) (A) (A) (A) (A) (A) (A) (A) (A) (A) (A)
                 (A) (A) (A) (A) (A) (A) (A) (A) (A) (A) (A) (A)
                 (A) (A) (A) (A) (A) (A) (A) (A) (A) (A) (A) (A)
                 (A) (A) (A) (A) (A) (A) (A) (A) (A) (A) (A) (A)
                 (A) (A) (A) (A) (A) (A) (A) (A) (A) (A) (A) (A)
                 (A) (A) (A) (A) (A) (A) (A) (A) (A) (A) (A) (A)
                 (A) (A) (A) (A) (A) (A) (A) (A) (A) (A) (A) (A)
                 (A) (A) (A) (A) (A) (A) (A) (A) (A) (A) (A) (A)
                 (A) (A) (A) (A) (A) (A) (A) (A) (A) (A) (A) (A)
                 (A) (A) (A) (A) (A) (A) (A) (A)
       Virtual   (A) (A) (A) (A) (A) (A) (A) (A) (A) (A) (A) (A)
                 (A) (A) (A) (A) (A) (A) (A) (A) (A) (A) (A) (A)
                 (A) (A) (A) (A) (A) (A) (A) (A) (A) (A) (A) (A)
                 (A) (A) (A) (A) (A) (A) (A) (A) (A) (A) (A) (A)
                 (A) (A) (A) (A) (A) (A) (A) (A) (A) (A) (A) (A)
                 (A) (A) (A) (A) (A) (A) (A) (A) (A) (A) (A) (A)
                 (A) (A) (A) (A) (A) (A) (A) (A) (A) (A) (A) (A)
                 (A) (A) (A) (A) (A) (A) (A) (A) (A) (A) (A) (A)
                 (A) (A) (A) (A) (A) (A) (A) (A) (A) (A) (A) (A)
                 (A) (A) (A) (A) (A) (A) (A) (A) (A) (A) (A) (A)
                 (A) (A) (A) (A) (A) (A) (A) (A) (A) (A) (A) (A)
                 (A) (A) (A) (A) (A) (A) (A) (A) (A) (A) (A) (A)
                 (A) (A) (A) (A) (A) (A) (A) (A) (A) (A) (A) (A)
                 (A) (A) (A) (A) (A) (A) (A) (A) (A) (A) (A) (A)
                 (A) (A) (A) (A) (A) (A) (A) (A) (A) (A) (A) (A)
                 (A) (A) (A) (A) (A) (A) (A) (A) (A) (A) (A) (A)
                 (A) (A) (A) (A) (A) (A) (A) (A) (A) (A) (A) (A)
                 (A) (A) (A) (A) (A) (A) (A) (A) (A) (A) (A) (A)
                 (A) (A) (A) (A) (A) (A) (A) (A) (A) (A) (A) (A)
                 (A) (A) (A) (A) (A) (A) (A) (A) (A) (A) (A) (A)
                 (A) (A) (A) (A) (A) (A) (A) (A) (A) (A) (A) (A)
                 (A) (A) (A) (A) (A) (A) (A) (A) (A) (A) (A) (A)
                 (A) (A) (A) (A) (A) (A) (A) (A) (A) (A) (A) (A)
                 (A) (A) (A) (A) (A) (A) (A) (A) (A) (A) (A) (A)
                 (A) (A) (A) (A) (A) (A) (A) (A) (A) (A) (A) (A)
                 (A) (A) (A) (A) (A) (A) (A) (A) (A) (A) (A) (A)
                 (A) (A) (A) (A) (A) (A) (A) (A) (A) (A) (A) (A)
                 (A) (A) (A) (A) (A) (A) (A) (A) (A) (A) (A) (A)
                 (A) (A) (A) (A) (A) (A) (A) (A) (A) (A) (A) (A)
                 (A) (A) (A) (A) (A) (A) (A) (A) (A) (A) (A) (A)
                 (A) (A) (A) (A) (A) (A) (A) (A) (A) (A) (A) (A)
                 (A) (A) (A) (A) (A) (A) (A) (A) (A) (A) (A) (A)
                 (A) (A) (A) (A) (A) (A) (A) (A) (A) (A) (A) (A)
                 (A) (A) (A) (A) (A) (A) (A) (A) (A) (A) (A) (A)
                 (A) (A) (A) (A) (A) (A) (A) (A) (A) (A) (A) (A)
                 (A) (A) (A) (A) (A) (A) (A) (A) (A) (A) (A) (A)
                 (A) (A) (A) (A) (A) (A) (A) (A) (A) (A) (A) (A)
                 (A) (A) (A) (A) (A) (A) (A) (A) (A) (A) (A) (A)
                 (A) (A) (A) (A) (A) (A) (A) (A) (A) (A) (A) (A)
                 (A) (A) (A) (A) (A) (A) (A) (A) (A) (A) (A) (A)
                 (A) (A) (A) (A) (A) (A) (A) (A) (A) (A) (A) (A)
                 (A) (A) (A) (A) (A) (A) (A) (A) (A) (A) (A) (A)
                 (A) (A) (A) (A) (A) (A) (A) (A) (A) (A) (A) (A)
                 (A) (A) (A) (A) (A) (A) (A) (A) (A) (A) (A) (A)
                 (A) (A) (A) (A) (A) (A) (A) (A) (A) (A) (A) (A)
                 (A) (A) (A) (A) (A) (A) (A) (A) (A) (A) (A) (A)
                 (A) (A) (A) (A) (A) (A) (A) (A) (A) (A) (A) (A)
                 (A) (A) (A) (A) (A) (A) (A) (A) (A) (A) (A) (A)
                 (A) (A) (A) (A) (A) (A) (A) (A) (A) (A) (A) (A)
                 (A) (A) (A) (A) (A) (A) (A) (A) (A) (A) (A) (A)
                 (A) (A) (A) (A) (A) (A) (A) (A) (A) (A) (A) (A)
                 (A) (A) (A) (A) (A) (A) (A) (A) (A) (A) (A) (A)
                 (A) (A) (A) (A) (A) (A) (A) (A) (A) (A) (A) (A)
                 (A) (A) (A) (A) (A) (A) (A) (A) (A) (A) (A) (A)
                 (A) (A) (A) (A) (A) (A) (A) (A) (A) (A) (A) (A)
                 (A) (A) (A) (A) (A) (A) (A) (A) (A) (A) (A) (A)
                 (A) (A) (A) (A) (A) (A) (A) (A) (A) (A) (A) (A)
                 (A) (A) (A) (A) (A) (A) (A) (A) (A) (A) (A) (A)
                 (A) (A) (A) (A) (A) (A) (A) (A) (A) (A) (A) (A)
                 (A) (A) (A) (A) (A) (A) (A) (A) (A) (A) (A) (A)
                 (A) (A) (A) (A) (A) (A) (A) (A) (A) (A) (A) (A)
                 (A) (A) (A) (A) (A) (A) (A) (A) (A) (A) (A) (A)
                 (A) (A) (A) (A) (A) (A) (A) (A) (A) (A) (A) (A)
                 (A) (A) (A) (A) (A) (A) (A) (A) (A) (A) (A) (A)
                 (A) (A) (A) (A) (A) (A) (A) (A) (A) (A) (A) (A)
                 (A) (A) (A) (A) (A) (A) (A) (A) (A) (A) (A) (A)
                 (A) (A) (A) (A) (A) (A) (A) (A) (A) (A) (A) (A)
                 (A) (A) (A) (A) (A) (A) (A) (A) (A) (A) (A) (A)
                 (A) (A) (A) (A) (A) (A) (A) (A) (A) (A) (A) (A)
                 (A) (A) (A) (A) (A) (A) (A) (A) (A) (A) (A) (A)
                 (A) (A) (A) (A) (A) (A) (A) (A) (A) (A) (A) (A)
                 (A) (A) (A) (A) (A) (A) (A) (A) (A) (A) (A) (A)
                 (A) (A) (A) (A) (A) (A) (A) (A) (A) (A) (A) (A)
                 (A) (A) (A) (A) (A) (A) (A) (A) (A) (A) (A) (A)
                 (A) (A) (A) (A) (A) (A) (A) (A) (A) (A) (A) (A)
                 (A) (A) (A) (A) (A) (A) (A) (A) (A) (A) (A) (A)
                 (A) (A) (A) (A) (A) (A) (A) (A) (A) (A) (A) (A)
                 (A) (A) (A) (A) (A) (A) (A) (A) (A) (A) (A) (A)
                 (A) (A) (A) (A) (A) (A) (A) (A) (A) (A) (A) (A)
                 (A) (A) (A) (A) (A) (A) (A) (A) (A) (A) (A) (A)
                 (A) (A) (A) (A) (A) (A) (A) (A) (A) (A) (A) (A)
                 (A) (A) (A) (A) (A) (A) (A) (A) (A) (A) (A) (A)
                 (A) (A) (A) (A) (A) (A) (A) (A) (A) (A) (A) (A)
                 (A) (A) (A) (A) (A) (A) (A) (A) (A) (A) (A) (A)
                 (A) (A) (A) (A) (A) (A) (A) (A) (A) (A) (A) (A)
                 (A) (A) (A) (A) (A) (A) (A) (A) (A) (A)
 The electronic state is 1-A.
 Alpha  occ. eigenvalues --  -19.17021 -19.16652 -19.12828 -19.12463 -19.12116
 Alpha  occ. eigenvalues --  -14.36374 -14.35796 -14.32382 -14.30917 -10.30858
 Alpha  occ. eigenvalues --  -10.30651 -10.28154 -10.25288 -10.24943 -10.24707
 Alpha  occ. eigenvalues --  -10.24222 -10.23359 -10.22403 -10.22323 -10.22036
 Alpha  occ. eigenvalues --  -10.22002 -10.22001 -10.21887 -10.21830 -10.21525
 Alpha  occ. eigenvalues --  -10.21454 -10.21212 -10.21197 -10.21161 -10.21147
 Alpha  occ. eigenvalues --  -10.21096 -10.20804 -10.20702 -10.20644 -10.20404
 Alpha  occ. eigenvalues --  -10.20391 -10.20306 -10.20172 -10.20110 -10.19996
 Alpha  occ. eigenvalues --  -10.19921 -10.19814 -10.19771 -10.19729 -10.19659
 Alpha  occ. eigenvalues --  -10.19641 -10.19638 -10.19605 -10.19415 -10.19373
 Alpha  occ. eigenvalues --  -10.19221 -10.19157 -10.19071 -10.18985 -10.18950
 Alpha  occ. eigenvalues --  -10.18950 -10.18933 -10.18908 -10.18897 -10.18663
 Alpha  occ. eigenvalues --  -10.18301 -10.17947 -10.17691 -10.17632  -1.09143
 Alpha  occ. eigenvalues --   -1.08296  -1.03063  -0.99486  -0.99135  -0.98967
 Alpha  occ. eigenvalues --   -0.98001  -0.92957  -0.91652  -0.83701  -0.82493
 Alpha  occ. eigenvalues --   -0.82002  -0.81196  -0.80770  -0.80397  -0.79998
 Alpha  occ. eigenvalues --   -0.79638  -0.79140  -0.78749  -0.78388  -0.77461
 Alpha  occ. eigenvalues --   -0.76814  -0.76076  -0.75049  -0.74671  -0.74211
 Alpha  occ. eigenvalues --   -0.72780  -0.72438  -0.72120  -0.71624  -0.71480
 Alpha  occ. eigenvalues --   -0.69483  -0.68904  -0.68388  -0.67956  -0.67310
 Alpha  occ. eigenvalues --   -0.66722  -0.66276  -0.65920  -0.65759  -0.64791
 Alpha  occ. eigenvalues --   -0.64486  -0.63193  -0.62144  -0.61565  -0.60921
 Alpha  occ. eigenvalues --   -0.60326  -0.58534  -0.58467  -0.57700  -0.57140
 Alpha  occ. eigenvalues --   -0.56819  -0.56568  -0.56190  -0.55550  -0.55032
 Alpha  occ. eigenvalues --   -0.54827  -0.53855  -0.53760  -0.53157  -0.52490
 Alpha  occ. eigenvalues --   -0.52218  -0.51440  -0.51088  -0.50467  -0.49933
 Alpha  occ. eigenvalues --   -0.49875  -0.49645  -0.48726  -0.48313  -0.48221
 Alpha  occ. eigenvalues --   -0.47699  -0.47179  -0.47000  -0.46762  -0.46599
 Alpha  occ. eigenvalues --   -0.46389  -0.46177  -0.45720  -0.45404  -0.45245
 Alpha  occ. eigenvalues --   -0.45170  -0.44936  -0.44834  -0.44706  -0.44462
 Alpha  occ. eigenvalues --   -0.44299  -0.43973  -0.43765  -0.43486  -0.43446
 Alpha  occ. eigenvalues --   -0.43348  -0.42959  -0.42680  -0.42404  -0.42181
 Alpha  occ. eigenvalues --   -0.41931  -0.41842  -0.41733  -0.41446  -0.41241
 Alpha  occ. eigenvalues --   -0.41224  -0.41084  -0.40787  -0.40646  -0.40265
 Alpha  occ. eigenvalues --   -0.40009  -0.39598  -0.39469  -0.39210  -0.38938
 Alpha  occ. eigenvalues --   -0.38846  -0.38721  -0.38659  -0.38443  -0.38311
 Alpha  occ. eigenvalues --   -0.38192  -0.38018  -0.37921  -0.37657  -0.37570
 Alpha  occ. eigenvalues --   -0.37461  -0.37235  -0.37013  -0.36821  -0.36676
 Alpha  occ. eigenvalues --   -0.36556  -0.36245  -0.36111  -0.35876  -0.35799
 Alpha  occ. eigenvalues --   -0.35539  -0.35499  -0.35362  -0.35253  -0.35062
 Alpha  occ. eigenvalues --   -0.34843  -0.34633  -0.34188  -0.33820  -0.33477
 Alpha  occ. eigenvalues --   -0.33452  -0.33363  -0.33170  -0.33050  -0.32244
 Alpha  occ. eigenvalues --   -0.32141  -0.31950  -0.31902  -0.31618  -0.31222
 Alpha  occ. eigenvalues --   -0.31043  -0.30629  -0.30506  -0.30044  -0.29887
 Alpha  occ. eigenvalues --   -0.29410  -0.28356  -0.28252  -0.27909  -0.27714
 Alpha  occ. eigenvalues --   -0.27002  -0.26646  -0.26379  -0.26079  -0.25619
 Alpha  occ. eigenvalues --   -0.24682  -0.24659  -0.24463  -0.22673  -0.19650
 Alpha  occ. eigenvalues --   -0.18566
 Alpha virt. eigenvalues --   -0.09919  -0.07436  -0.03949  -0.02145  -0.00700
 Alpha virt. eigenvalues --   -0.00003   0.00918   0.01342   0.02187   0.03253
 Alpha virt. eigenvalues --    0.03554   0.03575   0.03705   0.04133   0.04752
 Alpha virt. eigenvalues --    0.04794   0.05114   0.05148   0.05498   0.05585
 Alpha virt. eigenvalues --    0.05672   0.05734   0.06371   0.06590   0.06690
 Alpha virt. eigenvalues --    0.06972   0.07100   0.07479   0.07621   0.07817
 Alpha virt. eigenvalues --    0.08272   0.08334   0.08580   0.08829   0.09122
 Alpha virt. eigenvalues --    0.09253   0.09439   0.09545   0.09623   0.09786
 Alpha virt. eigenvalues --    0.10003   0.10188   0.10252   0.10366   0.10563
 Alpha virt. eigenvalues --    0.10636   0.10832   0.11046   0.11191   0.11344
 Alpha virt. eigenvalues --    0.11418   0.11632   0.11723   0.11759   0.11951
 Alpha virt. eigenvalues --    0.11998   0.12231   0.12581   0.12637   0.12792
 Alpha virt. eigenvalues --    0.12954   0.13095   0.13120   0.13300   0.13627
 Alpha virt. eigenvalues --    0.13829   0.13889   0.13963   0.14326   0.14468
 Alpha virt. eigenvalues --    0.14745   0.15081   0.15233   0.15245   0.15417
 Alpha virt. eigenvalues --    0.15500   0.15635   0.15954   0.16203   0.16461
 Alpha virt. eigenvalues --    0.16610   0.16846   0.16962   0.17075   0.17470
 Alpha virt. eigenvalues --    0.17656   0.17761   0.17845   0.18003   0.18127
 Alpha virt. eigenvalues --    0.18363   0.18504   0.18917   0.19141   0.19568
 Alpha virt. eigenvalues --    0.19640   0.19844   0.19954   0.19989   0.20764
 Alpha virt. eigenvalues --    0.20822   0.21443   0.21517   0.21607   0.21699
 Alpha virt. eigenvalues --    0.21799   0.22394   0.22465   0.22688   0.22926
 Alpha virt. eigenvalues --    0.23282   0.23377   0.23435   0.23739   0.23912
 Alpha virt. eigenvalues --    0.24121   0.24502   0.24651   0.24703   0.24826
 Alpha virt. eigenvalues --    0.25241   0.25566   0.26342   0.26497   0.26655
 Alpha virt. eigenvalues --    0.27044   0.27570   0.27587   0.27878   0.28434
 Alpha virt. eigenvalues --    0.29366   0.29501   0.29924   0.30077   0.30727
 Alpha virt. eigenvalues --    0.31238   0.31708   0.32176   0.32229   0.32977
 Alpha virt. eigenvalues --    0.33257   0.33876   0.34079   0.34268   0.35154
 Alpha virt. eigenvalues --    0.35385   0.35792   0.36353   0.36836   0.37248
 Alpha virt. eigenvalues --    0.37457   0.37954   0.38117   0.38411   0.38598
 Alpha virt. eigenvalues --    0.38682   0.39135   0.39511   0.39621   0.39820
 Alpha virt. eigenvalues --    0.39972   0.40158   0.40403   0.40624   0.40804
 Alpha virt. eigenvalues --    0.41066   0.41586   0.41686   0.41751   0.41907
 Alpha virt. eigenvalues --    0.42300   0.42396   0.42651   0.42804   0.42990
 Alpha virt. eigenvalues --    0.43241   0.43404   0.43422   0.43577   0.43903
 Alpha virt. eigenvalues --    0.44156   0.44239   0.44503   0.44876   0.45052
 Alpha virt. eigenvalues --    0.45155   0.45617   0.45839   0.46619   0.46666
 Alpha virt. eigenvalues --    0.46924   0.47051   0.47232   0.47311   0.47415
 Alpha virt. eigenvalues --    0.47560   0.47827   0.47987   0.48537   0.48676
 Alpha virt. eigenvalues --    0.48835   0.49043   0.49182   0.49731   0.49845
 Alpha virt. eigenvalues --    0.50129   0.50278   0.50597   0.50690   0.51122
 Alpha virt. eigenvalues --    0.51200   0.51463   0.51550   0.51852   0.52537
 Alpha virt. eigenvalues --    0.52817   0.53008   0.53106   0.53443   0.53810
 Alpha virt. eigenvalues --    0.53858   0.54066   0.54295   0.54744   0.54889
 Alpha virt. eigenvalues --    0.55194   0.55329   0.55732   0.55926   0.55994
 Alpha virt. eigenvalues --    0.56161   0.56219   0.56530   0.56949   0.57023
 Alpha virt. eigenvalues --    0.57130   0.57373   0.57428   0.57931   0.58187
 Alpha virt. eigenvalues --    0.58248   0.58513   0.58863   0.58990   0.59174
 Alpha virt. eigenvalues --    0.59297   0.59438   0.59500   0.59768   0.59959
 Alpha virt. eigenvalues --    0.60009   0.60087   0.60378   0.60453   0.60519
 Alpha virt. eigenvalues --    0.60617   0.60766   0.61213   0.61236   0.61492
 Alpha virt. eigenvalues --    0.61660   0.61772   0.61911   0.62007   0.62399
 Alpha virt. eigenvalues --    0.62461   0.62685   0.62803   0.63035   0.63271
 Alpha virt. eigenvalues --    0.63374   0.63745   0.63782   0.63872   0.63959
 Alpha virt. eigenvalues --    0.64130   0.64266   0.64415   0.64483   0.64553
 Alpha virt. eigenvalues --    0.64599   0.64839   0.65037   0.65263   0.65336
 Alpha virt. eigenvalues --    0.65465   0.65527   0.65621   0.65799   0.65901
 Alpha virt. eigenvalues --    0.66098   0.66254   0.66298   0.66496   0.66534
 Alpha virt. eigenvalues --    0.66678   0.66805   0.66971   0.67142   0.67219
 Alpha virt. eigenvalues --    0.67481   0.67665   0.67784   0.67876   0.67897
 Alpha virt. eigenvalues --    0.68144   0.68314   0.68409   0.68539   0.68678
 Alpha virt. eigenvalues --    0.68731   0.68885   0.69016   0.69162   0.69259
 Alpha virt. eigenvalues --    0.69353   0.69421   0.69612   0.69682   0.69783
 Alpha virt. eigenvalues --    0.70029   0.70164   0.70365   0.70520   0.70685
 Alpha virt. eigenvalues --    0.70720   0.71015   0.71154   0.71237   0.71384
 Alpha virt. eigenvalues --    0.71677   0.71827   0.71979   0.72015   0.72067
 Alpha virt. eigenvalues --    0.72227   0.72287   0.72338   0.72825   0.72939
 Alpha virt. eigenvalues --    0.73124   0.73288   0.73379   0.73597   0.73690
 Alpha virt. eigenvalues --    0.73891   0.74132   0.74451   0.74896   0.75109
 Alpha virt. eigenvalues --    0.75167   0.75619   0.75696   0.75809   0.76193
 Alpha virt. eigenvalues --    0.76324   0.76449   0.76773   0.76886   0.77393
 Alpha virt. eigenvalues --    0.77665   0.77914   0.78042   0.78366   0.78782
 Alpha virt. eigenvalues --    0.78929   0.79018   0.79383   0.79461   0.79913
 Alpha virt. eigenvalues --    0.80163   0.80556   0.80811   0.81202   0.81547
 Alpha virt. eigenvalues --    0.81589   0.82185   0.82317   0.82758   0.82949
 Alpha virt. eigenvalues --    0.83385   0.84095   0.84969   0.85598   0.85683
 Alpha virt. eigenvalues --    0.85834   0.86154   0.86798   0.87121   0.87773
 Alpha virt. eigenvalues --    0.88484   0.88744   0.89199   0.89225   0.89485
 Alpha virt. eigenvalues --    0.89987   0.90449   0.91442   0.92311   0.92824
 Alpha virt. eigenvalues --    0.93164   0.93514   0.93716   0.93863   0.94517
 Alpha virt. eigenvalues --    0.95088   0.95716   0.96272   0.96679   0.97008
 Alpha virt. eigenvalues --    0.97699   0.97910   0.98486   0.99451   0.99608
 Alpha virt. eigenvalues --    1.00199   1.00549   1.00991   1.01182   1.01384
 Alpha virt. eigenvalues --    1.01709   1.01845   1.02499   1.03187   1.03274
 Alpha virt. eigenvalues --    1.03935   1.04302   1.04504   1.04706   1.05295
 Alpha virt. eigenvalues --    1.05506   1.05750   1.05925   1.06141   1.06288
 Alpha virt. eigenvalues --    1.06870   1.07627   1.08225   1.08301   1.09449
 Alpha virt. eigenvalues --    1.09644   1.09749   1.10332   1.10804   1.11064
 Alpha virt. eigenvalues --    1.11438   1.12328   1.12599   1.13018   1.13703
 Alpha virt. eigenvalues --    1.14038   1.14435   1.14779   1.15150   1.16601
 Alpha virt. eigenvalues --    1.16739   1.16999   1.17720   1.18069   1.18099
 Alpha virt. eigenvalues --    1.18283   1.19616   1.19771   1.20331   1.21224
 Alpha virt. eigenvalues --    1.21359   1.22055   1.22546   1.22817   1.23015
 Alpha virt. eigenvalues --    1.23364   1.23806   1.23903   1.24562   1.24874
 Alpha virt. eigenvalues --    1.25351   1.25730   1.25771   1.25993   1.26280
 Alpha virt. eigenvalues --    1.26658   1.27772   1.28184   1.28345   1.28692
 Alpha virt. eigenvalues --    1.28756   1.29200   1.29555   1.29778   1.30378
 Alpha virt. eigenvalues --    1.30611   1.30818   1.31090   1.31270   1.32080
 Alpha virt. eigenvalues --    1.32615   1.33742   1.34186   1.34263   1.34669
 Alpha virt. eigenvalues --    1.34938   1.35243   1.35711   1.35842   1.35980
 Alpha virt. eigenvalues --    1.36435   1.36513   1.36730   1.37841   1.38228
 Alpha virt. eigenvalues --    1.38441   1.38781   1.39402   1.39431   1.39541
 Alpha virt. eigenvalues --    1.40026   1.41243   1.41756   1.42690   1.43223
 Alpha virt. eigenvalues --    1.43913   1.44155   1.44648   1.45410   1.45877
 Alpha virt. eigenvalues --    1.46026   1.46708   1.46958   1.47436   1.47872
 Alpha virt. eigenvalues --    1.48663   1.48987   1.49240   1.49386   1.49741
 Alpha virt. eigenvalues --    1.49929   1.50411   1.50692   1.51070   1.51193
 Alpha virt. eigenvalues --    1.51729   1.51813   1.51926   1.52325   1.52412
 Alpha virt. eigenvalues --    1.52474   1.52894   1.52954   1.53109   1.53816
 Alpha virt. eigenvalues --    1.53916   1.54364   1.54796   1.54927   1.55056
 Alpha virt. eigenvalues --    1.55321   1.55764   1.56009   1.57801   1.57844
 Alpha virt. eigenvalues --    1.57939   1.58656   1.59282   1.60041   1.60086
 Alpha virt. eigenvalues --    1.60470   1.60585   1.60723   1.60997   1.61268
 Alpha virt. eigenvalues --    1.61638   1.61959   1.62916   1.62969   1.63466
 Alpha virt. eigenvalues --    1.63606   1.63986   1.64174   1.64644   1.65257
 Alpha virt. eigenvalues --    1.65470   1.65720   1.65778   1.66032   1.66257
 Alpha virt. eigenvalues --    1.66747   1.67344   1.67368   1.67718   1.68089
 Alpha virt. eigenvalues --    1.68220   1.68313   1.68428   1.68549   1.68742
 Alpha virt. eigenvalues --    1.69004   1.69399   1.69626   1.69877   1.70173
 Alpha virt. eigenvalues --    1.70285   1.70482   1.70504   1.70927   1.71081
 Alpha virt. eigenvalues --    1.71345   1.71554   1.71816   1.72215   1.72537
 Alpha virt. eigenvalues --    1.72605   1.72836   1.72882   1.73314   1.73333
 Alpha virt. eigenvalues --    1.73501   1.73799   1.74053   1.74157   1.74492
 Alpha virt. eigenvalues --    1.74589   1.74849   1.75201   1.75258   1.75501
 Alpha virt. eigenvalues --    1.75896   1.76071   1.76146   1.76264   1.76323
 Alpha virt. eigenvalues --    1.76584   1.76709   1.77150   1.77362   1.77501
 Alpha virt. eigenvalues --    1.77620   1.77679   1.77865   1.78084   1.78380
 Alpha virt. eigenvalues --    1.78586   1.78978   1.79059   1.79421   1.79660
 Alpha virt. eigenvalues --    1.79781   1.79900   1.80149   1.80189   1.80457
 Alpha virt. eigenvalues --    1.80982   1.81073   1.81310   1.81623   1.81834
 Alpha virt. eigenvalues --    1.82319   1.82540   1.82759   1.82918   1.83293
 Alpha virt. eigenvalues --    1.83401   1.83500   1.83757   1.83900   1.84139
 Alpha virt. eigenvalues --    1.84837   1.84943   1.85107   1.85166   1.85503
 Alpha virt. eigenvalues --    1.85762   1.85853   1.86233   1.86568   1.86676
 Alpha virt. eigenvalues --    1.87080   1.87171   1.87689   1.88069   1.88234
 Alpha virt. eigenvalues --    1.88269   1.88662   1.88842   1.88954   1.89098
 Alpha virt. eigenvalues --    1.89492   1.89620   1.90125   1.90191   1.90584
 Alpha virt. eigenvalues --    1.90616   1.91361   1.91495   1.91498   1.91564
 Alpha virt. eigenvalues --    1.91605   1.92449   1.92554   1.92743   1.93045
 Alpha virt. eigenvalues --    1.93268   1.93514   1.93893   1.94060   1.94538
 Alpha virt. eigenvalues --    1.94589   1.94718   1.95029   1.95255   1.95848
 Alpha virt. eigenvalues --    1.96119   1.96159   1.96627   1.96943   1.97278
 Alpha virt. eigenvalues --    1.97459   1.97925   1.98046   1.98307   1.98664
 Alpha virt. eigenvalues --    1.98888   1.99094   1.99208   1.99565   1.99718
 Alpha virt. eigenvalues --    2.00310   2.00618   2.00694   2.00783   2.01280
 Alpha virt. eigenvalues --    2.01653   2.02075   2.02148   2.02510   2.02722
 Alpha virt. eigenvalues --    2.03309   2.03862   2.03907   2.04183   2.04566
 Alpha virt. eigenvalues --    2.05100   2.05151   2.05444   2.05896   2.06052
 Alpha virt. eigenvalues --    2.06319   2.07293   2.07735   2.07934   2.08065
 Alpha virt. eigenvalues --    2.08897   2.09126   2.09574   2.09768   2.10518
 Alpha virt. eigenvalues --    2.10671   2.11266   2.11687   2.11964   2.12165
 Alpha virt. eigenvalues --    2.12821   2.13083   2.13162   2.13454   2.13804
 Alpha virt. eigenvalues --    2.14201   2.14430   2.15163   2.16022   2.16347
 Alpha virt. eigenvalues --    2.16672   2.16807   2.17289   2.17403   2.17475
 Alpha virt. eigenvalues --    2.17750   2.18537   2.18789   2.19038   2.19160
 Alpha virt. eigenvalues --    2.19999   2.20646   2.20861   2.21460   2.21693
 Alpha virt. eigenvalues --    2.21803   2.22609   2.22688   2.22806   2.22920
 Alpha virt. eigenvalues --    2.23364   2.24064   2.24381   2.25164   2.25276
 Alpha virt. eigenvalues --    2.25467   2.25976   2.26690   2.27380   2.27512
 Alpha virt. eigenvalues --    2.27794   2.28057   2.28305   2.28642   2.29250
 Alpha virt. eigenvalues --    2.29444   2.30179   2.30375   2.30585   2.30651
 Alpha virt. eigenvalues --    2.30847   2.31150   2.31443   2.31570   2.32150
 Alpha virt. eigenvalues --    2.32764   2.32910   2.33323   2.33869   2.34102
 Alpha virt. eigenvalues --    2.34210   2.34758   2.34776   2.35104   2.35223
 Alpha virt. eigenvalues --    2.35705   2.35983   2.36592   2.37080   2.37193
 Alpha virt. eigenvalues --    2.37405   2.37932   2.39002   2.39217   2.39275
 Alpha virt. eigenvalues --    2.39568   2.39581   2.39883   2.40321   2.41031
 Alpha virt. eigenvalues --    2.41216   2.41781   2.41922   2.42750   2.42801
 Alpha virt. eigenvalues --    2.43315   2.43374   2.44076   2.44565   2.44784
 Alpha virt. eigenvalues --    2.45511   2.45985   2.46066   2.46362   2.46453
 Alpha virt. eigenvalues --    2.47024   2.47306   2.48330   2.48373   2.48699
 Alpha virt. eigenvalues --    2.49307   2.49812   2.50507   2.50806   2.51123
 Alpha virt. eigenvalues --    2.51562   2.51739   2.52141   2.52446   2.52571
 Alpha virt. eigenvalues --    2.52898   2.53541   2.53877   2.54638   2.55615
 Alpha virt. eigenvalues --    2.56202   2.56386   2.56785   2.56927   2.57007
 Alpha virt. eigenvalues --    2.57944   2.58269   2.58903   2.59134   2.59635
 Alpha virt. eigenvalues --    2.60034   2.60492   2.61004   2.61134   2.61550
 Alpha virt. eigenvalues --    2.61942   2.62236   2.63143   2.63977   2.64105
 Alpha virt. eigenvalues --    2.65269   2.65295   2.65640   2.66027   2.67116
 Alpha virt. eigenvalues --    2.67343   2.67405   2.68148   2.68463   2.68850
 Alpha virt. eigenvalues --    2.70160   2.70694   2.70780   2.71292   2.71629
 Alpha virt. eigenvalues --    2.71959   2.72460   2.72936   2.73909   2.74339
 Alpha virt. eigenvalues --    2.74568   2.74670   2.75006   2.75605   2.75661
 Alpha virt. eigenvalues --    2.76607   2.76652   2.76972   2.77601   2.78603
 Alpha virt. eigenvalues --    2.78840   2.79390   2.79624   2.79804   2.80275
 Alpha virt. eigenvalues --    2.80359   2.80596   2.81015   2.81237   2.81970
 Alpha virt. eigenvalues --    2.82254   2.82590   2.83059   2.83379   2.83896
 Alpha virt. eigenvalues --    2.84268   2.84661   2.85715   2.86038   2.86355
 Alpha virt. eigenvalues --    2.86524   2.86558   2.87308   2.88092   2.88418
 Alpha virt. eigenvalues --    2.88517   2.88831   2.88971   2.89640   2.89748
 Alpha virt. eigenvalues --    2.90137   2.91234   2.91325   2.91467   2.91911
 Alpha virt. eigenvalues --    2.92401   2.93227   2.93391   2.93575   2.94029
 Alpha virt. eigenvalues --    2.94546   2.94685   2.95250   2.96109   2.96341
 Alpha virt. eigenvalues --    2.96606   2.96930   2.97043   2.97563   2.97609
 Alpha virt. eigenvalues --    2.97881   2.98446   2.99224   2.99534   3.00553
 Alpha virt. eigenvalues --    3.00963   3.02114   3.02156   3.03601   3.04083
 Alpha virt. eigenvalues --    3.04717   3.05225   3.05845   3.06167   3.06943
 Alpha virt. eigenvalues --    3.07530   3.08495   3.08613   3.09659   3.10199
 Alpha virt. eigenvalues --    3.11176   3.11237   3.11979   3.12337   3.13870
 Alpha virt. eigenvalues --    3.14327   3.14576   3.15230   3.17302   3.17464
 Alpha virt. eigenvalues --    3.19029   3.19981   3.20234   3.21366   3.22657
 Alpha virt. eigenvalues --    3.25209   3.25702   3.26714   3.29660   3.29939
 Alpha virt. eigenvalues --    3.36176   3.37085   3.38084   3.43744   3.46135
 Alpha virt. eigenvalues --    3.51375   3.53649   3.55551   3.58952   3.62905
 Alpha virt. eigenvalues --    3.63245   3.64887   3.65325   3.70575   3.79558
          Condensed to atoms (all electrons):
 Mulliken charges:
               1
     1  C    0.076875
     2  C   -0.067064
     3  C   -0.049902
     4  C   -0.091358
     5  N   -0.175337
     6  C   -0.083185
     7  C   -0.015153
     8  C   -0.096218
     9  C    0.006111
    10  C    0.051602
    11  C    0.077709
    12  C    0.032258
    13  C    0.149426
    14  O   -0.254845
    15  O   -0.338018
    16  N    0.092196
    17  C    0.073672
    18  C   -0.143465
    19  C    0.006822
    20  C    0.093625
    21  C    0.097325
    22  C   -0.071316
    23  C    0.093523
    24  N   -0.349299
    25  C    0.066900
    26  C   -0.102322
    27  C   -0.120594
    28  C    0.180385
    29  C    0.098647
    30  C    0.054129
    31  C   -0.021615
    32  N   -0.102943
    33  C   -0.026036
    34  C   -0.161004
    35  C    0.035956
    36  C    0.015073
    37  C    0.019821
    38  C    0.121464
    39  O   -0.150412
    40  C   -0.009033
    41  C    0.175073
    42  O   -0.144744
    43  O   -0.362919
    44  C    0.152353
    45  C    0.312438
    46  C   -0.085428
    47  C   -0.129407
    48  C    0.036742
    49  C    0.043860
    50  C   -0.048510
    51  C    0.033593
    52  C   -0.106271
    53  C    0.115948
    54  C    0.004626
    55  C    0.030837
    56  C    0.014081
    57  C    0.008666
    58  C    0.032900
    59  C   -0.109005
    60  C   -0.043300
    61  C    0.042262
    62  C   -0.140265
    63  C    0.027758
    64  C   -0.019105
    65  H   -0.013683
    66  H   -0.063415
    67  H   -0.010030
    68  H    0.032114
    69  H    0.015169
    70  H    0.014334
    71  H    0.022174
    72  H    0.010614
    73  H    0.033836
    74  H    0.006284
    75  H    0.005445
    76  H    0.043741
    77  H    0.078739
    78  H    0.003722
    79  H    0.030666
    80  H    0.016398
    81  H    0.005707
    82  H   -0.055338
    83  H    0.050445
    84  H    0.010021
    85  H   -0.015711
    86  H   -0.045614
    87  H    0.009654
    88  H    0.020192
    89  H    0.060949
    90  H    0.052596
    91  H    0.038601
    92  H    0.046865
    93  H    0.029088
    94  H    0.051081
    95  H    0.027149
    96  H    0.036000
    97  H    0.035524
    98  H    0.003713
    99  H    0.038767
   100  H   -0.019211
   101  H    0.032713
   102  H    0.025222
   103  H    0.037759
   104  H    0.005838
   105  H    0.015565
   106  H    0.019966
   107  H    0.009366
   108  H   -0.052101
   109  H   -0.016113
   110  H   -0.000947
   111  H    0.035563
   112  H   -0.028578
   113  H   -0.022391
   114  H   -0.012495
   115  H    0.030672
   116  H   -0.003207
   117  H    0.000099
   118  H    0.001598
   119  H   -0.009895
   120  H   -0.008599
   121  H   -0.009247
   122  H   -0.005116
   123  H    0.030842
   124  H    0.023907
   125  H    0.009227
   126  H    0.008477
   127  H    0.012858
   128  H    0.013526
   129  H   -0.010616
   130  H    0.023919
   131  H    0.000723
   132  H    0.023427
   133  H    0.034517
   134  H    0.013921
   135  H    0.020842
   136  H    0.012799
   137  H    0.004222
   138  H    0.268572
 Sum of Mulliken charges =   0.00000
 Mulliken charges with hydrogens summed into heavy atoms:
               1
     1  C    0.076875
     2  C   -0.080747
     3  C   -0.113318
     4  C   -0.101388
     5  N   -0.175337
     6  C   -0.083185
     7  C    0.016961
     8  C   -0.081050
     9  C    0.006111
    10  C    0.098724
    11  C    0.117829
    12  C    0.081444
    13  C    0.149426
    14  O   -0.254845
    15  O   -0.338018
    16  N    0.096418
    17  C    0.073672
    18  C   -0.143465
    19  C    0.006822
    20  C    0.093625
    21  C    0.210452
    22  C   -0.054918
    23  C    0.043893
    24  N   -0.349299
    25  C    0.066900
    26  C   -0.102322
    27  C   -0.120594
    28  C    0.180385
    29  C    0.143402
    30  C    0.018168
    31  C    0.112122
    32  N    0.165628
    33  C   -0.026036
    34  C   -0.161004
    35  C    0.035956
    36  C    0.015073
    37  C    0.134375
    38  C    0.121464
    39  O   -0.150412
    40  C    0.042048
    41  C    0.175073
    42  O   -0.144744
    43  O   -0.362919
    44  C    0.251027
    45  C    0.354918
    46  C   -0.104639
    47  C   -0.129407
    48  C    0.132436
    49  C    0.065262
    50  C   -0.019178
    51  C   -0.034621
    52  C   -0.107218
    53  C    0.100542
    54  C    0.022803
    55  C    0.027728
    56  C    0.005784
    57  C    0.000066
    58  C    0.049378
    59  C   -0.075872
    60  C   -0.021965
    61  C    0.045172
    62  C   -0.116346
    63  C    0.086426
    64  C    0.028457
 Electronic spatial extent (au):  <R**2>=         179833.8758
 Charge=              0.0000 electrons
 Dipole moment (field-independent basis, Debye):
    X=              2.6536    Y=              5.9205    Z=             -0.6445  Tot=              6.5199
 Quadrupole moment (field-independent basis, Debye-Ang):
   XX=           -350.1638   YY=           -381.5632   ZZ=           -394.6806
   XY=            -30.4476   XZ=              5.1802   YZ=             -1.2945
 Traceless Quadrupole moment (field-independent basis, Debye-Ang):
   XX=             25.3054   YY=             -6.0940   ZZ=            -19.2114
   XY=            -30.4476   XZ=              5.1802   YZ=             -1.2945
 Octapole moment (field-independent basis, Debye-Ang**2):
  XXX=           -675.5712  YYY=            163.6421  ZZZ=             21.5506  XYY=            -99.9037
  XXY=            171.8939  XXZ=           -364.8014  XZZ=             11.1138  YZZ=            -22.2493
  YYZ=             63.8028  XYZ=            -42.5210
 Hexadecapole moment (field-independent basis, Debye-Ang**3):
 XXXX=        -227025.6728 YYYY=         -17254.7128 ZZZZ=          -4671.1687 XXXY=           -530.7917
 XXXZ=            517.2513 YYYX=          -1448.5169 YYYZ=           -182.8665 ZZZX=           -228.1102
 ZZZY=           -139.8960 XXYY=         -40114.1051 XXZZ=         -39903.5837 YYZZ=          -3488.6823
 XXYZ=           -143.3133 YYXZ=            -57.7424 ZZXY=            -69.4695
 N-N= 8.250903061205D+03 E-N=-2.283617980941D+04  KE= 2.700467780300D+03
 1\1\GINC-PEDRO-RYZENSSD\SP\RB3LYP TD-FC\SVP\C55H74N4O5\PADAWAN\02-Aug-
 2019\0\\# td=(NStates=1) B3LYP/SVP\\TD\\0,1\C,0,-5.0755352516,-1.87067
 33094,0.5186167376\C,0,-4.8739277118,2.870343486,1.3405404399\C,0,-9.4
 485747672,3.2002408233,-0.1442628942\C,0,-9.8155296075,-1.552476051,-0
 .9419767511\N,0,-5.2650756699,0.4738690098,0.8851669537\C,0,-4.5125698
 731,-0.6801447355,0.830036447\C,0,-3.0358232688,-0.3942658613,1.251690
 1648\C,0,-3.0182267881,1.0472536177,1.7792770335\C,0,-4.4627854716,1.5
 050603239,1.2900326003\C,0,-2.9930778763,1.1660441167,3.3114990125\C,0
 ,-2.0549475655,-0.5785178135,0.0034882944\C,0,-0.6051537276,-0.4757457
 912,0.5518176345\C,0,0.3149751589,-0.8019270656,-0.6858701446\O,0,0.09
 65114187,-1.3381361802,-1.7621098225\O,0,1.5481050076,-0.621118885,-0.
 2149639391\N,0,-7.1208066753,2.6972669985,0.584327942\C,0,-6.058437419
 1,3.4932737457,1.0286937263\C,0,-6.4674499307,4.9069071302,1.155882081
 \C,0,-7.7428633831,4.96534537,0.5047270001\C,0,-8.1203129772,3.5269611
 898,0.2210222576\C,0,-5.4907095875,6.0046059757,1.5734686129\C,0,-8.48
 80160843,6.2068947011,0.3365221535\C,0,-9.2873466329,6.5795376757,-0.6
 628787667\N,0,-9.2846466653,0.8150287359,-0.4022626947\C,0,-10.0005839
 213,1.9712296217,-0.5136606353\C,0,-11.3686007266,1.6856721282,-1.0262
 464585\C,0,-11.4452684773,0.31269861,-1.1228872434\C,0,-10.1598882145,
 -0.2765976115,-0.8848317257\C,0,-12.4141099119,2.6879172933,-1.2856716
 575\C,0,-12.6222499645,-0.5107135509,-1.6747384335\C,0,-12.7492450552,
 -0.6719204564,-3.2372218935\N,0,-7.447693727,-1.3097126565,-0.17312584
 11\C,0,-8.5024018277,-2.0562943562,-0.5590592683\C,0,-8.1189743364,-3.
 4870955918,-0.5347660439\C,0,-6.8731922283,-3.4150183301,-0.1144390678
 \C,0,-6.3985209555,-2.116474466,0.0528003562\C,0,-8.816274385,-4.65301
 60511,-1.0474837428\C,0,-5.6779147367,-4.3006951046,0.2550064462\O,0,-
 5.5575852487,-5.4879683269,0.0798307172\C,0,-4.4770353321,-3.321742935
 9,0.5815572178\C,0,-3.8163354314,-3.7017042639,1.8734838741\O,0,-3.994
 524526,-3.2740953434,2.9268607542\O,0,-2.9154102286,-4.760240997,1.625
 5429822\C,0,-2.3169063944,-5.39213866,2.8699891385\C,0,2.6279549641,-0
 .9068445821,-1.2645404798\C,0,3.9726305099,-0.6063511375,-0.572529353\
 C,0,5.0013623928,0.1511261675,-1.101694126\C,0,4.8467338691,1.18130886
 26,-2.3688239992\C,0,6.3497067159,0.2209598352,-0.4690958238\C,0,7.488
 2500654,-0.2994461275,-1.3159584627\C,0,8.876739275,-0.1843024153,-0.4
 556839159\C,0,10.1796388896,-0.5675810847,-1.1109684516\C,0,10.2128773
 263,-2.1317669796,-1.5352928142\C,0,11.3963934895,-0.1999243071,-0.067
 4673024\C,0,12.7017218464,-0.3999753147,-0.7787924023\C,0,13.825141103
 5,-0.0477119974,0.132115267\C,0,15.3113500468,-0.2222531068,-0.5088044
 383\C,0,15.5416837402,-1.7245713225,-0.881706939\C,0,16.3165624005,0.2
 596804853,0.4595349758\C,0,17.8380186907,0.5592888466,-0.1677206735\C,
 0,18.5978107054,1.2954738763,1.0244732635\C,0,20.1481967213,1.29416722
 13,0.5019519227\C,0,20.405171216,1.8848450606,-0.8862267005\C,0,21.026
 9952208,2.104041743,1.562438032\H,0,-4.1211597763,3.6159628283,1.81298
 61795\H,0,-10.0752853816,4.0063778799,-0.3927305958\H,0,-10.5079650529
 ,-2.3852656821,-1.19576905\H,0,-2.6433566627,-0.9965288881,2.166047480
 4\H,0,-2.2016914836,1.8049007133,1.4884417564\H,0,-1.9485451125,0.8404
 404124,3.6638354875\H,0,-3.0280682987,2.2505701067,3.7323834335\H,0,-3
 .6973093278,0.5657817627,3.7415293291\H,0,-1.9926347719,-1.4577005032,
 -0.6295374009\H,0,-2.2415574951,0.2662128123,-0.6712338176\H,0,-0.2884
 446643,0.4724110947,0.8561959809\H,0,-0.1430346428,-1.2333852971,1.209
 1684252\H,0,-4.5921740339,6.048489217,0.8008928891\H,0,-6.0144866551,6
 .8721921339,1.8921585105\H,0,-5.1684649333,5.6038084248,2.6011342474\H
 ,0,-8.1452495344,6.9973596105,1.1139729512\H,0,-9.661421494,5.87298745
 92,-1.3327048566\H,0,-9.6978345301,7.3977084983,-0.811661389\H,0,-12.6
 52239586,3.3950886961,-0.3986176749\H,0,-12.0757814264,3.2782717846,-2
 .2017494917\H,0,-13.2750385267,2.4074285786,-1.8109354489\H,0,-12.6842
 107943,-1.4047894056,-1.2521899701\H,0,-13.5089679213,0.0268068354,-1.
 0335957184\H,0,-12.9687025002,0.4426210752,-3.4158389282\H,0,-11.64438
 94069,-0.9777053441,-3.5457235245\H,0,-13.8199687504,-1.2151406089,-3.
 4142689692\H,0,-9.9896155104,-4.8871980396,-0.8272450265\H,0,-8.888602
 8392,-4.5047384198,-2.2582427225\H,0,-8.2563608108,-5.4927375408,-0.77
 4905446\H,0,-3.6492267741,-3.2834346337,-0.122853634\H,0,-1.698430236,
 -6.2063757333,2.6628196161\H,0,-1.7865871051,-4.6597394578,3.540048447
 4\H,0,-3.0717601924,-5.8942345151,3.7884357192\H,0,2.6507389814,-1.884
 9261361,-1.4668178488\H,0,2.4867535699,-0.1695445353,-2.1372614933\H,0
 ,4.2593987116,-1.2914614604,0.1787057736\H,0,5.5219540246,2.0523577448
 ,-2.1371084306\H,0,5.3447210893,0.592195182,-3.1424356452\H,0,3.797639
 8822,1.3387150583,-2.7706778929\H,0,6.5743354497,1.2651426393,-0.24388
 45796\H,0,6.4045484995,-0.2769075804,0.5964973571\H,0,7.3948862735,-1.
 3013168563,-1.7921399736\H,0,7.6378333258,0.5024122618,-2.2210769367\H
 ,0,8.7188473721,0.679996841,-0.0226921209\H,0,8.7058336462,-0.99750390
 19,0.6140942218\H,0,10.2251751861,0.0543379905,-2.0604006151\H,0,9.286
 9090071,-2.2141401072,-2.2602545733\H,0,11.0795229834,-2.3412357234,-1
 .9313237373\H,0,10.2315781779,-2.6970713927,-0.6940976791\H,0,11.20431
 5729,0.7423130114,0.3093595212\H,0,11.1699829618,-1.1610613426,0.69381
 93121\H,0,12.5811628269,-1.4938609573,-1.0763908521\H,0,12.894837636,-
 0.0141614951,-1.8520167354\H,0,13.794830638,1.0842481356,0.6081137223\
 H,0,13.6427184988,-0.553781806,1.0904058865\H,0,15.451727517,0.3520664
 127,-1.4234143547\H,0,14.7954350964,-1.990331615,-1.6070100342\H,0,16.
 411535027,-1.8792819648,-1.5664624301\H,0,15.7133966185,-2.4293480674,
 0.0015694283\H,0,16.0177720504,1.2292694972,1.1050509641\H,0,16.858270
 4838,-0.539983375,1.3455379764\H,0,18.4612473464,-0.3245766682,-0.3324
 331111\H,0,17.493433929,1.0264645348,-1.161454578\H,0,18.1976544549,2.
 4253789338,0.9383392236\H,0,18.2696192161,0.8062764371,1.8570728573\H,
 0,20.3132876612,0.1150794689,0.6287640326\H,0,19.8761149681,2.78333660
 38,-1.1271146139\H,0,21.4996272064,2.2242204917,-0.8644995566\H,0,20.0
 556305361,1.1582914508,-1.7988920707\H,0,20.8358388204,1.6955010181,2.
 6914501816\H,0,22.1411569729,2.0502850559,1.4048146386\H,0,20.75851548
 09,3.1697301726,1.626191357\H,0,-7.1133131644,1.8432031935,0.428444690
 6\H,0,-7.8079523436,-0.1068308591,-0.3494050681\\Version=ES64L-G09RevD
 .01\State=1-A\HF=-2732.9455537\RMSD=4.247e-09\PG=C01 [X(C55H74N4O5)]\\
 @


 ... IT CAN BE VERY DIFFICULT, IN THESE COMPLEX TIMES,
 TO UNDERSTAND JUST HOW SCIENTISTS DO WHAT THEY DO.

                     DON MOSER IN THE FEBRUARY 1979 SMITHSONIAN
 Job cpu time:       0 days  4 hours 45 minutes 28.6 seconds.
 File lengths (MBytes):  RWF=   1953 Int=      0 D2E=      0 Chk=    148 Scr=      1
 Normal termination of Gaussian 09 at Fri Aug  2 08:33:04 2019.
