 Entering Gaussian System, Link 0=g16
 Input=Geometria-394-.com
 Output=Geometria-394-.log
 Initial command:
 /usr/local/g09/l1.exe "/home/padawan/israel-mol/pheophytin/spectra/abs/Gau-112989.inp" -scrdir="/home/padawan/israel-mol/pheophytin/spectra/abs/"
 Entering Link 1 = /usr/local/g09/l1.exe PID=    112991.
  
 Copyright (c) 1988,1990,1992,1993,1995,1998,2003,2009,2013,
            Gaussian, Inc.  All Rights Reserved.
  
 This is part of the Gaussian(R) 09 program.  It is based on
 the Gaussian(R) 03 system (copyright 2003, Gaussian, Inc.),
 the Gaussian(R) 98 system (copyright 1998, Gaussian, Inc.),
 the Gaussian(R) 94 system (copyright 1995, Gaussian, Inc.),
 the Gaussian 92(TM) system (copyright 1992, Gaussian, Inc.),
 the Gaussian 90(TM) system (copyright 1990, Gaussian, Inc.),
 the Gaussian 88(TM) system (copyright 1988, Gaussian, Inc.),
 the Gaussian 86(TM) system (copyright 1986, Carnegie Mellon
 University), and the Gaussian 82(TM) system (copyright 1983,
 Carnegie Mellon University). Gaussian is a federally registered
 trademark of Gaussian, Inc.
  
 This software contains proprietary and confidential information,
 including trade secrets, belonging to Gaussian, Inc.
  
 This software is provided under written license and may be
 used, copied, transmitted, or stored only in accord with that
 written license.
  
 The following legend is applicable only to US Government
 contracts under FAR:
  
                    RESTRICTED RIGHTS LEGEND
  
 Use, reproduction and disclosure by the US Government is
 subject to restrictions as set forth in subparagraphs (a)
 and (c) of the Commercial Computer Software - Restricted
 Rights clause in FAR 52.227-19.
  
 Gaussian, Inc.
 340 Quinnipiac St., Bldg. 40, Wallingford CT 06492
  
  
 ---------------------------------------------------------------
 Warning -- This program may not be used in any manner that
 competes with the business of Gaussian, Inc. or will provide
 assistance to any competitor of Gaussian, Inc.  The licensee
 of this program is prohibited from giving any competitor of
 Gaussian, Inc. access to this program.  By using this program,
 the user acknowledges that Gaussian, Inc. is engaged in the
 business of creating and licensing software in the field of
 computational chemistry and represents and warrants to the
 licensee that it is not a competitor of Gaussian, Inc. and that
 it will not use this program in any manner prohibited above.
 ---------------------------------------------------------------
  

 Cite this work as:
 Gaussian 09, Revision D.01,
 M. J. Frisch, G. W. Trucks, H. B. Schlegel, G. E. Scuseria, 
 M. A. Robb, J. R. Cheeseman, G. Scalmani, V. Barone, B. Mennucci, 
 G. A. Petersson, H. Nakatsuji, M. Caricato, X. Li, H. P. Hratchian, 
 A. F. Izmaylov, J. Bloino, G. Zheng, J. L. Sonnenberg, M. Hada, 
 M. Ehara, K. Toyota, R. Fukuda, J. Hasegawa, M. Ishida, T. Nakajima, 
 Y. Honda, O. Kitao, H. Nakai, T. Vreven, J. A. Montgomery, Jr., 
 J. E. Peralta, F. Ogliaro, M. Bearpark, J. J. Heyd, E. Brothers, 
 K. N. Kudin, V. N. Staroverov, T. Keith, R. Kobayashi, J. Normand, 
 K. Raghavachari, A. Rendell, J. C. Burant, S. S. Iyengar, J. Tomasi, 
 M. Cossi, N. Rega, J. M. Millam, M. Klene, J. E. Knox, J. B. Cross, 
 V. Bakken, C. Adamo, J. Jaramillo, R. Gomperts, R. E. Stratmann, 
 O. Yazyev, A. J. Austin, R. Cammi, C. Pomelli, J. W. Ochterski, 
 R. L. Martin, K. Morokuma, V. G. Zakrzewski, G. A. Voth, 
 P. Salvador, J. J. Dannenberg, S. Dapprich, A. D. Daniels, 
 O. Farkas, J. B. Foresman, J. V. Ortiz, J. Cioslowski, 
 and D. J. Fox, Gaussian, Inc., Wallingford CT, 2013.
 
 ******************************************
 Gaussian 09:  ES64L-G09RevD.01 24-Apr-2013
                 4-Aug-2019 
 ******************************************
 %nproc=3
 Will use up to    3 processors via shared memory.
 %Mem=2GB
 --------------------------
 # td=(NStates=1) B3LYP/SVP
 --------------------------
 1/38=1/1;
 2/12=2,17=6,18=5,40=1/2;
 3/5=18,7=101,11=9,16=1,25=1,30=1,74=-5/1,2,8,3;
 4//1;
 5/5=2,38=5/2;
 8/6=1,10=1,108=1/1;
 9/41=1,42=1,70=2/14;
 6/7=2,8=2,9=2,10=2/1;
 99/5=1,9=1/99;
 --
 TD
 --
 Symbolic Z-matrix:
 Charge =  0 Multiplicity = 1
 6                    -4.97379  -1.84978   0.46857 
 6                    -4.953     2.82059   1.50279 
 6                    -9.44266   3.18247  -0.23533 
 6                    -9.81796  -1.55484  -1.08939 
 7                    -5.14063   0.49267   0.89909 
 6                    -4.48486  -0.64893   0.84465 
 6                    -3.02658  -0.45262   1.39017 
 6                    -3.17569   0.94313   2.01554 
 6                    -4.43299   1.49596   1.3256 
 6                    -3.21219   0.90267   3.59666 
 6                    -1.97569  -0.566     0.18632 
 6                    -0.65529  -0.63451   0.73884 
 6                     0.38173  -0.71776  -0.48508 
 8                     0.00821  -1.05998  -1.54741 
 8                     1.65212  -0.54799  -0.08514 
 7                    -7.15572   2.68025   0.50921 
 6                    -6.11043   3.36522   1.08812 
 6                    -6.46009   4.7628    1.17231 
 6                    -7.73508   4.83323   0.52337 
 6                    -8.22533   3.58445   0.18958 
 6                    -5.62185   5.75414   1.72523 
 6                    -8.337     6.28776   0.28407 
 6                    -9.13302   6.58229  -0.6846 
 7                    -9.22978   0.79419  -0.57351 
 6                    -9.95167   1.93623  -0.65512 
 6                    -11.30895   1.72463  -1.05233 
 6                    -11.34567   0.32071  -1.40224 
 6                    -10.06702  -0.14734  -1.0211 
 6                    -12.38123   2.80195  -1.22954 
 6                    -12.51444  -0.47398  -1.99094 
 6                    -12.4172  -0.78028  -3.41574 
 7                    -7.39844  -1.24257  -0.21976 
 6                    -8.5013   -2.08415  -0.6581 
 6                    -8.06439  -3.41768  -0.65666 
 6                    -6.68243  -3.39906  -0.22134 
 6                    -6.29762  -1.98675   0.01096 
 6                    -8.73957  -4.70058  -1.10118 
 6                    -5.61357  -4.23604   0.0256 
 8                    -5.58951  -5.43684   0.0179 
 6                    -4.32942  -3.27494   0.50668 
 6                    -3.82189  -3.73467   1.87448 
 8                    -4.17367  -3.35801   3.01161 
 8                    -2.87053  -4.66782   1.62566 
 6                    -2.44474  -5.48145   2.85954 
 6                     2.59596  -0.76543  -1.26706 
 6                     3.9475   -0.61463  -0.67372 
 6                     4.88826   0.30079  -0.97148 
 6                     4.75468   1.41181  -2.22552 
 6                     6.30709   0.27544  -0.14738 
 6                     7.42537  -0.3233   -0.92702 
 6                     8.737    -0.10348  -0.16316 
 6                     10.08419  -0.56674  -0.96575 
 6                     10.08323  -2.15832  -1.16834 
 6                     11.33393  -0.17581  -0.06328 
 6                     12.64765  -0.53417  -0.69465 
 6                     13.84992  -0.10989   0.19388 
 6                     15.14605  -0.34347  -0.32766 
 6                     15.51179  -1.76164  -0.53541 
 6                     16.30856   0.40762   0.39398 
 6                     17.72305   0.44852  -0.1827 
 6                     18.7173   1.30592   0.69609 
 6                     20.09824   1.31969   0.00225 
 6                     20.28551   1.74096  -1.44657 
 6                     21.02414   2.2403    0.88587 
 1                    -4.29948   3.4718    2.07932 
 1                    -10.05233   4.04913  -0.47727 
 1                    -10.54041  -2.45619  -1.38538 
 1                    -2.68825  -1.26195   2.15823 
 1                    -2.33774   1.4991    1.87935 
 1                    -2.26807   0.3811    3.98171 
 1                    -3.32221   1.8       4.05021 
 1                    -4.05705   0.22504   3.77095 
 1                    -2.30389  -1.45856  -0.58625 
 1                    -2.09939   0.20191  -0.60856 
 1                    -0.41352   0.16085   1.34347 
 1                    -0.59657  -1.50024   1.32667 
 1                    -4.76247   6.01319   0.98966 
 1                    -5.91403   6.69442   1.74398 
 1                    -5.13245   5.57338   2.87677 
 1                    -8.02424   7.0027    1.17158 
 1                    -9.33583   5.91223  -1.43968 
 1                    -9.62013   7.53332  -0.60922 
 1                    -12.43674   3.46897  -0.37725 
 1                    -12.11689   3.6495   -1.97911 
 1                    -13.2063   2.38685  -1.55555 
 1                    -12.48096  -1.43302  -1.57366 
 1                    -13.42967  -0.22192  -1.64233 
 1                    -12.37433   0.19104  -4.01937 
 1                    -11.44268  -1.3564   -3.66642 
 1                    -13.47582  -1.1931   -3.9862 
 1                    -9.68702  -4.87819  -0.50576 
 1                    -9.09005  -4.68192  -2.21939 
 1                    -8.12854  -5.60034  -0.8509 
 1                    -3.38942  -3.38261  -0.01877 
 1                    -1.85883  -6.18498   2.36654 
 1                    -1.95867  -4.93891   3.57673 
 1                    -3.23481  -5.95976   3.19454 
 1                     2.43953  -1.82876  -1.60308 
 1                     2.38861  -0.06196  -2.15664 
 1                     4.3135   -1.09753   0.1461 
 1                     4.84056   2.45868  -1.61871 
 1                     5.47007   1.18352  -3.07855 
 1                     3.70397   1.68344  -2.47035 
 1                     6.68722   1.30665   0.32305 
 1                     6.03121  -0.30522   0.73853 
 1                     7.16144  -1.50943  -1.04624 
 1                     7.62697   0.13454  -1.97406 
 1                     9.00707   0.95018   0.05518 
 1                     8.72296  -0.62751   0.73582 
 1                     10.2243  -0.12886  -2.10809 
 1                     9.35988  -2.36583  -1.97924 
 1                     11.09739  -2.44651  -1.42675 
 1                     9.92461  -2.99125  -0.21386 
 1                     11.34904   0.72994   0.07324 
 1                     11.52103  -0.68776   0.90263 
 1                     12.68323  -1.62922  -0.77978 
 1                     12.87899  -0.13789  -1.67453 
 1                     13.57032   1.06454   0.49518 
 1                     13.97222  -0.51991   1.32456 
 1                     15.25756   0.23875  -1.1538 
 1                     14.74508  -2.09757  -1.27895 
 1                     16.62705  -1.91506  -0.92763 
 1                     15.4051  -2.20266   0.5595 
 1                     16.09185   1.50776   0.61724 
 1                     16.1374  -0.0751    1.39414 
 1                     18.12389  -0.5474   -0.3149 
 1                     17.95178   0.81968  -1.32949 
 1                     18.10829   2.29679   0.62442 
 1                     18.81028   0.79324   1.79665 
 1                     20.38091   0.17122   0.07584 
 1                     20.0518   2.8455   -1.62464 
 1                     21.28816   1.49233  -1.84742 
 1                     19.53125   1.1061   -2.04818 
 1                     20.85544   1.69538   2.03211 
 1                     22.28668   2.07015   0.77358 
 1                     20.80456   3.20701   0.784 
 1                    -7.29296   1.63456   0.29581 
 1                    -7.69744  -0.20594  -0.19595 
 
 Stoichiometry    C55H74N4O5
 Framework group  C1[X(C55H74N4O5)]
 Deg. of freedom   408
 Full point group                 C1      NOp   1
 Largest Abelian subgroup         C1      NOp   1
 Largest concise Abelian subgroup C1      NOp   1
                         Standard orientation:                         
 ---------------------------------------------------------------------
 Center     Atomic      Atomic             Coordinates (Angstroms)
 Number     Number       Type             X           Y           Z
 ---------------------------------------------------------------------
      1          6           0       -4.964046   -1.870771    0.458452
      2          6           0       -4.967538    2.795183    1.512607
      3          6           0       -9.457821    3.141813   -0.227034
      4          6           0       -9.808612   -1.593635   -1.101564
      5          7           0       -5.143012    0.468948    0.898849
      6          6           0       -4.481441   -0.669086    0.839986
      7          6           0       -3.024540   -0.467748    1.387347
      8          6           0       -3.181115    0.924552    2.018563
      9          6           0       -4.440732    1.473966    1.330121
     10          6           0       -3.218459    0.877149    3.599467
     11          6           0       -1.972287   -0.570672    0.183738
     12          6           0       -0.651925   -0.634879    0.736867
     13          6           0        0.386317   -0.707660   -0.486681
     14          8           0        0.015238   -1.047220   -1.550717
     15          8           0        1.655560   -0.533191   -0.085149
     16          7           0       -7.168864    2.647966    0.516928
     17          6           0       -6.127436    3.335732    1.099474
     18          6           0       -6.484204    4.731158    1.189392
     19          6           0       -7.759105    4.797921    0.539879
     20          6           0       -8.242819    3.548113    0.200425
     21          6           0       -5.651354    5.724344    1.747114
     22          6           0       -8.368205    6.250403    0.306374
     23          6           0       -9.165058    6.545040   -0.661574
     24          7           0       -9.232650    0.756102   -0.575256
     25          6           0       -9.960244    1.894821   -0.652492
     26          6           0      -11.316179    1.678069   -1.051527
     27          6           0      -11.345567    0.275493   -1.407448
     28          6           0      -10.064823   -0.187723   -1.027431
     29          6           0      -12.393761    2.750712   -1.224870
     30          6           0      -12.509917   -0.522565   -2.000342
     31          6           0      -12.410186   -0.822283   -3.426369
     32          7           0       -7.391278   -1.272871   -0.228947
     33          6           0       -8.489583   -2.118129   -0.671631
     34          6           0       -8.045941   -3.449432   -0.675582
     35          6           0       -6.664386   -3.425692   -0.239239
     36          6           0       -6.286868   -2.012467   -0.000653
     37          6           0       -8.714333   -4.733816   -1.126038
     38          6           0       -5.591471   -4.258314    0.004863
     39          8           0       -5.561341   -5.458938   -0.007945
     40          6           0       -4.312516   -3.292806    0.490919
     41          6           0       -3.803575   -3.755806    1.857097
     42          8           0       -4.158016   -3.385794    2.995578
     43          8           0       -2.847347   -4.683074    1.604948
     44          6           0       -2.418277   -5.499803    2.835631
     45          6           0        2.601279   -0.740811   -1.267338
     46          6           0        3.951641   -0.585727   -0.672431
     47          6           0        4.887966    0.335698   -0.965636
     48          6           0        4.749612    1.451377   -2.215012
     49          6           0        6.306359    0.313986   -0.140680
     50          6           0        7.428169   -0.275758   -0.922097
     51          6           0        8.738155   -0.052589   -0.156410
     52          6           0       10.088205   -0.505606   -0.960044
     53          6           0       10.095425   -2.096289   -1.169419
     54          6           0       11.335352   -0.112230   -0.055049
     55          6           0       12.651284   -0.461250   -0.687048
     56          6           0       13.850811   -0.034704    0.204116
     57          6           0       15.148451   -0.259504   -0.317524
     58          6           0       15.521486   -1.674908   -0.531080
     59          6           0       16.306670    0.494347    0.408108
     60          6           0       17.721314    0.544854   -0.167421
     61          6           0       18.710641    1.403508    0.715706
     62          6           0       20.091954    1.427209    0.022881
     63          6           0       20.278055    1.855605   -1.424004
     64          6           0       21.012607    2.348694    0.911056
     65          1           0       -4.317702    3.447216    2.092366
     66          1           0      -10.071699    4.006413   -0.465688
     67          1           0      -10.526300   -2.497355   -1.401891
     68          1           0       -2.682635   -1.278627    2.152170
     69          1           0       -2.345886    1.485320    1.885323
     70          1           0       -2.271969    0.358719    3.982935
     71          1           0       -3.333310    1.771964    4.056765
     72          1           0       -4.059996    0.194524    3.770288
     73          1           0       -2.295456   -1.461573   -0.592860
     74          1           0       -2.099340    0.199985   -0.607936
     75          1           0       -0.414576    0.159103    1.345060
     76          1           0       -0.589224   -1.502805    1.321040
     77          1           0       -4.792803    5.990865    1.013245
     78          1           0       -5.948287    6.663052    1.769677
     79          1           0       -5.161812    5.541135    2.898206
     80          1           0       -8.059647    6.963112    1.197144
     81          1           0       -9.363976    5.877200   -1.419641
     82          1           0       -9.657012    7.493272   -0.582470
     83          1           0      -12.453209    3.413793   -0.369779
     84          1           0      -12.133207    3.602780   -1.970635
     85          1           0      -13.216512    2.332846   -1.553220
     86          1           0      -12.471871   -1.483200   -1.587138
     87          1           0      -13.426641   -0.276619   -1.651284
     88          1           0      -12.371823    0.151808   -4.025817
     89          1           0      -11.432598   -1.392401   -3.678832
     90          1           0      -13.466330   -1.237999   -3.999309
     91          1           0       -9.661268   -4.918745   -0.532036
     92          1           0       -9.064165   -4.712144   -2.244398
     93          1           0       -8.098933   -5.631538   -0.879185
     94          1           0       -3.371635   -3.393490   -0.034343
     95          1           0       -1.828489   -6.198259    2.340037
     96          1           0       -1.935436   -4.957884    3.555468
     97          1           0       -3.206140   -5.983526    3.168042
     98          1           0        2.450442   -1.803472   -1.608002
     99          1           0        2.390972   -0.034606   -2.154052
    100          1           0        4.319537   -1.070270    0.145574
    101          1           0        4.829790    2.496062   -1.603677
    102          1           0        5.466713    1.230351   -3.068517
    103          1           0        3.697703    1.718740   -2.459400
    104          1           0        6.680956    1.345085    0.334414
    105          1           0        6.032825   -0.271834    0.742559
    106          1           0        7.170313   -1.462684   -1.046555
    107          1           0        7.628148    0.187557   -1.967037
    108          1           0        9.002754    1.001487    0.066611
    109          1           0        8.726164   -0.580512    0.740316
    110          1           0       10.226857   -0.062147   -2.100400
    111          1           0        9.373664   -2.303978   -1.981694
    112          1           0       11.111200   -2.378245   -1.428367
    113          1           0        9.940374   -2.934080   -0.218615
    114          1           0       11.345798    0.792997    0.085339
    115          1           0       11.524394   -0.627353    0.908793
    116          1           0       12.692459   -1.555738   -0.776824
    117          1           0       12.881271   -0.059629   -1.665063
    118          1           0       13.565076    1.136996    0.510235
    119          1           0       13.974427   -0.448928    1.333117
    120          1           0       15.257563    0.326786   -1.141095
    121          1           0       14.756977   -2.011533   -1.276568
    122          1           0       16.637764   -1.821019   -0.923182
    123          1           0       15.416293   -2.121135    0.561862
    124          1           0       16.084255    1.592417    0.635917
    125          1           0       16.137283    0.006509    1.406085
    126          1           0       18.127275   -0.448453   -0.303595
    127          1           0       17.948932    0.922065   -1.312458
    128          1           0       18.096674    2.391579    0.647845
    129          1           0       18.805478    0.886597    1.814127
    130          1           0       20.380376    0.279872    0.091759
    131          1           0       20.038889    2.959704   -1.597519
    132          1           0       21.282211    1.613752   -1.825218
    133          1           0       19.527410    1.219516   -2.028830
    134          1           0       20.845895    1.798044    2.054848
    135          1           0       22.276061    2.185404    0.798909
    136          1           0       20.788209    3.314718    0.813160
    137          1           0       -7.300679    1.602525    0.298974
    138          1           0       -7.695529   -0.237879   -0.200917
 ---------------------------------------------------------------------
 Rotational constants (GHZ):      0.0642921      0.0061410      0.0057986
 Standard basis: SVP (5D, 7F)
 There are  1330 symmetry adapted cartesian basis functions of A   symmetry.
 There are  1266 symmetry adapted basis functions of A   symmetry.
  1266 basis functions,  2118 primitive gaussians,  1330 cartesian basis functions
   236 alpha electrons      236 beta electrons
       nuclear repulsion energy      8289.2830188884 Hartrees.
 NAtoms=  138 NActive=  138 NUniq=  138 SFac= 1.00D+00 NAtFMM=   60 NAOKFM=T Big=T
 Integral buffers will be    131072 words long.
 Regular integral format.
 Two-electron integral symmetry is turned on.
 One-electron integrals computed using PRISM.
 NBasis=  1266 RedAO= T EigKep=  2.86D-04  NBF=  1266
 NBsUse=  1266 1.00D-06 EigRej= -1.00D+00 NBFU=  1266
 ExpMin= 1.22D-01 ExpMax= 2.27D+03 ExpMxC= 3.41D+02 IAcc=1 IRadAn=         1 AccDes= 0.00D+00
 Harris functional with IExCor=  402 and IRadAn=       1 diagonalized for initial guess.
 HarFok:  IExCor=  402 AccDes= 0.00D+00 IRadAn=         1 IDoV= 1 UseB2=F ITyADJ=14
 ICtDFT=  3500011 ScaDFX=  1.000000  1.000000  1.000000  1.000000
 FoFCou: FMM=F IPFlag=           0 FMFlag=      100000 FMFlg1=        2001
         NFxFlg=           0 DoJE=T BraDBF=F KetDBF=T FulRan=T
         wScrn=  0.000000 ICntrl=     500 IOpCl=  0 I1Cent=   200000004 NGrid=           0
         NMat0=    1 NMatS0=      1 NMatT0=    0 NMatD0=    1 NMtDS0=    0 NMtDT0=    0
 Petite list used in FoFCou.
 Requested convergence on RMS density matrix=1.00D-08 within 128 cycles.
 Requested convergence on MAX density matrix=1.00D-06.
 Requested convergence on             energy=1.00D-06.
 No special actions if energy rises.
 Integral accuracy reduced to 1.0D-05 until final iterations.
 Initial convergence to 1.0D-05 achieved.  Increase integral accuracy.
 SCF Done:  E(RB3LYP) =  -2732.99260850     A.U. after   17 cycles
            NFock= 17  Conv=0.25D-08     -V/T= 2.0116
 DoSCS=F DFT=T ScalE2(SS,OS)=  1.000000  1.000000
 ExpMin= 1.22D-01 ExpMax= 2.27D+03 ExpMxC= 3.41D+02 IAcc=3 IRadAn=         5 AccDes= 0.00D+00
 HarFok:  IExCor=  205 AccDes= 0.00D+00 IRadAn=         5 IDoV=-2 UseB2=F ITyADJ=14
 ICtDFT= 12500011 ScaDFX=  1.000000  1.000000  1.000000  1.000000
 Range of M.O.s used for correlation:    65  1266
 NBasis=  1266 NAE=   236 NBE=   236 NFC=    64 NFV=     0
 NROrb=   1202 NOA=   172 NOB=   172 NVA=  1030 NVB=  1030

 **** Warning!!: The smallest alpha delta epsilon is  0.91574408D-01

 Would need an additional        965744300000 words for in-memory AO integral storage.
 Orbital symmetries:
       Occupied  (A) (A) (A) (A) (A) (A) (A) (A) (A) (A) (A) (A)
                 (A) (A) (A) (A) (A) (A) (A) (A) (A) (A) (A) (A)
                 (A) (A) (A) (A) (A) (A) (A) (A) (A) (A) (A) (A)
                 (A) (A) (A) (A) (A) (A) (A) (A) (A) (A) (A) (A)
                 (A) (A) (A) (A) (A) (A) (A) (A) (A) (A) (A) (A)
                 (A) (A) (A) (A) (A) (A) (A) (A) (A) (A) (A) (A)
                 (A) (A) (A) (A) (A) (A) (A) (A) (A) (A) (A) (A)
                 (A) (A) (A) (A) (A) (A) (A) (A) (A) (A) (A) (A)
                 (A) (A) (A) (A) (A) (A) (A) (A) (A) (A) (A) (A)
                 (A) (A) (A) (A) (A) (A) (A) (A) (A) (A) (A) (A)
                 (A) (A) (A) (A) (A) (A) (A) (A) (A) (A) (A) (A)
                 (A) (A) (A) (A) (A) (A) (A) (A) (A) (A) (A) (A)
                 (A) (A) (A) (A) (A) (A) (A) (A) (A) (A) (A) (A)
                 (A) (A) (A) (A) (A) (A) (A) (A) (A) (A) (A) (A)
                 (A) (A) (A) (A) (A) (A) (A) (A) (A) (A) (A) (A)
                 (A) (A) (A) (A) (A) (A) (A) (A) (A) (A) (A) (A)
                 (A) (A) (A) (A) (A) (A) (A) (A) (A) (A) (A) (A)
                 (A) (A) (A) (A) (A) (A) (A) (A) (A) (A) (A) (A)
                 (A) (A) (A) (A) (A) (A) (A) (A) (A) (A) (A) (A)
                 (A) (A) (A) (A) (A) (A) (A) (A)
       Virtual   (A) (A) (A) (A) (A) (A) (A) (A) (A) (A) (A) (A)
                 (A) (A) (A) (A) (A) (A) (A) (A) (A) (A) (A) (A)
                 (A) (A) (A) (A) (A) (A) (A) (A) (A) (A) (A) (A)
                 (A) (A) (A) (A) (A) (A) (A) (A) (A) (A) (A) (A)
                 (A) (A) (A) (A) (A) (A) (A) (A) (A) (A) (A) (A)
                 (A) (A) (A) (A) (A) (A) (A) (A) (A) (A) (A) (A)
                 (A) (A) (A) (A) (A) (A) (A) (A) (A) (A) (A) (A)
                 (A) (A) (A) (A) (A) (A) (A) (A) (A) (A) (A) (A)
                 (A) (A) (A) (A) (A) (A) (A) (A) (A) (A) (A) (A)
                 (A) (A) (A) (A) (A) (A) (A) (A) (A) (A) (A) (A)
                 (A) (A) (A) (A) (A) (A) (A) (A) (A) (A) (A) (A)
                 (A) (A) (A) (A) (A) (A) (A) (A) (A) (A) (A) (A)
                 (A) (A) (A) (A) (A) (A) (A) (A) (A) (A) (A) (A)
                 (A) (A) (A) (A) (A) (A) (A) (A) (A) (A) (A) (A)
                 (A) (A) (A) (A) (A) (A) (A) (A) (A) (A) (A) (A)
                 (A) (A) (A) (A) (A) (A) (A) (A) (A) (A) (A) (A)
                 (A) (A) (A) (A) (A) (A) (A) (A) (A) (A) (A) (A)
                 (A) (A) (A) (A) (A) (A) (A) (A) (A) (A) (A) (A)
                 (A) (A) (A) (A) (A) (A) (A) (A) (A) (A) (A) (A)
                 (A) (A) (A) (A) (A) (A) (A) (A) (A) (A) (A) (A)
                 (A) (A) (A) (A) (A) (A) (A) (A) (A) (A) (A) (A)
                 (A) (A) (A) (A) (A) (A) (A) (A) (A) (A) (A) (A)
                 (A) (A) (A) (A) (A) (A) (A) (A) (A) (A) (A) (A)
                 (A) (A) (A) (A) (A) (A) (A) (A) (A) (A) (A) (A)
                 (A) (A) (A) (A) (A) (A) (A) (A) (A) (A) (A) (A)
                 (A) (A) (A) (A) (A) (A) (A) (A) (A) (A) (A) (A)
                 (A) (A) (A) (A) (A) (A) (A) (A) (A) (A) (A) (A)
                 (A) (A) (A) (A) (A) (A) (A) (A) (A) (A) (A) (A)
                 (A) (A) (A) (A) (A) (A) (A) (A) (A) (A) (A) (A)
                 (A) (A) (A) (A) (A) (A) (A) (A) (A) (A) (A) (A)
                 (A) (A) (A) (A) (A) (A) (A) (A) (A) (A) (A) (A)
                 (A) (A) (A) (A) (A) (A) (A) (A) (A) (A) (A) (A)
                 (A) (A) (A) (A) (A) (A) (A) (A) (A) (A) (A) (A)
                 (A) (A) (A) (A) (A) (A) (A) (A) (A) (A) (A) (A)
                 (A) (A) (A) (A) (A) (A) (A) (A) (A) (A) (A) (A)
                 (A) (A) (A) (A) (A) (A) (A) (A) (A) (A) (A) (A)
                 (A) (A) (A) (A) (A) (A) (A) (A) (A) (A) (A) (A)
                 (A) (A) (A) (A) (A) (A) (A) (A) (A) (A) (A) (A)
                 (A) (A) (A) (A) (A) (A) (A) (A) (A) (A) (A) (A)
                 (A) (A) (A) (A) (A) (A) (A) (A) (A) (A) (A) (A)
                 (A) (A) (A) (A) (A) (A) (A) (A) (A) (A) (A) (A)
                 (A) (A) (A) (A) (A) (A) (A) (A) (A) (A) (A) (A)
                 (A) (A) (A) (A) (A) (A) (A) (A) (A) (A) (A) (A)
                 (A) (A) (A) (A) (A) (A) (A) (A) (A) (A) (A) (A)
                 (A) (A) (A) (A) (A) (A) (A) (A) (A) (A) (A) (A)
                 (A) (A) (A) (A) (A) (A) (A) (A) (A) (A) (A) (A)
                 (A) (A) (A) (A) (A) (A) (A) (A) (A) (A) (A) (A)
                 (A) (A) (A) (A) (A) (A) (A) (A) (A) (A) (A) (A)
                 (A) (A) (A) (A) (A) (A) (A) (A) (A) (A) (A) (A)
                 (A) (A) (A) (A) (A) (A) (A) (A) (A) (A) (A) (A)
                 (A) (A) (A) (A) (A) (A) (A) (A) (A) (A) (A) (A)
                 (A) (A) (A) (A) (A) (A) (A) (A) (A) (A) (A) (A)
                 (A) (A) (A) (A) (A) (A) (A) (A) (A) (A) (A) (A)
                 (A) (A) (A) (A) (A) (A) (A) (A) (A) (A) (A) (A)
                 (A) (A) (A) (A) (A) (A) (A) (A) (A) (A) (A) (A)
                 (A) (A) (A) (A) (A) (A) (A) (A) (A) (A) (A) (A)
                 (A) (A) (A) (A) (A) (A) (A) (A) (A) (A) (A) (A)
                 (A) (A) (A) (A) (A) (A) (A) (A) (A) (A) (A) (A)
                 (A) (A) (A) (A) (A) (A) (A) (A) (A) (A) (A) (A)
                 (A) (A) (A) (A) (A) (A) (A) (A) (A) (A) (A) (A)
                 (A) (A) (A) (A) (A) (A) (A) (A) (A) (A) (A) (A)
                 (A) (A) (A) (A) (A) (A) (A) (A) (A) (A) (A) (A)
                 (A) (A) (A) (A) (A) (A) (A) (A) (A) (A) (A) (A)
                 (A) (A) (A) (A) (A) (A) (A) (A) (A) (A) (A) (A)
                 (A) (A) (A) (A) (A) (A) (A) (A) (A) (A) (A) (A)
                 (A) (A) (A) (A) (A) (A) (A) (A) (A) (A) (A) (A)
                 (A) (A) (A) (A) (A) (A) (A) (A) (A) (A) (A) (A)
                 (A) (A) (A) (A) (A) (A) (A) (A) (A) (A) (A) (A)
                 (A) (A) (A) (A) (A) (A) (A) (A) (A) (A) (A) (A)
                 (A) (A) (A) (A) (A) (A) (A) (A) (A) (A) (A) (A)
                 (A) (A) (A) (A) (A) (A) (A) (A) (A) (A) (A) (A)
                 (A) (A) (A) (A) (A) (A) (A) (A) (A) (A) (A) (A)
                 (A) (A) (A) (A) (A) (A) (A) (A) (A) (A) (A) (A)
                 (A) (A) (A) (A) (A) (A) (A) (A) (A) (A) (A) (A)
                 (A) (A) (A) (A) (A) (A) (A) (A) (A) (A) (A) (A)
                 (A) (A) (A) (A) (A) (A) (A) (A) (A) (A) (A) (A)
                 (A) (A) (A) (A) (A) (A) (A) (A) (A) (A) (A) (A)
                 (A) (A) (A) (A) (A) (A) (A) (A) (A) (A) (A) (A)
                 (A) (A) (A) (A) (A) (A) (A) (A) (A) (A) (A) (A)
                 (A) (A) (A) (A) (A) (A) (A) (A) (A) (A) (A) (A)
                 (A) (A) (A) (A) (A) (A) (A) (A) (A) (A) (A) (A)
                 (A) (A) (A) (A) (A) (A) (A) (A) (A) (A) (A) (A)
                 (A) (A) (A) (A) (A) (A) (A) (A) (A) (A) (A) (A)
                 (A) (A) (A) (A) (A) (A) (A) (A) (A) (A) (A) (A)
                 (A) (A) (A) (A) (A) (A) (A) (A) (A) (A) (A) (A)
                 (A) (A) (A) (A) (A) (A) (A) (A) (A) (A)
     8 initial guesses have been made.
 Convergence on wavefunction:    0.001000000000000
 Iteration     1 Dimension     8 NMult     0 NNew      8
 CISAX will form     8 AO SS matrices at one time.
 Iteration     2 Dimension    12 NMult     8 NNew      4
 Iteration     3 Dimension    16 NMult    12 NNew      4
 Iteration     4 Dimension    20 NMult    16 NNew      4
 Iteration     5 Dimension    24 NMult    20 NNew      4
 Iteration     6 Dimension    28 NMult    24 NNew      4
 ***********************************************************************
 Excited states from <AA,BB:AA,BB> singles matrix:
 ***********************************************************************
 
 Ground to excited state transition densities written to RWF  633
 Ground to excited state transition electric dipole moments (Au):
       state          X           Y           Z        Dip. S.      Osc.
         1        -0.0018      1.4557      0.2076      2.1623      0.1141
 Ground to excited state transition velocity dipole moments (Au):
       state          X           Y           Z        Dip. S.      Osc.
         1         0.0001     -0.1124     -0.0164      0.0129      0.1087
 Ground to excited state transition magnetic dipole moments (Au):
       state          X           Y           Z
         1        -0.4725     -0.4389      2.9241
 Ground to excited state transition velocity quadrupole moments (Au):
       state          XX          YY          ZZ          XY          XZ          YZ
         1        -0.0415      0.0027     -0.0629      1.3705      0.1405     -0.0931
 <0|del|b> * <b|rxdel|0> + <0|del|b> * <b|delr+rdel|0>
 Rotatory Strengths (R) in cgs (10**-40 erg-esu-cm/Gauss)
       state          XX          YY          ZZ    R(velocity)    E-M Angle
         1       -23.2969   -114.0353    149.6429      4.1036       89.77
 1/2[<0|r|b>*<b|rxdel|0> + (<0|rxdel|b>*<b|r|0>)*]
 Rotatory Strengths (R) in cgs (10**-40 erg-esu-cm/Gauss)
       state          XX          YY          ZZ     R(length)
         1        -0.6165    451.8521   -429.2648      7.3236
  1/2[<0|del|b>*<b|r|0> + (<0|r|b>*<b|del|0>)*] (Au)
       state          X           Y           Z        Dip. S.   Osc.(frdel)
         1         0.0000     -0.1637     -0.0034      0.1671      0.1114

 Excitation energies and oscillator strengths:
 
 Excited State   1:      Singlet-A      2.1538 eV  575.65 nm  f=0.1141  <S**2>=0.000
     235 -> 237       -0.23307
     235 -> 238        0.31270
     236 -> 237        0.56045
     236 -> 238        0.16625
 This state for optimization and/or second-order correction.
 Total Energy, E(TD-HF/TD-KS) =  -2732.91345795    
 Copying the excited state density for this state as the 1-particle RhoCI density.
 SavETr:  write IOETrn=   770 NScale= 10 NData=  16 NLR=1 NState=    1 LETran=      28.

 **********************************************************************

            Population analysis using the SCF density.

 **********************************************************************

 Orbital symmetries:
       Occupied  (A) (A) (A) (A) (A) (A) (A) (A) (A) (A) (A) (A)
                 (A) (A) (A) (A) (A) (A) (A) (A) (A) (A) (A) (A)
                 (A) (A) (A) (A) (A) (A) (A) (A) (A) (A) (A) (A)
                 (A) (A) (A) (A) (A) (A) (A) (A) (A) (A) (A) (A)
                 (A) (A) (A) (A) (A) (A) (A) (A) (A) (A) (A) (A)
                 (A) (A) (A) (A) (A) (A) (A) (A) (A) (A) (A) (A)
                 (A) (A) (A) (A) (A) (A) (A) (A) (A) (A) (A) (A)
                 (A) (A) (A) (A) (A) (A) (A) (A) (A) (A) (A) (A)
                 (A) (A) (A) (A) (A) (A) (A) (A) (A) (A) (A) (A)
                 (A) (A) (A) (A) (A) (A) (A) (A) (A) (A) (A) (A)
                 (A) (A) (A) (A) (A) (A) (A) (A) (A) (A) (A) (A)
                 (A) (A) (A) (A) (A) (A) (A) (A) (A) (A) (A) (A)
                 (A) (A) (A) (A) (A) (A) (A) (A) (A) (A) (A) (A)
                 (A) (A) (A) (A) (A) (A) (A) (A) (A) (A) (A) (A)
                 (A) (A) (A) (A) (A) (A) (A) (A) (A) (A) (A) (A)
                 (A) (A) (A) (A) (A) (A) (A) (A) (A) (A) (A) (A)
                 (A) (A) (A) (A) (A) (A) (A) (A) (A) (A) (A) (A)
                 (A) (A) (A) (A) (A) (A) (A) (A) (A) (A) (A) (A)
                 (A) (A) (A) (A) (A) (A) (A) (A) (A) (A) (A) (A)
                 (A) (A) (A) (A) (A) (A) (A) (A)
       Virtual   (A) (A) (A) (A) (A) (A) (A) (A) (A) (A) (A) (A)
                 (A) (A) (A) (A) (A) (A) (A) (A) (A) (A) (A) (A)
                 (A) (A) (A) (A) (A) (A) (A) (A) (A) (A) (A) (A)
                 (A) (A) (A) (A) (A) (A) (A) (A) (A) (A) (A) (A)
                 (A) (A) (A) (A) (A) (A) (A) (A) (A) (A) (A) (A)
                 (A) (A) (A) (A) (A) (A) (A) (A) (A) (A) (A) (A)
                 (A) (A) (A) (A) (A) (A) (A) (A) (A) (A) (A) (A)
                 (A) (A) (A) (A) (A) (A) (A) (A) (A) (A) (A) (A)
                 (A) (A) (A) (A) (A) (A) (A) (A) (A) (A) (A) (A)
                 (A) (A) (A) (A) (A) (A) (A) (A) (A) (A) (A) (A)
                 (A) (A) (A) (A) (A) (A) (A) (A) (A) (A) (A) (A)
                 (A) (A) (A) (A) (A) (A) (A) (A) (A) (A) (A) (A)
                 (A) (A) (A) (A) (A) (A) (A) (A) (A) (A) (A) (A)
                 (A) (A) (A) (A) (A) (A) (A) (A) (A) (A) (A) (A)
                 (A) (A) (A) (A) (A) (A) (A) (A) (A) (A) (A) (A)
                 (A) (A) (A) (A) (A) (A) (A) (A) (A) (A) (A) (A)
                 (A) (A) (A) (A) (A) (A) (A) (A) (A) (A) (A) (A)
                 (A) (A) (A) (A) (A) (A) (A) (A) (A) (A) (A) (A)
                 (A) (A) (A) (A) (A) (A) (A) (A) (A) (A) (A) (A)
                 (A) (A) (A) (A) (A) (A) (A) (A) (A) (A) (A) (A)
                 (A) (A) (A) (A) (A) (A) (A) (A) (A) (A) (A) (A)
                 (A) (A) (A) (A) (A) (A) (A) (A) (A) (A) (A) (A)
                 (A) (A) (A) (A) (A) (A) (A) (A) (A) (A) (A) (A)
                 (A) (A) (A) (A) (A) (A) (A) (A) (A) (A) (A) (A)
                 (A) (A) (A) (A) (A) (A) (A) (A) (A) (A) (A) (A)
                 (A) (A) (A) (A) (A) (A) (A) (A) (A) (A) (A) (A)
                 (A) (A) (A) (A) (A) (A) (A) (A) (A) (A) (A) (A)
                 (A) (A) (A) (A) (A) (A) (A) (A) (A) (A) (A) (A)
                 (A) (A) (A) (A) (A) (A) (A) (A) (A) (A) (A) (A)
                 (A) (A) (A) (A) (A) (A) (A) (A) (A) (A) (A) (A)
                 (A) (A) (A) (A) (A) (A) (A) (A) (A) (A) (A) (A)
                 (A) (A) (A) (A) (A) (A) (A) (A) (A) (A) (A) (A)
                 (A) (A) (A) (A) (A) (A) (A) (A) (A) (A) (A) (A)
                 (A) (A) (A) (A) (A) (A) (A) (A) (A) (A) (A) (A)
                 (A) (A) (A) (A) (A) (A) (A) (A) (A) (A) (A) (A)
                 (A) (A) (A) (A) (A) (A) (A) (A) (A) (A) (A) (A)
                 (A) (A) (A) (A) (A) (A) (A) (A) (A) (A) (A) (A)
                 (A) (A) (A) (A) (A) (A) (A) (A) (A) (A) (A) (A)
                 (A) (A) (A) (A) (A) (A) (A) (A) (A) (A) (A) (A)
                 (A) (A) (A) (A) (A) (A) (A) (A) (A) (A) (A) (A)
                 (A) (A) (A) (A) (A) (A) (A) (A) (A) (A) (A) (A)
                 (A) (A) (A) (A) (A) (A) (A) (A) (A) (A) (A) (A)
                 (A) (A) (A) (A) (A) (A) (A) (A) (A) (A) (A) (A)
                 (A) (A) (A) (A) (A) (A) (A) (A) (A) (A) (A) (A)
                 (A) (A) (A) (A) (A) (A) (A) (A) (A) (A) (A) (A)
                 (A) (A) (A) (A) (A) (A) (A) (A) (A) (A) (A) (A)
                 (A) (A) (A) (A) (A) (A) (A) (A) (A) (A) (A) (A)
                 (A) (A) (A) (A) (A) (A) (A) (A) (A) (A) (A) (A)
                 (A) (A) (A) (A) (A) (A) (A) (A) (A) (A) (A) (A)
                 (A) (A) (A) (A) (A) (A) (A) (A) (A) (A) (A) (A)
                 (A) (A) (A) (A) (A) (A) (A) (A) (A) (A) (A) (A)
                 (A) (A) (A) (A) (A) (A) (A) (A) (A) (A) (A) (A)
                 (A) (A) (A) (A) (A) (A) (A) (A) (A) (A) (A) (A)
                 (A) (A) (A) (A) (A) (A) (A) (A) (A) (A) (A) (A)
                 (A) (A) (A) (A) (A) (A) (A) (A) (A) (A) (A) (A)
                 (A) (A) (A) (A) (A) (A) (A) (A) (A) (A) (A) (A)
                 (A) (A) (A) (A) (A) (A) (A) (A) (A) (A) (A) (A)
                 (A) (A) (A) (A) (A) (A) (A) (A) (A) (A) (A) (A)
                 (A) (A) (A) (A) (A) (A) (A) (A) (A) (A) (A) (A)
                 (A) (A) (A) (A) (A) (A) (A) (A) (A) (A) (A) (A)
                 (A) (A) (A) (A) (A) (A) (A) (A) (A) (A) (A) (A)
                 (A) (A) (A) (A) (A) (A) (A) (A) (A) (A) (A) (A)
                 (A) (A) (A) (A) (A) (A) (A) (A) (A) (A) (A) (A)
                 (A) (A) (A) (A) (A) (A) (A) (A) (A) (A) (A) (A)
                 (A) (A) (A) (A) (A) (A) (A) (A) (A) (A) (A) (A)
                 (A) (A) (A) (A) (A) (A) (A) (A) (A) (A) (A) (A)
                 (A) (A) (A) (A) (A) (A) (A) (A) (A) (A) (A) (A)
                 (A) (A) (A) (A) (A) (A) (A) (A) (A) (A) (A) (A)
                 (A) (A) (A) (A) (A) (A) (A) (A) (A) (A) (A) (A)
                 (A) (A) (A) (A) (A) (A) (A) (A) (A) (A) (A) (A)
                 (A) (A) (A) (A) (A) (A) (A) (A) (A) (A) (A) (A)
                 (A) (A) (A) (A) (A) (A) (A) (A) (A) (A) (A) (A)
                 (A) (A) (A) (A) (A) (A) (A) (A) (A) (A) (A) (A)
                 (A) (A) (A) (A) (A) (A) (A) (A) (A) (A) (A) (A)
                 (A) (A) (A) (A) (A) (A) (A) (A) (A) (A) (A) (A)
                 (A) (A) (A) (A) (A) (A) (A) (A) (A) (A) (A) (A)
                 (A) (A) (A) (A) (A) (A) (A) (A) (A) (A) (A) (A)
                 (A) (A) (A) (A) (A) (A) (A) (A) (A) (A) (A) (A)
                 (A) (A) (A) (A) (A) (A) (A) (A) (A) (A) (A) (A)
                 (A) (A) (A) (A) (A) (A) (A) (A) (A) (A) (A) (A)
                 (A) (A) (A) (A) (A) (A) (A) (A) (A) (A) (A) (A)
                 (A) (A) (A) (A) (A) (A) (A) (A) (A) (A) (A) (A)
                 (A) (A) (A) (A) (A) (A) (A) (A) (A) (A) (A) (A)
                 (A) (A) (A) (A) (A) (A) (A) (A) (A) (A) (A) (A)
                 (A) (A) (A) (A) (A) (A) (A) (A) (A) (A) (A) (A)
                 (A) (A) (A) (A) (A) (A) (A) (A) (A) (A)
 The electronic state is 1-A.
 Alpha  occ. eigenvalues --  -19.17999 -19.17419 -19.12451 -19.11452 -19.11232
 Alpha  occ. eigenvalues --  -14.37057 -14.36126 -14.31223 -14.30323 -10.30885
 Alpha  occ. eigenvalues --  -10.30829 -10.26763 -10.26118 -10.23852 -10.23633
 Alpha  occ. eigenvalues --  -10.23478 -10.23204 -10.22936 -10.22793 -10.22731
 Alpha  occ. eigenvalues --  -10.22013 -10.21711 -10.21701 -10.21601 -10.21511
 Alpha  occ. eigenvalues --  -10.21464 -10.21437 -10.21414 -10.21095 -10.20917
 Alpha  occ. eigenvalues --  -10.20743 -10.20708 -10.20675 -10.20438 -10.20391
 Alpha  occ. eigenvalues --  -10.20365 -10.20342 -10.20122 -10.19949 -10.19886
 Alpha  occ. eigenvalues --  -10.19863 -10.19620 -10.19492 -10.19387 -10.19254
 Alpha  occ. eigenvalues --  -10.19193 -10.19181 -10.19176 -10.19153 -10.18984
 Alpha  occ. eigenvalues --  -10.18907 -10.18791 -10.18683 -10.18620 -10.18489
 Alpha  occ. eigenvalues --  -10.18458 -10.18396 -10.18368 -10.18345 -10.18147
 Alpha  occ. eigenvalues --  -10.18107 -10.17934 -10.16724 -10.16717  -1.09396
 Alpha  occ. eigenvalues --   -1.06568  -1.02495  -1.01305  -0.97585  -0.96861
 Alpha  occ. eigenvalues --   -0.96276  -0.95606  -0.94599  -0.83451  -0.83404
 Alpha  occ. eigenvalues --   -0.81642  -0.81444  -0.81361  -0.80760  -0.80324
 Alpha  occ. eigenvalues --   -0.80003  -0.79617  -0.79565  -0.78544  -0.77599
 Alpha  occ. eigenvalues --   -0.77264  -0.76526  -0.75474  -0.75231  -0.74216
 Alpha  occ. eigenvalues --   -0.73686  -0.73343  -0.72542  -0.71544  -0.70618
 Alpha  occ. eigenvalues --   -0.69809  -0.69061  -0.68573  -0.67807  -0.67203
 Alpha  occ. eigenvalues --   -0.66983  -0.66711  -0.65991  -0.65904  -0.65158
 Alpha  occ. eigenvalues --   -0.64519  -0.62641  -0.61740  -0.61299  -0.61121
 Alpha  occ. eigenvalues --   -0.60184  -0.58104  -0.58010  -0.57804  -0.57344
 Alpha  occ. eigenvalues --   -0.57059  -0.56786  -0.55596  -0.55507  -0.54904
 Alpha  occ. eigenvalues --   -0.54686  -0.53890  -0.53844  -0.53430  -0.52823
 Alpha  occ. eigenvalues --   -0.52653  -0.52006  -0.51114  -0.50713  -0.50158
 Alpha  occ. eigenvalues --   -0.49438  -0.48917  -0.48881  -0.48560  -0.48232
 Alpha  occ. eigenvalues --   -0.47634  -0.47587  -0.47222  -0.47041  -0.46649
 Alpha  occ. eigenvalues --   -0.46529  -0.46455  -0.46282  -0.45964  -0.45891
 Alpha  occ. eigenvalues --   -0.45733  -0.45417  -0.45362  -0.44553  -0.44479
 Alpha  occ. eigenvalues --   -0.44209  -0.44020  -0.43822  -0.43721  -0.43540
 Alpha  occ. eigenvalues --   -0.43366  -0.43192  -0.42981  -0.42507  -0.42416
 Alpha  occ. eigenvalues --   -0.42195  -0.41906  -0.41795  -0.41525  -0.41361
 Alpha  occ. eigenvalues --   -0.41251  -0.40904  -0.40717  -0.40579  -0.40310
 Alpha  occ. eigenvalues --   -0.40158  -0.39928  -0.39685  -0.39386  -0.39175
 Alpha  occ. eigenvalues --   -0.39117  -0.39066  -0.38925  -0.38653  -0.38591
 Alpha  occ. eigenvalues --   -0.38392  -0.38361  -0.38266  -0.38012  -0.37731
 Alpha  occ. eigenvalues --   -0.37649  -0.37380  -0.37019  -0.36828  -0.36792
 Alpha  occ. eigenvalues --   -0.36725  -0.36405  -0.36224  -0.36130  -0.35842
 Alpha  occ. eigenvalues --   -0.35523  -0.35126  -0.34992  -0.34566  -0.34477
 Alpha  occ. eigenvalues --   -0.34384  -0.34159  -0.34016  -0.33867  -0.33618
 Alpha  occ. eigenvalues --   -0.33240  -0.32929  -0.32863  -0.31959  -0.31901
 Alpha  occ. eigenvalues --   -0.31670  -0.31579  -0.31321  -0.31271  -0.31102
 Alpha  occ. eigenvalues --   -0.30967  -0.30564  -0.30538  -0.30216  -0.29950
 Alpha  occ. eigenvalues --   -0.29649  -0.29338  -0.28293  -0.28246  -0.28098
 Alpha  occ. eigenvalues --   -0.27153  -0.26943  -0.26264  -0.25852  -0.25394
 Alpha  occ. eigenvalues --   -0.25146  -0.24226  -0.24172  -0.22443  -0.19919
 Alpha  occ. eigenvalues --   -0.19534
 Alpha virt. eigenvalues --   -0.10377  -0.08123  -0.04253  -0.00894  -0.00227
 Alpha virt. eigenvalues --   -0.00009   0.00460   0.01477   0.02899   0.03461
 Alpha virt. eigenvalues --    0.03947   0.04175   0.04179   0.04393   0.05173
 Alpha virt. eigenvalues --    0.05258   0.05306   0.05347   0.05813   0.06059
 Alpha virt. eigenvalues --    0.06318   0.06410   0.06571   0.06677   0.06954
 Alpha virt. eigenvalues --    0.07196   0.07280   0.07323   0.07527   0.07766
 Alpha virt. eigenvalues --    0.07940   0.08144   0.08362   0.08700   0.08741
 Alpha virt. eigenvalues --    0.08915   0.09121   0.09248   0.09454   0.09531
 Alpha virt. eigenvalues --    0.09948   0.10049   0.10120   0.10171   0.10570
 Alpha virt. eigenvalues --    0.10716   0.10954   0.11150   0.11304   0.11558
 Alpha virt. eigenvalues --    0.11630   0.11765   0.12008   0.12379   0.12413
 Alpha virt. eigenvalues --    0.12869   0.12892   0.12919   0.13133   0.13205
 Alpha virt. eigenvalues --    0.13370   0.13603   0.13642   0.13929   0.14073
 Alpha virt. eigenvalues --    0.14224   0.14336   0.14545   0.14850   0.15032
 Alpha virt. eigenvalues --    0.15295   0.15408   0.15478   0.15686   0.15847
 Alpha virt. eigenvalues --    0.15889   0.15948   0.16038   0.16304   0.16559
 Alpha virt. eigenvalues --    0.16626   0.16902   0.16955   0.17132   0.17154
 Alpha virt. eigenvalues --    0.17415   0.17747   0.18406   0.18593   0.19202
 Alpha virt. eigenvalues --    0.19408   0.19544   0.19596   0.19833   0.20043
 Alpha virt. eigenvalues --    0.20267   0.20415   0.20548   0.20574   0.20812
 Alpha virt. eigenvalues --    0.21215   0.21589   0.21625   0.21750   0.21982
 Alpha virt. eigenvalues --    0.22097   0.22306   0.22494   0.22557   0.22745
 Alpha virt. eigenvalues --    0.23225   0.23647   0.23760   0.24269   0.24331
 Alpha virt. eigenvalues --    0.24732   0.25180   0.25450   0.25722   0.25958
 Alpha virt. eigenvalues --    0.26235   0.26368   0.26711   0.27299   0.27596
 Alpha virt. eigenvalues --    0.27857   0.27993   0.28454   0.28695   0.28844
 Alpha virt. eigenvalues --    0.29305   0.29778   0.29848   0.30241   0.31238
 Alpha virt. eigenvalues --    0.32042   0.32253   0.32394   0.32519   0.32757
 Alpha virt. eigenvalues --    0.33296   0.33766   0.33972   0.34298   0.34615
 Alpha virt. eigenvalues --    0.35276   0.35647   0.36017   0.36792   0.36941
 Alpha virt. eigenvalues --    0.37459   0.37942   0.38173   0.38307   0.38498
 Alpha virt. eigenvalues --    0.38932   0.39601   0.39778   0.39900   0.40143
 Alpha virt. eigenvalues --    0.40572   0.40981   0.41014   0.41080   0.41174
 Alpha virt. eigenvalues --    0.41448   0.41765   0.41808   0.42066   0.42292
 Alpha virt. eigenvalues --    0.42377   0.42428   0.42564   0.42628   0.42744
 Alpha virt. eigenvalues --    0.42907   0.43153   0.43556   0.43576   0.43852
 Alpha virt. eigenvalues --    0.44118   0.44376   0.44436   0.44593   0.45257
 Alpha virt. eigenvalues --    0.45534   0.45676   0.45828   0.46170   0.46379
 Alpha virt. eigenvalues --    0.46486   0.46585   0.46907   0.47167   0.47439
 Alpha virt. eigenvalues --    0.47620   0.47939   0.48081   0.48261   0.48376
 Alpha virt. eigenvalues --    0.48590   0.48988   0.49287   0.49538   0.49837
 Alpha virt. eigenvalues --    0.49941   0.50212   0.50570   0.50630   0.50663
 Alpha virt. eigenvalues --    0.50826   0.51088   0.51565   0.52067   0.52246
 Alpha virt. eigenvalues --    0.52607   0.52875   0.53135   0.53310   0.53561
 Alpha virt. eigenvalues --    0.53918   0.54316   0.54598   0.55083   0.55190
 Alpha virt. eigenvalues --    0.55320   0.55628   0.55732   0.56113   0.56390
 Alpha virt. eigenvalues --    0.56706   0.56905   0.57029   0.57206   0.57342
 Alpha virt. eigenvalues --    0.57547   0.57998   0.58064   0.58309   0.58565
 Alpha virt. eigenvalues --    0.58849   0.59017   0.59352   0.59470   0.59583
 Alpha virt. eigenvalues --    0.59624   0.59770   0.59953   0.60368   0.60535
 Alpha virt. eigenvalues --    0.60553   0.60693   0.60958   0.61122   0.61265
 Alpha virt. eigenvalues --    0.61304   0.61520   0.61587   0.61957   0.62046
 Alpha virt. eigenvalues --    0.62336   0.62376   0.62702   0.62726   0.62947
 Alpha virt. eigenvalues --    0.63071   0.63250   0.63364   0.63595   0.63625
 Alpha virt. eigenvalues --    0.63720   0.63846   0.63897   0.64126   0.64234
 Alpha virt. eigenvalues --    0.64468   0.64565   0.64839   0.64883   0.65216
 Alpha virt. eigenvalues --    0.65231   0.65280   0.65460   0.65583   0.65726
 Alpha virt. eigenvalues --    0.65792   0.66035   0.66253   0.66366   0.66456
 Alpha virt. eigenvalues --    0.66656   0.66822   0.66936   0.66959   0.67290
 Alpha virt. eigenvalues --    0.67329   0.67403   0.67555   0.67690   0.67920
 Alpha virt. eigenvalues --    0.68031   0.68104   0.68213   0.68377   0.68439
 Alpha virt. eigenvalues --    0.68547   0.68656   0.68781   0.68923   0.68991
 Alpha virt. eigenvalues --    0.69030   0.69203   0.69269   0.69365   0.69668
 Alpha virt. eigenvalues --    0.69829   0.69869   0.70122   0.70184   0.70221
 Alpha virt. eigenvalues --    0.70377   0.70424   0.70688   0.70838   0.71141
 Alpha virt. eigenvalues --    0.71167   0.71365   0.71476   0.71587   0.71923
 Alpha virt. eigenvalues --    0.72015   0.72265   0.72415   0.72601   0.72800
 Alpha virt. eigenvalues --    0.73099   0.73203   0.73244   0.73330   0.73596
 Alpha virt. eigenvalues --    0.73736   0.73918   0.74124   0.74552   0.74797
 Alpha virt. eigenvalues --    0.74866   0.75018   0.75025   0.75072   0.75329
 Alpha virt. eigenvalues --    0.75546   0.75782   0.76091   0.76265   0.76501
 Alpha virt. eigenvalues --    0.76761   0.77129   0.77480   0.77710   0.77868
 Alpha virt. eigenvalues --    0.78111   0.78446   0.78636   0.78728   0.79068
 Alpha virt. eigenvalues --    0.79579   0.79730   0.80019   0.80301   0.80594
 Alpha virt. eigenvalues --    0.80898   0.81427   0.81488   0.81748   0.81920
 Alpha virt. eigenvalues --    0.82201   0.82840   0.83002   0.83600   0.83970
 Alpha virt. eigenvalues --    0.84580   0.85293   0.85503   0.85668   0.86209
 Alpha virt. eigenvalues --    0.86626   0.86836   0.87775   0.88251   0.88574
 Alpha virt. eigenvalues --    0.89038   0.89248   0.89490   0.90450   0.90900
 Alpha virt. eigenvalues --    0.91765   0.91911   0.92489   0.92719   0.93156
 Alpha virt. eigenvalues --    0.93825   0.94633   0.94976   0.95259   0.95397
 Alpha virt. eigenvalues --    0.96167   0.96818   0.97484   0.97765   0.97858
 Alpha virt. eigenvalues --    0.98188   0.98425   0.99198   0.99601   1.00122
 Alpha virt. eigenvalues --    1.00257   1.00414   1.00937   1.01501   1.01794
 Alpha virt. eigenvalues --    1.01985   1.02265   1.02698   1.02953   1.03504
 Alpha virt. eigenvalues --    1.03982   1.04141   1.04507   1.04895   1.05655
 Alpha virt. eigenvalues --    1.06327   1.06738   1.06889   1.06996   1.07546
 Alpha virt. eigenvalues --    1.07764   1.08278   1.08573   1.08734   1.10008
 Alpha virt. eigenvalues --    1.10445   1.10744   1.11436   1.12375   1.12645
 Alpha virt. eigenvalues --    1.12853   1.13144   1.13552   1.13989   1.14397
 Alpha virt. eigenvalues --    1.14924   1.15220   1.15852   1.16543   1.16860
 Alpha virt. eigenvalues --    1.17043   1.17258   1.18406   1.18548   1.19434
 Alpha virt. eigenvalues --    1.19537   1.19767   1.19996   1.20419   1.20730
 Alpha virt. eigenvalues --    1.21129   1.21167   1.22551   1.22654   1.23154
 Alpha virt. eigenvalues --    1.23559   1.23899   1.24493   1.24861   1.25141
 Alpha virt. eigenvalues --    1.25501   1.25937   1.26342   1.27005   1.27379
 Alpha virt. eigenvalues --    1.28080   1.28366   1.28950   1.29312   1.29392
 Alpha virt. eigenvalues --    1.29860   1.30108   1.30345   1.30532   1.30597
 Alpha virt. eigenvalues --    1.30655   1.30962   1.31452   1.32338   1.32421
 Alpha virt. eigenvalues --    1.32737   1.33178   1.33408   1.33502   1.34001
 Alpha virt. eigenvalues --    1.34610   1.34919   1.35195   1.35940   1.36046
 Alpha virt. eigenvalues --    1.36177   1.37000   1.37677   1.38138   1.38723
 Alpha virt. eigenvalues --    1.39212   1.39388   1.39562   1.39940   1.40509
 Alpha virt. eigenvalues --    1.40889   1.41879   1.42260   1.43112   1.44166
 Alpha virt. eigenvalues --    1.44336   1.44480   1.44910   1.45420   1.46041
 Alpha virt. eigenvalues --    1.46307   1.46552   1.47111   1.47295   1.47533
 Alpha virt. eigenvalues --    1.47844   1.48503   1.48604   1.48825   1.49180
 Alpha virt. eigenvalues --    1.49259   1.49633   1.50457   1.50577   1.50698
 Alpha virt. eigenvalues --    1.50865   1.51152   1.51300   1.51652   1.51917
 Alpha virt. eigenvalues --    1.52124   1.52551   1.53224   1.53300   1.53727
 Alpha virt. eigenvalues --    1.54067   1.54494   1.55130   1.55511   1.55647
 Alpha virt. eigenvalues --    1.56304   1.56430   1.56756   1.57002   1.57748
 Alpha virt. eigenvalues --    1.58405   1.58732   1.59154   1.59330   1.59732
 Alpha virt. eigenvalues --    1.60118   1.60285   1.61273   1.61916   1.62015
 Alpha virt. eigenvalues --    1.62390   1.62799   1.63083   1.63235   1.63403
 Alpha virt. eigenvalues --    1.64037   1.64404   1.64641   1.65050   1.65209
 Alpha virt. eigenvalues --    1.65883   1.66002   1.66332   1.66520   1.66685
 Alpha virt. eigenvalues --    1.66889   1.67006   1.67508   1.67908   1.68044
 Alpha virt. eigenvalues --    1.68165   1.68434   1.68680   1.69061   1.69322
 Alpha virt. eigenvalues --    1.69456   1.70005   1.70098   1.70380   1.70848
 Alpha virt. eigenvalues --    1.70915   1.71205   1.71551   1.71569   1.71829
 Alpha virt. eigenvalues --    1.72158   1.72380   1.72590   1.72643   1.72770
 Alpha virt. eigenvalues --    1.72814   1.73210   1.73344   1.73555   1.73958
 Alpha virt. eigenvalues --    1.74091   1.74162   1.74405   1.74628   1.74842
 Alpha virt. eigenvalues --    1.75019   1.75337   1.75511   1.75623   1.75692
 Alpha virt. eigenvalues --    1.76118   1.76156   1.76499   1.76902   1.77034
 Alpha virt. eigenvalues --    1.77231   1.77583   1.77644   1.77662   1.78234
 Alpha virt. eigenvalues --    1.78412   1.78497   1.78546   1.78794   1.79093
 Alpha virt. eigenvalues --    1.79223   1.79307   1.79639   1.79911   1.80046
 Alpha virt. eigenvalues --    1.80193   1.80381   1.80588   1.80934   1.81117
 Alpha virt. eigenvalues --    1.81272   1.81525   1.81722   1.82444   1.82658
 Alpha virt. eigenvalues --    1.82870   1.83041   1.83259   1.83424   1.83564
 Alpha virt. eigenvalues --    1.83792   1.84054   1.84585   1.84747   1.84811
 Alpha virt. eigenvalues --    1.84970   1.85488   1.85841   1.86266   1.86396
 Alpha virt. eigenvalues --    1.86574   1.86755   1.87285   1.87707   1.87956
 Alpha virt. eigenvalues --    1.88150   1.88233   1.88411   1.88846   1.88995
 Alpha virt. eigenvalues --    1.89118   1.89402   1.89711   1.90176   1.90322
 Alpha virt. eigenvalues --    1.90473   1.90616   1.90768   1.91165   1.91519
 Alpha virt. eigenvalues --    1.92130   1.92206   1.92378   1.92696   1.92820
 Alpha virt. eigenvalues --    1.93184   1.93432   1.93664   1.93884   1.93976
 Alpha virt. eigenvalues --    1.94283   1.94363   1.94459   1.94793   1.95040
 Alpha virt. eigenvalues --    1.95485   1.96098   1.96269   1.96627   1.96686
 Alpha virt. eigenvalues --    1.96792   1.97941   1.98086   1.98518   1.98664
 Alpha virt. eigenvalues --    1.98898   1.99216   1.99518   1.99861   1.99971
 Alpha virt. eigenvalues --    2.00774   2.01001   2.01220   2.01268   2.01472
 Alpha virt. eigenvalues --    2.01705   2.02405   2.02547   2.02745   2.02932
 Alpha virt. eigenvalues --    2.03255   2.03546   2.03633   2.03778   2.04091
 Alpha virt. eigenvalues --    2.04624   2.04833   2.04903   2.05102   2.05372
 Alpha virt. eigenvalues --    2.05946   2.06249   2.06281   2.06650   2.07009
 Alpha virt. eigenvalues --    2.07343   2.07452   2.07726   2.08230   2.08777
 Alpha virt. eigenvalues --    2.09215   2.09657   2.10164   2.10826   2.10887
 Alpha virt. eigenvalues --    2.11628   2.11748   2.12053   2.12494   2.12802
 Alpha virt. eigenvalues --    2.13034   2.13261   2.13826   2.14383   2.14495
 Alpha virt. eigenvalues --    2.14988   2.15294   2.15350   2.15821   2.15976
 Alpha virt. eigenvalues --    2.16378   2.16712   2.17345   2.18002   2.18143
 Alpha virt. eigenvalues --    2.18705   2.18836   2.19134   2.19569   2.19924
 Alpha virt. eigenvalues --    2.20029   2.20330   2.20403   2.20505   2.21127
 Alpha virt. eigenvalues --    2.21565   2.22070   2.22250   2.22849   2.23061
 Alpha virt. eigenvalues --    2.23225   2.23791   2.24196   2.24795   2.24962
 Alpha virt. eigenvalues --    2.25133   2.25942   2.26266   2.26411   2.26531
 Alpha virt. eigenvalues --    2.27491   2.27654   2.27982   2.28512   2.28974
 Alpha virt. eigenvalues --    2.30277   2.30361   2.30466   2.30676   2.31059
 Alpha virt. eigenvalues --    2.31475   2.32092   2.32225   2.32495   2.33058
 Alpha virt. eigenvalues --    2.33987   2.34099   2.34340   2.35141   2.35415
 Alpha virt. eigenvalues --    2.35664   2.35732   2.35846   2.35915   2.36533
 Alpha virt. eigenvalues --    2.36661   2.37040   2.37568   2.37817   2.38168
 Alpha virt. eigenvalues --    2.38705   2.38774   2.39754   2.39915   2.39967
 Alpha virt. eigenvalues --    2.40464   2.40558   2.41210   2.41628   2.42733
 Alpha virt. eigenvalues --    2.43311   2.43762   2.43784   2.44341   2.44409
 Alpha virt. eigenvalues --    2.44587   2.45000   2.45137   2.45431   2.45621
 Alpha virt. eigenvalues --    2.46343   2.46951   2.47162   2.47526   2.47920
 Alpha virt. eigenvalues --    2.48345   2.48363   2.49321   2.49488   2.49967
 Alpha virt. eigenvalues --    2.49986   2.50073   2.50982   2.51231   2.52004
 Alpha virt. eigenvalues --    2.52609   2.53277   2.53341   2.53731   2.54133
 Alpha virt. eigenvalues --    2.54358   2.54980   2.55774   2.56100   2.56206
 Alpha virt. eigenvalues --    2.56475   2.57175   2.57682   2.57874   2.58292
 Alpha virt. eigenvalues --    2.58620   2.59388   2.59651   2.59879   2.60498
 Alpha virt. eigenvalues --    2.60953   2.62249   2.62954   2.63661   2.63694
 Alpha virt. eigenvalues --    2.64251   2.64683   2.64916   2.65990   2.66079
 Alpha virt. eigenvalues --    2.66384   2.66584   2.66687   2.67343   2.67562
 Alpha virt. eigenvalues --    2.68189   2.69198   2.69391   2.69591   2.69664
 Alpha virt. eigenvalues --    2.71310   2.71484   2.72331   2.72489   2.72677
 Alpha virt. eigenvalues --    2.73301   2.73653   2.73833   2.74579   2.74727
 Alpha virt. eigenvalues --    2.75384   2.75486   2.75703   2.76845   2.77245
 Alpha virt. eigenvalues --    2.77557   2.77812   2.77973   2.78516   2.79231
 Alpha virt. eigenvalues --    2.79303   2.79555   2.80011   2.80581   2.81092
 Alpha virt. eigenvalues --    2.81301   2.81820   2.81832   2.81894   2.82212
 Alpha virt. eigenvalues --    2.82662   2.83055   2.83594   2.84457   2.85205
 Alpha virt. eigenvalues --    2.85447   2.85659   2.86310   2.86751   2.87321
 Alpha virt. eigenvalues --    2.87697   2.88257   2.88719   2.89295   2.90222
 Alpha virt. eigenvalues --    2.90302   2.90430   2.90690   2.91553   2.92036
 Alpha virt. eigenvalues --    2.92211   2.92535   2.92766   2.92875   2.93229
 Alpha virt. eigenvalues --    2.93343   2.93713   2.93891   2.94211   2.94602
 Alpha virt. eigenvalues --    2.94973   2.95993   2.96150   2.96491   2.97102
 Alpha virt. eigenvalues --    2.98145   2.98386   2.99403   2.99652   3.00121
 Alpha virt. eigenvalues --    3.00713   3.00995   3.01174   3.01548   3.01575
 Alpha virt. eigenvalues --    3.02527   3.03303   3.04277   3.04734   3.05009
 Alpha virt. eigenvalues --    3.05725   3.06190   3.06307   3.08634   3.09591
 Alpha virt. eigenvalues --    3.09647   3.10033   3.10681   3.11086   3.11674
 Alpha virt. eigenvalues --    3.12160   3.12295   3.13767   3.14688   3.15255
 Alpha virt. eigenvalues --    3.15535   3.17893   3.18921   3.19356   3.20110
 Alpha virt. eigenvalues --    3.21264   3.21571   3.22428   3.23712   3.24201
 Alpha virt. eigenvalues --    3.25766   3.26270   3.28061   3.33685   3.35001
 Alpha virt. eigenvalues --    3.36070   3.37639   3.39249   3.46074   3.46288
 Alpha virt. eigenvalues --    3.47668   3.50326   3.52893   3.60049   3.61600
 Alpha virt. eigenvalues --    3.62941   3.63709   3.64676   3.68964   3.70521
          Condensed to atoms (all electrons):
 Mulliken charges:
               1
     1  C    0.038446
     2  C   -0.091642
     3  C   -0.078326
     4  C   -0.108397
     5  N   -0.090695
     6  C   -0.085018
     7  C   -0.120734
     8  C    0.041080
     9  C   -0.017745
    10  C    0.078336
    11  C   -0.037906
    12  C    0.164992
    13  C    0.151286
    14  O   -0.208005
    15  O   -0.320370
    16  N   -0.154362
    17  C    0.172915
    18  C   -0.092061
    19  C    0.000796
    20  C    0.093498
    21  C    0.093766
    22  C   -0.059110
    23  C    0.043844
    24  N   -0.243702
    25  C    0.082326
    26  C   -0.162318
    27  C   -0.141643
    28  C    0.119730
    29  C    0.174830
    30  C    0.223634
    31  C   -0.078228
    32  N   -0.108424
    33  C    0.021743
    34  C   -0.094049
    35  C    0.012110
    36  C    0.111350
    37  C    0.048021
    38  C    0.028055
    39  O   -0.169576
    40  C   -0.026181
    41  C    0.205050
    42  O   -0.269258
    43  O   -0.352598
    44  C    0.306810
    45  C    0.274146
    46  C    0.002729
    47  C   -0.180921
    48  C   -0.020413
    49  C    0.025787
    50  C   -0.001002
    51  C    0.067759
    52  C   -0.135073
    53  C   -0.027868
    54  C    0.178144
    55  C    0.031869
    56  C   -0.102686
    57  C    0.038822
    58  C    0.007500
    59  C    0.002817
    60  C   -0.023885
    61  C   -0.017384
    62  C   -0.130143
    63  C    0.017328
    64  C   -0.001276
    65  H   -0.034370
    66  H   -0.047238
    67  H    0.043529
    68  H    0.031268
    69  H   -0.056151
    70  H    0.019047
    71  H   -0.010315
    72  H    0.028076
    73  H    0.037230
    74  H   -0.003144
    75  H   -0.014564
    76  H    0.002430
    77  H    0.030871
    78  H   -0.057581
    79  H    0.056799
    80  H    0.037128
    81  H    0.009960
    82  H    0.017294
    83  H    0.009467
    84  H    0.011418
    85  H   -0.029668
    86  H   -0.038812
    87  H   -0.037943
    88  H    0.008112
    89  H    0.034398
    90  H    0.026363
    91  H    0.024054
    92  H    0.046961
    93  H    0.048321
    94  H    0.031018
    95  H    0.011968
    96  H    0.022141
    97  H   -0.002350
    98  H    0.038209
    99  H    0.050665
   100  H   -0.052755
   101  H    0.027397
   102  H    0.067814
   103  H    0.018416
   104  H    0.019005
   105  H    0.001587
   106  H    0.027070
   107  H    0.016870
   108  H    0.001895
   109  H   -0.018586
   110  H    0.022973
   111  H    0.020820
   112  H    0.001377
   113  H    0.021615
   114  H   -0.099384
   115  H    0.001931
   116  H    0.008578
   117  H   -0.013306
   118  H    0.000580
   119  H   -0.009239
   120  H   -0.052329
   121  H    0.024106
   122  H    0.036890
   123  H    0.011891
   124  H   -0.009914
   125  H   -0.022553
   126  H   -0.023436
   127  H    0.012610
   128  H    0.015084
   129  H    0.036713
   130  H    0.009869
   131  H    0.020343
   132  H    0.022306
   133  H    0.012108
   134  H    0.020780
   135  H    0.022831
   136  H   -0.003452
   137  H    0.170933
   138  H    0.177452
 Sum of Mulliken charges =   0.00000
 Mulliken charges with hydrogens summed into heavy atoms:
               1
     1  C    0.038446
     2  C   -0.126013
     3  C   -0.125564
     4  C   -0.064869
     5  N   -0.090695
     6  C   -0.085018
     7  C   -0.089466
     8  C   -0.015071
     9  C   -0.017745
    10  C    0.115144
    11  C   -0.003821
    12  C    0.152858
    13  C    0.151286
    14  O   -0.208005
    15  O   -0.320370
    16  N    0.016571
    17  C    0.172915
    18  C   -0.092061
    19  C    0.000796
    20  C    0.093498
    21  C    0.123855
    22  C   -0.021982
    23  C    0.071098
    24  N   -0.243702
    25  C    0.082326
    26  C   -0.162318
    27  C   -0.141643
    28  C    0.119730
    29  C    0.166046
    30  C    0.146879
    31  C   -0.009355
    32  N    0.069028
    33  C    0.021743
    34  C   -0.094049
    35  C    0.012110
    36  C    0.111350
    37  C    0.167357
    38  C    0.028055
    39  O   -0.169576
    40  C    0.004837
    41  C    0.205050
    42  O   -0.269258
    43  O   -0.352598
    44  C    0.338568
    45  C    0.363021
    46  C   -0.050025
    47  C   -0.180921
    48  C    0.093214
    49  C    0.046379
    50  C    0.042939
    51  C    0.051068
    52  C   -0.112100
    53  C    0.015945
    54  C    0.080690
    55  C    0.027141
    56  C   -0.111344
    57  C   -0.013507
    58  C    0.080387
    59  C   -0.029650
    60  C   -0.034711
    61  C    0.034413
    62  C   -0.120274
    63  C    0.072085
    64  C    0.038882
 Electronic spatial extent (au):  <R**2>=         178412.0642
 Charge=              0.0000 electrons
 Dipole moment (field-independent basis, Debye):
    X=              2.3215    Y=              4.7999    Z=             -0.0716  Tot=              5.3323
 Quadrupole moment (field-independent basis, Debye-Ang):
   XX=           -353.0015   YY=           -374.8333   ZZ=           -395.8192
   XY=            -27.8198   XZ=              0.6149   YZ=             -0.8618
 Traceless Quadrupole moment (field-independent basis, Debye-Ang):
   XX=             21.5498   YY=             -0.2820   ZZ=            -21.2679
   XY=            -27.8198   XZ=              0.6149   YZ=             -0.8618
 Octapole moment (field-independent basis, Debye-Ang**2):
  XXX=           -627.9119  YYY=            121.8832  ZZZ=             20.0946  XYY=           -156.3418
  XXY=            118.4781  XXZ=           -394.6011  XZZ=              6.8019  YZZ=            -23.9598
  YYZ=             82.4440  XYZ=            -79.2688
 Hexadecapole moment (field-independent basis, Debye-Ang**3):
 XXXX=        -223740.6629 YYYY=         -16531.8775 ZZZZ=          -4748.9915 XXXY=          -1386.4322
 XXXZ=          -2101.8907 YYYX=          -1226.8558 YYYZ=           -249.7911 ZZZX=           -149.1632
 ZZZY=           -105.8825 XXYY=         -40272.3453 XXZZ=         -39960.7267 YYZZ=          -3483.0289
 XXYZ=           -351.8100 YYXZ=           -180.2175 ZZXY=            -78.1110
 N-N= 8.289283018888D+03 E-N=-2.291399196964D+04  KE= 2.701618356290D+03
 1\1\GINC-PEDRO-RYZENSSD\SP\RB3LYP TD-FC\SVP\C55H74N4O5\PADAWAN\04-Aug-
 2019\0\\# td=(NStates=1) B3LYP/SVP\\TD\\0,1\C,0,-4.9737850766,-1.84978
 12202,0.4685717331\C,0,-4.9529956186,2.8205885106,1.5027866646\C,0,-9.
 4426641761,3.1824690461,-0.2353320011\C,0,-9.8179598505,-1.554836287,-
 1.0893914925\N,0,-5.1406332256,0.49267089,0.8990883458\C,0,-4.48485710
 18,-0.6489316142,0.8446479082\C,0,-3.0265823447,-0.4526216969,1.390174
 0132\C,0,-3.1756925347,0.9431332056,2.0155406599\C,0,-4.4329924923,1.4
 959594138,1.3255961566\C,0,-3.2121897875,0.9026677791,3.5966575284\C,0
 ,-1.9756896397,-0.5659965614,0.1863165773\C,0,-0.6552887411,-0.6345116
 678,0.7388363363\C,0,0.3817318346,-0.7177586488,-0.4850800656\O,0,0.00
 82125889,-1.0599783644,-1.5474083523\O,0,1.6521154086,-0.5479915723,-0
 .0851409568\N,0,-7.1557201666,2.6802452963,0.5092104302\C,0,-6.1104326
 187,3.3652209404,1.0881196689\C,0,-6.4600891946,4.7628027198,1.1723137
 242\C,0,-7.7350826051,4.8332321587,0.5233688643\C,0,-8.2253334792,3.58
 44469384,0.1895791133\C,0,-5.6218527018,5.7541409292,1.7252337894\C,0,
 -8.3370009828,6.2877627879,0.284066908\C,0,-9.1330212003,6.5822879507,
 -0.6846009389\N,0,-9.2297811787,0.7941866517,-0.5735098194\C,0,-9.9516
 690298,1.9362261213,-0.6551247817\C,0,-11.308954762,1.7246260236,-1.05
 23290668\C,0,-11.3456685174,0.320709411,-1.4022351782\C,0,-10.06701892
 76,-0.1473446862,-1.021095352\C,0,-12.3812266236,2.8019486965,-1.22953
 60439\C,0,-12.5144391834,-0.4739798775,-1.9909400537\C,0,-12.417201850
 9,-0.7802812925,-3.4157397453\N,0,-7.3984388015,-1.2425659418,-0.21976
 05046\C,0,-8.5013017177,-2.0841471415,-0.6580991723\C,0,-8.0643888779,
 -3.4176786501,-0.6566582331\C,0,-6.6824331524,-3.399056734,-0.22133975
 79\C,0,-6.2976208655,-1.9867514937,0.0109561718\C,0,-8.7395667143,-4.7
 005808076,-1.1011791123\C,0,-5.613568302,-4.236038639,0.025603506\O,0,
 -5.589508441,-5.4368432144,0.0179045246\C,0,-4.3294205707,-3.274938255
 4,0.5066797301\C,0,-3.8218859865,-3.7346675603,1.8744839741\O,0,-4.173
 6724407,-3.3580137353,3.011609229\O,0,-2.8705257402,-4.6678217551,1.62
 56629942\C,0,-2.4447391777,-5.4814475909,2.8595380934\C,0,2.5959617648
 ,-0.7654304406,-1.2670607319\C,0,3.9474979966,-0.6146319656,-0.6737194
 72\C,0,4.8882610827,0.300791134,-0.9714811047\C,0,4.7546846642,1.41181
 19129,-2.2255196688\C,0,6.3070924544,0.2754352827,-0.1473836526\C,0,7.
 4253737778,-0.3232985128,-0.9270195689\C,0,8.7369953006,-0.1034843335,
 -0.163164664\C,0,10.0841893446,-0.5667410007,-0.9657539302\C,0,10.0832
 34362,-2.1583196349,-1.1683361185\C,0,11.3339272429,-0.1758118959,-0.0
 632768834\C,0,12.6476464388,-0.5341687341,-0.6946539885\C,0,13.8499235
 818,-0.109888215,0.1938814436\C,0,15.1460535172,-0.343465228,-0.327656
 3235\C,0,15.5117907509,-1.7616350289,-0.5354123095\C,0,16.3085616005,0
 .4076152788,0.3939784201\C,0,17.7230471935,0.4485177695,-0.1827021716\
 C,0,18.7173026546,1.3059249214,0.6960904252\C,0,20.0982417258,1.319689
 7736,0.0022519527\C,0,20.2855092498,1.7409606722,-1.4465727351\C,0,21.
 0241449358,2.2402953683,0.8858703752\H,0,-4.2994776081,3.4717984118,2.
 0793228132\H,0,-10.0523330864,4.0491321553,-0.4772690496\H,0,-10.54040
 82972,-2.4561927748,-1.3853780109\H,0,-2.6882511521,-1.2619454297,2.15
 82266984\H,0,-2.337735088,1.4991001332,1.8793508473\H,0,-2.2680670647,
 0.3811044788,3.9817072747\H,0,-3.3222077127,1.7999950492,4.0502052157\
 H,0,-4.0570453014,0.2250376883,3.7709522714\H,0,-2.303885897,-1.458560
 5892,-0.5862530725\H,0,-2.0993932787,0.2019063816,-0.60855755\H,0,-0.4
 135171715,0.1608499386,1.3434747088\H,0,-0.5965699963,-1.5002419828,1.
 3266701754\H,0,-4.7624710636,6.0131856867,0.989661766\H,0,-5.914026609
 1,6.6944243571,1.743983693\H,0,-5.1324513319,5.5733753815,2.8767718112
 \H,0,-8.0242374331,7.0027001445,1.1715787118\H,0,-9.3358289348,5.91223
 13836,-1.4396755537\H,0,-9.6201267593,7.5333220597,-0.609221145\H,0,-1
 2.4367380358,3.4689660838,-0.3772455377\H,0,-12.1168855369,3.649498907
 3,-1.9791072275\H,0,-13.206301653,2.3868465204,-1.5555499104\H,0,-12.4
 809604692,-1.4330222289,-1.5736621173\H,0,-13.4296699915,-0.2219180371
 ,-1.6423265915\H,0,-12.3743330632,0.1910359167,-4.0193692812\H,0,-11.4
 426792359,-1.3564032139,-3.6664155937\H,0,-13.4758243359,-1.1930984046
 ,-3.9861961619\H,0,-9.6870152503,-4.8781871385,-0.5057628783\H,0,-9.09
 00529842,-4.6819161376,-2.2193888371\H,0,-8.1285380285,-5.6003383008,-
 0.8509030458\H,0,-3.3894207935,-3.3826145517,-0.0187732259\H,0,-1.8588
 262756,-6.1849835941,2.3665399881\H,0,-1.9586743138,-4.9389073746,3.57
 67321158\H,0,-3.234806497,-5.9597610677,3.1945363292\H,0,2.4395278603,
 -1.8287605196,-1.6030814751\H,0,2.3886137559,-0.0619637772,-2.15664343
 15\H,0,4.3135041221,-1.0975320675,0.1461025133\H,0,4.8405558848,2.4586
 783768,-1.6187065905\H,0,5.4700736246,1.1835243149,-3.0785492565\H,0,3
 .7039705153,1.6834395308,-2.4703478599\H,0,6.6872167379,1.3066467897,0
 .3230521141\H,0,6.0312111658,-0.3052204116,0.7385315606\H,0,7.16144292
 92,-1.5094276674,-1.0462353831\H,0,7.6269722397,0.1345354741,-1.974062
 2352\H,0,9.007066194,0.9501838597,0.0551756659\H,0,8.7229553583,-0.627
 5069022,0.735816394\H,0,10.2242950981,-0.1288603293,-2.1080853835\H,0,
 9.3598763038,-2.3658252757,-1.9792364714\H,0,11.0973947706,-2.44650625
 04,-1.4267532802\H,0,9.9246074808,-2.9912508107,-0.2138596553\H,0,11.3
 490402014,0.7299417743,0.0732359088\H,0,11.5210280663,-0.6877640129,0.
 9026301932\H,0,12.6832330339,-1.6292244936,-0.7797811911\H,0,12.878986
 0508,-0.1378938684,-1.6745289866\H,0,13.5703181867,1.0645361644,0.4951
 824291\H,0,13.9722214491,-0.5199084186,1.3245593018\H,0,15.2575581,0.2
 387450806,-1.153797393\H,0,14.7450800609,-2.097572339,-1.2789472279\H,
 0,16.6270465782,-1.9150555422,-0.9276285468\H,0,15.4050957884,-2.20265
 53981,0.5594952209\H,0,16.0918494581,1.507757346,0.6172421832\H,0,16.1
 373983966,-0.0750968864,1.3941428369\H,0,18.1238936111,-0.5473989504,-
 0.3149013579\H,0,17.9517797636,0.8196838567,-1.3294913816\H,0,18.10828
 55181,2.2967860745,0.6244178315\H,0,18.8102832825,0.793235133,1.796646
 8147\H,0,20.3809144238,0.1712150825,0.0758387401\H,0,20.0518025369,2.8
 455028204,-1.6246443668\H,0,21.2881560593,1.4923273024,-1.8474178484\H
 ,0,19.5312480978,1.1060962313,-2.0481769992\H,0,20.8554407806,1.695381
 0061,2.032114248\H,0,22.2866815254,2.0701470421,0.7735815153\H,0,20.80
 45600854,3.207013901,0.7839971376\H,0,-7.2929611292,1.6345623294,0.295
 8114272\H,0,-7.6974412925,-0.2059407701,-0.1959497226\\Version=ES64L-G
 09RevD.01\State=1-A\HF=-2732.9926085\RMSD=2.542e-09\PG=C01 [X(C55H74N4
 O5)]\\@


 ORIGINALITY CONSISTS NOT IN SAYING WHAT NO ONE HAS EVER SAID BEFORE, 
 BUT IN SAYING WHAT YOU THINK YOUR SELF.

                                    -- JAMES F. STEPHEN
 Job cpu time:       0 days  5 hours 31 minutes  1.2 seconds.
 File lengths (MBytes):  RWF=   1953 Int=      0 D2E=      0 Chk=    148 Scr=      1
 Normal termination of Gaussian 09 at Sun Aug  4 04:06:54 2019.
