 Entering Gaussian System, Link 0=g16
 Input=Geometria-3-.com
 Output=Geometria-3-.log
 Initial command:
 /usr/local/g09/l1.exe "/home/padawan/israel-mol/pheophytin/spectra/abs/Gau-34090.inp" -scrdir="/home/padawan/israel-mol/pheophytin/spectra/abs/"
 Entering Link 1 = /usr/local/g09/l1.exe PID=     34092.
  
 Copyright (c) 1988,1990,1992,1993,1995,1998,2003,2009,2013,
            Gaussian, Inc.  All Rights Reserved.
  
 This is part of the Gaussian(R) 09 program.  It is based on
 the Gaussian(R) 03 system (copyright 2003, Gaussian, Inc.),
 the Gaussian(R) 98 system (copyright 1998, Gaussian, Inc.),
 the Gaussian(R) 94 system (copyright 1995, Gaussian, Inc.),
 the Gaussian 92(TM) system (copyright 1992, Gaussian, Inc.),
 the Gaussian 90(TM) system (copyright 1990, Gaussian, Inc.),
 the Gaussian 88(TM) system (copyright 1988, Gaussian, Inc.),
 the Gaussian 86(TM) system (copyright 1986, Carnegie Mellon
 University), and the Gaussian 82(TM) system (copyright 1983,
 Carnegie Mellon University). Gaussian is a federally registered
 trademark of Gaussian, Inc.
  
 This software contains proprietary and confidential information,
 including trade secrets, belonging to Gaussian, Inc.
  
 This software is provided under written license and may be
 used, copied, transmitted, or stored only in accord with that
 written license.
  
 The following legend is applicable only to US Government
 contracts under FAR:
  
                    RESTRICTED RIGHTS LEGEND
  
 Use, reproduction and disclosure by the US Government is
 subject to restrictions as set forth in subparagraphs (a)
 and (c) of the Commercial Computer Software - Restricted
 Rights clause in FAR 52.227-19.
  
 Gaussian, Inc.
 340 Quinnipiac St., Bldg. 40, Wallingford CT 06492
  
  
 ---------------------------------------------------------------
 Warning -- This program may not be used in any manner that
 competes with the business of Gaussian, Inc. or will provide
 assistance to any competitor of Gaussian, Inc.  The licensee
 of this program is prohibited from giving any competitor of
 Gaussian, Inc. access to this program.  By using this program,
 the user acknowledges that Gaussian, Inc. is engaged in the
 business of creating and licensing software in the field of
 computational chemistry and represents and warrants to the
 licensee that it is not a competitor of Gaussian, Inc. and that
 it will not use this program in any manner prohibited above.
 ---------------------------------------------------------------
  

 Cite this work as:
 Gaussian 09, Revision D.01,
 M. J. Frisch, G. W. Trucks, H. B. Schlegel, G. E. Scuseria, 
 M. A. Robb, J. R. Cheeseman, G. Scalmani, V. Barone, B. Mennucci, 
 G. A. Petersson, H. Nakatsuji, M. Caricato, X. Li, H. P. Hratchian, 
 A. F. Izmaylov, J. Bloino, G. Zheng, J. L. Sonnenberg, M. Hada, 
 M. Ehara, K. Toyota, R. Fukuda, J. Hasegawa, M. Ishida, T. Nakajima, 
 Y. Honda, O. Kitao, H. Nakai, T. Vreven, J. A. Montgomery, Jr., 
 J. E. Peralta, F. Ogliaro, M. Bearpark, J. J. Heyd, E. Brothers, 
 K. N. Kudin, V. N. Staroverov, T. Keith, R. Kobayashi, J. Normand, 
 K. Raghavachari, A. Rendell, J. C. Burant, S. S. Iyengar, J. Tomasi, 
 M. Cossi, N. Rega, J. M. Millam, M. Klene, J. E. Knox, J. B. Cross, 
 V. Bakken, C. Adamo, J. Jaramillo, R. Gomperts, R. E. Stratmann, 
 O. Yazyev, A. J. Austin, R. Cammi, C. Pomelli, J. W. Ochterski, 
 R. L. Martin, K. Morokuma, V. G. Zakrzewski, G. A. Voth, 
 P. Salvador, J. J. Dannenberg, S. Dapprich, A. D. Daniels, 
 O. Farkas, J. B. Foresman, J. V. Ortiz, J. Cioslowski, 
 and D. J. Fox, Gaussian, Inc., Wallingford CT, 2013.
 
 ******************************************
 Gaussian 09:  ES64L-G09RevD.01 24-Apr-2013
                24-Jul-2019 
 ******************************************
 %nproc=3
 Will use up to    3 processors via shared memory.
 %Mem=2GB
 --------------------------
 # td=(NStates=1) B3LYP/SVP
 --------------------------
 1/38=1/1;
 2/12=2,17=6,18=5,40=1/2;
 3/5=18,7=101,11=9,16=1,25=1,30=1,74=-5/1,2,8,3;
 4//1;
 5/5=2,38=5/2;
 8/6=1,10=1,108=1/1;
 9/41=1,42=1,70=2/14;
 6/7=2,8=2,9=2,10=2/1;
 99/5=1,9=1/99;
 --
 TD
 --
 Symbolic Z-matrix:
 Charge =  0 Multiplicity = 1
 6                    -5.05131  -1.85179   0.37416 
 6                    -4.75342   2.77848   1.3673 
 6                    -9.25597   3.4064   -0.18476 
 6                    -9.83342  -1.45842  -0.84689 
 7                    -5.1939    0.51915   0.76764 
 6                    -4.48389  -0.71563   0.77893 
 6                    -3.08148  -0.59036   1.18756 
 6                    -3.02536   0.9622    1.72664 
 6                    -4.36555   1.44974   1.32179 
 6                    -2.88244   0.95      3.27906 
 6                    -1.94453  -0.70415  -0.00802 
 6                    -0.65834  -0.8208    0.39255 
 6                     0.38088  -1.14587  -0.69436 
 8                     0.08236  -1.62591  -1.71489 
 8                     1.57002  -0.90263  -0.34936 
 7                    -6.97265   2.73769   0.47002 
 6                    -5.88667   3.40581   0.89882 
 6                    -6.2112    4.79446   1.00012 
 6                    -7.46473   5.00457   0.51786 
 6                    -7.94458   3.72769   0.18005 
 6                    -5.30062   5.9099    1.54031 
 6                    -8.23311   6.30313   0.46544 
 6                    -9.25192   6.63776  -0.38233 
 7                    -9.16117   0.90417  -0.46412 
 6                    -9.87478   2.0861   -0.51316 
 6                    -11.23038   1.84843  -0.93979 
 6                    -11.43546   0.53096  -1.22292 
 6                    -10.11352  -0.01731  -0.86346 
 6                    -12.25209   2.99461  -1.10767 
 6                    -12.6628  -0.29281  -1.57835 
 6                    -12.85283  -0.63025  -3.0463 
 7                    -7.52536  -1.22866  -0.11946 
 6                    -8.54086  -2.02936  -0.60157 
 6                    -8.14352  -3.37867  -0.62277 
 6                    -6.80214  -3.31398  -0.17877 
 6                    -6.44471  -1.95419   0.11646 
 6                    -8.90405  -4.52445  -1.0158 
 6                    -5.69998  -4.21266   0.04412 
 8                    -5.57502  -5.42549   0.12596 
 6                    -4.43652  -3.27016   0.42739 
 6                    -3.91241  -3.78466   1.70626 
 8                    -4.1747   -3.33985   2.8353 
 8                    -3.00935  -4.76673   1.58274 
 6                    -2.67093  -5.54726   2.6748 
 6                     2.64023  -1.31292  -1.27022 
 6                     4.02333  -0.82952  -0.583 
 6                     4.98678  -0.09279  -1.05644 
 6                     4.81951   0.59807  -2.43455 
 6                     6.27244   0.06362  -0.32149 
 6                     7.51159  -0.55316  -1.00169 
 6                     8.90653  -0.27327  -0.23147 
 6                     10.10934  -0.89517  -0.91398 
 6                     10.0411  -2.3662   -1.08727 
 6                     11.34986  -0.33037  -0.06235 
 6                     12.66968  -0.49198  -0.68283 
 6                     13.70137   0.0161    0.30394 
 6                     15.18268  -0.06809  -0.29083 
 6                     15.56131  -1.57901  -0.49853 
 6                     16.12909   0.75517   0.63706 
 6                     17.57763   0.78386  -0.11514 
 6                     18.5919   1.80059   0.63095 
 6                     20.04075   1.74727   0.21839 
 6                     20.28358   2.29344  -1.27582 
 6                     20.95101   2.50283   1.31086 
 1                    -3.84716   3.32128   1.72976 
 1                    -9.99152   4.13048  -0.26134 
 1                    -10.4856  -2.35233  -1.33524 
 1                    -2.92605  -1.37114   2.03184 
 1                    -2.10455   1.58287   1.12755 
 1                    -1.93133   0.67994   3.44657 
 1                    -3.06294   1.95388   3.82447 
 1                    -3.50821   0.25067   3.58074 
 1                    -2.30783  -1.78412  -0.55542 
 1                    -2.17385   0.27554  -0.67865 
 1                    -0.52208   0.13426   0.84054 
 1                    -0.44613  -1.58636   1.02986 
 1                    -4.50272   6.19418   1.0024 
 1                    -5.86389   6.8047    1.4146 
 1                    -5.02396   5.71233   2.52567 
 1                    -8.03101   7.01435   1.18606 
 1                    -9.5711    5.81541  -1.02211 
 1                    -10.03979   7.37738  -0.24811 
 1                    -12.47648   3.41294  -0.01912 
 1                    -11.99503   3.85234  -1.77225 
 1                    -13.22933   2.69325  -1.45243 
 1                    -12.75152  -1.17327  -0.79606 
 1                    -13.60075   0.37142  -1.09007 
 1                    -12.69872   0.47355  -3.43717 
 1                    -12.02804  -1.2617   -3.31556 
 1                    -13.78554  -1.14994  -3.3999 
 1                    -9.9186   -4.732    -0.67119 
 1                    -9.26198  -4.63164  -2.12743 
 1                    -8.45447  -5.42198  -0.62858 
 1                    -3.74895  -3.34352  -0.48904 
 1                    -2.25491  -6.50173   1.98406 
 1                    -1.77638  -4.96558   3.23826 
 1                    -3.56293  -5.98897   3.1032 
 1                     2.51657  -2.49319  -1.25753 
 1                     2.47376  -0.74716  -2.08022 
 1                     4.18849  -1.19383   0.44585 
 1                     4.78797   1.80945  -2.37916 
 1                     5.77429   0.24935  -3.01797 
 1                     3.81231   0.37399  -2.92053 
 1                     6.43798   1.16853   0.00766 
 1                     6.11319  -0.55727   0.68943 
 1                     7.4838   -1.66542  -1.26543 
 1                     7.44398  -0.12161  -1.92065 
 1                     8.954     0.90608  -0.1032 
 1                     8.71784  -0.68683   0.87098 
 1                     10.07157  -0.36878  -2.06318 
 1                     9.33994  -2.76503  -1.83485 
 1                     11.14581  -2.78279  -1.51363 
 1                     10.00546  -2.73417  -0.19442 
 1                     11.10109   0.59251   0.18901 
 1                     11.25127  -1.01188   0.99063 
 1                     12.75437  -1.59809  -0.97064 
 1                     12.63459  -0.19243  -1.6661 
 1                     13.54849   0.97573   0.77243 
 1                     13.52997  -0.60425   1.35542 
 1                     15.28648   0.30827  -1.25717 
 1                     14.87844  -2.04969  -1.07867 
 1                     16.52025  -1.64709  -1.05279 
 1                     15.3988  -2.13606   0.42589 
 1                     15.96193   1.74676   0.72594 
 1                     16.11811   0.32764   1.71714 
 1                     18.24972  -0.38119  -0.01583 
 1                     17.50998   0.74686  -1.19925 
 1                     17.95497   2.74443   0.44135 
 1                     18.53572   1.60409   1.6816 
 1                     20.29442   0.62936   0.23797 
 1                     19.94702   3.26513  -1.53049 
 1                     21.39437   1.94925  -1.57542 
 1                     19.77429   1.40425  -1.83043 
 1                     20.5527   2.24209   2.47015 
 1                     22.0842   2.13747   0.92379 
 1                     20.78329   3.54509   1.44632 
 1                    -7.19789   1.69364   0.23853 
 1                    -7.66953  -0.20691  -0.06168 
 
 Stoichiometry    C55H74N4O5
 Framework group  C1[X(C55H74N4O5)]
 Deg. of freedom   408
 Full point group                 C1      NOp   1
 Largest Abelian subgroup         C1      NOp   1
 Largest concise Abelian subgroup C1      NOp   1
                         Standard orientation:                         
 ---------------------------------------------------------------------
 Center     Atomic      Atomic             Coordinates (Angstroms)
 Number     Number       Type             X           Y           Z
 ---------------------------------------------------------------------
      1          6           0       -5.046867   -1.845118    0.402709
      2          6           0       -4.751717    2.800414    1.322733
      3          6           0       -9.255041    3.400926   -0.237903
      4          6           0       -9.829519   -1.474085   -0.823194
      5          7           0       -5.190887    0.531638    0.758830
      6          6           0       -4.480077   -0.702358    0.789394
      7          6           0       -3.077651   -0.569767    1.195654
      8          6           0       -3.022403    0.991117    1.710201
      9          6           0       -4.363002    1.471371    1.298051
     10          6           0       -2.879104    1.003466    3.262579
     11          6           0       -1.940912   -0.701648    0.001725
     12          6           0       -0.654554   -0.811151    0.403768
     13          6           0        0.384617   -1.152633   -0.678149
     14          8           0        0.086161   -1.648880   -1.690913
     15          8           0        1.573677   -0.903224   -0.337315
     16          7           0       -6.971140    2.744073    0.426752
     17          6           0       -5.885487    3.419563    0.844711
     18          6           0       -6.210892    4.809419    0.924206
     19          6           0       -7.464664    5.011108    0.439011
     20          6           0       -7.943771    3.728761    0.121471
     21          6           0       -5.300899    5.933811    1.446535
     22          6           0       -8.233898    6.308194    0.366335
     23          6           0       -9.253128    6.628778   -0.486342
     24          7           0       -9.158703    0.894664   -0.477848
     25          6           0       -9.873084    2.075221   -0.545319
     26          6           0      -11.228628    1.829991   -0.967814
     27          6           0      -11.432927    0.508096   -1.230109
     28          6           0      -10.110554   -0.033600   -0.862390
     29          6           0      -12.251123    2.972729   -1.153475
     30          6           0      -12.659827   -0.321958   -1.572218
     31          6           0      -12.849981   -0.682590   -3.034629
     32          7           0       -7.521434   -1.231427   -0.100050
     33          6           0       -8.536527   -2.040268   -0.569241
     34          6           0       -8.138324   -3.389493   -0.569289
     35          6           0       -6.796878   -3.316953   -0.126687
     36          6           0       -6.440255   -1.952453    0.146995
     37          6           0       -8.898215   -4.541806   -0.944033
     38          6           0       -5.694088   -4.211303    0.110045
     39          8           0       -5.568327   -5.422619    0.210944
     40          6           0       -4.431148   -3.262076    0.478117
     41          6           0       -3.906396   -3.756041    1.764796
     42          8           0       -4.168710   -3.293672    2.886760
     43          8           0       -3.002737   -4.739354    1.656534
     44          6           0       -2.663556   -5.502375    2.760667
     45          6           0        2.643931   -1.327278   -1.251869
     46          6           0        4.026882   -0.832237   -0.572691
     47          6           0        4.989750   -0.102432   -1.057913
     48          6           0        4.821706    0.566530   -2.446691
     49          6           0        6.275482    0.066359   -0.325839
     50          6           0        7.514870   -0.560268   -0.996545
     51          6           0        8.909813   -0.267389   -0.231180
     52          6           0       10.112861   -0.899193   -0.904108
     53          6           0       10.045526   -2.372809   -1.054192
     54          6           0       11.353216   -0.320249   -0.061785
     55          6           0       12.672992   -0.490773   -0.679977
     56          6           0       13.704590    0.033454    0.298418
     57          6           0       15.185810   -0.059145   -0.295326
     58          6           0       15.565363   -1.572905   -0.479296
     59          6           0       16.131917    0.779230    0.619254
     60          6           0       17.580258    0.796999   -0.133663
     61          6           0       18.594048    1.826006    0.596070
     62          6           0       20.042829    1.767122    0.184040
     63          6           0       20.284954    2.289841   -1.318646
     64          6           0       20.952864    2.540375    1.264248
     65          1           0       -3.845727    3.349435    1.676369
     66          1           0       -9.991077    4.123238   -0.325694
     67          1           0      -10.481241   -2.375999   -1.297250
     68          1           0       -2.921524   -1.337055    2.052087
     69          1           0       -2.102140    1.602868    1.101176
     70          1           0       -1.927787    0.736689    3.434093
     71          1           0       -3.060126    2.015693    3.792164
     72          1           0       -3.504355    0.308570    3.575398
     73          1           0       -2.303646   -1.790340   -0.528506
     74          1           0       -2.171028    0.267216   -0.684195
     75          1           0       -0.518802    0.150931    0.836630
     76          1           0       -0.441705   -1.566443    1.053001
     77          1           0       -4.503305    6.210103    0.904024
     78          1           0       -5.864776    6.826159    1.306895
     79          1           0       -5.023876    5.751964    2.434817
     80          1           0       -8.032082    7.030801    1.075620
     81          1           0       -9.571930    5.796248   -1.113016
     82          1           0      -10.041438    7.369908   -0.363585
     83          1           0      -12.475521    3.408009   -0.071589
     84          1           0      -11.994774    3.820053   -1.831537
     85          1           0      -13.228251    2.665351   -1.493199
     86          1           0      -12.747786   -1.190040   -0.776143
     87          1           0      -13.598081    0.349282   -1.094229
     88          1           0      -12.696676    0.415016   -3.442870
     89          1           0      -12.024851   -1.317681   -3.294114
     90          1           0      -13.782440   -1.208390   -3.379763
     91          1           0       -9.912544   -4.744552   -0.595943
     92          1           0       -9.256338   -4.666716   -2.053747
     93          1           0       -8.447962   -5.432835   -0.542838
     94          1           0       -3.743745   -3.349422   -0.437218
     95          1           0       -2.247079   -6.467329    2.084943
     96          1           0       -1.769241   -4.911316    3.314673
     97          1           0       -3.555166   -5.937854    3.196190
     98          1           0        2.521034   -2.507282   -1.220559
     99          1           0        2.476909   -0.774458   -2.070632
    100          1           0        4.192529   -1.180191    0.461731
    101          1           0        4.789398    1.778615   -2.410380
    102          1           0        5.776574    0.209278   -3.024787
    103          1           0        3.814535    0.334177   -2.928834
    104          1           0        6.440391    1.176420   -0.014170
    105          1           0        6.116874   -0.538635    0.694771
    106          1           0        7.487727   -1.676563   -1.242729
    107          1           0        7.446764   -0.143286   -1.922170
    108          1           0        8.956552    0.913865   -0.121509
    109          1           0        8.721655   -0.663658    0.877695
    110          1           0       10.074475   -0.390991   -2.061448
    111          1           0        9.344449   -2.783807   -1.795228
    112          1           0       11.150402   -2.795354   -1.474217
    113          1           0       10.010331   -2.726690   -0.155649
    114          1           0       11.103908    0.606310    0.175067
    115          1           0       11.255319   -0.985154    1.001818
    116          1           0       12.758328   -1.601221   -0.950350
    117          1           0       12.637477   -0.206762   -1.667829
    118          1           0       13.551200    1.000238    0.751773
    119          1           0       13.533839   -0.570370    1.359580
    120          1           0       15.289141    0.302016   -1.267494
    121          1           0       14.882666   -2.053101   -1.051780
    122          1           0       16.524215   -1.649093   -1.032656
    123          1           0       15.403432   -2.115433    0.453823
    124          1           0       15.964132    1.771990    0.692549
    125          1           0       16.121463    0.368759    1.705928
    126          1           0       18.253116   -0.365915   -0.016191
    127          1           0       17.512366    0.742883   -1.217042
    128          1           0       17.956465    2.766331    0.391783
    129          1           0       18.538241    1.646032    1.649689
    130          1           0       20.297224    0.649820    0.221161
    131          1           0       19.947710    3.257193   -1.588512
    132          1           0       21.395892    1.941694   -1.613069
    133          1           0       19.776108    1.391701   -1.859056
    134          1           0       20.555002    2.297663    2.427595
    135          1           0       22.086201    2.169693    0.882692
    136          1           0       20.784505    3.584527    1.383320
    137          1           0       -7.195762    1.696360    0.211788
    138          1           0       -7.666246   -0.208983   -0.058328
 ---------------------------------------------------------------------
 Rotational constants (GHZ):      0.0636781      0.0061738      0.0057971
 Standard basis: SVP (5D, 7F)
 There are  1330 symmetry adapted cartesian basis functions of A   symmetry.
 There are  1266 symmetry adapted basis functions of A   symmetry.
  1266 basis functions,  2118 primitive gaussians,  1330 cartesian basis functions
   236 alpha electrons      236 beta electrons
       nuclear repulsion energy      8303.0278273716 Hartrees.
 NAtoms=  138 NActive=  138 NUniq=  138 SFac= 1.00D+00 NAtFMM=   60 NAOKFM=T Big=T
 Integral buffers will be    131072 words long.
 Regular integral format.
 Two-electron integral symmetry is turned on.
 One-electron integrals computed using PRISM.
 NBasis=  1266 RedAO= T EigKep=  2.64D-04  NBF=  1266
 NBsUse=  1266 1.00D-06 EigRej= -1.00D+00 NBFU=  1266
 ExpMin= 1.22D-01 ExpMax= 2.27D+03 ExpMxC= 3.41D+02 IAcc=1 IRadAn=         1 AccDes= 0.00D+00
 Harris functional with IExCor=  402 and IRadAn=       1 diagonalized for initial guess.
 HarFok:  IExCor=  402 AccDes= 0.00D+00 IRadAn=         1 IDoV= 1 UseB2=F ITyADJ=14
 ICtDFT=  3500011 ScaDFX=  1.000000  1.000000  1.000000  1.000000
 FoFCou: FMM=F IPFlag=           0 FMFlag=      100000 FMFlg1=        2001
         NFxFlg=           0 DoJE=T BraDBF=F KetDBF=T FulRan=T
         wScrn=  0.000000 ICntrl=     500 IOpCl=  0 I1Cent=   200000004 NGrid=           0
         NMat0=    1 NMatS0=      1 NMatT0=    0 NMatD0=    1 NMtDS0=    0 NMtDT0=    0
 Petite list used in FoFCou.
 Requested convergence on RMS density matrix=1.00D-08 within 128 cycles.
 Requested convergence on MAX density matrix=1.00D-06.
 Requested convergence on             energy=1.00D-06.
 No special actions if energy rises.
 Integral accuracy reduced to 1.0D-05 until final iterations.
 Initial convergence to 1.0D-05 achieved.  Increase integral accuracy.
 SCF Done:  E(RB3LYP) =  -2732.97600661     A.U. after   16 cycles
            NFock= 16  Conv=0.66D-08     -V/T= 2.0116
 DoSCS=F DFT=T ScalE2(SS,OS)=  1.000000  1.000000
 ExpMin= 1.22D-01 ExpMax= 2.27D+03 ExpMxC= 3.41D+02 IAcc=3 IRadAn=         5 AccDes= 0.00D+00
 HarFok:  IExCor=  205 AccDes= 0.00D+00 IRadAn=         5 IDoV=-2 UseB2=F ITyADJ=14
 ICtDFT= 12500011 ScaDFX=  1.000000  1.000000  1.000000  1.000000
 Range of M.O.s used for correlation:    65  1266
 NBasis=  1266 NAE=   236 NBE=   236 NFC=    64 NFV=     0
 NROrb=   1202 NOA=   172 NOB=   172 NVA=  1030 NVB=  1030

 **** Warning!!: The smallest alpha delta epsilon is  0.89096874D-01

 Would need an additional        965744300000 words for in-memory AO integral storage.
 Orbital symmetries:
       Occupied  (A) (A) (A) (A) (A) (A) (A) (A) (A) (A) (A) (A)
                 (A) (A) (A) (A) (A) (A) (A) (A) (A) (A) (A) (A)
                 (A) (A) (A) (A) (A) (A) (A) (A) (A) (A) (A) (A)
                 (A) (A) (A) (A) (A) (A) (A) (A) (A) (A) (A) (A)
                 (A) (A) (A) (A) (A) (A) (A) (A) (A) (A) (A) (A)
                 (A) (A) (A) (A) (A) (A) (A) (A) (A) (A) (A) (A)
                 (A) (A) (A) (A) (A) (A) (A) (A) (A) (A) (A) (A)
                 (A) (A) (A) (A) (A) (A) (A) (A) (A) (A) (A) (A)
                 (A) (A) (A) (A) (A) (A) (A) (A) (A) (A) (A) (A)
                 (A) (A) (A) (A) (A) (A) (A) (A) (A) (A) (A) (A)
                 (A) (A) (A) (A) (A) (A) (A) (A) (A) (A) (A) (A)
                 (A) (A) (A) (A) (A) (A) (A) (A) (A) (A) (A) (A)
                 (A) (A) (A) (A) (A) (A) (A) (A) (A) (A) (A) (A)
                 (A) (A) (A) (A) (A) (A) (A) (A) (A) (A) (A) (A)
                 (A) (A) (A) (A) (A) (A) (A) (A) (A) (A) (A) (A)
                 (A) (A) (A) (A) (A) (A) (A) (A) (A) (A) (A) (A)
                 (A) (A) (A) (A) (A) (A) (A) (A) (A) (A) (A) (A)
                 (A) (A) (A) (A) (A) (A) (A) (A) (A) (A) (A) (A)
                 (A) (A) (A) (A) (A) (A) (A) (A) (A) (A) (A) (A)
                 (A) (A) (A) (A) (A) (A) (A) (A)
       Virtual   (A) (A) (A) (A) (A) (A) (A) (A) (A) (A) (A) (A)
                 (A) (A) (A) (A) (A) (A) (A) (A) (A) (A) (A) (A)
                 (A) (A) (A) (A) (A) (A) (A) (A) (A) (A) (A) (A)
                 (A) (A) (A) (A) (A) (A) (A) (A) (A) (A) (A) (A)
                 (A) (A) (A) (A) (A) (A) (A) (A) (A) (A) (A) (A)
                 (A) (A) (A) (A) (A) (A) (A) (A) (A) (A) (A) (A)
                 (A) (A) (A) (A) (A) (A) (A) (A) (A) (A) (A) (A)
                 (A) (A) (A) (A) (A) (A) (A) (A) (A) (A) (A) (A)
                 (A) (A) (A) (A) (A) (A) (A) (A) (A) (A) (A) (A)
                 (A) (A) (A) (A) (A) (A) (A) (A) (A) (A) (A) (A)
                 (A) (A) (A) (A) (A) (A) (A) (A) (A) (A) (A) (A)
                 (A) (A) (A) (A) (A) (A) (A) (A) (A) (A) (A) (A)
                 (A) (A) (A) (A) (A) (A) (A) (A) (A) (A) (A) (A)
                 (A) (A) (A) (A) (A) (A) (A) (A) (A) (A) (A) (A)
                 (A) (A) (A) (A) (A) (A) (A) (A) (A) (A) (A) (A)
                 (A) (A) (A) (A) (A) (A) (A) (A) (A) (A) (A) (A)
                 (A) (A) (A) (A) (A) (A) (A) (A) (A) (A) (A) (A)
                 (A) (A) (A) (A) (A) (A) (A) (A) (A) (A) (A) (A)
                 (A) (A) (A) (A) (A) (A) (A) (A) (A) (A) (A) (A)
                 (A) (A) (A) (A) (A) (A) (A) (A) (A) (A) (A) (A)
                 (A) (A) (A) (A) (A) (A) (A) (A) (A) (A) (A) (A)
                 (A) (A) (A) (A) (A) (A) (A) (A) (A) (A) (A) (A)
                 (A) (A) (A) (A) (A) (A) (A) (A) (A) (A) (A) (A)
                 (A) (A) (A) (A) (A) (A) (A) (A) (A) (A) (A) (A)
                 (A) (A) (A) (A) (A) (A) (A) (A) (A) (A) (A) (A)
                 (A) (A) (A) (A) (A) (A) (A) (A) (A) (A) (A) (A)
                 (A) (A) (A) (A) (A) (A) (A) (A) (A) (A) (A) (A)
                 (A) (A) (A) (A) (A) (A) (A) (A) (A) (A) (A) (A)
                 (A) (A) (A) (A) (A) (A) (A) (A) (A) (A) (A) (A)
                 (A) (A) (A) (A) (A) (A) (A) (A) (A) (A) (A) (A)
                 (A) (A) (A) (A) (A) (A) (A) (A) (A) (A) (A) (A)
                 (A) (A) (A) (A) (A) (A) (A) (A) (A) (A) (A) (A)
                 (A) (A) (A) (A) (A) (A) (A) (A) (A) (A) (A) (A)
                 (A) (A) (A) (A) (A) (A) (A) (A) (A) (A) (A) (A)
                 (A) (A) (A) (A) (A) (A) (A) (A) (A) (A) (A) (A)
                 (A) (A) (A) (A) (A) (A) (A) (A) (A) (A) (A) (A)
                 (A) (A) (A) (A) (A) (A) (A) (A) (A) (A) (A) (A)
                 (A) (A) (A) (A) (A) (A) (A) (A) (A) (A) (A) (A)
                 (A) (A) (A) (A) (A) (A) (A) (A) (A) (A) (A) (A)
                 (A) (A) (A) (A) (A) (A) (A) (A) (A) (A) (A) (A)
                 (A) (A) (A) (A) (A) (A) (A) (A) (A) (A) (A) (A)
                 (A) (A) (A) (A) (A) (A) (A) (A) (A) (A) (A) (A)
                 (A) (A) (A) (A) (A) (A) (A) (A) (A) (A) (A) (A)
                 (A) (A) (A) (A) (A) (A) (A) (A) (A) (A) (A) (A)
                 (A) (A) (A) (A) (A) (A) (A) (A) (A) (A) (A) (A)
                 (A) (A) (A) (A) (A) (A) (A) (A) (A) (A) (A) (A)
                 (A) (A) (A) (A) (A) (A) (A) (A) (A) (A) (A) (A)
                 (A) (A) (A) (A) (A) (A) (A) (A) (A) (A) (A) (A)
                 (A) (A) (A) (A) (A) (A) (A) (A) (A) (A) (A) (A)
                 (A) (A) (A) (A) (A) (A) (A) (A) (A) (A) (A) (A)
                 (A) (A) (A) (A) (A) (A) (A) (A) (A) (A) (A) (A)
                 (A) (A) (A) (A) (A) (A) (A) (A) (A) (A) (A) (A)
                 (A) (A) (A) (A) (A) (A) (A) (A) (A) (A) (A) (A)
                 (A) (A) (A) (A) (A) (A) (A) (A) (A) (A) (A) (A)
                 (A) (A) (A) (A) (A) (A) (A) (A) (A) (A) (A) (A)
                 (A) (A) (A) (A) (A) (A) (A) (A) (A) (A) (A) (A)
                 (A) (A) (A) (A) (A) (A) (A) (A) (A) (A) (A) (A)
                 (A) (A) (A) (A) (A) (A) (A) (A) (A) (A) (A) (A)
                 (A) (A) (A) (A) (A) (A) (A) (A) (A) (A) (A) (A)
                 (A) (A) (A) (A) (A) (A) (A) (A) (A) (A) (A) (A)
                 (A) (A) (A) (A) (A) (A) (A) (A) (A) (A) (A) (A)
                 (A) (A) (A) (A) (A) (A) (A) (A) (A) (A) (A) (A)
                 (A) (A) (A) (A) (A) (A) (A) (A) (A) (A) (A) (A)
                 (A) (A) (A) (A) (A) (A) (A) (A) (A) (A) (A) (A)
                 (A) (A) (A) (A) (A) (A) (A) (A) (A) (A) (A) (A)
                 (A) (A) (A) (A) (A) (A) (A) (A) (A) (A) (A) (A)
                 (A) (A) (A) (A) (A) (A) (A) (A) (A) (A) (A) (A)
                 (A) (A) (A) (A) (A) (A) (A) (A) (A) (A) (A) (A)
                 (A) (A) (A) (A) (A) (A) (A) (A) (A) (A) (A) (A)
                 (A) (A) (A) (A) (A) (A) (A) (A) (A) (A) (A) (A)
                 (A) (A) (A) (A) (A) (A) (A) (A) (A) (A) (A) (A)
                 (A) (A) (A) (A) (A) (A) (A) (A) (A) (A) (A) (A)
                 (A) (A) (A) (A) (A) (A) (A) (A) (A) (A) (A) (A)
                 (A) (A) (A) (A) (A) (A) (A) (A) (A) (A) (A) (A)
                 (A) (A) (A) (A) (A) (A) (A) (A) (A) (A) (A) (A)
                 (A) (A) (A) (A) (A) (A) (A) (A) (A) (A) (A) (A)
                 (A) (A) (A) (A) (A) (A) (A) (A) (A) (A) (A) (A)
                 (A) (A) (A) (A) (A) (A) (A) (A) (A) (A) (A) (A)
                 (A) (A) (A) (A) (A) (A) (A) (A) (A) (A) (A) (A)
                 (A) (A) (A) (A) (A) (A) (A) (A) (A) (A) (A) (A)
                 (A) (A) (A) (A) (A) (A) (A) (A) (A) (A) (A) (A)
                 (A) (A) (A) (A) (A) (A) (A) (A) (A) (A) (A) (A)
                 (A) (A) (A) (A) (A) (A) (A) (A) (A) (A) (A) (A)
                 (A) (A) (A) (A) (A) (A) (A) (A) (A) (A) (A) (A)
                 (A) (A) (A) (A) (A) (A) (A) (A) (A) (A) (A) (A)
                 (A) (A) (A) (A) (A) (A) (A) (A) (A) (A)
     8 initial guesses have been made.
 Convergence on wavefunction:    0.001000000000000
 Iteration     1 Dimension     8 NMult     0 NNew      8
 CISAX will form     8 AO SS matrices at one time.
 New state      1 was old state      2
 Iteration     2 Dimension    12 NMult     8 NNew      4
 Iteration     3 Dimension    16 NMult    12 NNew      4
 Iteration     4 Dimension    20 NMult    16 NNew      4
 Iteration     5 Dimension    24 NMult    20 NNew      4
 Iteration     6 Dimension    28 NMult    24 NNew      4
 ***********************************************************************
 Excited states from <AA,BB:AA,BB> singles matrix:
 ***********************************************************************
 
 Ground to excited state transition densities written to RWF  633
 Ground to excited state transition electric dipole moments (Au):
       state          X           Y           Z        Dip. S.      Osc.
         1        -0.0513      1.5685      0.1497      2.4852      0.1277
 Ground to excited state transition velocity dipole moments (Au):
       state          X           Y           Z        Dip. S.      Osc.
         1         0.0039     -0.1179     -0.0118      0.0141      0.1216
 Ground to excited state transition magnetic dipole moments (Au):
       state          X           Y           Z
         1        -0.3759     -0.2879      2.9180
 Ground to excited state transition velocity quadrupole moments (Au):
       state          XX          YY          ZZ          XY          XZ          YZ
         1        -0.1610     -0.0406     -0.0277      1.5007      0.1027     -0.0661
 <0|del|b> * <b|rxdel|0> + <0|del|b> * <b|delr+rdel|0>
 Rotatory Strengths (R) in cgs (10**-40 erg-esu-cm/Gauss)
       state          XX          YY          ZZ    R(velocity)    E-M Angle
         1       -27.6113    -84.4360     94.6976     -5.7832       90.31
 1/2[<0|r|b>*<b|rxdel|0> + (<0|rxdel|b>*<b|r|0>)*]
 Rotatory Strengths (R) in cgs (10**-40 erg-esu-cm/Gauss)
       state          XX          YY          ZZ     R(length)
         1       -13.6409    319.3675   -308.8941     -1.0558
  1/2[<0|del|b>*<b|r|0> + (<0|r|b>*<b|del|0>)*] (Au)
       state          X           Y           Z        Dip. S.   Osc.(frdel)
         1        -0.0002     -0.1849     -0.0018      0.1869      0.1246

 Excitation energies and oscillator strengths:
 
 Excited State   1:      Singlet-A      2.0979 eV  590.99 nm  f=0.1277  <S**2>=0.000
     235 -> 237       -0.30103
     235 -> 238        0.26624
     236 -> 237        0.53656
     236 -> 238        0.21081
 This state for optimization and/or second-order correction.
 Total Energy, E(TD-HF/TD-KS) =  -2732.89890997    
 Copying the excited state density for this state as the 1-particle RhoCI density.
 SavETr:  write IOETrn=   770 NScale= 10 NData=  16 NLR=1 NState=    1 LETran=      28.

 **********************************************************************

            Population analysis using the SCF density.

 **********************************************************************

 Orbital symmetries:
       Occupied  (A) (A) (A) (A) (A) (A) (A) (A) (A) (A) (A) (A)
                 (A) (A) (A) (A) (A) (A) (A) (A) (A) (A) (A) (A)
                 (A) (A) (A) (A) (A) (A) (A) (A) (A) (A) (A) (A)
                 (A) (A) (A) (A) (A) (A) (A) (A) (A) (A) (A) (A)
                 (A) (A) (A) (A) (A) (A) (A) (A) (A) (A) (A) (A)
                 (A) (A) (A) (A) (A) (A) (A) (A) (A) (A) (A) (A)
                 (A) (A) (A) (A) (A) (A) (A) (A) (A) (A) (A) (A)
                 (A) (A) (A) (A) (A) (A) (A) (A) (A) (A) (A) (A)
                 (A) (A) (A) (A) (A) (A) (A) (A) (A) (A) (A) (A)
                 (A) (A) (A) (A) (A) (A) (A) (A) (A) (A) (A) (A)
                 (A) (A) (A) (A) (A) (A) (A) (A) (A) (A) (A) (A)
                 (A) (A) (A) (A) (A) (A) (A) (A) (A) (A) (A) (A)
                 (A) (A) (A) (A) (A) (A) (A) (A) (A) (A) (A) (A)
                 (A) (A) (A) (A) (A) (A) (A) (A) (A) (A) (A) (A)
                 (A) (A) (A) (A) (A) (A) (A) (A) (A) (A) (A) (A)
                 (A) (A) (A) (A) (A) (A) (A) (A) (A) (A) (A) (A)
                 (A) (A) (A) (A) (A) (A) (A) (A) (A) (A) (A) (A)
                 (A) (A) (A) (A) (A) (A) (A) (A) (A) (A) (A) (A)
                 (A) (A) (A) (A) (A) (A) (A) (A) (A) (A) (A) (A)
                 (A) (A) (A) (A) (A) (A) (A) (A)
       Virtual   (A) (A) (A) (A) (A) (A) (A) (A) (A) (A) (A) (A)
                 (A) (A) (A) (A) (A) (A) (A) (A) (A) (A) (A) (A)
                 (A) (A) (A) (A) (A) (A) (A) (A) (A) (A) (A) (A)
                 (A) (A) (A) (A) (A) (A) (A) (A) (A) (A) (A) (A)
                 (A) (A) (A) (A) (A) (A) (A) (A) (A) (A) (A) (A)
                 (A) (A) (A) (A) (A) (A) (A) (A) (A) (A) (A) (A)
                 (A) (A) (A) (A) (A) (A) (A) (A) (A) (A) (A) (A)
                 (A) (A) (A) (A) (A) (A) (A) (A) (A) (A) (A) (A)
                 (A) (A) (A) (A) (A) (A) (A) (A) (A) (A) (A) (A)
                 (A) (A) (A) (A) (A) (A) (A) (A) (A) (A) (A) (A)
                 (A) (A) (A) (A) (A) (A) (A) (A) (A) (A) (A) (A)
                 (A) (A) (A) (A) (A) (A) (A) (A) (A) (A) (A) (A)
                 (A) (A) (A) (A) (A) (A) (A) (A) (A) (A) (A) (A)
                 (A) (A) (A) (A) (A) (A) (A) (A) (A) (A) (A) (A)
                 (A) (A) (A) (A) (A) (A) (A) (A) (A) (A) (A) (A)
                 (A) (A) (A) (A) (A) (A) (A) (A) (A) (A) (A) (A)
                 (A) (A) (A) (A) (A) (A) (A) (A) (A) (A) (A) (A)
                 (A) (A) (A) (A) (A) (A) (A) (A) (A) (A) (A) (A)
                 (A) (A) (A) (A) (A) (A) (A) (A) (A) (A) (A) (A)
                 (A) (A) (A) (A) (A) (A) (A) (A) (A) (A) (A) (A)
                 (A) (A) (A) (A) (A) (A) (A) (A) (A) (A) (A) (A)
                 (A) (A) (A) (A) (A) (A) (A) (A) (A) (A) (A) (A)
                 (A) (A) (A) (A) (A) (A) (A) (A) (A) (A) (A) (A)
                 (A) (A) (A) (A) (A) (A) (A) (A) (A) (A) (A) (A)
                 (A) (A) (A) (A) (A) (A) (A) (A) (A) (A) (A) (A)
                 (A) (A) (A) (A) (A) (A) (A) (A) (A) (A) (A) (A)
                 (A) (A) (A) (A) (A) (A) (A) (A) (A) (A) (A) (A)
                 (A) (A) (A) (A) (A) (A) (A) (A) (A) (A) (A) (A)
                 (A) (A) (A) (A) (A) (A) (A) (A) (A) (A) (A) (A)
                 (A) (A) (A) (A) (A) (A) (A) (A) (A) (A) (A) (A)
                 (A) (A) (A) (A) (A) (A) (A) (A) (A) (A) (A) (A)
                 (A) (A) (A) (A) (A) (A) (A) (A) (A) (A) (A) (A)
                 (A) (A) (A) (A) (A) (A) (A) (A) (A) (A) (A) (A)
                 (A) (A) (A) (A) (A) (A) (A) (A) (A) (A) (A) (A)
                 (A) (A) (A) (A) (A) (A) (A) (A) (A) (A) (A) (A)
                 (A) (A) (A) (A) (A) (A) (A) (A) (A) (A) (A) (A)
                 (A) (A) (A) (A) (A) (A) (A) (A) (A) (A) (A) (A)
                 (A) (A) (A) (A) (A) (A) (A) (A) (A) (A) (A) (A)
                 (A) (A) (A) (A) (A) (A) (A) (A) (A) (A) (A) (A)
                 (A) (A) (A) (A) (A) (A) (A) (A) (A) (A) (A) (A)
                 (A) (A) (A) (A) (A) (A) (A) (A) (A) (A) (A) (A)
                 (A) (A) (A) (A) (A) (A) (A) (A) (A) (A) (A) (A)
                 (A) (A) (A) (A) (A) (A) (A) (A) (A) (A) (A) (A)
                 (A) (A) (A) (A) (A) (A) (A) (A) (A) (A) (A) (A)
                 (A) (A) (A) (A) (A) (A) (A) (A) (A) (A) (A) (A)
                 (A) (A) (A) (A) (A) (A) (A) (A) (A) (A) (A) (A)
                 (A) (A) (A) (A) (A) (A) (A) (A) (A) (A) (A) (A)
                 (A) (A) (A) (A) (A) (A) (A) (A) (A) (A) (A) (A)
                 (A) (A) (A) (A) (A) (A) (A) (A) (A) (A) (A) (A)
                 (A) (A) (A) (A) (A) (A) (A) (A) (A) (A) (A) (A)
                 (A) (A) (A) (A) (A) (A) (A) (A) (A) (A) (A) (A)
                 (A) (A) (A) (A) (A) (A) (A) (A) (A) (A) (A) (A)
                 (A) (A) (A) (A) (A) (A) (A) (A) (A) (A) (A) (A)
                 (A) (A) (A) (A) (A) (A) (A) (A) (A) (A) (A) (A)
                 (A) (A) (A) (A) (A) (A) (A) (A) (A) (A) (A) (A)
                 (A) (A) (A) (A) (A) (A) (A) (A) (A) (A) (A) (A)
                 (A) (A) (A) (A) (A) (A) (A) (A) (A) (A) (A) (A)
                 (A) (A) (A) (A) (A) (A) (A) (A) (A) (A) (A) (A)
                 (A) (A) (A) (A) (A) (A) (A) (A) (A) (A) (A) (A)
                 (A) (A) (A) (A) (A) (A) (A) (A) (A) (A) (A) (A)
                 (A) (A) (A) (A) (A) (A) (A) (A) (A) (A) (A) (A)
                 (A) (A) (A) (A) (A) (A) (A) (A) (A) (A) (A) (A)
                 (A) (A) (A) (A) (A) (A) (A) (A) (A) (A) (A) (A)
                 (A) (A) (A) (A) (A) (A) (A) (A) (A) (A) (A) (A)
                 (A) (A) (A) (A) (A) (A) (A) (A) (A) (A) (A) (A)
                 (A) (A) (A) (A) (A) (A) (A) (A) (A) (A) (A) (A)
                 (A) (A) (A) (A) (A) (A) (A) (A) (A) (A) (A) (A)
                 (A) (A) (A) (A) (A) (A) (A) (A) (A) (A) (A) (A)
                 (A) (A) (A) (A) (A) (A) (A) (A) (A) (A) (A) (A)
                 (A) (A) (A) (A) (A) (A) (A) (A) (A) (A) (A) (A)
                 (A) (A) (A) (A) (A) (A) (A) (A) (A) (A) (A) (A)
                 (A) (A) (A) (A) (A) (A) (A) (A) (A) (A) (A) (A)
                 (A) (A) (A) (A) (A) (A) (A) (A) (A) (A) (A) (A)
                 (A) (A) (A) (A) (A) (A) (A) (A) (A) (A) (A) (A)
                 (A) (A) (A) (A) (A) (A) (A) (A) (A) (A) (A) (A)
                 (A) (A) (A) (A) (A) (A) (A) (A) (A) (A) (A) (A)
                 (A) (A) (A) (A) (A) (A) (A) (A) (A) (A) (A) (A)
                 (A) (A) (A) (A) (A) (A) (A) (A) (A) (A) (A) (A)
                 (A) (A) (A) (A) (A) (A) (A) (A) (A) (A) (A) (A)
                 (A) (A) (A) (A) (A) (A) (A) (A) (A) (A) (A) (A)
                 (A) (A) (A) (A) (A) (A) (A) (A) (A) (A) (A) (A)
                 (A) (A) (A) (A) (A) (A) (A) (A) (A) (A) (A) (A)
                 (A) (A) (A) (A) (A) (A) (A) (A) (A) (A) (A) (A)
                 (A) (A) (A) (A) (A) (A) (A) (A) (A) (A) (A) (A)
                 (A) (A) (A) (A) (A) (A) (A) (A) (A) (A) (A) (A)
                 (A) (A) (A) (A) (A) (A) (A) (A) (A) (A)
 The electronic state is 1-A.
 Alpha  occ. eigenvalues --  -19.17524 -19.16705 -19.11935 -19.11146 -19.10610
 Alpha  occ. eigenvalues --  -14.37052 -14.36994 -14.31931 -14.31111 -10.31122
 Alpha  occ. eigenvalues --  -10.29858 -10.27625 -10.26375 -10.25739 -10.23887
 Alpha  occ. eigenvalues --  -10.23630 -10.23498 -10.22821 -10.22284 -10.22276
 Alpha  occ. eigenvalues --  -10.22144 -10.22091 -10.21833 -10.21761 -10.21598
 Alpha  occ. eigenvalues --  -10.21575 -10.21317 -10.21156 -10.21121 -10.20944
 Alpha  occ. eigenvalues --  -10.20739 -10.20727 -10.20727 -10.20626 -10.20601
 Alpha  occ. eigenvalues --  -10.20593 -10.20465 -10.20338 -10.20311 -10.20211
 Alpha  occ. eigenvalues --  -10.20060 -10.19799 -10.19790 -10.19639 -10.19569
 Alpha  occ. eigenvalues --  -10.19568 -10.19548 -10.19382 -10.19292 -10.19162
 Alpha  occ. eigenvalues --  -10.19101 -10.18902 -10.18850 -10.18841 -10.18710
 Alpha  occ. eigenvalues --  -10.18622 -10.18563 -10.18553 -10.18508 -10.18315
 Alpha  occ. eigenvalues --  -10.17784 -10.17670 -10.17541 -10.16719  -1.12383
 Alpha  occ. eigenvalues --   -1.09393  -1.01999  -1.01625  -0.99306  -0.98606
 Alpha  occ. eigenvalues --   -0.98265  -0.93284  -0.92814  -0.84451  -0.82914
 Alpha  occ. eigenvalues --   -0.82413  -0.82206  -0.81864  -0.81418  -0.80108
 Alpha  occ. eigenvalues --   -0.80049  -0.79185  -0.78683  -0.78323  -0.77579
 Alpha  occ. eigenvalues --   -0.76711  -0.76369  -0.75461  -0.75187  -0.74646
 Alpha  occ. eigenvalues --   -0.73264  -0.73057  -0.72653  -0.71876  -0.71547
 Alpha  occ. eigenvalues --   -0.70517  -0.69268  -0.68690  -0.68091  -0.67490
 Alpha  occ. eigenvalues --   -0.67352  -0.66977  -0.66298  -0.66209  -0.65172
 Alpha  occ. eigenvalues --   -0.64062  -0.62856  -0.62286  -0.61617  -0.61218
 Alpha  occ. eigenvalues --   -0.60428  -0.58699  -0.58312  -0.58025  -0.57766
 Alpha  occ. eigenvalues --   -0.56965  -0.56886  -0.56341  -0.56026  -0.55599
 Alpha  occ. eigenvalues --   -0.54860  -0.54704  -0.54425  -0.53996  -0.52602
 Alpha  occ. eigenvalues --   -0.52267  -0.51763  -0.51384  -0.51339  -0.51004
 Alpha  occ. eigenvalues --   -0.50359  -0.49123  -0.48889  -0.48667  -0.48419
 Alpha  occ. eigenvalues --   -0.47976  -0.47620  -0.47113  -0.46826  -0.46797
 Alpha  occ. eigenvalues --   -0.46493  -0.46297  -0.46017  -0.45882  -0.45614
 Alpha  occ. eigenvalues --   -0.45573  -0.45361  -0.45228  -0.45156  -0.45078
 Alpha  occ. eigenvalues --   -0.44881  -0.44458  -0.44372  -0.43783  -0.43533
 Alpha  occ. eigenvalues --   -0.43456  -0.42935  -0.42857  -0.42852  -0.42677
 Alpha  occ. eigenvalues --   -0.42622  -0.42399  -0.42108  -0.41603  -0.41460
 Alpha  occ. eigenvalues --   -0.41360  -0.40696  -0.40648  -0.40421  -0.40374
 Alpha  occ. eigenvalues --   -0.40278  -0.40016  -0.39951  -0.39337  -0.39114
 Alpha  occ. eigenvalues --   -0.39100  -0.38813  -0.38711  -0.38612  -0.38462
 Alpha  occ. eigenvalues --   -0.38284  -0.38087  -0.37859  -0.37686  -0.37428
 Alpha  occ. eigenvalues --   -0.37357  -0.37297  -0.36990  -0.36724  -0.36634
 Alpha  occ. eigenvalues --   -0.36406  -0.36287  -0.35991  -0.35927  -0.35599
 Alpha  occ. eigenvalues --   -0.35228  -0.35037  -0.34974  -0.34760  -0.34555
 Alpha  occ. eigenvalues --   -0.34439  -0.34231  -0.34135  -0.33833  -0.33692
 Alpha  occ. eigenvalues --   -0.33244  -0.32890  -0.32771  -0.32523  -0.32244
 Alpha  occ. eigenvalues --   -0.31998  -0.31842  -0.31690  -0.31130  -0.31066
 Alpha  occ. eigenvalues --   -0.30491  -0.30447  -0.30358  -0.29526  -0.29382
 Alpha  occ. eigenvalues --   -0.29216  -0.28555  -0.28316  -0.27834  -0.27596
 Alpha  occ. eigenvalues --   -0.27278  -0.26894  -0.26655  -0.26218  -0.25984
 Alpha  occ. eigenvalues --   -0.25595  -0.25021  -0.24445  -0.23579  -0.19657
 Alpha  occ. eigenvalues --   -0.19202
 Alpha virt. eigenvalues --   -0.10292  -0.07991  -0.04243  -0.02363  -0.00336
 Alpha virt. eigenvalues --    0.00096   0.00301   0.01686   0.03094   0.03259
 Alpha virt. eigenvalues --    0.03496   0.03943   0.04061   0.04201   0.04666
 Alpha virt. eigenvalues --    0.04791   0.05217   0.05389   0.05736   0.06040
 Alpha virt. eigenvalues --    0.06171   0.06262   0.06393   0.06771   0.06991
 Alpha virt. eigenvalues --    0.07074   0.07258   0.07444   0.07751   0.07869
 Alpha virt. eigenvalues --    0.07935   0.08424   0.08526   0.08855   0.08908
 Alpha virt. eigenvalues --    0.09007   0.09334   0.09392   0.09611   0.09728
 Alpha virt. eigenvalues --    0.09957   0.10094   0.10175   0.10548   0.10810
 Alpha virt. eigenvalues --    0.10887   0.11096   0.11152   0.11259   0.11359
 Alpha virt. eigenvalues --    0.11472   0.11674   0.11740   0.11930   0.12033
 Alpha virt. eigenvalues --    0.12055   0.12535   0.12732   0.12950   0.13012
 Alpha virt. eigenvalues --    0.13073   0.13223   0.13290   0.13700   0.13759
 Alpha virt. eigenvalues --    0.13870   0.14193   0.14201   0.14267   0.14728
 Alpha virt. eigenvalues --    0.14819   0.14987   0.15411   0.15608   0.15643
 Alpha virt. eigenvalues --    0.15681   0.16277   0.16559   0.16638   0.16843
 Alpha virt. eigenvalues --    0.16922   0.17084   0.17346   0.17646   0.17862
 Alpha virt. eigenvalues --    0.17977   0.18333   0.18576   0.18597   0.18858
 Alpha virt. eigenvalues --    0.19054   0.19162   0.19650   0.19848   0.19998
 Alpha virt. eigenvalues --    0.20047   0.20309   0.20332   0.20577   0.21094
 Alpha virt. eigenvalues --    0.21173   0.21349   0.21480   0.22022   0.22107
 Alpha virt. eigenvalues --    0.22152   0.22415   0.22512   0.22927   0.23297
 Alpha virt. eigenvalues --    0.23693   0.23818   0.24024   0.24459   0.24488
 Alpha virt. eigenvalues --    0.24513   0.24950   0.25450   0.25486   0.25683
 Alpha virt. eigenvalues --    0.26254   0.26613   0.26741   0.26891   0.27191
 Alpha virt. eigenvalues --    0.27557   0.28011   0.28301   0.28802   0.29205
 Alpha virt. eigenvalues --    0.29458   0.30161   0.30237   0.30784   0.31199
 Alpha virt. eigenvalues --    0.31869   0.32262   0.32620   0.33330   0.33468
 Alpha virt. eigenvalues --    0.33623   0.33815   0.34442   0.34867   0.35558
 Alpha virt. eigenvalues --    0.35944   0.36195   0.36452   0.37172   0.37342
 Alpha virt. eigenvalues --    0.37679   0.37798   0.38294   0.38695   0.38757
 Alpha virt. eigenvalues --    0.38964   0.39220   0.39569   0.39870   0.40047
 Alpha virt. eigenvalues --    0.40292   0.40479   0.40636   0.40753   0.41064
 Alpha virt. eigenvalues --    0.41234   0.41471   0.41679   0.41977   0.42072
 Alpha virt. eigenvalues --    0.42342   0.42451   0.42670   0.42846   0.43026
 Alpha virt. eigenvalues --    0.43112   0.43257   0.43569   0.43854   0.44176
 Alpha virt. eigenvalues --    0.44506   0.44523   0.44784   0.45030   0.45600
 Alpha virt. eigenvalues --    0.45774   0.46023   0.46181   0.46329   0.46556
 Alpha virt. eigenvalues --    0.46935   0.47121   0.47286   0.47729   0.47829
 Alpha virt. eigenvalues --    0.48123   0.48335   0.48617   0.48731   0.49149
 Alpha virt. eigenvalues --    0.49408   0.49645   0.49756   0.49900   0.50287
 Alpha virt. eigenvalues --    0.50460   0.50679   0.50772   0.50894   0.51061
 Alpha virt. eigenvalues --    0.51315   0.51634   0.51760   0.52128   0.52239
 Alpha virt. eigenvalues --    0.52513   0.52700   0.53370   0.53785   0.53927
 Alpha virt. eigenvalues --    0.54148   0.54615   0.54857   0.54917   0.55196
 Alpha virt. eigenvalues --    0.55354   0.55574   0.55815   0.56073   0.56275
 Alpha virt. eigenvalues --    0.56434   0.56649   0.56932   0.57174   0.57261
 Alpha virt. eigenvalues --    0.57369   0.57575   0.57662   0.58210   0.58279
 Alpha virt. eigenvalues --    0.58460   0.58611   0.58714   0.58880   0.59094
 Alpha virt. eigenvalues --    0.59171   0.59438   0.59571   0.59781   0.60065
 Alpha virt. eigenvalues --    0.60115   0.60344   0.60491   0.60740   0.60811
 Alpha virt. eigenvalues --    0.60950   0.61006   0.61182   0.61402   0.61422
 Alpha virt. eigenvalues --    0.61639   0.61684   0.62207   0.62524   0.62584
 Alpha virt. eigenvalues --    0.62671   0.62843   0.63077   0.63155   0.63260
 Alpha virt. eigenvalues --    0.63451   0.63641   0.63687   0.63873   0.63970
 Alpha virt. eigenvalues --    0.64079   0.64417   0.64485   0.64667   0.64750
 Alpha virt. eigenvalues --    0.64916   0.64998   0.65025   0.65146   0.65421
 Alpha virt. eigenvalues --    0.65557   0.65618   0.65720   0.66041   0.66188
 Alpha virt. eigenvalues --    0.66228   0.66298   0.66376   0.66435   0.66552
 Alpha virt. eigenvalues --    0.66797   0.66877   0.66969   0.67101   0.67296
 Alpha virt. eigenvalues --    0.67591   0.67655   0.67783   0.67889   0.68121
 Alpha virt. eigenvalues --    0.68260   0.68500   0.68657   0.68924   0.68955
 Alpha virt. eigenvalues --    0.69077   0.69149   0.69376   0.69495   0.69659
 Alpha virt. eigenvalues --    0.69828   0.69922   0.69983   0.70297   0.70501
 Alpha virt. eigenvalues --    0.70576   0.70646   0.70734   0.70984   0.71077
 Alpha virt. eigenvalues --    0.71204   0.71281   0.71420   0.71575   0.71658
 Alpha virt. eigenvalues --    0.71871   0.72010   0.72297   0.72340   0.72435
 Alpha virt. eigenvalues --    0.72590   0.72707   0.72822   0.73291   0.73415
 Alpha virt. eigenvalues --    0.73523   0.73806   0.73987   0.74143   0.74265
 Alpha virt. eigenvalues --    0.74426   0.74796   0.74946   0.75153   0.75700
 Alpha virt. eigenvalues --    0.75845   0.76126   0.76161   0.76338   0.76516
 Alpha virt. eigenvalues --    0.76841   0.76951   0.77076   0.77651   0.77676
 Alpha virt. eigenvalues --    0.77766   0.78096   0.78523   0.78633   0.78953
 Alpha virt. eigenvalues --    0.79110   0.79309   0.79490   0.79801   0.80092
 Alpha virt. eigenvalues --    0.80235   0.80533   0.80801   0.80937   0.81378
 Alpha virt. eigenvalues --    0.81626   0.82170   0.82352   0.82544   0.82853
 Alpha virt. eigenvalues --    0.83491   0.83642   0.84589   0.84931   0.85123
 Alpha virt. eigenvalues --    0.86048   0.86682   0.86920   0.87524   0.88032
 Alpha virt. eigenvalues --    0.88209   0.89296   0.89939   0.89948   0.90249
 Alpha virt. eigenvalues --    0.90947   0.91205   0.91634   0.91955   0.92212
 Alpha virt. eigenvalues --    0.93431   0.93785   0.94167   0.94995   0.95107
 Alpha virt. eigenvalues --    0.95563   0.96240   0.96647   0.97288   0.97524
 Alpha virt. eigenvalues --    0.97724   0.98447   0.98786   0.99272   0.99703
 Alpha virt. eigenvalues --    1.00087   1.00637   1.01183   1.01383   1.01780
 Alpha virt. eigenvalues --    1.01922   1.01976   1.02097   1.03195   1.03391
 Alpha virt. eigenvalues --    1.03824   1.04174   1.04354   1.05082   1.05562
 Alpha virt. eigenvalues --    1.06143   1.06426   1.06825   1.07346   1.07491
 Alpha virt. eigenvalues --    1.07555   1.08027   1.08978   1.09256   1.09388
 Alpha virt. eigenvalues --    1.09817   1.10048   1.10343   1.11625   1.12005
 Alpha virt. eigenvalues --    1.12173   1.12830   1.13032   1.13306   1.13796
 Alpha virt. eigenvalues --    1.14191   1.14994   1.16297   1.16749   1.17282
 Alpha virt. eigenvalues --    1.17403   1.17613   1.18206   1.18511   1.19318
 Alpha virt. eigenvalues --    1.19477   1.19559   1.20031   1.20321   1.20704
 Alpha virt. eigenvalues --    1.21035   1.21555   1.21662   1.22500   1.22816
 Alpha virt. eigenvalues --    1.23383   1.23481   1.24238   1.24770   1.24998
 Alpha virt. eigenvalues --    1.25695   1.25838   1.25920   1.26219   1.27452
 Alpha virt. eigenvalues --    1.27846   1.27882   1.28623   1.28950   1.29294
 Alpha virt. eigenvalues --    1.29873   1.30019   1.30175   1.30628   1.30903
 Alpha virt. eigenvalues --    1.31341   1.31952   1.32286   1.32651   1.32804
 Alpha virt. eigenvalues --    1.34128   1.34257   1.34664   1.35013   1.35443
 Alpha virt. eigenvalues --    1.35973   1.36095   1.36667   1.36686   1.37149
 Alpha virt. eigenvalues --    1.37550   1.37978   1.38335   1.38911   1.39261
 Alpha virt. eigenvalues --    1.39380   1.39731   1.40154   1.40273   1.40705
 Alpha virt. eigenvalues --    1.41356   1.41578   1.42548   1.42790   1.43486
 Alpha virt. eigenvalues --    1.43846   1.44361   1.45037   1.45196   1.45586
 Alpha virt. eigenvalues --    1.46066   1.46474   1.46552   1.46923   1.47100
 Alpha virt. eigenvalues --    1.47570   1.48021   1.48252   1.48933   1.49100
 Alpha virt. eigenvalues --    1.49303   1.49766   1.50219   1.50390   1.51260
 Alpha virt. eigenvalues --    1.52117   1.52138   1.52583   1.52614   1.52795
 Alpha virt. eigenvalues --    1.52881   1.53706   1.53715   1.53973   1.54242
 Alpha virt. eigenvalues --    1.54921   1.55228   1.55561   1.55872   1.56059
 Alpha virt. eigenvalues --    1.56416   1.56507   1.56917   1.57025   1.57511
 Alpha virt. eigenvalues --    1.57727   1.58015   1.58445   1.58546   1.58794
 Alpha virt. eigenvalues --    1.59394   1.59968   1.60222   1.60881   1.61470
 Alpha virt. eigenvalues --    1.61752   1.62022   1.62654   1.62880   1.62973
 Alpha virt. eigenvalues --    1.63485   1.63974   1.64137   1.64419   1.64812
 Alpha virt. eigenvalues --    1.64882   1.65023   1.65337   1.65749   1.66123
 Alpha virt. eigenvalues --    1.66234   1.66353   1.66785   1.67670   1.67759
 Alpha virt. eigenvalues --    1.67836   1.68210   1.68573   1.68836   1.68886
 Alpha virt. eigenvalues --    1.69296   1.69389   1.69905   1.69978   1.70371
 Alpha virt. eigenvalues --    1.70491   1.70790   1.71279   1.71595   1.71667
 Alpha virt. eigenvalues --    1.72078   1.72127   1.72480   1.72713   1.73074
 Alpha virt. eigenvalues --    1.73355   1.73474   1.73637   1.73801   1.74160
 Alpha virt. eigenvalues --    1.74428   1.74488   1.74538   1.74693   1.74800
 Alpha virt. eigenvalues --    1.74969   1.75004   1.75482   1.75634   1.75785
 Alpha virt. eigenvalues --    1.75993   1.76040   1.76532   1.76724   1.76807
 Alpha virt. eigenvalues --    1.76974   1.77127   1.77577   1.77639   1.77811
 Alpha virt. eigenvalues --    1.77941   1.78342   1.78815   1.79092   1.79270
 Alpha virt. eigenvalues --    1.79723   1.79893   1.79989   1.80091   1.80627
 Alpha virt. eigenvalues --    1.80943   1.80975   1.81171   1.81283   1.81521
 Alpha virt. eigenvalues --    1.81809   1.81965   1.82250   1.82499   1.82695
 Alpha virt. eigenvalues --    1.82903   1.83334   1.83645   1.83848   1.84120
 Alpha virt. eigenvalues --    1.84227   1.84291   1.84418   1.84675   1.85050
 Alpha virt. eigenvalues --    1.85219   1.85715   1.86006   1.86251   1.86284
 Alpha virt. eigenvalues --    1.86689   1.86946   1.87165   1.87494   1.87794
 Alpha virt. eigenvalues --    1.87963   1.88082   1.88164   1.88235   1.88899
 Alpha virt. eigenvalues --    1.89166   1.89255   1.89714   1.89951   1.90116
 Alpha virt. eigenvalues --    1.90409   1.90752   1.90915   1.91240   1.91462
 Alpha virt. eigenvalues --    1.91646   1.91768   1.91912   1.92033   1.92455
 Alpha virt. eigenvalues --    1.92505   1.92616   1.92704   1.92759   1.92917
 Alpha virt. eigenvalues --    1.93247   1.94030   1.94247   1.94502   1.94902
 Alpha virt. eigenvalues --    1.94982   1.95635   1.95768   1.96177   1.96457
 Alpha virt. eigenvalues --    1.96540   1.96788   1.96878   1.97060   1.97229
 Alpha virt. eigenvalues --    1.97793   1.98088   1.98390   1.98655   1.98728
 Alpha virt. eigenvalues --    1.99573   1.99667   1.99876   2.00105   2.00778
 Alpha virt. eigenvalues --    2.01134   2.01290   2.01398   2.01706   2.02128
 Alpha virt. eigenvalues --    2.02136   2.02822   2.03079   2.03262   2.03520
 Alpha virt. eigenvalues --    2.04354   2.04648   2.04709   2.04876   2.05618
 Alpha virt. eigenvalues --    2.05953   2.06042   2.06317   2.06421   2.06817
 Alpha virt. eigenvalues --    2.06924   2.07127   2.07671   2.07797   2.08299
 Alpha virt. eigenvalues --    2.08870   2.09200   2.09323   2.09494   2.09577
 Alpha virt. eigenvalues --    2.10139   2.10667   2.11330   2.11746   2.12021
 Alpha virt. eigenvalues --    2.12282   2.12347   2.12740   2.13155   2.14215
 Alpha virt. eigenvalues --    2.14420   2.14791   2.15174   2.15246   2.15610
 Alpha virt. eigenvalues --    2.16274   2.16572   2.17045   2.17285   2.17747
 Alpha virt. eigenvalues --    2.18067   2.18378   2.18443   2.18941   2.19259
 Alpha virt. eigenvalues --    2.19381   2.19738   2.20174   2.20433   2.20957
 Alpha virt. eigenvalues --    2.21161   2.21583   2.22127   2.22367   2.22430
 Alpha virt. eigenvalues --    2.23502   2.23977   2.24473   2.24615   2.25274
 Alpha virt. eigenvalues --    2.25503   2.25734   2.25885   2.26100   2.26240
 Alpha virt. eigenvalues --    2.26798   2.27478   2.27837   2.28079   2.28637
 Alpha virt. eigenvalues --    2.29338   2.29780   2.30091   2.30522   2.31242
 Alpha virt. eigenvalues --    2.31623   2.31663   2.31882   2.32158   2.32794
 Alpha virt. eigenvalues --    2.33475   2.33788   2.34108   2.34318   2.34615
 Alpha virt. eigenvalues --    2.34702   2.35470   2.35832   2.35900   2.36546
 Alpha virt. eigenvalues --    2.36646   2.36686   2.37118   2.37926   2.38482
 Alpha virt. eigenvalues --    2.38617   2.39120   2.39633   2.39858   2.40212
 Alpha virt. eigenvalues --    2.40554   2.40720   2.40958   2.41282   2.41472
 Alpha virt. eigenvalues --    2.41623   2.42376   2.42483   2.42759   2.43027
 Alpha virt. eigenvalues --    2.43304   2.44164   2.44848   2.45279   2.45790
 Alpha virt. eigenvalues --    2.46583   2.46767   2.47090   2.47271   2.47731
 Alpha virt. eigenvalues --    2.48044   2.48510   2.48915   2.49397   2.49743
 Alpha virt. eigenvalues --    2.49842   2.51035   2.51078   2.51888   2.52282
 Alpha virt. eigenvalues --    2.52841   2.53246   2.53563   2.53949   2.54206
 Alpha virt. eigenvalues --    2.54604   2.54887   2.55542   2.55671   2.56506
 Alpha virt. eigenvalues --    2.56516   2.57479   2.57759   2.58204   2.58825
 Alpha virt. eigenvalues --    2.59299   2.59531   2.60568   2.60739   2.60890
 Alpha virt. eigenvalues --    2.61524   2.61867   2.62534   2.62678   2.62832
 Alpha virt. eigenvalues --    2.63207   2.63800   2.64425   2.64671   2.64738
 Alpha virt. eigenvalues --    2.65158   2.65464   2.65989   2.66084   2.66640
 Alpha virt. eigenvalues --    2.66979   2.67012   2.67600   2.67720   2.68134
 Alpha virt. eigenvalues --    2.68875   2.69342   2.70291   2.71013   2.71112
 Alpha virt. eigenvalues --    2.71661   2.71893   2.72408   2.72523   2.72755
 Alpha virt. eigenvalues --    2.73419   2.73565   2.74285   2.76112   2.76925
 Alpha virt. eigenvalues --    2.77067   2.77368   2.77663   2.78432   2.78691
 Alpha virt. eigenvalues --    2.78759   2.79362   2.79486   2.79697   2.80847
 Alpha virt. eigenvalues --    2.81093   2.81891   2.81957   2.82431   2.82746
 Alpha virt. eigenvalues --    2.83205   2.83584   2.84112   2.84343   2.84445
 Alpha virt. eigenvalues --    2.84823   2.85235   2.85255   2.86017   2.86148
 Alpha virt. eigenvalues --    2.86918   2.87111   2.87700   2.88209   2.88244
 Alpha virt. eigenvalues --    2.88679   2.89086   2.89568   2.89833   2.90139
 Alpha virt. eigenvalues --    2.91379   2.91736   2.92067   2.92577   2.93230
 Alpha virt. eigenvalues --    2.93833   2.94137   2.94552   2.95161   2.95480
 Alpha virt. eigenvalues --    2.95705   2.96275   2.96405   2.96869   2.97143
 Alpha virt. eigenvalues --    2.97410   2.98479   2.98576   2.99273   3.00041
 Alpha virt. eigenvalues --    3.00227   3.00752   3.01056   3.01450   3.02317
 Alpha virt. eigenvalues --    3.02642   3.03513   3.03533   3.03907   3.05511
 Alpha virt. eigenvalues --    3.06455   3.07195   3.07435   3.07821   3.10183
 Alpha virt. eigenvalues --    3.11076   3.11498   3.11552   3.11865   3.13182
 Alpha virt. eigenvalues --    3.13637   3.14289   3.15261   3.15579   3.16007
 Alpha virt. eigenvalues --    3.16841   3.17225   3.17240   3.19409   3.19770
 Alpha virt. eigenvalues --    3.20311   3.20720   3.22742   3.22950   3.23831
 Alpha virt. eigenvalues --    3.25272   3.26897   3.30082   3.30653   3.31441
 Alpha virt. eigenvalues --    3.33428   3.40978   3.41914   3.43635   3.48116
 Alpha virt. eigenvalues --    3.49360   3.50685   3.52698   3.59776   3.61678
 Alpha virt. eigenvalues --    3.62775   3.65626   3.67618   3.69121   3.75789
          Condensed to atoms (all electrons):
 Mulliken charges:
               1
     1  C   -0.077074
     2  C   -0.090841
     3  C   -0.048213
     4  C   -0.072265
     5  N   -0.231427
     6  C   -0.006101
     7  C   -0.057893
     8  C   -0.129420
     9  C   -0.018414
    10  C    0.166589
    11  C   -0.071789
    12  C    0.192246
    13  C    0.080581
    14  O   -0.208401
    15  O   -0.269243
    16  N   -0.110801
    17  C    0.191442
    18  C   -0.177095
    19  C    0.068036
    20  C    0.129214
    21  C    0.222003
    22  C   -0.034673
    23  C   -0.022042
    24  N   -0.287392
    25  C    0.028131
    26  C   -0.116441
    27  C   -0.076846
    28  C    0.058725
    29  C    0.052479
    30  C   -0.036157
    31  C    0.030084
    32  N    0.000923
    33  C   -0.008202
    34  C   -0.038852
    35  C   -0.038521
    36  C    0.123270
    37  C    0.049318
    38  C    0.035762
    39  O   -0.181750
    40  C   -0.031566
    41  C    0.226848
    42  O   -0.267891
    43  O   -0.274245
    44  C    0.128409
    45  C    0.338884
    46  C   -0.121670
    47  C   -0.112117
    48  C   -0.012835
    49  C    0.033313
    50  C    0.043720
    51  C   -0.039241
    52  C   -0.131082
    53  C    0.098905
    54  C    0.023711
    55  C    0.146462
    56  C    0.010445
    57  C   -0.058225
    58  C    0.096932
    59  C    0.106910
    60  C   -0.124497
    61  C    0.056560
    62  C   -0.096638
    63  C    0.001287
    64  C   -0.028100
    65  H   -0.030212
    66  H   -0.069516
    67  H    0.028233
    68  H    0.040257
    69  H    0.039305
    70  H   -0.021004
    71  H    0.020729
    72  H   -0.004393
    73  H    0.026737
    74  H    0.034694
    75  H   -0.011977
    76  H   -0.013534
    77  H   -0.013012
    78  H   -0.022298
    79  H    0.013434
    80  H   -0.013003
    81  H    0.022780
    82  H    0.030984
    83  H    0.030611
    84  H    0.031513
    85  H   -0.000905
    86  H    0.025784
    87  H    0.017146
    88  H    0.036534
    89  H    0.010364
    90  H    0.034485
    91  H    0.003905
    92  H    0.035375
    93  H    0.028357
    94  H    0.078611
    95  H    0.040861
    96  H    0.061259
    97  H    0.042737
    98  H    0.060712
    99  H   -0.026921
   100  H   -0.010008
   101  H    0.041968
   102  H    0.046669
   103  H    0.025319
   104  H    0.024264
   105  H    0.005222
   106  H    0.003756
   107  H   -0.040192
   108  H    0.016073
   109  H    0.009936
   110  H   -0.000390
   111  H    0.030751
   112  H    0.010977
   113  H   -0.040445
   114  H   -0.048893
   115  H    0.000382
   116  H   -0.013948
   117  H   -0.041217
   118  H   -0.017206
   119  H   -0.000793
   120  H   -0.029131
   121  H   -0.039870
   122  H    0.010745
   123  H   -0.005105
   124  H   -0.031825
   125  H    0.013347
   126  H   -0.011930
   127  H    0.016411
   128  H    0.002401
   129  H   -0.008900
   130  H    0.010848
   131  H    0.030016
   132  H    0.017712
   133  H    0.014378
   134  H    0.011906
   135  H    0.043610
   136  H    0.007647
   137  H    0.198426
   138  H    0.145222
 Sum of Mulliken charges =   0.00000
 Mulliken charges with hydrogens summed into heavy atoms:
               1
     1  C   -0.077074
     2  C   -0.121053
     3  C   -0.117729
     4  C   -0.044031
     5  N   -0.231427
     6  C   -0.006101
     7  C   -0.017636
     8  C   -0.090115
     9  C   -0.018414
    10  C    0.161920
    11  C   -0.010357
    12  C    0.166736
    13  C    0.080581
    14  O   -0.208401
    15  O   -0.269243
    16  N    0.087625
    17  C    0.191442
    18  C   -0.177095
    19  C    0.068036
    20  C    0.129214
    21  C    0.200128
    22  C   -0.047676
    23  C    0.031723
    24  N   -0.287392
    25  C    0.028131
    26  C   -0.116441
    27  C   -0.076846
    28  C    0.058725
    29  C    0.113698
    30  C    0.006772
    31  C    0.111467
    32  N    0.146144
    33  C   -0.008202
    34  C   -0.038852
    35  C   -0.038521
    36  C    0.123270
    37  C    0.116955
    38  C    0.035762
    39  O   -0.181750
    40  C    0.047045
    41  C    0.226848
    42  O   -0.267891
    43  O   -0.274245
    44  C    0.273266
    45  C    0.372676
    46  C   -0.131678
    47  C   -0.112117
    48  C    0.101122
    49  C    0.062799
    50  C    0.007283
    51  C   -0.013232
    52  C   -0.131472
    53  C    0.100188
    54  C   -0.024801
    55  C    0.091297
    56  C   -0.007554
    57  C   -0.087356
    58  C    0.062702
    59  C    0.088432
    60  C   -0.120016
    61  C    0.050062
    62  C   -0.085790
    63  C    0.063394
    64  C    0.035063
 Electronic spatial extent (au):  <R**2>=         178061.2160
 Charge=              0.0000 electrons
 Dipole moment (field-independent basis, Debye):
    X=              2.0849    Y=              4.5276    Z=             -0.4861  Tot=              5.0082
 Quadrupole moment (field-independent basis, Debye-Ang):
   XX=           -358.9243   YY=           -380.4253   ZZ=           -399.7447
   XY=            -16.6963   XZ=              2.8430   YZ=              5.4921
 Traceless Quadrupole moment (field-independent basis, Debye-Ang):
   XX=             20.7738   YY=             -0.7272   ZZ=            -20.0466
   XY=            -16.6963   XZ=              2.8430   YZ=              5.4921
 Octapole moment (field-independent basis, Debye-Ang**2):
  XXX=          -1103.4833  YYY=            107.6891  ZZZ=             10.6964  XYY=           -125.9054
  XXY=            104.6996  XXZ=           -351.1821  XZZ=             32.5027  YZZ=            -19.4322
  YYZ=             54.9341  XYZ=            -54.8790
 Hexadecapole moment (field-independent basis, Debye-Ang**3):
 XXXX=        -233501.2132 YYYY=         -17669.1170 ZZZZ=          -4239.6455 XXXY=             12.9456
 XXXZ=          -1340.2951 YYYX=           -966.2349 YYYZ=            -12.8963 ZZZX=            -49.7835
 ZZZY=            -15.4927 XXYY=         -39830.1075 XXZZ=         -39359.5229 YYZZ=          -3645.2662
 XXYZ=            693.3153 YYXZ=            -95.3169 ZZXY=             63.0713
 N-N= 8.303027827372D+03 E-N=-2.294085274121D+04  KE= 2.701616638380D+03
 1\1\GINC-PEDRO-RYZENSSD\SP\RB3LYP TD-FC\SVP\C55H74N4O5\PADAWAN\24-Jul-
 2019\0\\# td=(NStates=1) B3LYP/SVP\\TD\\0,1\C,0,-5.0513128294,-1.85179
 14212,0.3741622921\C,0,-4.7534156606,2.7784843001,1.3673031162\C,0,-9.
 2559655063,3.4064014393,-0.1847569436\C,0,-9.8334213966,-1.4584166451,
 -0.8468872421\N,0,-5.1938985522,0.5191535383,0.7676352005\C,0,-4.48388
 70048,-0.7156282838,0.7789313365\C,0,-3.0814778343,-0.5903554702,1.187
 5637522\C,0,-3.0253575012,0.9621951118,1.72664177\C,0,-4.3655457477,1.
 4497447924,1.3217857756\C,0,-2.8824368122,0.9500025126,3.2790557682\C,
 0,-1.9445265234,-0.7041503767,-0.0080228567\C,0,-0.6583390461,-0.82080
 02966,0.3925517079\C,0,0.3808817496,-1.14587146,-0.6943609937\O,0,0.08
 23600036,-1.6259149581,-1.7148851\O,0,1.5700171988,-0.9026270358,-0.34
 93573784\N,0,-6.9726518598,2.7376910409,0.4700165109\C,0,-5.8866702424
 ,3.4058149998,0.898820739\C,0,-6.2112043061,4.7944558851,1.0001165045\
 C,0,-7.4647255694,5.0045692924,0.5178583132\C,0,-7.9445754034,3.727691
 2628,0.1800481602\C,0,-5.3006205786,5.9098965048,1.5403052965\C,0,-8.2
 331105938,6.303134325,0.4654350448\C,0,-9.2519230905,6.6377634982,-0.3
 823307119\N,0,-9.161174318,0.9041676498,-0.4641188803\C,0,-9.874781341
 ,2.0861011088,-0.5131605853\C,0,-11.2303769042,1.8484284038,-0.9397878
 127\C,0,-11.4354574962,0.5309604361,-1.2229172464\C,0,-10.1135235781,-
 0.0173116829,-0.8634595885\C,0,-12.2520937103,2.9946079624,-1.10767385
 77\C,0,-12.6628040199,-0.2928117607,-1.5783487946\C,0,-12.8528254132,-
 0.630246289,-3.0463028016\N,0,-7.5253614937,-1.2286645517,-0.119460474
 5\C,0,-8.5408556731,-2.029361663,-0.6015735198\C,0,-8.1435167907,-3.37
 86747497,-0.6227748448\C,0,-6.8021351226,-3.3139782261,-0.1787655005\C
 ,0,-6.444705574,-1.9541882374,0.1164567219\C,0,-8.9040531629,-4.524453
 1948,-1.0158005745\C,0,-5.6999769429,-4.2126563007,0.0441153571\O,0,-5
 .5750169919,-5.4254920793,0.1259553296\C,0,-4.4365212807,-3.2701577774
 ,0.4273918013\C,0,-3.9124050384,-3.7846625598,1.7062571514\O,0,-4.1747
 025438,-3.3398519191,2.8353015983\O,0,-3.0093496226,-4.7667316461,1.58
 27387018\C,0,-2.670931797,-5.5472641725,2.6747996196\C,0,2.6402261912,
 -1.3129151891,-1.2702210479\C,0,4.0233255794,-0.8295234547,-0.58300040
 01\C,0,4.9867809347,-0.0927882239,-1.0564396006\C,0,4.8195111468,0.598
 0705388,-2.4345505719\C,0,6.2724389891,0.0636241016,-0.3214910633\C,0,
 7.5115923996,-0.553161499,-1.0016870356\C,0,8.9065322543,-0.2732713122
 ,-0.2314714946\C,0,10.1093418599,-0.895173844,-0.9139787527\C,0,10.041
 1001486,-2.3662004229,-1.0872680117\C,0,11.3498588361,-0.3303673514,-0
 .0623467904\C,0,12.6696786421,-0.4919845157,-0.6828328064\C,0,13.70136
 87263,0.0161043842,0.3039424497\C,0,15.1826771795,-0.0680876903,-0.290
 8326412\C,0,15.5613057024,-1.5790067661,-0.4985286212\C,0,16.129093653
 7,0.7551700343,0.6370627286\C,0,17.5776326521,0.7838613038,-0.11513541
 49\C,0,18.5919001143,1.8005943883,0.6309539116\C,0,20.0407459762,1.747
 2725319,0.2183935669\C,0,20.2835790568,2.2934359197,-1.2758156594\C,0,
 20.9510076221,2.502831622,1.3108628745\H,0,-3.8471623765,3.3212833603,
 1.7297578567\H,0,-9.9915170048,4.1304802901,-0.2613374564\H,0,-10.4856
 028167,-2.3523323887,-1.3352429974\H,0,-2.9260549325,-1.3711363488,2.0
 318440601\H,0,-2.1045517697,1.5828685101,1.1275456668\H,0,-1.931333391
 3,0.6799443628,3.4465737614\H,0,-3.0629417861,1.9538804377,3.824472642
 5\H,0,-3.5082104179,0.2506702515,3.5807432505\H,0,-2.307826291,-1.7841
 231454,-0.5554199892\H,0,-2.1738507245,0.2755437454,-0.6786545597\H,0,
 -0.5220780276,0.1342572793,0.8405444157\H,0,-0.4461349528,-1.586360594
 7,1.0298604944\H,0,-4.502715088,6.1941837865,1.0024030401\H,0,-5.86389
 15956,6.8046953842,1.4146007547\H,0,-5.0239604828,5.7123292769,2.52566
 67007\H,0,-8.0310081102,7.0143513096,1.1860601599\H,0,-9.5711024621,5.
 8154117017,-1.0221137975\H,0,-10.0397887255,7.3773764651,-0.2481050334
 \H,0,-12.4764820102,3.4129404812,-0.0191197251\H,0,-11.9950333516,3.85
 23391913,-1.7722465415\H,0,-13.2293339562,2.6932471604,-1.4524295984\H
 ,0,-12.751517525,-1.1732662533,-0.7960643575\H,0,-13.6007470992,0.3714
 212968,-1.0900713659\H,0,-12.6987155015,0.4735541685,-3.4371710614\H,0
 ,-12.0280377718,-1.261703744,-3.3155605082\H,0,-13.785535307,-1.149944
 0892,-3.3998975321\H,0,-9.9185984086,-4.7320025201,-0.6711894209\H,0,-
 9.2619801769,-4.6316411101,-2.1274296412\H,0,-8.4544706218,-5.42198046
 5,-0.6285808136\H,0,-3.7489467461,-3.3435206423,-0.4890402526\H,0,-2.2
 549058836,-6.5017252682,1.9840617403\H,0,-1.776376084,-4.9655800419,3.
 2382582684\H,0,-3.5629293093,-5.988973989,3.1031971953\H,0,2.516565564
 1,-2.4931869622,-1.2575269197\H,0,2.4737622707,-0.747162297,-2.0802157
 888\H,0,4.1884916209,-1.1938316975,0.4458524882\H,0,4.7879706263,1.809
 4534543,-2.3791626361\H,0,5.7742940466,0.2493508976,-3.0179731989\H,0,
 3.8123113493,0.3739885857,-2.9205328784\H,0,6.4379818144,1.1685329783,
 0.007660575\H,0,6.1131893636,-0.5572656162,0.6894266501\H,0,7.48379516
 44,-1.6654232669,-1.2654273023\H,0,7.4439839409,-0.1216101404,-1.92064
 68937\H,0,8.9540008875,0.9060794492,-0.1032001717\H,0,8.7178448473,-0.
 6868328348,0.8709799104\H,0,10.0715698256,-0.3687843217,-2.0631808931\
 H,0,9.3399443106,-2.7650251957,-1.834852033\H,0,11.1458096121,-2.78278
 98788,-1.5136319681\H,0,10.0054555657,-2.7341651021,-0.1944177111\H,0,
 11.1010854059,0.5925080309,0.1890074859\H,0,11.2512710906,-1.011876424
 1,0.9906289931\H,0,12.7543701476,-1.5980913803,-0.970640277\H,0,12.634
 5916114,-0.1924293219,-1.6660981435\H,0,13.5484860035,0.9757272835,0.7
 724301539\H,0,13.5299672237,-0.6042468525,1.3554223881\H,0,15.28648099
 23,0.3082720333,-1.2571677301\H,0,14.8784433972,-2.0496875506,-1.07866
 71999\H,0,16.5202458981,-1.6470887455,-1.052791063\H,0,15.3987951583,-
 2.1360587385,0.4258918606\H,0,15.9619264658,1.7467612464,0.7259430533\
 H,0,16.1181064674,0.3276433876,1.7171351361\H,0,18.2497161933,-0.38119
 23297,-0.0158314509\H,0,17.5099755832,0.746856574,-1.1992483573\H,0,17
 .9549701865,2.744430839,0.4413495247\H,0,18.5357158258,1.6040862181,1.
 6815953095\H,0,20.294415774,0.6293608971,0.2379749537\H,0,19.947022058
 8,3.2651347836,-1.5304949519\H,0,21.3943666804,1.949252995,-1.57542064
 87\H,0,19.7742924022,1.4042460463,-1.830425224\H,0,20.5527005066,2.242
 0856766,2.4701480514\H,0,22.0842012773,2.1374737748,0.9237865358\H,0,2
 0.7832879582,3.5450877084,1.4463233702\H,0,-7.1978916223,1.693638237,0
 .2385256987\H,0,-7.6695285013,-0.2069108671,-0.0616762952\\Version=ES6
 4L-G09RevD.01\State=1-A\HF=-2732.9760066\RMSD=6.611e-09\PG=C01 [X(C55H
 74N4O5)]\\@


 MEMORIES ARE LIKE AN ENGLISH GRAMMER LESSON -
 PRESENT TENSE, AND PAST PERFECT.
 Job cpu time:       0 days  5 hours 10 minutes 49.7 seconds.
 File lengths (MBytes):  RWF=   1953 Int=      0 D2E=      0 Chk=    148 Scr=      1
 Normal termination of Gaussian 09 at Wed Jul 24 04:25:20 2019.
