 Entering Gaussian System, Link 0=g16
 Input=Geometria-204-.com
 Output=Geometria-204-.log
 Initial command:
 /usr/local/g09/l1.exe "/home/padawan/israel-mol/pheophytin/spectra/abs/Gau-92167.inp" -scrdir="/home/padawan/israel-mol/pheophytin/spectra/abs/"
 Entering Link 1 = /usr/local/g09/l1.exe PID=     92169.
  
 Copyright (c) 1988,1990,1992,1993,1995,1998,2003,2009,2013,
            Gaussian, Inc.  All Rights Reserved.
  
 This is part of the Gaussian(R) 09 program.  It is based on
 the Gaussian(R) 03 system (copyright 2003, Gaussian, Inc.),
 the Gaussian(R) 98 system (copyright 1998, Gaussian, Inc.),
 the Gaussian(R) 94 system (copyright 1995, Gaussian, Inc.),
 the Gaussian 92(TM) system (copyright 1992, Gaussian, Inc.),
 the Gaussian 90(TM) system (copyright 1990, Gaussian, Inc.),
 the Gaussian 88(TM) system (copyright 1988, Gaussian, Inc.),
 the Gaussian 86(TM) system (copyright 1986, Carnegie Mellon
 University), and the Gaussian 82(TM) system (copyright 1983,
 Carnegie Mellon University). Gaussian is a federally registered
 trademark of Gaussian, Inc.
  
 This software contains proprietary and confidential information,
 including trade secrets, belonging to Gaussian, Inc.
  
 This software is provided under written license and may be
 used, copied, transmitted, or stored only in accord with that
 written license.
  
 The following legend is applicable only to US Government
 contracts under FAR:
  
                    RESTRICTED RIGHTS LEGEND
  
 Use, reproduction and disclosure by the US Government is
 subject to restrictions as set forth in subparagraphs (a)
 and (c) of the Commercial Computer Software - Restricted
 Rights clause in FAR 52.227-19.
  
 Gaussian, Inc.
 340 Quinnipiac St., Bldg. 40, Wallingford CT 06492
  
  
 ---------------------------------------------------------------
 Warning -- This program may not be used in any manner that
 competes with the business of Gaussian, Inc. or will provide
 assistance to any competitor of Gaussian, Inc.  The licensee
 of this program is prohibited from giving any competitor of
 Gaussian, Inc. access to this program.  By using this program,
 the user acknowledges that Gaussian, Inc. is engaged in the
 business of creating and licensing software in the field of
 computational chemistry and represents and warrants to the
 licensee that it is not a competitor of Gaussian, Inc. and that
 it will not use this program in any manner prohibited above.
 ---------------------------------------------------------------
  

 Cite this work as:
 Gaussian 09, Revision D.01,
 M. J. Frisch, G. W. Trucks, H. B. Schlegel, G. E. Scuseria, 
 M. A. Robb, J. R. Cheeseman, G. Scalmani, V. Barone, B. Mennucci, 
 G. A. Petersson, H. Nakatsuji, M. Caricato, X. Li, H. P. Hratchian, 
 A. F. Izmaylov, J. Bloino, G. Zheng, J. L. Sonnenberg, M. Hada, 
 M. Ehara, K. Toyota, R. Fukuda, J. Hasegawa, M. Ishida, T. Nakajima, 
 Y. Honda, O. Kitao, H. Nakai, T. Vreven, J. A. Montgomery, Jr., 
 J. E. Peralta, F. Ogliaro, M. Bearpark, J. J. Heyd, E. Brothers, 
 K. N. Kudin, V. N. Staroverov, T. Keith, R. Kobayashi, J. Normand, 
 K. Raghavachari, A. Rendell, J. C. Burant, S. S. Iyengar, J. Tomasi, 
 M. Cossi, N. Rega, J. M. Millam, M. Klene, J. E. Knox, J. B. Cross, 
 V. Bakken, C. Adamo, J. Jaramillo, R. Gomperts, R. E. Stratmann, 
 O. Yazyev, A. J. Austin, R. Cammi, C. Pomelli, J. W. Ochterski, 
 R. L. Martin, K. Morokuma, V. G. Zakrzewski, G. A. Voth, 
 P. Salvador, J. J. Dannenberg, S. Dapprich, A. D. Daniels, 
 O. Farkas, J. B. Foresman, J. V. Ortiz, J. Cioslowski, 
 and D. J. Fox, Gaussian, Inc., Wallingford CT, 2013.
 
 ******************************************
 Gaussian 09:  ES64L-G09RevD.01 24-Apr-2013
                 1-Aug-2019 
 ******************************************
 %nproc=3
 Will use up to    3 processors via shared memory.
 %Mem=2GB
 --------------------------
 # td=(NStates=1) B3LYP/SVP
 --------------------------
 1/38=1/1;
 2/12=2,17=6,18=5,40=1/2;
 3/5=18,7=101,11=9,16=1,25=1,30=1,74=-5/1,2,8,3;
 4//1;
 5/5=2,38=5/2;
 8/6=1,10=1,108=1/1;
 9/41=1,42=1,70=2/14;
 6/7=2,8=2,9=2,10=2/1;
 99/5=1,9=1/99;
 --
 TD
 --
 Symbolic Z-matrix:
 Charge =  0 Multiplicity = 1
 6                    -5.07114  -1.99896   0.36913 
 6                    -4.87071   2.75298   1.31852 
 6                    -9.47396   3.16976  -0.16206 
 6                    -9.83865  -1.62917  -0.95733 
 7                    -5.22259   0.4486    0.72977 
 6                    -4.53445  -0.70005   0.75679 
 6                    -3.07339  -0.49      1.33218 
 6                    -3.17129   0.98559   1.93327 
 6                    -4.46022   1.38004   1.25879 
 6                    -3.0208    1.15124   3.43994 
 6                    -2.09069  -0.75296   0.13671 
 6                    -0.63687  -0.51163   0.62415 
 6                     0.37676  -0.64507  -0.55182 
 8                     0.10058  -0.97845  -1.72303 
 8                     1.6544   -0.43928  -0.05826 
 7                    -7.12524   2.64734   0.58373 
 6                    -6.07414   3.36744   1.07143 
 6                    -6.39268   4.75685   1.08161 
 6                    -7.62978   4.92892   0.5308 
 6                    -8.18908   3.52517   0.24174 
 6                    -5.42538   5.8508    1.51881 
 6                    -8.38376   6.26178   0.27857 
 6                    -9.2577    6.558    -0.66372 
 7                    -9.26207   0.71808  -0.48744 
 6                    -9.91853   1.92175  -0.48054 
 6                    -11.24728   1.70175  -0.96381 
 6                    -11.42596   0.31916  -1.17832 
 6                    -10.20536  -0.31048  -0.9226 
 6                    -12.4213   2.72955  -1.10049 
 6                    -12.60651  -0.3396   -1.67946 
 6                    -12.42408  -0.67731  -3.17925 
 7                    -7.44704  -1.33206  -0.31393 
 6                    -8.56941  -2.11695  -0.73436 
 6                    -8.12313  -3.49882  -0.73465 
 6                    -6.70357  -3.41458  -0.38139 
 6                    -6.39314  -2.07225  -0.03165 
 6                    -8.90249  -4.7771   -1.00837 
 6                    -5.5944   -4.30723  -0.06594 
 8                    -5.46315  -5.48351  -0.06148 
 6                    -4.4532   -3.31004   0.34356 
 6                    -3.88378  -3.72124   1.76665 
 8                    -4.0635   -3.17849   2.84317 
 8                    -3.03991  -4.74618   1.59101 
 6                    -2.51602  -5.31122   2.82561 
 6                     2.65518  -0.63861  -1.03697 
 6                     3.99507  -0.34107  -0.42227 
 6                     5.07448   0.3415   -0.90197 
 6                     4.88347   1.0408   -2.22511 
 6                     6.35526   0.57083  -0.0475 
 6                     7.49372  -0.23747  -0.79877 
 6                     8.82476  -0.18027  -0.07429 
 6                     10.07486  -0.71913  -0.76527 
 6                     9.88146  -2.27966  -1.00654 
 6                     11.29313  -0.30879   0.02993 
 6                     12.67485  -0.60408  -0.673 
 6                     13.87739  -0.06673   0.07619 
 6                     15.22531  -0.28617  -0.59384 
 6                     15.53991  -1.84841  -0.59996 
 6                     16.3008   0.51893   0.21209 
 6                     17.69864   0.54429  -0.31928 
 6                     18.67654   1.35143   0.44393 
 6                     20.22223   1.24538   0.21702 
 6                     20.4296   1.90783  -1.20846 
 6                     21.06121   2.12422   1.21693 
 1                    -4.13598   3.47673   1.78927 
 1                    -9.98623   4.00567  -0.28196 
 1                    -10.57508  -2.33189  -1.31791 
 1                    -2.82505  -1.03162   2.25141 
 1                    -2.4761    1.61667   1.47581 
 1                    -1.97676   0.9705    3.7666 
 1                    -3.22326   2.14844   3.69104 
 1                    -3.77842   0.43701   3.63983 
 1                    -2.15681  -1.69088  -0.12462 
 1                    -2.47991  -0.13135  -0.6248 
 1                    -0.51957   0.48918   0.91975 
 1                    -0.19047  -1.23598   1.52827 
 1                    -4.58538   5.94139   0.82718 
 1                    -5.87522   6.86181   1.53692 
 1                    -5.08555   5.73145   2.52504 
 1                    -7.93504   7.06457   0.96069 
 1                    -9.62982   5.84723  -1.31864 
 1                    -9.71905   7.48966  -0.69714 
 1                    -12.40824   3.25358  -0.05199 
 1                    -12.20912   3.40068  -1.84319 
 1                    -13.23555   2.41271  -1.50991 
 1                    -12.84324  -1.24852  -1.07019 
 1                    -13.36979   0.28798  -1.54046 
 1                    -12.44479   0.23529  -3.78335 
 1                    -11.40013  -1.11934  -3.3216 
 1                    -13.30066  -1.37279  -3.59889 
 1                    -10.08595  -4.67064  -0.96105 
 1                    -8.80253  -5.02341  -2.3753 
 1                    -8.3898   -5.64425  -0.19069 
 1                    -3.55493  -3.47086  -0.33055 
 1                    -2.16329  -6.23445   2.46684 
 1                    -2.08862  -4.35349   3.43703 
 1                    -3.41247  -5.37034   3.50664 
 1                     2.72104  -1.5025   -1.46759 
 1                     2.4675   -0.01631  -1.89861 
 1                     4.00683  -0.52435   0.62987 
 1                     5.54343   1.93886  -2.30691 
 1                     5.39516   0.45052  -3.16984 
 1                     3.86853   1.49822  -2.71191 
 1                     6.68393   1.62713  -0.02646 
 1                     6.18952   0.14803   0.99555 
 1                     7.14572  -1.27056  -1.27437 
 1                     7.52331   0.24657  -1.87219 
 1                     9.10123   0.80828   0.04763 
 1                     8.75508  -0.82531   0.87312 
 1                     10.11034  -0.29739  -1.77576 
 1                     9.09349  -2.35006  -1.62099 
 1                     10.58152  -2.88456  -1.43881 
 1                     9.47066  -2.81897  -0.15869 
 1                     11.35711   0.64747   0.36627 
 1                     11.34278  -0.92143   1.0503 
 1                     12.68444  -1.83243  -0.94073 
 1                     12.4812  -0.0786   -1.73643 
 1                     13.68132   0.97349   0.29723 
 1                     13.94417  -0.46536   1.15546 
 1                     15.22962   0.11489  -1.54215 
 1                     14.86212  -2.41955  -0.99917 
 1                     16.49429  -1.90365  -1.0971 
 1                     15.41407  -2.26715   0.46535 
 1                     15.83926   1.7195    0.29876 
 1                     16.37887   0.05166   1.21914 
 1                     18.29241  -0.39656  -0.30413 
 1                     17.86446   0.80614  -1.40023 
 1                     18.40826   2.45781   0.36064 
 1                     18.66634   1.03164   1.60516 
 1                     20.41235  -0.10897   0.24243 
 1                     20.42488   3.02868  -1.18378 
 1                     21.53748   1.67207  -1.32789 
 1                     19.98164   1.48677  -2.16589 
 1                     21.07617   1.57335   2.25401 
 1                     22.20247   2.02396   0.85625 
 1                     20.723    3.17823   1.06802 
 1                    -7.31342   1.58282   0.51435 
 1                    -7.71994  -0.32287  -0.01468 
 
 Stoichiometry    C55H74N4O5
 Framework group  C1[X(C55H74N4O5)]
 Deg. of freedom   408
 Full point group                 C1      NOp   1
 Largest Abelian subgroup         C1      NOp   1
 Largest concise Abelian subgroup C1      NOp   1
                         Standard orientation:                         
 ---------------------------------------------------------------------
 Center     Atomic      Atomic             Coordinates (Angstroms)
 Number     Number       Type             X           Y           Z
 ---------------------------------------------------------------------
      1          6           0       -5.064791   -2.009581    0.381997
      2          6           0       -4.880216    2.751087    1.289961
      3          6           0       -9.483968    3.140041   -0.196618
      4          6           0       -9.832733   -1.666804   -0.950140
      5          7           0       -5.224335    0.440524    0.721173
      6          6           0       -4.532507   -0.705609    0.758580
      7          6           0       -3.072446   -0.485821    1.332879
      8          6           0       -3.175445    0.994629    1.921015
      9          6           0       -4.465262    1.379008    1.242438
     10          6           0       -3.026321    1.173916    3.426259
     11          6           0       -2.088246   -0.756030    0.140269
     12          6           0       -0.635478   -0.505760    0.626349
     13          6           0        0.379225   -0.646186   -0.547881
     14          8           0        0.104770   -0.990667   -1.716279
     15          8           0        1.655916   -0.431966   -0.055469
     16          7           0       -7.133987    2.631750    0.554939
     17          6           0       -6.085488    3.359473    1.036884
     18          6           0       -6.408519    4.747883    1.034772
     19          6           0       -7.645863    4.911138    0.481827
     20          6           0       -8.200468    3.503117    0.204746
     21          6           0       -5.444997    5.848727    1.462909
     22          6           0       -8.403995    6.239300    0.217570
     23          6           0       -9.278374    6.524452   -0.727724
     24          7           0       -9.263994    0.686313   -0.500464
     25          6           0       -9.924330    1.887875   -0.504414
     26          6           0      -11.252099    1.659370   -0.986445
     27          6           0      -11.426195    0.274385   -1.188970
     28          6           0      -10.203717   -0.349050   -0.927115
     29          6           0      -12.429356    2.682135   -1.132712
     30          6           0      -12.604338   -0.392533   -1.684954
     31          6           0      -12.419994   -0.742736   -3.181640
     32          7           0       -7.442452   -1.356361   -0.308107
     33          6           0       -8.562045   -2.148510   -0.722253
     34          6           0       -8.111314   -3.528877   -0.710242
     35          6           0       -6.692219   -3.436970   -0.356987
     36          6           0       -6.386321   -2.090643   -0.018820
     37          6           0       -8.886391   -4.812012   -0.973203
     38          6           0       -5.580349   -4.323240   -0.033173
     39          8           0       -5.445305   -5.499008   -0.018382
     40          6           0       -4.442607   -3.318836    0.368202
     41          6           0       -3.872648   -3.715749    1.795126
     42          8           0       -4.054713   -3.164205    2.866771
     43          8           0       -3.025378   -4.739453    1.628881
     44          6           0       -2.500343   -5.291999    2.868647
     45          6           0        2.657877   -0.636593   -1.031875
     46          6           0        3.996465   -0.329376   -0.419101
     47          6           0        5.073928    0.352465   -0.904176
     48          6           0        4.881391    1.039576   -2.233467
     49          6           0        6.353486    0.593394   -0.051070
     50          6           0        7.494967   -0.217754   -0.794649
     51          6           0        8.825419   -0.149932   -0.069998
     52          6           0       10.077627   -0.690755   -0.755599
     53          6           0        9.889404   -2.253954   -0.983331
     54          6           0       11.294132   -0.269552    0.036633
     55          6           0       12.677182   -0.566500   -0.662972
     56          6           0       13.877564   -0.018754    0.082130
     57          6           0       15.226561   -0.239673   -0.585255
     58          6           0       15.546207   -1.800886   -0.577564
     59          6           0       16.299001    0.575900    0.214182
     60          6           0       17.697049    0.601139   -0.316652
     61          6           0       18.671911    1.418070    0.439985
     62          6           0       20.218066    1.315042    0.214828
     63          6           0       20.424083    1.965685   -1.216275
     64          6           0       21.053647    2.205286    1.207466
     65          1           0       -4.148090    3.481287    1.754764
     66          1           0       -9.998866    3.973212   -0.324075
     67          1           0      -10.566692   -2.375018   -1.304960
     68          1           0       -2.822875   -1.018597    2.256931
     69          1           0       -2.482040    1.623939    1.458424
     70          1           0       -1.981881    0.999411    3.755026
     71          1           0       -3.232135    2.172608    3.668534
     72          1           0       -3.781739    0.459009    3.631978
     73          1           0       -2.151194   -1.696413   -0.112894
     74          1           0       -2.479050   -0.142354   -0.626844
     75          1           0       -0.521573    0.497969    0.913258
     76          1           0       -0.187244   -1.220739    1.536988
     77          1           0       -4.604912    5.935988    0.770947
     78          1           0       -5.898108    6.858398    1.471954
     79          1           0       -5.105334    5.739265    2.470314
     80          1           0       -7.958248    7.049456    0.892891
     81          1           0       -9.647831    5.806802   -1.376612
     82          1           0       -9.742703    7.454290   -0.769520
     83          1           0      -12.418562    3.215341   -0.088821
     84          1           0      -12.218937    3.347441   -1.881133
     85          1           0      -13.242357    2.359101   -1.539769
     86          1           0      -12.838468   -1.296867   -1.067898
     87          1           0      -13.369722    0.233766   -1.551837
     88          1           0      -12.443313    0.164485   -3.793696
     89          1           0      -11.394547   -1.182678   -3.319593
     90          1           0      -13.294087   -1.444678   -3.595652
     91          1           0      -10.070206   -4.708966   -0.927433
     92          1           0       -8.784882   -5.069923   -2.337882
     93          1           0       -8.371358   -5.670333   -0.147711
     94          1           0       -3.543444   -3.482632   -0.304015
     95          1           0       -2.144437   -6.217179    2.518132
     96          1           0       -2.076375   -4.327589    3.471899
     97          1           0       -3.396981   -5.348070    3.549690
     98          1           0        2.726761   -1.503992   -1.454902
     99          1           0        2.468669   -0.022450   -1.899014
    100          1           0        4.008236   -0.503425    0.634610
    101          1           0        5.538493    1.939008   -2.322755
    102          1           0        5.395504    0.442725   -3.172738
    103          1           0        3.865248    1.489443   -2.724777
    104          1           0        6.678733    1.650888   -0.039080
    105          1           0        6.188535    0.179182    0.995546
    106          1           0        7.150567   -1.256080   -1.261395
    107          1           0        7.523589    0.256986   -1.872244
    108          1           0        9.098621    0.840535    0.043432
    109          1           0        8.757292   -0.786893    0.882968
    110          1           0       10.112310   -0.277740   -1.769712
    111          1           0        9.102001   -2.332264   -1.597557
    112          1           0       10.591651   -2.860337   -1.409941
    113          1           0        9.479876   -2.787169   -0.131024
    114          1           0       11.354837    0.689808    0.364637
    115          1           0       11.345192   -0.873099    1.062342
    116          1           0       12.690888   -1.797112   -0.919957
    117          1           0       12.482422   -0.050954   -1.731044
    118          1           0       13.678019    1.022718    0.293979
    119          1           0       13.945037   -0.407728    1.164877
    120          1           0       15.230094    0.153107   -1.537021
    121          1           0       14.870482   -2.377678   -0.972128
    122          1           0       16.501034   -1.857379   -1.073699
    123          1           0       15.421123   -2.210713    0.491290
    124          1           0       15.833544    1.775685    0.290124
    125          1           0       16.378024    0.117693    1.225309
    126          1           0       18.293840   -0.337620   -0.292981
    127          1           0       17.862616    0.854083   -1.399763
    128          1           0       18.400104    2.522810    0.346903
    129          1           0       18.662102    1.108397    1.603960
    130          1           0       20.412535   -0.038418    0.252154
    131          1           0       20.415729    3.086690   -1.201387
    132          1           0       21.532782    1.732471   -1.333058
    133          1           0       19.978013    1.534844   -2.170227
    134          1           0       21.069816    1.663537    2.249317
    135          1           0       22.195428    2.105570    0.848270
    136          1           0       20.712122    3.256855    1.049173
    137          1           0       -7.318697    1.566057    0.494763
    138          1           0       -7.718773   -0.345482   -0.017825
 ---------------------------------------------------------------------
 Rotational constants (GHZ):      0.0654777      0.0061230      0.0057715
 Standard basis: SVP (5D, 7F)
 There are  1330 symmetry adapted cartesian basis functions of A   symmetry.
 There are  1266 symmetry adapted basis functions of A   symmetry.
  1266 basis functions,  2118 primitive gaussians,  1330 cartesian basis functions
   236 alpha electrons      236 beta electrons
       nuclear repulsion energy      8296.8726801642 Hartrees.
 NAtoms=  138 NActive=  138 NUniq=  138 SFac= 1.00D+00 NAtFMM=   60 NAOKFM=T Big=T
 Integral buffers will be    131072 words long.
 Regular integral format.
 Two-electron integral symmetry is turned on.
 One-electron integrals computed using PRISM.
 NBasis=  1266 RedAO= T EigKep=  2.79D-04  NBF=  1266
 NBsUse=  1266 1.00D-06 EigRej= -1.00D+00 NBFU=  1266
 ExpMin= 1.22D-01 ExpMax= 2.27D+03 ExpMxC= 3.41D+02 IAcc=1 IRadAn=         1 AccDes= 0.00D+00
 Harris functional with IExCor=  402 and IRadAn=       1 diagonalized for initial guess.
 HarFok:  IExCor=  402 AccDes= 0.00D+00 IRadAn=         1 IDoV= 1 UseB2=F ITyADJ=14
 ICtDFT=  3500011 ScaDFX=  1.000000  1.000000  1.000000  1.000000
 FoFCou: FMM=F IPFlag=           0 FMFlag=      100000 FMFlg1=        2001
         NFxFlg=           0 DoJE=T BraDBF=F KetDBF=T FulRan=T
         wScrn=  0.000000 ICntrl=     500 IOpCl=  0 I1Cent=   200000004 NGrid=           0
         NMat0=    1 NMatS0=      1 NMatT0=    0 NMatD0=    1 NMtDS0=    0 NMtDT0=    0
 Petite list used in FoFCou.
 Requested convergence on RMS density matrix=1.00D-08 within 128 cycles.
 Requested convergence on MAX density matrix=1.00D-06.
 Requested convergence on             energy=1.00D-06.
 No special actions if energy rises.
 Integral accuracy reduced to 1.0D-05 until final iterations.
 Initial convergence to 1.0D-05 achieved.  Increase integral accuracy.
 SCF Done:  E(RB3LYP) =  -2733.04043519     A.U. after   18 cycles
            NFock= 18  Conv=0.32D-08     -V/T= 2.0116
 DoSCS=F DFT=T ScalE2(SS,OS)=  1.000000  1.000000
 ExpMin= 1.22D-01 ExpMax= 2.27D+03 ExpMxC= 3.41D+02 IAcc=3 IRadAn=         5 AccDes= 0.00D+00
 HarFok:  IExCor=  205 AccDes= 0.00D+00 IRadAn=         5 IDoV=-2 UseB2=F ITyADJ=14
 ICtDFT= 12500011 ScaDFX=  1.000000  1.000000  1.000000  1.000000
 Range of M.O.s used for correlation:    65  1266
 NBasis=  1266 NAE=   236 NBE=   236 NFC=    64 NFV=     0
 NROrb=   1202 NOA=   172 NOB=   172 NVA=  1030 NVB=  1030

 **** Warning!!: The smallest alpha delta epsilon is  0.91120140D-01

 Would need an additional        965744300000 words for in-memory AO integral storage.
 Orbital symmetries:
       Occupied  (A) (A) (A) (A) (A) (A) (A) (A) (A) (A) (A) (A)
                 (A) (A) (A) (A) (A) (A) (A) (A) (A) (A) (A) (A)
                 (A) (A) (A) (A) (A) (A) (A) (A) (A) (A) (A) (A)
                 (A) (A) (A) (A) (A) (A) (A) (A) (A) (A) (A) (A)
                 (A) (A) (A) (A) (A) (A) (A) (A) (A) (A) (A) (A)
                 (A) (A) (A) (A) (A) (A) (A) (A) (A) (A) (A) (A)
                 (A) (A) (A) (A) (A) (A) (A) (A) (A) (A) (A) (A)
                 (A) (A) (A) (A) (A) (A) (A) (A) (A) (A) (A) (A)
                 (A) (A) (A) (A) (A) (A) (A) (A) (A) (A) (A) (A)
                 (A) (A) (A) (A) (A) (A) (A) (A) (A) (A) (A) (A)
                 (A) (A) (A) (A) (A) (A) (A) (A) (A) (A) (A) (A)
                 (A) (A) (A) (A) (A) (A) (A) (A) (A) (A) (A) (A)
                 (A) (A) (A) (A) (A) (A) (A) (A) (A) (A) (A) (A)
                 (A) (A) (A) (A) (A) (A) (A) (A) (A) (A) (A) (A)
                 (A) (A) (A) (A) (A) (A) (A) (A) (A) (A) (A) (A)
                 (A) (A) (A) (A) (A) (A) (A) (A) (A) (A) (A) (A)
                 (A) (A) (A) (A) (A) (A) (A) (A) (A) (A) (A) (A)
                 (A) (A) (A) (A) (A) (A) (A) (A) (A) (A) (A) (A)
                 (A) (A) (A) (A) (A) (A) (A) (A) (A) (A) (A) (A)
                 (A) (A) (A) (A) (A) (A) (A) (A)
       Virtual   (A) (A) (A) (A) (A) (A) (A) (A) (A) (A) (A) (A)
                 (A) (A) (A) (A) (A) (A) (A) (A) (A) (A) (A) (A)
                 (A) (A) (A) (A) (A) (A) (A) (A) (A) (A) (A) (A)
                 (A) (A) (A) (A) (A) (A) (A) (A) (A) (A) (A) (A)
                 (A) (A) (A) (A) (A) (A) (A) (A) (A) (A) (A) (A)
                 (A) (A) (A) (A) (A) (A) (A) (A) (A) (A) (A) (A)
                 (A) (A) (A) (A) (A) (A) (A) (A) (A) (A) (A) (A)
                 (A) (A) (A) (A) (A) (A) (A) (A) (A) (A) (A) (A)
                 (A) (A) (A) (A) (A) (A) (A) (A) (A) (A) (A) (A)
                 (A) (A) (A) (A) (A) (A) (A) (A) (A) (A) (A) (A)
                 (A) (A) (A) (A) (A) (A) (A) (A) (A) (A) (A) (A)
                 (A) (A) (A) (A) (A) (A) (A) (A) (A) (A) (A) (A)
                 (A) (A) (A) (A) (A) (A) (A) (A) (A) (A) (A) (A)
                 (A) (A) (A) (A) (A) (A) (A) (A) (A) (A) (A) (A)
                 (A) (A) (A) (A) (A) (A) (A) (A) (A) (A) (A) (A)
                 (A) (A) (A) (A) (A) (A) (A) (A) (A) (A) (A) (A)
                 (A) (A) (A) (A) (A) (A) (A) (A) (A) (A) (A) (A)
                 (A) (A) (A) (A) (A) (A) (A) (A) (A) (A) (A) (A)
                 (A) (A) (A) (A) (A) (A) (A) (A) (A) (A) (A) (A)
                 (A) (A) (A) (A) (A) (A) (A) (A) (A) (A) (A) (A)
                 (A) (A) (A) (A) (A) (A) (A) (A) (A) (A) (A) (A)
                 (A) (A) (A) (A) (A) (A) (A) (A) (A) (A) (A) (A)
                 (A) (A) (A) (A) (A) (A) (A) (A) (A) (A) (A) (A)
                 (A) (A) (A) (A) (A) (A) (A) (A) (A) (A) (A) (A)
                 (A) (A) (A) (A) (A) (A) (A) (A) (A) (A) (A) (A)
                 (A) (A) (A) (A) (A) (A) (A) (A) (A) (A) (A) (A)
                 (A) (A) (A) (A) (A) (A) (A) (A) (A) (A) (A) (A)
                 (A) (A) (A) (A) (A) (A) (A) (A) (A) (A) (A) (A)
                 (A) (A) (A) (A) (A) (A) (A) (A) (A) (A) (A) (A)
                 (A) (A) (A) (A) (A) (A) (A) (A) (A) (A) (A) (A)
                 (A) (A) (A) (A) (A) (A) (A) (A) (A) (A) (A) (A)
                 (A) (A) (A) (A) (A) (A) (A) (A) (A) (A) (A) (A)
                 (A) (A) (A) (A) (A) (A) (A) (A) (A) (A) (A) (A)
                 (A) (A) (A) (A) (A) (A) (A) (A) (A) (A) (A) (A)
                 (A) (A) (A) (A) (A) (A) (A) (A) (A) (A) (A) (A)
                 (A) (A) (A) (A) (A) (A) (A) (A) (A) (A) (A) (A)
                 (A) (A) (A) (A) (A) (A) (A) (A) (A) (A) (A) (A)
                 (A) (A) (A) (A) (A) (A) (A) (A) (A) (A) (A) (A)
                 (A) (A) (A) (A) (A) (A) (A) (A) (A) (A) (A) (A)
                 (A) (A) (A) (A) (A) (A) (A) (A) (A) (A) (A) (A)
                 (A) (A) (A) (A) (A) (A) (A) (A) (A) (A) (A) (A)
                 (A) (A) (A) (A) (A) (A) (A) (A) (A) (A) (A) (A)
                 (A) (A) (A) (A) (A) (A) (A) (A) (A) (A) (A) (A)
                 (A) (A) (A) (A) (A) (A) (A) (A) (A) (A) (A) (A)
                 (A) (A) (A) (A) (A) (A) (A) (A) (A) (A) (A) (A)
                 (A) (A) (A) (A) (A) (A) (A) (A) (A) (A) (A) (A)
                 (A) (A) (A) (A) (A) (A) (A) (A) (A) (A) (A) (A)
                 (A) (A) (A) (A) (A) (A) (A) (A) (A) (A) (A) (A)
                 (A) (A) (A) (A) (A) (A) (A) (A) (A) (A) (A) (A)
                 (A) (A) (A) (A) (A) (A) (A) (A) (A) (A) (A) (A)
                 (A) (A) (A) (A) (A) (A) (A) (A) (A) (A) (A) (A)
                 (A) (A) (A) (A) (A) (A) (A) (A) (A) (A) (A) (A)
                 (A) (A) (A) (A) (A) (A) (A) (A) (A) (A) (A) (A)
                 (A) (A) (A) (A) (A) (A) (A) (A) (A) (A) (A) (A)
                 (A) (A) (A) (A) (A) (A) (A) (A) (A) (A) (A) (A)
                 (A) (A) (A) (A) (A) (A) (A) (A) (A) (A) (A) (A)
                 (A) (A) (A) (A) (A) (A) (A) (A) (A) (A) (A) (A)
                 (A) (A) (A) (A) (A) (A) (A) (A) (A) (A) (A) (A)
                 (A) (A) (A) (A) (A) (A) (A) (A) (A) (A) (A) (A)
                 (A) (A) (A) (A) (A) (A) (A) (A) (A) (A) (A) (A)
                 (A) (A) (A) (A) (A) (A) (A) (A) (A) (A) (A) (A)
                 (A) (A) (A) (A) (A) (A) (A) (A) (A) (A) (A) (A)
                 (A) (A) (A) (A) (A) (A) (A) (A) (A) (A) (A) (A)
                 (A) (A) (A) (A) (A) (A) (A) (A) (A) (A) (A) (A)
                 (A) (A) (A) (A) (A) (A) (A) (A) (A) (A) (A) (A)
                 (A) (A) (A) (A) (A) (A) (A) (A) (A) (A) (A) (A)
                 (A) (A) (A) (A) (A) (A) (A) (A) (A) (A) (A) (A)
                 (A) (A) (A) (A) (A) (A) (A) (A) (A) (A) (A) (A)
                 (A) (A) (A) (A) (A) (A) (A) (A) (A) (A) (A) (A)
                 (A) (A) (A) (A) (A) (A) (A) (A) (A) (A) (A) (A)
                 (A) (A) (A) (A) (A) (A) (A) (A) (A) (A) (A) (A)
                 (A) (A) (A) (A) (A) (A) (A) (A) (A) (A) (A) (A)
                 (A) (A) (A) (A) (A) (A) (A) (A) (A) (A) (A) (A)
                 (A) (A) (A) (A) (A) (A) (A) (A) (A) (A) (A) (A)
                 (A) (A) (A) (A) (A) (A) (A) (A) (A) (A) (A) (A)
                 (A) (A) (A) (A) (A) (A) (A) (A) (A) (A) (A) (A)
                 (A) (A) (A) (A) (A) (A) (A) (A) (A) (A) (A) (A)
                 (A) (A) (A) (A) (A) (A) (A) (A) (A) (A) (A) (A)
                 (A) (A) (A) (A) (A) (A) (A) (A) (A) (A) (A) (A)
                 (A) (A) (A) (A) (A) (A) (A) (A) (A) (A) (A) (A)
                 (A) (A) (A) (A) (A) (A) (A) (A) (A) (A) (A) (A)
                 (A) (A) (A) (A) (A) (A) (A) (A) (A) (A) (A) (A)
                 (A) (A) (A) (A) (A) (A) (A) (A) (A) (A) (A) (A)
                 (A) (A) (A) (A) (A) (A) (A) (A) (A) (A) (A) (A)
                 (A) (A) (A) (A) (A) (A) (A) (A) (A) (A) (A) (A)
                 (A) (A) (A) (A) (A) (A) (A) (A) (A) (A)
     8 initial guesses have been made.
 Convergence on wavefunction:    0.001000000000000
 Iteration     1 Dimension     8 NMult     0 NNew      8
 CISAX will form     8 AO SS matrices at one time.
 Iteration     2 Dimension    12 NMult     8 NNew      4
 Iteration     3 Dimension    16 NMult    12 NNew      4
 Iteration     4 Dimension    20 NMult    16 NNew      4
 Iteration     5 Dimension    24 NMult    20 NNew      4
 Iteration     6 Dimension    28 NMult    24 NNew      4
 ***********************************************************************
 Excited states from <AA,BB:AA,BB> singles matrix:
 ***********************************************************************
 
 Ground to excited state transition densities written to RWF  633
 Ground to excited state transition electric dipole moments (Au):
       state          X           Y           Z        Dip. S.      Osc.
         1        -0.0351      1.4611      0.1859      2.1706      0.1117
 Ground to excited state transition velocity dipole moments (Au):
       state          X           Y           Z        Dip. S.      Osc.
         1         0.0029     -0.1098     -0.0147      0.0123      0.1061
 Ground to excited state transition magnetic dipole moments (Au):
       state          X           Y           Z
         1        -0.2687     -0.3557      2.5362
 Ground to excited state transition velocity quadrupole moments (Au):
       state          XX          YY          ZZ          XY          XZ          YZ
         1        -0.0846     -0.0784     -0.0228      1.4237      0.1610     -0.0250
 <0|del|b> * <b|rxdel|0> + <0|del|b> * <b|delr+rdel|0>
 Rotatory Strengths (R) in cgs (10**-40 erg-esu-cm/Gauss)
       state          XX          YY          ZZ    R(velocity)    E-M Angle
         1        -7.2216    -78.9969     94.6576      2.8130       89.82
 1/2[<0|r|b>*<b|rxdel|0> + (<0|rxdel|b>*<b|r|0>)*]
 Rotatory Strengths (R) in cgs (10**-40 erg-esu-cm/Gauss)
       state          XX          YY          ZZ     R(length)
         1        -6.6748    367.5118   -333.4077      9.1431
  1/2[<0|del|b>*<b|r|0> + (<0|r|b>*<b|del|0>)*] (Au)
       state          X           Y           Z        Dip. S.   Osc.(frdel)
         1        -0.0001     -0.1605     -0.0027      0.1633      0.1089

 Excitation energies and oscillator strengths:
 
 Excited State   1:      Singlet-A      2.1008 eV  590.19 nm  f=0.1117  <S**2>=0.000
     235 -> 238       -0.35443
     236 -> 237        0.59336
 This state for optimization and/or second-order correction.
 Total Energy, E(TD-HF/TD-KS) =  -2732.96323351    
 Copying the excited state density for this state as the 1-particle RhoCI density.
 SavETr:  write IOETrn=   770 NScale= 10 NData=  16 NLR=1 NState=    1 LETran=      28.

 **********************************************************************

            Population analysis using the SCF density.

 **********************************************************************

 Orbital symmetries:
       Occupied  (A) (A) (A) (A) (A) (A) (A) (A) (A) (A) (A) (A)
                 (A) (A) (A) (A) (A) (A) (A) (A) (A) (A) (A) (A)
                 (A) (A) (A) (A) (A) (A) (A) (A) (A) (A) (A) (A)
                 (A) (A) (A) (A) (A) (A) (A) (A) (A) (A) (A) (A)
                 (A) (A) (A) (A) (A) (A) (A) (A) (A) (A) (A) (A)
                 (A) (A) (A) (A) (A) (A) (A) (A) (A) (A) (A) (A)
                 (A) (A) (A) (A) (A) (A) (A) (A) (A) (A) (A) (A)
                 (A) (A) (A) (A) (A) (A) (A) (A) (A) (A) (A) (A)
                 (A) (A) (A) (A) (A) (A) (A) (A) (A) (A) (A) (A)
                 (A) (A) (A) (A) (A) (A) (A) (A) (A) (A) (A) (A)
                 (A) (A) (A) (A) (A) (A) (A) (A) (A) (A) (A) (A)
                 (A) (A) (A) (A) (A) (A) (A) (A) (A) (A) (A) (A)
                 (A) (A) (A) (A) (A) (A) (A) (A) (A) (A) (A) (A)
                 (A) (A) (A) (A) (A) (A) (A) (A) (A) (A) (A) (A)
                 (A) (A) (A) (A) (A) (A) (A) (A) (A) (A) (A) (A)
                 (A) (A) (A) (A) (A) (A) (A) (A) (A) (A) (A) (A)
                 (A) (A) (A) (A) (A) (A) (A) (A) (A) (A) (A) (A)
                 (A) (A) (A) (A) (A) (A) (A) (A) (A) (A) (A) (A)
                 (A) (A) (A) (A) (A) (A) (A) (A) (A) (A) (A) (A)
                 (A) (A) (A) (A) (A) (A) (A) (A)
       Virtual   (A) (A) (A) (A) (A) (A) (A) (A) (A) (A) (A) (A)
                 (A) (A) (A) (A) (A) (A) (A) (A) (A) (A) (A) (A)
                 (A) (A) (A) (A) (A) (A) (A) (A) (A) (A) (A) (A)
                 (A) (A) (A) (A) (A) (A) (A) (A) (A) (A) (A) (A)
                 (A) (A) (A) (A) (A) (A) (A) (A) (A) (A) (A) (A)
                 (A) (A) (A) (A) (A) (A) (A) (A) (A) (A) (A) (A)
                 (A) (A) (A) (A) (A) (A) (A) (A) (A) (A) (A) (A)
                 (A) (A) (A) (A) (A) (A) (A) (A) (A) (A) (A) (A)
                 (A) (A) (A) (A) (A) (A) (A) (A) (A) (A) (A) (A)
                 (A) (A) (A) (A) (A) (A) (A) (A) (A) (A) (A) (A)
                 (A) (A) (A) (A) (A) (A) (A) (A) (A) (A) (A) (A)
                 (A) (A) (A) (A) (A) (A) (A) (A) (A) (A) (A) (A)
                 (A) (A) (A) (A) (A) (A) (A) (A) (A) (A) (A) (A)
                 (A) (A) (A) (A) (A) (A) (A) (A) (A) (A) (A) (A)
                 (A) (A) (A) (A) (A) (A) (A) (A) (A) (A) (A) (A)
                 (A) (A) (A) (A) (A) (A) (A) (A) (A) (A) (A) (A)
                 (A) (A) (A) (A) (A) (A) (A) (A) (A) (A) (A) (A)
                 (A) (A) (A) (A) (A) (A) (A) (A) (A) (A) (A) (A)
                 (A) (A) (A) (A) (A) (A) (A) (A) (A) (A) (A) (A)
                 (A) (A) (A) (A) (A) (A) (A) (A) (A) (A) (A) (A)
                 (A) (A) (A) (A) (A) (A) (A) (A) (A) (A) (A) (A)
                 (A) (A) (A) (A) (A) (A) (A) (A) (A) (A) (A) (A)
                 (A) (A) (A) (A) (A) (A) (A) (A) (A) (A) (A) (A)
                 (A) (A) (A) (A) (A) (A) (A) (A) (A) (A) (A) (A)
                 (A) (A) (A) (A) (A) (A) (A) (A) (A) (A) (A) (A)
                 (A) (A) (A) (A) (A) (A) (A) (A) (A) (A) (A) (A)
                 (A) (A) (A) (A) (A) (A) (A) (A) (A) (A) (A) (A)
                 (A) (A) (A) (A) (A) (A) (A) (A) (A) (A) (A) (A)
                 (A) (A) (A) (A) (A) (A) (A) (A) (A) (A) (A) (A)
                 (A) (A) (A) (A) (A) (A) (A) (A) (A) (A) (A) (A)
                 (A) (A) (A) (A) (A) (A) (A) (A) (A) (A) (A) (A)
                 (A) (A) (A) (A) (A) (A) (A) (A) (A) (A) (A) (A)
                 (A) (A) (A) (A) (A) (A) (A) (A) (A) (A) (A) (A)
                 (A) (A) (A) (A) (A) (A) (A) (A) (A) (A) (A) (A)
                 (A) (A) (A) (A) (A) (A) (A) (A) (A) (A) (A) (A)
                 (A) (A) (A) (A) (A) (A) (A) (A) (A) (A) (A) (A)
                 (A) (A) (A) (A) (A) (A) (A) (A) (A) (A) (A) (A)
                 (A) (A) (A) (A) (A) (A) (A) (A) (A) (A) (A) (A)
                 (A) (A) (A) (A) (A) (A) (A) (A) (A) (A) (A) (A)
                 (A) (A) (A) (A) (A) (A) (A) (A) (A) (A) (A) (A)
                 (A) (A) (A) (A) (A) (A) (A) (A) (A) (A) (A) (A)
                 (A) (A) (A) (A) (A) (A) (A) (A) (A) (A) (A) (A)
                 (A) (A) (A) (A) (A) (A) (A) (A) (A) (A) (A) (A)
                 (A) (A) (A) (A) (A) (A) (A) (A) (A) (A) (A) (A)
                 (A) (A) (A) (A) (A) (A) (A) (A) (A) (A) (A) (A)
                 (A) (A) (A) (A) (A) (A) (A) (A) (A) (A) (A) (A)
                 (A) (A) (A) (A) (A) (A) (A) (A) (A) (A) (A) (A)
                 (A) (A) (A) (A) (A) (A) (A) (A) (A) (A) (A) (A)
                 (A) (A) (A) (A) (A) (A) (A) (A) (A) (A) (A) (A)
                 (A) (A) (A) (A) (A) (A) (A) (A) (A) (A) (A) (A)
                 (A) (A) (A) (A) (A) (A) (A) (A) (A) (A) (A) (A)
                 (A) (A) (A) (A) (A) (A) (A) (A) (A) (A) (A) (A)
                 (A) (A) (A) (A) (A) (A) (A) (A) (A) (A) (A) (A)
                 (A) (A) (A) (A) (A) (A) (A) (A) (A) (A) (A) (A)
                 (A) (A) (A) (A) (A) (A) (A) (A) (A) (A) (A) (A)
                 (A) (A) (A) (A) (A) (A) (A) (A) (A) (A) (A) (A)
                 (A) (A) (A) (A) (A) (A) (A) (A) (A) (A) (A) (A)
                 (A) (A) (A) (A) (A) (A) (A) (A) (A) (A) (A) (A)
                 (A) (A) (A) (A) (A) (A) (A) (A) (A) (A) (A) (A)
                 (A) (A) (A) (A) (A) (A) (A) (A) (A) (A) (A) (A)
                 (A) (A) (A) (A) (A) (A) (A) (A) (A) (A) (A) (A)
                 (A) (A) (A) (A) (A) (A) (A) (A) (A) (A) (A) (A)
                 (A) (A) (A) (A) (A) (A) (A) (A) (A) (A) (A) (A)
                 (A) (A) (A) (A) (A) (A) (A) (A) (A) (A) (A) (A)
                 (A) (A) (A) (A) (A) (A) (A) (A) (A) (A) (A) (A)
                 (A) (A) (A) (A) (A) (A) (A) (A) (A) (A) (A) (A)
                 (A) (A) (A) (A) (A) (A) (A) (A) (A) (A) (A) (A)
                 (A) (A) (A) (A) (A) (A) (A) (A) (A) (A) (A) (A)
                 (A) (A) (A) (A) (A) (A) (A) (A) (A) (A) (A) (A)
                 (A) (A) (A) (A) (A) (A) (A) (A) (A) (A) (A) (A)
                 (A) (A) (A) (A) (A) (A) (A) (A) (A) (A) (A) (A)
                 (A) (A) (A) (A) (A) (A) (A) (A) (A) (A) (A) (A)
                 (A) (A) (A) (A) (A) (A) (A) (A) (A) (A) (A) (A)
                 (A) (A) (A) (A) (A) (A) (A) (A) (A) (A) (A) (A)
                 (A) (A) (A) (A) (A) (A) (A) (A) (A) (A) (A) (A)
                 (A) (A) (A) (A) (A) (A) (A) (A) (A) (A) (A) (A)
                 (A) (A) (A) (A) (A) (A) (A) (A) (A) (A) (A) (A)
                 (A) (A) (A) (A) (A) (A) (A) (A) (A) (A) (A) (A)
                 (A) (A) (A) (A) (A) (A) (A) (A) (A) (A) (A) (A)
                 (A) (A) (A) (A) (A) (A) (A) (A) (A) (A) (A) (A)
                 (A) (A) (A) (A) (A) (A) (A) (A) (A) (A) (A) (A)
                 (A) (A) (A) (A) (A) (A) (A) (A) (A) (A) (A) (A)
                 (A) (A) (A) (A) (A) (A) (A) (A) (A) (A) (A) (A)
                 (A) (A) (A) (A) (A) (A) (A) (A) (A) (A) (A) (A)
                 (A) (A) (A) (A) (A) (A) (A) (A) (A) (A) (A) (A)
                 (A) (A) (A) (A) (A) (A) (A) (A) (A) (A)
 The electronic state is 1-A.
 Alpha  occ. eigenvalues --  -19.18454 -19.17568 -19.13293 -19.12754 -19.11727
 Alpha  occ. eigenvalues --  -14.37058 -14.36460 -14.32636 -14.29521 -10.32332
 Alpha  occ. eigenvalues --  -10.31492 -10.27022 -10.25019 -10.24325 -10.24142
 Alpha  occ. eigenvalues --  -10.23911 -10.23496 -10.23281 -10.23195 -10.22952
 Alpha  occ. eigenvalues --  -10.22832 -10.22162 -10.22081 -10.21902 -10.21886
 Alpha  occ. eigenvalues --  -10.21802 -10.21031 -10.21017 -10.20969 -10.20804
 Alpha  occ. eigenvalues --  -10.20622 -10.20587 -10.20582 -10.20524 -10.20264
 Alpha  occ. eigenvalues --  -10.20138 -10.20119 -10.20102 -10.20096 -10.19932
 Alpha  occ. eigenvalues --  -10.19817 -10.19395 -10.19374 -10.19103 -10.19082
 Alpha  occ. eigenvalues --  -10.19076 -10.18756 -10.18721 -10.18658 -10.18640
 Alpha  occ. eigenvalues --  -10.18555 -10.18457 -10.18382 -10.18312 -10.18184
 Alpha  occ. eigenvalues --  -10.18167 -10.18111 -10.17983 -10.17948 -10.17888
 Alpha  occ. eigenvalues --  -10.17662 -10.17219 -10.16856 -10.15848  -1.09362
 Alpha  occ. eigenvalues --   -1.08701  -1.03891  -1.00151  -0.99869  -0.97551
 Alpha  occ. eigenvalues --   -0.97053  -0.95609  -0.91491  -0.85301  -0.82130
 Alpha  occ. eigenvalues --   -0.81642  -0.81481  -0.81380  -0.81177  -0.80599
 Alpha  occ. eigenvalues --   -0.79666  -0.79409  -0.79265  -0.78892  -0.77716
 Alpha  occ. eigenvalues --   -0.76777  -0.76182  -0.75500  -0.75055  -0.74212
 Alpha  occ. eigenvalues --   -0.73467  -0.73325  -0.72166  -0.71500  -0.70759
 Alpha  occ. eigenvalues --   -0.69520  -0.69339  -0.68459  -0.68150  -0.67570
 Alpha  occ. eigenvalues --   -0.67370  -0.66406  -0.65964  -0.65651  -0.65089
 Alpha  occ. eigenvalues --   -0.64433  -0.63629  -0.62178  -0.61949  -0.61222
 Alpha  occ. eigenvalues --   -0.61074  -0.58649  -0.58502  -0.58295  -0.57938
 Alpha  occ. eigenvalues --   -0.57046  -0.56198  -0.56190  -0.55696  -0.55542
 Alpha  occ. eigenvalues --   -0.55462  -0.54280  -0.53314  -0.53142  -0.52945
 Alpha  occ. eigenvalues --   -0.52519  -0.51831  -0.51011  -0.50869  -0.50437
 Alpha  occ. eigenvalues --   -0.49935  -0.49211  -0.48800  -0.48411  -0.48251
 Alpha  occ. eigenvalues --   -0.48025  -0.47739  -0.47589  -0.47373  -0.47234
 Alpha  occ. eigenvalues --   -0.47066  -0.46308  -0.46160  -0.45919  -0.45593
 Alpha  occ. eigenvalues --   -0.45447  -0.45258  -0.45178  -0.44914  -0.44739
 Alpha  occ. eigenvalues --   -0.44416  -0.44301  -0.43991  -0.43893  -0.43558
 Alpha  occ. eigenvalues --   -0.43268  -0.43092  -0.42922  -0.42618  -0.42399
 Alpha  occ. eigenvalues --   -0.42208  -0.41950  -0.41836  -0.41721  -0.41497
 Alpha  occ. eigenvalues --   -0.41429  -0.41076  -0.40900  -0.40849  -0.40598
 Alpha  occ. eigenvalues --   -0.40282  -0.39945  -0.39601  -0.39521  -0.39207
 Alpha  occ. eigenvalues --   -0.39096  -0.38781  -0.38480  -0.38447  -0.38418
 Alpha  occ. eigenvalues --   -0.37937  -0.37882  -0.37693  -0.37543  -0.37387
 Alpha  occ. eigenvalues --   -0.37254  -0.37112  -0.36938  -0.36725  -0.36650
 Alpha  occ. eigenvalues --   -0.36596  -0.36302  -0.35943  -0.35897  -0.35789
 Alpha  occ. eigenvalues --   -0.35754  -0.35488  -0.35128  -0.34985  -0.34923
 Alpha  occ. eigenvalues --   -0.34837  -0.34516  -0.34381  -0.34249  -0.34014
 Alpha  occ. eigenvalues --   -0.33660  -0.33510  -0.33270  -0.33142  -0.32422
 Alpha  occ. eigenvalues --   -0.32286  -0.31978  -0.31873  -0.31554  -0.31549
 Alpha  occ. eigenvalues --   -0.31048  -0.31034  -0.30772  -0.30040  -0.29898
 Alpha  occ. eigenvalues --   -0.29716  -0.29576  -0.28677  -0.28260  -0.27936
 Alpha  occ. eigenvalues --   -0.27903  -0.27352  -0.26197  -0.25748  -0.25229
 Alpha  occ. eigenvalues --   -0.25012  -0.24488  -0.23844  -0.21350  -0.19771
 Alpha  occ. eigenvalues --   -0.19014
 Alpha virt. eigenvalues --   -0.09901  -0.08164  -0.04062  -0.01658  -0.01195
 Alpha virt. eigenvalues --   -0.00008   0.00027   0.00835   0.01947   0.02845
 Alpha virt. eigenvalues --    0.03230   0.03958   0.04180   0.04631   0.04763
 Alpha virt. eigenvalues --    0.05003   0.05084   0.05291   0.05852   0.05949
 Alpha virt. eigenvalues --    0.06149   0.06346   0.06399   0.06952   0.07159
 Alpha virt. eigenvalues --    0.07252   0.07393   0.07714   0.07759   0.08284
 Alpha virt. eigenvalues --    0.08405   0.08856   0.08887   0.08944   0.09217
 Alpha virt. eigenvalues --    0.09222   0.09533   0.09767   0.10164   0.10235
 Alpha virt. eigenvalues --    0.10428   0.10759   0.10763   0.10905   0.10922
 Alpha virt. eigenvalues --    0.11001   0.11449   0.11504   0.11700   0.11789
 Alpha virt. eigenvalues --    0.11870   0.12076   0.12106   0.12261   0.12426
 Alpha virt. eigenvalues --    0.12505   0.12912   0.12940   0.13072   0.13202
 Alpha virt. eigenvalues --    0.13371   0.13441   0.13636   0.14069   0.14292
 Alpha virt. eigenvalues --    0.14316   0.14429   0.14699   0.14946   0.15021
 Alpha virt. eigenvalues --    0.15164   0.15468   0.15692   0.16004   0.16149
 Alpha virt. eigenvalues --    0.16281   0.16712   0.16837   0.16914   0.17107
 Alpha virt. eigenvalues --    0.17395   0.17685   0.17741   0.17917   0.18077
 Alpha virt. eigenvalues --    0.18155   0.18466   0.18493   0.18666   0.19122
 Alpha virt. eigenvalues --    0.19159   0.19469   0.19666   0.19713   0.19886
 Alpha virt. eigenvalues --    0.20130   0.20423   0.20439   0.20630   0.20706
 Alpha virt. eigenvalues --    0.20970   0.21362   0.21378   0.21521   0.21894
 Alpha virt. eigenvalues --    0.22076   0.22134   0.22361   0.22669   0.22859
 Alpha virt. eigenvalues --    0.23271   0.23304   0.23338   0.23726   0.24621
 Alpha virt. eigenvalues --    0.24884   0.25020   0.25285   0.25522   0.25928
 Alpha virt. eigenvalues --    0.26087   0.26240   0.26246   0.27381   0.27557
 Alpha virt. eigenvalues --    0.27816   0.28243   0.28427   0.29083   0.29200
 Alpha virt. eigenvalues --    0.29511   0.29782   0.30455   0.31265   0.31584
 Alpha virt. eigenvalues --    0.31683   0.32020   0.32756   0.32951   0.33201
 Alpha virt. eigenvalues --    0.33748   0.33883   0.34577   0.34633   0.35256
 Alpha virt. eigenvalues --    0.35524   0.35930   0.36399   0.36558   0.36975
 Alpha virt. eigenvalues --    0.37555   0.38006   0.38135   0.38558   0.38680
 Alpha virt. eigenvalues --    0.38860   0.39148   0.39460   0.39534   0.39761
 Alpha virt. eigenvalues --    0.39975   0.40205   0.40584   0.40687   0.40941
 Alpha virt. eigenvalues --    0.41192   0.41347   0.41593   0.41784   0.41868
 Alpha virt. eigenvalues --    0.42338   0.42457   0.42619   0.42775   0.43083
 Alpha virt. eigenvalues --    0.43317   0.43396   0.43524   0.43606   0.44048
 Alpha virt. eigenvalues --    0.44376   0.44770   0.44881   0.45057   0.45450
 Alpha virt. eigenvalues --    0.45730   0.46185   0.46363   0.46543   0.46830
 Alpha virt. eigenvalues --    0.47075   0.47213   0.47386   0.47532   0.47863
 Alpha virt. eigenvalues --    0.47955   0.48317   0.48465   0.48595   0.48720
 Alpha virt. eigenvalues --    0.49257   0.49445   0.49565   0.49715   0.49993
 Alpha virt. eigenvalues --    0.50599   0.50612   0.50963   0.51046   0.51311
 Alpha virt. eigenvalues --    0.51498   0.51769   0.52174   0.52293   0.52320
 Alpha virt. eigenvalues --    0.52608   0.52986   0.53192   0.53341   0.53384
 Alpha virt. eigenvalues --    0.54138   0.54475   0.54523   0.54897   0.55011
 Alpha virt. eigenvalues --    0.55398   0.55838   0.56134   0.56186   0.56516
 Alpha virt. eigenvalues --    0.56658   0.56920   0.57176   0.57533   0.57728
 Alpha virt. eigenvalues --    0.57981   0.58147   0.58210   0.58375   0.58697
 Alpha virt. eigenvalues --    0.58930   0.59037   0.59104   0.59265   0.59333
 Alpha virt. eigenvalues --    0.59374   0.59459   0.59644   0.59803   0.60163
 Alpha virt. eigenvalues --    0.60319   0.60375   0.60674   0.60788   0.60960
 Alpha virt. eigenvalues --    0.61113   0.61455   0.61571   0.61580   0.61677
 Alpha virt. eigenvalues --    0.62180   0.62459   0.62596   0.62679   0.62770
 Alpha virt. eigenvalues --    0.62835   0.62838   0.63077   0.63325   0.63416
 Alpha virt. eigenvalues --    0.63605   0.63758   0.63879   0.64002   0.64027
 Alpha virt. eigenvalues --    0.64225   0.64399   0.64653   0.64785   0.64850
 Alpha virt. eigenvalues --    0.65089   0.65311   0.65457   0.65626   0.65645
 Alpha virt. eigenvalues --    0.65847   0.65970   0.66025   0.66368   0.66385
 Alpha virt. eigenvalues --    0.66502   0.66542   0.66657   0.66713   0.66971
 Alpha virt. eigenvalues --    0.67167   0.67245   0.67380   0.67524   0.67569
 Alpha virt. eigenvalues --    0.67789   0.67816   0.67986   0.68301   0.68399
 Alpha virt. eigenvalues --    0.68608   0.68674   0.68774   0.68881   0.69066
 Alpha virt. eigenvalues --    0.69191   0.69320   0.69426   0.69522   0.69654
 Alpha virt. eigenvalues --    0.69800   0.69876   0.70054   0.70265   0.70477
 Alpha virt. eigenvalues --    0.70510   0.70796   0.70914   0.71019   0.71104
 Alpha virt. eigenvalues --    0.71296   0.71336   0.71461   0.71588   0.71988
 Alpha virt. eigenvalues --    0.72174   0.72426   0.72525   0.72578   0.72777
 Alpha virt. eigenvalues --    0.72952   0.73234   0.73257   0.73445   0.73864
 Alpha virt. eigenvalues --    0.74072   0.74160   0.74218   0.74412   0.74830
 Alpha virt. eigenvalues --    0.74864   0.75161   0.75320   0.75426   0.75717
 Alpha virt. eigenvalues --    0.75941   0.76186   0.76272   0.76651   0.76890
 Alpha virt. eigenvalues --    0.77319   0.77362   0.77794   0.77807   0.77991
 Alpha virt. eigenvalues --    0.78239   0.78474   0.78661   0.78723   0.78837
 Alpha virt. eigenvalues --    0.79711   0.79951   0.80045   0.80381   0.80528
 Alpha virt. eigenvalues --    0.80880   0.81085   0.81174   0.81479   0.81693
 Alpha virt. eigenvalues --    0.82098   0.82340   0.82808   0.83143   0.83268
 Alpha virt. eigenvalues --    0.83626   0.84334   0.84881   0.85593   0.85872
 Alpha virt. eigenvalues --    0.86297   0.87051   0.87224   0.87735   0.87961
 Alpha virt. eigenvalues --    0.88284   0.88884   0.89447   0.90064   0.90197
 Alpha virt. eigenvalues --    0.90724   0.91285   0.92186   0.92664   0.93054
 Alpha virt. eigenvalues --    0.93891   0.94757   0.95091   0.95156   0.95676
 Alpha virt. eigenvalues --    0.95964   0.96221   0.97472   0.97574   0.98054
 Alpha virt. eigenvalues --    0.98279   0.98301   0.98593   0.99031   0.99344
 Alpha virt. eigenvalues --    0.99929   1.00203   1.01115   1.01252   1.01416
 Alpha virt. eigenvalues --    1.02340   1.02824   1.03141   1.03276   1.03689
 Alpha virt. eigenvalues --    1.04379   1.04762   1.04808   1.05749   1.06097
 Alpha virt. eigenvalues --    1.06764   1.07593   1.07760   1.08239   1.08416
 Alpha virt. eigenvalues --    1.08952   1.09104   1.09697   1.09832   1.09859
 Alpha virt. eigenvalues --    1.10240   1.10370   1.10761   1.11131   1.11360
 Alpha virt. eigenvalues --    1.12062   1.12328   1.12881   1.13417   1.13696
 Alpha virt. eigenvalues --    1.14322   1.15437   1.15713   1.15990   1.16026
 Alpha virt. eigenvalues --    1.16197   1.16758   1.17204   1.17847   1.17938
 Alpha virt. eigenvalues --    1.18740   1.19134   1.19405   1.19969   1.20615
 Alpha virt. eigenvalues --    1.21023   1.21543   1.22012   1.22518   1.23233
 Alpha virt. eigenvalues --    1.23332   1.23961   1.24250   1.24692   1.25606
 Alpha virt. eigenvalues --    1.25806   1.25926   1.26510   1.26772   1.27021
 Alpha virt. eigenvalues --    1.27653   1.27860   1.28286   1.28352   1.29134
 Alpha virt. eigenvalues --    1.29254   1.29341   1.29820   1.30502   1.30666
 Alpha virt. eigenvalues --    1.30917   1.31423   1.31910   1.31948   1.32118
 Alpha virt. eigenvalues --    1.32339   1.32903   1.33605   1.33774   1.33855
 Alpha virt. eigenvalues --    1.34442   1.35029   1.35392   1.36029   1.36502
 Alpha virt. eigenvalues --    1.36572   1.37081   1.37143   1.37450   1.38391
 Alpha virt. eigenvalues --    1.38484   1.38800   1.39258   1.39643   1.39779
 Alpha virt. eigenvalues --    1.40468   1.40990   1.41911   1.42348   1.42689
 Alpha virt. eigenvalues --    1.43408   1.43694   1.45033   1.45413   1.45730
 Alpha virt. eigenvalues --    1.46492   1.47217   1.47970   1.48111   1.48738
 Alpha virt. eigenvalues --    1.49181   1.49257   1.49732   1.50109   1.50258
 Alpha virt. eigenvalues --    1.50561   1.51168   1.51737   1.51955   1.52079
 Alpha virt. eigenvalues --    1.52120   1.52481   1.52490   1.52556   1.53074
 Alpha virt. eigenvalues --    1.53178   1.53331   1.53448   1.53602   1.53828
 Alpha virt. eigenvalues --    1.54414   1.54536   1.54715   1.54970   1.55029
 Alpha virt. eigenvalues --    1.55149   1.56062   1.56196   1.56991   1.57629
 Alpha virt. eigenvalues --    1.57730   1.58354   1.58791   1.59301   1.60216
 Alpha virt. eigenvalues --    1.60644   1.60844   1.61253   1.62077   1.62215
 Alpha virt. eigenvalues --    1.62593   1.62770   1.63008   1.63684   1.63824
 Alpha virt. eigenvalues --    1.64288   1.64462   1.64631   1.65547   1.66075
 Alpha virt. eigenvalues --    1.66243   1.66341   1.66556   1.66592   1.67235
 Alpha virt. eigenvalues --    1.67439   1.67722   1.68091   1.68350   1.68607
 Alpha virt. eigenvalues --    1.68834   1.68939   1.69600   1.69798   1.70086
 Alpha virt. eigenvalues --    1.70451   1.70630   1.70943   1.71094   1.71160
 Alpha virt. eigenvalues --    1.71302   1.71400   1.71625   1.71813   1.71907
 Alpha virt. eigenvalues --    1.71997   1.72606   1.72626   1.73011   1.73125
 Alpha virt. eigenvalues --    1.73464   1.73652   1.73749   1.73943   1.74246
 Alpha virt. eigenvalues --    1.74484   1.74594   1.75011   1.75060   1.75670
 Alpha virt. eigenvalues --    1.75765   1.75931   1.76333   1.76591   1.76863
 Alpha virt. eigenvalues --    1.76951   1.77123   1.77207   1.77222   1.77663
 Alpha virt. eigenvalues --    1.78154   1.78362   1.78519   1.78852   1.78907
 Alpha virt. eigenvalues --    1.78954   1.79145   1.79355   1.79683   1.79942
 Alpha virt. eigenvalues --    1.80052   1.80203   1.80739   1.80919   1.80977
 Alpha virt. eigenvalues --    1.81262   1.81513   1.81630   1.81915   1.82060
 Alpha virt. eigenvalues --    1.82276   1.82425   1.82802   1.82915   1.83174
 Alpha virt. eigenvalues --    1.83252   1.83360   1.83457   1.83939   1.83997
 Alpha virt. eigenvalues --    1.84134   1.84259   1.84737   1.84801   1.85165
 Alpha virt. eigenvalues --    1.85321   1.85554   1.85817   1.86297   1.86632
 Alpha virt. eigenvalues --    1.86773   1.86914   1.87081   1.87106   1.87479
 Alpha virt. eigenvalues --    1.87608   1.87901   1.88012   1.88161   1.88538
 Alpha virt. eigenvalues --    1.88727   1.88918   1.89112   1.89218   1.89483
 Alpha virt. eigenvalues --    1.89929   1.90157   1.90399   1.90581   1.91221
 Alpha virt. eigenvalues --    1.91556   1.91730   1.92249   1.92424   1.92599
 Alpha virt. eigenvalues --    1.92940   1.93152   1.93625   1.93753   1.93958
 Alpha virt. eigenvalues --    1.94230   1.94673   1.94771   1.95037   1.95429
 Alpha virt. eigenvalues --    1.95678   1.95765   1.96150   1.96673   1.96718
 Alpha virt. eigenvalues --    1.97156   1.97395   1.97730   1.98246   1.98658
 Alpha virt. eigenvalues --    1.98698   1.99044   1.99242   1.99527   1.99875
 Alpha virt. eigenvalues --    1.99988   2.00190   2.00247   2.00555   2.00640
 Alpha virt. eigenvalues --    2.00964   2.01128   2.01602   2.02125   2.02536
 Alpha virt. eigenvalues --    2.02905   2.03335   2.03460   2.03522   2.03571
 Alpha virt. eigenvalues --    2.03809   2.04247   2.04708   2.04833   2.04986
 Alpha virt. eigenvalues --    2.05343   2.05810   2.06067   2.06508   2.07154
 Alpha virt. eigenvalues --    2.07678   2.07845   2.07951   2.08345   2.08687
 Alpha virt. eigenvalues --    2.08999   2.09179   2.10055   2.10210   2.10597
 Alpha virt. eigenvalues --    2.10992   2.11456   2.11546   2.11799   2.12114
 Alpha virt. eigenvalues --    2.12521   2.13189   2.13510   2.13667   2.14077
 Alpha virt. eigenvalues --    2.15113   2.15219   2.15390   2.15775   2.16693
 Alpha virt. eigenvalues --    2.16955   2.17448   2.18035   2.18170   2.18456
 Alpha virt. eigenvalues --    2.18696   2.18992   2.19031   2.20097   2.20403
 Alpha virt. eigenvalues --    2.20511   2.20678   2.20904   2.22336   2.22487
 Alpha virt. eigenvalues --    2.22683   2.23006   2.23501   2.23821   2.24194
 Alpha virt. eigenvalues --    2.24449   2.24941   2.25257   2.25704   2.26354
 Alpha virt. eigenvalues --    2.26893   2.27017   2.27244   2.27664   2.27897
 Alpha virt. eigenvalues --    2.28410   2.28989   2.29405   2.29866   2.30063
 Alpha virt. eigenvalues --    2.30198   2.30842   2.31109   2.31501   2.32027
 Alpha virt. eigenvalues --    2.32170   2.32428   2.33066   2.33422   2.33881
 Alpha virt. eigenvalues --    2.34336   2.34639   2.35585   2.35716   2.36303
 Alpha virt. eigenvalues --    2.36535   2.36681   2.36954   2.37038   2.37510
 Alpha virt. eigenvalues --    2.37692   2.37801   2.37870   2.38266   2.38615
 Alpha virt. eigenvalues --    2.38694   2.38868   2.39341   2.40364   2.41199
 Alpha virt. eigenvalues --    2.41307   2.41466   2.42204   2.42438   2.43305
 Alpha virt. eigenvalues --    2.43980   2.44110   2.44252   2.44528   2.44814
 Alpha virt. eigenvalues --    2.45126   2.45385   2.45712   2.46121   2.46216
 Alpha virt. eigenvalues --    2.46689   2.47012   2.47213   2.48281   2.48763
 Alpha virt. eigenvalues --    2.48960   2.49636   2.49766   2.49982   2.50494
 Alpha virt. eigenvalues --    2.50644   2.51301   2.51534   2.52086   2.52844
 Alpha virt. eigenvalues --    2.52967   2.53741   2.54295   2.54387   2.54765
 Alpha virt. eigenvalues --    2.54969   2.55867   2.56367   2.56665   2.56870
 Alpha virt. eigenvalues --    2.56961   2.58216   2.58616   2.58937   2.59674
 Alpha virt. eigenvalues --    2.60027   2.60613   2.60737   2.60911   2.61043
 Alpha virt. eigenvalues --    2.61655   2.62151   2.62978   2.63412   2.64170
 Alpha virt. eigenvalues --    2.64301   2.64597   2.65354   2.65452   2.65691
 Alpha virt. eigenvalues --    2.66370   2.67004   2.67483   2.68201   2.68251
 Alpha virt. eigenvalues --    2.68671   2.69043   2.70863   2.71023   2.71114
 Alpha virt. eigenvalues --    2.71911   2.72034   2.72687   2.72983   2.73185
 Alpha virt. eigenvalues --    2.73337   2.73726   2.73956   2.74193   2.75014
 Alpha virt. eigenvalues --    2.75202   2.75644   2.76544   2.76917   2.77389
 Alpha virt. eigenvalues --    2.77842   2.77996   2.78260   2.78451   2.78761
 Alpha virt. eigenvalues --    2.79182   2.79270   2.79406   2.79892   2.80083
 Alpha virt. eigenvalues --    2.81351   2.81813   2.82280   2.82608   2.83037
 Alpha virt. eigenvalues --    2.83706   2.83861   2.84439   2.84772   2.85570
 Alpha virt. eigenvalues --    2.86153   2.86705   2.87054   2.87125   2.88165
 Alpha virt. eigenvalues --    2.88592   2.88703   2.88782   2.89415   2.89798
 Alpha virt. eigenvalues --    2.90435   2.90844   2.91350   2.91583   2.92021
 Alpha virt. eigenvalues --    2.92634   2.92918   2.93479   2.93779   2.93816
 Alpha virt. eigenvalues --    2.93956   2.94058   2.94993   2.95393   2.95430
 Alpha virt. eigenvalues --    2.95645   2.95867   2.96385   2.97075   2.97358
 Alpha virt. eigenvalues --    2.97724   2.98391   2.98627   2.98823   2.98951
 Alpha virt. eigenvalues --    3.00421   3.00721   3.01835   3.02193   3.03232
 Alpha virt. eigenvalues --    3.03964   3.04174   3.05428   3.06364   3.06692
 Alpha virt. eigenvalues --    3.08110   3.09258   3.09292   3.09668   3.10296
 Alpha virt. eigenvalues --    3.10643   3.10872   3.11398   3.12646   3.13026
 Alpha virt. eigenvalues --    3.13586   3.14225   3.14575   3.15404   3.16691
 Alpha virt. eigenvalues --    3.17264   3.18642   3.19150   3.20589   3.21375
 Alpha virt. eigenvalues --    3.21816   3.22628   3.22716   3.25288   3.26371
 Alpha virt. eigenvalues --    3.26564   3.27413   3.28547   3.30127   3.33015
 Alpha virt. eigenvalues --    3.36101   3.38049   3.39791   3.42253   3.45480
 Alpha virt. eigenvalues --    3.46990   3.50237   3.55906   3.58771   3.59120
 Alpha virt. eigenvalues --    3.60232   3.61142   3.64286   3.65970   3.69934
          Condensed to atoms (all electrons):
 Mulliken charges:
               1
     1  C   -0.009350
     2  C   -0.071958
     3  C   -0.029451
     4  C   -0.076740
     5  N   -0.106380
     6  C   -0.055510
     7  C   -0.094561
     8  C   -0.011256
     9  C   -0.065864
    10  C    0.135140
    11  C    0.202222
    12  C    0.005907
    13  C    0.199859
    14  O   -0.261690
    15  O   -0.325498
    16  N   -0.128860
    17  C    0.106105
    18  C   -0.120852
    19  C   -0.007108
    20  C    0.032832
    21  C    0.124200
    22  C   -0.041415
    23  C    0.039531
    24  N   -0.341243
    25  C    0.189800
    26  C   -0.199812
    27  C   -0.098167
    28  C    0.087094
    29  C    0.233758
    30  C    0.160175
    31  C   -0.018931
    32  N   -0.061899
    33  C    0.104106
    34  C   -0.083628
    35  C   -0.079942
    36  C    0.113079
    37  C   -0.073653
    38  C    0.068272
    39  O   -0.135225
    40  C   -0.099311
    41  C    0.197193
    42  O   -0.240396
    43  O   -0.299113
    44  C    0.171787
    45  C    0.413766
    46  C   -0.126966
    47  C   -0.113934
    48  C   -0.046031
    49  C    0.119463
    50  C   -0.102152
    51  C    0.111246
    52  C   -0.069422
    53  C    0.127719
    54  C    0.059500
    55  C   -0.053713
    56  C    0.044628
    57  C   -0.008719
    58  C    0.102300
    59  C   -0.002100
    60  C    0.085088
    61  C   -0.025939
    62  C   -0.182490
    63  C   -0.013641
    64  C   -0.005877
    65  H   -0.022272
    66  H   -0.123537
    67  H   -0.026724
    68  H    0.003563
    69  H   -0.037110
    70  H    0.021259
    71  H   -0.008065
    72  H    0.032938
    73  H   -0.043172
    74  H    0.006457
    75  H    0.009924
    76  H    0.070612
    77  H    0.032292
    78  H    0.002031
    79  H    0.018461
    80  H    0.014687
    81  H    0.010963
    82  H    0.012208
    83  H    0.044826
    84  H   -0.027194
    85  H   -0.061352
    86  H   -0.001423
    87  H   -0.053370
    88  H    0.004437
    89  H    0.023448
    90  H    0.024267
    91  H    0.049475
    92  H    0.061261
    93  H    0.099431
    94  H    0.076653
    95  H    0.046289
    96  H    0.052502
    97  H    0.028585
    98  H   -0.033149
    99  H   -0.017660
   100  H   -0.020722
   101  H    0.004355
   102  H    0.028625
   103  H    0.056420
   104  H    0.012296
   105  H    0.014312
   106  H    0.023465
   107  H   -0.007448
   108  H   -0.029382
   109  H    0.011447
   110  H   -0.018454
   111  H   -0.050883
   112  H   -0.017309
   113  H   -0.017350
   114  H   -0.042294
   115  H   -0.008099
   116  H    0.025820
   117  H    0.003678
   118  H   -0.026021
   119  H   -0.008922
   120  H   -0.036864
   121  H   -0.045799
   122  H    0.013772
   123  H   -0.000883
   124  H    0.015228
   125  H   -0.001225
   126  H   -0.019275
   127  H   -0.017785
   128  H   -0.012515
   129  H   -0.006853
   130  H    0.018885
   131  H    0.017418
   132  H    0.000480
   133  H    0.034781
   134  H    0.040931
   135  H    0.026991
   136  H    0.037170
   137  H    0.187343
   138  H    0.177150
 Sum of Mulliken charges =   0.00000
 Mulliken charges with hydrogens summed into heavy atoms:
               1
     1  C   -0.009350
     2  C   -0.094230
     3  C   -0.152988
     4  C   -0.103465
     5  N   -0.106380
     6  C   -0.055510
     7  C   -0.090998
     8  C   -0.048366
     9  C   -0.065864
    10  C    0.181272
    11  C    0.165507
    12  C    0.086443
    13  C    0.199859
    14  O   -0.261690
    15  O   -0.325498
    16  N    0.058484
    17  C    0.106105
    18  C   -0.120852
    19  C   -0.007108
    20  C    0.032832
    21  C    0.176984
    22  C   -0.026728
    23  C    0.062702
    24  N   -0.341243
    25  C    0.189800
    26  C   -0.199812
    27  C   -0.098167
    28  C    0.087094
    29  C    0.190038
    30  C    0.105382
    31  C    0.033220
    32  N    0.115251
    33  C    0.104106
    34  C   -0.083628
    35  C   -0.079942
    36  C    0.113079
    37  C    0.136515
    38  C    0.068272
    39  O   -0.135225
    40  C   -0.022657
    41  C    0.197193
    42  O   -0.240396
    43  O   -0.299113
    44  C    0.299163
    45  C    0.362957
    46  C   -0.147688
    47  C   -0.113934
    48  C    0.043369
    49  C    0.146071
    50  C   -0.086135
    51  C    0.093311
    52  C   -0.087877
    53  C    0.042178
    54  C    0.009107
    55  C   -0.024215
    56  C    0.009685
    57  C   -0.045582
    58  C    0.069390
    59  C    0.011903
    60  C    0.048028
    61  C   -0.045306
    62  C   -0.163605
    63  C    0.039038
    64  C    0.099215
 Electronic spatial extent (au):  <R**2>=         178894.5629
 Charge=              0.0000 electrons
 Dipole moment (field-independent basis, Debye):
    X=              1.5314    Y=              5.3591    Z=              1.2538  Tot=              5.7129
 Quadrupole moment (field-independent basis, Debye-Ang):
   XX=           -353.7012   YY=           -376.2425   ZZ=           -395.3155
   XY=            -22.0787   XZ=              3.1816   YZ=             -2.1526
 Traceless Quadrupole moment (field-independent basis, Debye-Ang):
   XX=             21.3852   YY=             -1.1561   ZZ=            -20.2291
   XY=            -22.0787   XZ=              3.1816   YZ=             -2.1526
 Octapole moment (field-independent basis, Debye-Ang**2):
  XXX=           -404.7553  YYY=            165.7574  ZZZ=             14.4214  XYY=           -117.7244
  XXY=            243.3643  XXZ=           -220.1221  XZZ=             -5.5155  YZZ=            -20.6342
  YYZ=             60.8834  XYZ=            -28.9018
 Hexadecapole moment (field-independent basis, Debye-Ang**3):
 XXXX=        -220617.9337 YYYY=         -16866.3999 ZZZZ=          -4297.6464 XXXY=            746.7069
 XXXZ=           1466.4124 YYYX=          -1483.2548 YYYZ=           -235.6945 ZZZX=            -73.8257
 ZZZY=           -115.8437 XXYY=         -39928.8218 XXZZ=         -39629.1054 YYZZ=          -3466.9730
 XXYZ=           -341.2643 YYXZ=           -148.4975 ZZXY=            -58.8127
 N-N= 8.296872680164D+03 E-N=-2.292900628612D+04  KE= 2.701785539581D+03
 1\1\GINC-PEDRO-RYZENSSD\SP\RB3LYP TD-FC\SVP\C55H74N4O5\PADAWAN\01-Aug-
 2019\0\\# td=(NStates=1) B3LYP/SVP\\TD\\0,1\C,0,-5.0711448126,-1.99895
 61377,0.3691317891\C,0,-4.8707073897,2.7529817499,1.3185182377\C,0,-9.
 4739573054,3.169757775,-0.1620646744\C,0,-9.8386519197,-1.6291737208,-
 0.9573282862\N,0,-5.2225914214,0.4485964825,0.7297714141\C,0,-4.534452
 0613,-0.7000467257,0.7567891223\C,0,-3.0733870252,-0.4899954342,1.3321
 782136\C,0,-3.1712920946,0.985587451,1.933272433\C,0,-4.4602152146,1.3
 800378217,1.2587894759\C,0,-3.0208006486,1.1512426366,3.4399418568\C,0
 ,-2.0906911398,-0.7529552572,0.1367116168\C,0,-0.6368668989,-0.5116293
 795,0.6241548682\C,0,0.3767613375,-0.64507138,-0.5518167393\O,0,0.1005
 818258,-0.9784502116,-1.7230259141\O,0,1.6543956367,-0.4392807012,-0.0
 582582685\N,0,-7.1252371183,2.647342006,0.583727882\C,0,-6.0741389893,
 3.3674411624,1.0714279997\C,0,-6.3926824539,4.7568521247,1.0816146543\
 C,0,-7.629782075,4.9289217277,0.5307996074\C,0,-8.1890798539,3.5251710
 108,0.2417443298\C,0,-5.4253830548,5.8508005952,1.5188131473\C,0,-8.38
 37556583,6.2617801896,0.2785663579\C,0,-9.2577036686,6.5579955215,-0.6
 637188507\N,0,-9.262074408,0.7180790409,-0.4874412125\C,0,-9.918525715
 5,1.9217546742,-0.4805373229\C,0,-11.2472785944,1.7017537364,-0.963810
 2149\C,0,-11.4259565462,0.319159256,-1.178322787\C,0,-10.205362762,-0.
 3104809998,-0.9225955021\C,0,-12.421300631,2.7295514567,-1.1004931396\
 C,0,-12.6065083903,-0.3395964391,-1.6794589056\C,0,-12.424082539,-0.67
 73109955,-3.1792460959\N,0,-7.447043662,-1.3320648917,-0.3139299215\C,
 0,-8.5694085284,-2.1169504218,-0.7343567981\C,0,-8.1231347525,-3.49881
 67639,-0.7346460319\C,0,-6.7035652656,-3.4145782861,-0.3813857625\C,0,
 -6.3931404174,-2.0722500436,-0.0316480886\C,0,-8.9024930069,-4.7770984
 593,-1.0083698314\C,0,-5.5943963848,-4.3072257577,-0.065935648\O,0,-5.
 4631458048,-5.4835078809,-0.0614834142\C,0,-4.4532029489,-3.3100417658
 ,0.3435634184\C,0,-3.8837821761,-3.7212362171,1.766653191\O,0,-4.06350
 14236,-3.1784857825,2.8431723853\O,0,-3.0399126789,-4.7461795909,1.591
 0095289\C,0,-2.5160163054,-5.3112205682,2.8256147011\C,0,2.6551776864,
 -0.6386077584,-1.0369677226\C,0,3.9950727541,-0.3410746099,-0.42227432
 75\C,0,5.0744797046,0.3414952044,-0.901974154\C,0,4.8834675425,1.04080
 48122,-2.2251096278\C,0,6.3552572709,0.5708348227,-0.0475036646\C,0,7.
 4937206125,-0.2374699299,-0.7987667436\C,0,8.8247640775,-0.1802720123,
 -0.0742857761\C,0,10.0748584115,-0.7191262392,-0.7652738822\C,0,9.8814
 64185,-2.2796617691,-1.0065399389\C,0,11.2931331635,-0.3087851932,0.02
 99324375\C,0,12.6748491591,-0.6040757248,-0.6730018233\C,0,13.87738632
 8,-0.0667338996,0.0761896745\C,0,15.2253114429,-0.2861694984,-0.593842
 9422\C,0,15.5399135632,-1.8484137068,-0.5999587642\C,0,16.3008008244,0
 .5189264099,0.2120902313\C,0,17.6986447533,0.5442873464,-0.319275829\C
 ,0,18.6765385782,1.3514294718,0.4439252087\C,0,20.222234125,1.24538234
 28,0.2170234298\C,0,20.4296036593,1.9078273588,-1.2084589237\C,0,21.06
 12086422,2.1242237612,1.2169334815\H,0,-4.1359812584,3.4767289049,1.78
 92738083\H,0,-9.9862264757,4.0056678089,-0.2819595187\H,0,-10.57508176
 46,-2.3318903445,-1.3179112642\H,0,-2.8250548325,-1.0316223974,2.25140
 60163\H,0,-2.4760989244,1.6166718904,1.4758104932\H,0,-1.9767579338,0.
 9705034187,3.7665957636\H,0,-3.2232578177,2.1484398937,3.6910392991\H,
 0,-3.7784174386,0.4370088854,3.6398291591\H,0,-2.1568111895,-1.6908838
 215,-0.1246169089\H,0,-2.4799113305,-0.1313469437,-0.6247991741\H,0,-0
 .5195677766,0.4891827719,0.9197523365\H,0,-0.1904693862,-1.2359755562,
 1.5282703354\H,0,-4.5853833548,5.941388507,0.8271755174\H,0,-5.8752227
 287,6.8618110958,1.5369229869\H,0,-5.0855466415,5.7314511891,2.5250366
 377\H,0,-7.9350385133,7.0645663311,0.9606876227\H,0,-9.6298183337,5.84
 7234884,-1.3186434504\H,0,-9.7190466513,7.4896576933,-0.6971399369\H,0
 ,-12.4082351855,3.2535845457,-0.0519930124\H,0,-12.2091247608,3.400684
 0258,-1.8431936362\H,0,-13.2355545783,2.4127091066,-1.5099053459\H,0,-
 12.8432366969,-1.2485237791,-1.0701917703\H,0,-13.3697940039,0.2879829
 53,-1.5404564044\H,0,-12.4447901089,0.2352903421,-3.7833456789\H,0,-11
 .4001349815,-1.1193395076,-3.3216011122\H,0,-13.3006568192,-1.37278637
 34,-3.598887431\H,0,-10.0859451433,-4.6706363834,-0.9610484068\H,0,-8.
 8025342323,-5.023410287,-2.3753044286\H,0,-8.3898041551,-5.6442526923,
 -0.1906870242\H,0,-3.5549273441,-3.4708633765,-0.330554404\H,0,-2.1632
 867217,-6.2344485406,2.4668400181\H,0,-2.0886173081,-4.3534888328,3.43
 70281454\H,0,-3.4124742638,-5.3703421258,3.5066375394\H,0,2.7210360111
 ,-1.5024978933,-1.4675879258\H,0,2.4675016447,-0.0163092117,-1.8986076
 28\H,0,4.006833455,-0.5243547498,0.6298708901\H,0,5.5434261718,1.93885
 63946,-2.3069054103\H,0,5.3951561328,0.4505210146,-3.1698383854\H,0,3.
 8685269709,1.4982210089,-2.7119120163\H,0,6.6839264088,1.6271288379,-0
 .0264628374\H,0,6.1895169964,0.1480349139,0.9955472621\H,0,7.145721357
 ,-1.270563781,-1.2743681964\H,0,7.5233118737,0.2465666773,-1.872192048
 2\H,0,9.10122561,0.8082796693,0.0476349118\H,0,8.7550785707,-0.8253066
 822,0.8731201244\H,0,10.110343703,-0.297387182,-1.7757621512\H,0,9.093
 4896652,-2.3500636996,-1.6209906469\H,0,10.5815231834,-2.8845600558,-1
 .4388144863\H,0,9.4706620863,-2.818973583,-0.1586941387\H,0,11.3571110
 085,0.6474735275,0.3662652117\H,0,11.3427802415,-0.9214273792,1.050304
 9607\H,0,12.6844431549,-1.8324348147,-0.9407272857\H,0,12.4811962718,-
 0.0785979388,-1.7364251762\H,0,13.6813192868,0.9734870595,0.2972326342
 \H,0,13.9441686439,-0.4653629641,1.1554623921\H,0,15.2296153057,0.1148
 926954,-1.5421462279\H,0,14.8621217651,-2.4195545373,-0.9991692501\H,0
 ,16.4942933028,-1.903654402,-1.0970954934\H,0,15.4140666855,-2.2671518
 478,0.465345806\H,0,15.8392641996,1.7194985202,0.298760335\H,0,16.3788
 725441,0.0516557889,1.2191353361\H,0,18.2924104627,-0.3965638669,-0.30
 41302808\H,0,17.8644610317,0.8061425026,-1.4002284553\H,0,18.408255515
 1,2.4578121771,0.3606414538\H,0,18.6663388881,1.0316389734,1.605157665
 8\H,0,20.4123475672,-0.1089729363,0.2424253987\H,0,20.4248798446,3.028
 6811382,-1.1837802804\H,0,21.5374809918,1.6720652762,-1.3278858952\H,0
 ,19.9816431373,1.4867742991,-2.1658887704\H,0,21.0761728538,1.57334880
 29,2.2540064372\H,0,22.2024731045,2.0239624236,0.8562497821\H,0,20.723
 0019296,3.1782310227,1.0680155395\H,0,-7.3134231754,1.5828171549,0.514
 3532814\H,0,-7.7199435428,-0.3228724632,-0.0146815958\\Version=ES64L-G
 09RevD.01\State=1-A\HF=-2733.0404352\RMSD=3.217e-09\PG=C01 [X(C55H74N4
 O5)]\\@


 LOGIC IS A SYSTEMATIC METHOD OF COMING TO THE
 WRONG CONCLUSION WITH CONFIDENCE.
 Job cpu time:       0 days  5 hours 24 minutes 12.5 seconds.
 File lengths (MBytes):  RWF=   1953 Int=      0 D2E=      0 Chk=    148 Scr=      1
 Normal termination of Gaussian 09 at Thu Aug  1 13:25:01 2019.
