 Entering Gaussian System, Link 0=g16
 Input=Geometria-240-.com
 Output=Geometria-240-.log
 Initial command:
 /usr/local/g09/l1.exe "/home/padawan/israel-mol/pheophytin/spectra/abs/Gau-97128.inp" -scrdir="/home/padawan/israel-mol/pheophytin/spectra/abs/"
 Entering Link 1 = /usr/local/g09/l1.exe PID=     97130.
  
 Copyright (c) 1988,1990,1992,1993,1995,1998,2003,2009,2013,
            Gaussian, Inc.  All Rights Reserved.
  
 This is part of the Gaussian(R) 09 program.  It is based on
 the Gaussian(R) 03 system (copyright 2003, Gaussian, Inc.),
 the Gaussian(R) 98 system (copyright 1998, Gaussian, Inc.),
 the Gaussian(R) 94 system (copyright 1995, Gaussian, Inc.),
 the Gaussian 92(TM) system (copyright 1992, Gaussian, Inc.),
 the Gaussian 90(TM) system (copyright 1990, Gaussian, Inc.),
 the Gaussian 88(TM) system (copyright 1988, Gaussian, Inc.),
 the Gaussian 86(TM) system (copyright 1986, Carnegie Mellon
 University), and the Gaussian 82(TM) system (copyright 1983,
 Carnegie Mellon University). Gaussian is a federally registered
 trademark of Gaussian, Inc.
  
 This software contains proprietary and confidential information,
 including trade secrets, belonging to Gaussian, Inc.
  
 This software is provided under written license and may be
 used, copied, transmitted, or stored only in accord with that
 written license.
  
 The following legend is applicable only to US Government
 contracts under FAR:
  
                    RESTRICTED RIGHTS LEGEND
  
 Use, reproduction and disclosure by the US Government is
 subject to restrictions as set forth in subparagraphs (a)
 and (c) of the Commercial Computer Software - Restricted
 Rights clause in FAR 52.227-19.
  
 Gaussian, Inc.
 340 Quinnipiac St., Bldg. 40, Wallingford CT 06492
  
  
 ---------------------------------------------------------------
 Warning -- This program may not be used in any manner that
 competes with the business of Gaussian, Inc. or will provide
 assistance to any competitor of Gaussian, Inc.  The licensee
 of this program is prohibited from giving any competitor of
 Gaussian, Inc. access to this program.  By using this program,
 the user acknowledges that Gaussian, Inc. is engaged in the
 business of creating and licensing software in the field of
 computational chemistry and represents and warrants to the
 licensee that it is not a competitor of Gaussian, Inc. and that
 it will not use this program in any manner prohibited above.
 ---------------------------------------------------------------
  

 Cite this work as:
 Gaussian 09, Revision D.01,
 M. J. Frisch, G. W. Trucks, H. B. Schlegel, G. E. Scuseria, 
 M. A. Robb, J. R. Cheeseman, G. Scalmani, V. Barone, B. Mennucci, 
 G. A. Petersson, H. Nakatsuji, M. Caricato, X. Li, H. P. Hratchian, 
 A. F. Izmaylov, J. Bloino, G. Zheng, J. L. Sonnenberg, M. Hada, 
 M. Ehara, K. Toyota, R. Fukuda, J. Hasegawa, M. Ishida, T. Nakajima, 
 Y. Honda, O. Kitao, H. Nakai, T. Vreven, J. A. Montgomery, Jr., 
 J. E. Peralta, F. Ogliaro, M. Bearpark, J. J. Heyd, E. Brothers, 
 K. N. Kudin, V. N. Staroverov, T. Keith, R. Kobayashi, J. Normand, 
 K. Raghavachari, A. Rendell, J. C. Burant, S. S. Iyengar, J. Tomasi, 
 M. Cossi, N. Rega, J. M. Millam, M. Klene, J. E. Knox, J. B. Cross, 
 V. Bakken, C. Adamo, J. Jaramillo, R. Gomperts, R. E. Stratmann, 
 O. Yazyev, A. J. Austin, R. Cammi, C. Pomelli, J. W. Ochterski, 
 R. L. Martin, K. Morokuma, V. G. Zakrzewski, G. A. Voth, 
 P. Salvador, J. J. Dannenberg, S. Dapprich, A. D. Daniels, 
 O. Farkas, J. B. Foresman, J. V. Ortiz, J. Cioslowski, 
 and D. J. Fox, Gaussian, Inc., Wallingford CT, 2013.
 
 ******************************************
 Gaussian 09:  ES64L-G09RevD.01 24-Apr-2013
                 2-Aug-2019 
 ******************************************
 %nproc=3
 Will use up to    3 processors via shared memory.
 %Mem=2GB
 --------------------------
 # td=(NStates=1) B3LYP/SVP
 --------------------------
 1/38=1/1;
 2/12=2,17=6,18=5,40=1/2;
 3/5=18,7=101,11=9,16=1,25=1,30=1,74=-5/1,2,8,3;
 4//1;
 5/5=2,38=5/2;
 8/6=1,10=1,108=1/1;
 9/41=1,42=1,70=2/14;
 6/7=2,8=2,9=2,10=2/1;
 99/5=1,9=1/99;
 --
 TD
 --
 Symbolic Z-matrix:
 Charge =  0 Multiplicity = 1
 6                    -5.03365  -1.89152   0.40178 
 6                    -4.92169   2.72333   1.49905 
 6                    -9.29012   3.36223  -0.23045 
 6                    -9.82715  -1.42429  -1.11131 
 7                    -5.16366   0.3509    0.79446 
 6                    -4.47054  -0.706     0.83361 
 6                    -3.09885  -0.58731   1.3216 
 6                    -3.17463   0.89482   1.922 
 6                    -4.44297   1.30645   1.33338 
 6                    -3.26386   0.9046    3.43544 
 6                    -1.94314  -0.72321   0.21934 
 6                    -0.49831  -0.88852   0.73833 
 6                     0.43553  -0.99598  -0.46324 
 8                     0.05674  -1.22811  -1.64513 
 8                     1.72862  -0.8064   -0.08706 
 7                    -7.09331   2.83129   0.45113 
 6                    -6.00821   3.33304   1.11749 
 6                    -6.3422    4.78849   1.05856 
 6                    -7.58007   4.95      0.59391 
 6                    -8.08529   3.65792   0.26296 
 6                    -5.35183   5.72325   1.57821 
 6                    -8.19963   6.26788   0.47469 
 6                    -9.11535   6.70321  -0.47175 
 7                    -9.3039    0.92968  -0.6025 
 6                    -9.97077   2.12     -0.58221 
 6                    -11.36821   1.84952  -1.08496 
 6                    -11.46208   0.55573  -1.36874 
 6                    -10.12994  -0.03863  -1.02358 
 6                    -12.4001   2.99908  -1.14936 
 6                    -12.69097  -0.21998  -1.87739 
 6                    -12.51143  -0.46015  -3.37303 
 7                    -7.41872  -1.28521  -0.27454 
 6                    -8.55944  -2.0512   -0.81493 
 6                    -8.20624  -3.42687  -0.7079 
 6                    -6.85769  -3.42676  -0.20151 
 6                    -6.43396  -2.13571  -0.0004 
 6                    -8.97945  -4.67449  -1.11425 
 6                    -5.71755  -4.2957    0.06396 
 8                    -5.67988  -5.52776  -0.12824 
 6                    -4.50563  -3.40703   0.51385 
 6                    -3.87203  -3.75827   1.84685 
 8                    -4.25745  -3.30509   2.90406 
 8                    -3.0956   -4.74875   1.72691 
 6                    -2.52541  -5.3797    2.95433 
 6                     2.68252  -0.91364  -1.14479 
 6                     3.98164  -0.59715  -0.50311 
 6                     4.96235   0.08471  -1.11143 
 6                     4.99321   0.57339  -2.50472 
 6                     6.25773   0.35271  -0.30867 
 6                     7.51544  -0.49358  -0.7622 
 6                     8.82331  -0.22765  -0.09622 
 6                     10.15474  -0.83292  -0.74152 
 6                     10.04487  -2.32345  -0.90339 
 6                     11.30099  -0.41779   0.16386 
 6                     12.71612  -0.55259  -0.57419 
 6                     13.8446  -0.0111    0.26804 
 6                     15.31361  -0.20504  -0.44984 
 6                     15.71987  -1.66414  -0.53795 
 6                     16.35816   0.56391   0.37629 
 6                     17.73186   0.70363  -0.22212 
 6                     18.72247   1.64081   0.46203 
 6                     20.09788   1.6899   -0.08435 
 6                     20.1483   2.38325  -1.44443 
 6                     21.05667   2.4242    0.96622 
 1                    -4.01597   3.37384   1.91631 
 1                    -9.98843   4.25028  -0.50765 
 1                    -10.46268  -2.0652   -1.73398 
 1                    -2.76143  -1.28062   2.06675 
 1                    -2.14414   1.33307   1.88765 
 1                    -2.32677   0.36889   3.81818 
 1                    -3.196     1.75509   3.96064 
 1                    -3.95765   0.21907   3.86428 
 1                    -2.21079  -1.49367  -0.44572 
 1                    -2.12758   0.21082  -0.48568 
 1                    -0.24462  -0.12222   1.48057 
 1                    -0.38062  -1.67974   1.39435 
 1                    -4.73698   5.84025   0.74672 
 1                    -5.60176   6.82114   2.09488 
 1                    -4.60387   5.27582   2.35489 
 1                    -7.86082   6.88859   1.22564 
 1                    -9.30152   6.01409  -1.22702 
 1                    -9.4395    7.76248  -0.5074 
 1                    -12.51864   3.60631  -0.07103 
 1                    -12.06096   3.54738  -2.15141 
 1                    -13.19112   2.39806  -1.43618 
 1                    -12.86038  -1.15461  -1.26614 
 1                    -13.45575   0.52039  -1.73196 
 1                    -12.93073   0.54569  -3.77648 
 1                    -11.53227  -1.0075   -3.76899 
 1                    -13.434   -1.08134  -3.68432 
 1                    -10.00571  -4.84684  -0.68403 
 1                    -9.33002  -4.68964  -2.18145 
 1                    -8.27314  -5.52565  -0.82512 
 1                    -3.75121  -3.60802  -0.32075 
 1                    -1.94369  -6.2411    2.56164 
 1                    -2.19773  -4.49164   3.48379 
 1                    -3.28364  -5.83619   3.45625 
 1                     2.59998  -1.98297  -1.47904 
 1                     2.40558  -0.14482  -1.91236 
 1                     4.12131  -0.9612    0.44524 
 1                     5.32989   1.65752  -2.33482 
 1                     5.5758    0.02576  -3.33152 
 1                     4.01296   0.68466  -3.20687 
 1                     6.39381   1.36308  -0.32593 
 1                     6.16533  -0.09671   0.82538 
 1                     7.36607  -1.52702  -0.71156 
 1                     7.50923  -0.3      -1.7216 
 1                     9.0611    0.89998   0.08791 
 1                     8.69329  -0.67601   0.88738 
 1                     10.09619  -0.46912  -1.82872 
 1                     9.14663  -2.52643  -1.6384 
 1                     10.97227  -3.01305  -1.37099 
 1                     9.77112  -2.73693   0.11236 
 1                     11.1993   0.63264   0.70956 
 1                     11.47867  -1.3055    1.03016 
 1                     12.94014  -1.52594  -0.69176 
 1                     12.53754  -0.11849  -1.67674 
 1                     13.58217   1.03577   0.46723 
 1                     13.93171  -0.41678   1.36809 
 1                     15.15536   0.1878   -1.4756 
 1                     14.99413  -2.3547   -0.97672 
 1                     16.63794  -1.91126  -1.12176 
 1                     15.65711  -2.1232    0.36178 
 1                     15.89501   1.52297   0.87266 
 1                     16.37041   0.09973   1.17725 
 1                     18.06473  -0.28837  -0.41314 
 1                     17.55897   1.09552  -1.30697 
 1                     18.24705   2.58197   0.28599 
 1                     18.73542   1.31393   1.52063 
 1                     20.68717   0.51457  -0.35446 
 1                     19.53883   3.40083  -1.19962 
 1                     21.17128   2.4974   -1.83646 
 1                     19.54826   1.81116  -2.33049 
 1                     21.06207   1.84835   1.86495 
 1                     22.09984   2.43847   0.55567 
 1                     20.40778   3.39242   1.00722 
 1                    -7.21215   1.763     0.34911 
 1                    -7.56174  -0.27363  -0.18096 
 
 Stoichiometry    C55H74N4O5
 Framework group  C1[X(C55H74N4O5)]
 Deg. of freedom   408
 Full point group                 C1      NOp   1
 Largest Abelian subgroup         C1      NOp   1
 Largest concise Abelian subgroup C1      NOp   1
                         Standard orientation:                         
 ---------------------------------------------------------------------
 Center     Atomic      Atomic             Coordinates (Angstroms)
 Number     Number       Type             X           Y           Z
 ---------------------------------------------------------------------
      1          6           0       -5.029958   -1.897939    0.389855
      2          6           0       -4.924027    2.711541    1.510033
      3          6           0       -9.291865    3.354085   -0.219601
      4          6           0       -9.822838   -1.428617   -1.124545
      5          7           0       -5.162785    0.342355    0.793530
      6          6           0       -4.468504   -0.713941    0.827976
      7          6           0       -3.097321   -0.596125    1.317589
      8          6           0       -3.175227    0.882923    1.925262
      9          6           0       -4.443587    1.296039    1.337718
     10          6           0       -3.265612    0.885112    3.438664
     11          6           0       -1.940625   -0.725277    0.215551
     12          6           0       -0.496008   -0.891526    0.734811
     13          6           0        0.438859   -0.991989   -0.466560
     14          8           0        0.061222   -1.218691   -1.649872
     15          8           0        1.731456   -0.802822   -0.088467
     16          7           0       -7.094977    2.822249    0.461019
     17          6           0       -6.010945    3.321910    1.130675
     18          6           0       -6.346525    4.777256    1.078694
     19          6           0       -7.584225    4.939682    0.613902
     20          6           0       -8.087741    3.648689    0.276179
     21          6           0       -5.357599    5.710547    1.603712
     22          6           0       -8.205180    6.257436    0.500734
     23          6           0       -9.120678    6.696415   -0.444231
     24          7           0       -9.302623    0.923395   -0.603695
     25          6           0       -9.970851    2.112855   -0.578016
     26          6           0      -11.367605    1.843291   -1.083165
     27          6           0      -11.459803    0.550821   -1.373414
     28          6           0      -10.127250   -0.043750   -1.030181
     29          6           0      -12.400739    2.991996   -1.142656
     30          6           0      -12.687431   -0.223749   -1.886827
     31          6           0      -12.506497   -0.456307   -3.383497
     32          7           0       -7.415198   -1.290973   -0.285259
     33          6           0       -8.554643   -2.055563   -0.830309
     34          6           0       -8.199980   -3.431344   -0.729817
     35          6           0       -6.851811   -3.432226   -0.222403
     36          6           0       -6.429692   -2.141709   -0.014592
     37          6           0       -8.971475   -4.677804   -1.142920
     38          6           0       -5.710891   -4.301193    0.039626
     39          8           0       -5.671687   -5.532242   -0.158637
     40          6           0       -4.500312   -3.413397    0.494831
     41          6           0       -3.867325   -3.770517    1.826559
     42          8           0       -4.254053   -3.323006    2.885702
     43          8           0       -3.089687   -4.759518    1.702311
     44          6           0       -2.519711   -5.395892    2.927021
     45          6           0        2.686271   -0.903752   -1.145987
     46          6           0        3.984550   -0.588988   -0.501766
     47          6           0        4.964947    0.096975   -1.105952
     48          6           0        4.996307    0.592577   -2.496786
     49          6           0        6.259418    0.362457   -0.300897
     50          6           0        7.518427   -0.480164   -0.757656
     51          6           0        8.825495   -0.216066   -0.089370
     52          6           0       10.158085   -0.816640   -0.736649
     53          6           0       10.050021   -2.306472   -0.905974
     54          6           0       11.303191   -0.404707    0.171642
     55          6           0       12.719028   -0.534268   -0.565988
     56          6           0       13.846261    0.004316    0.279769
     57          6           0       15.316027   -0.184422   -0.437943
     58          6           0       15.723998   -1.642605   -0.532967
     59          6           0       16.359083    0.581605    0.392771
     60          6           0       17.733077    0.725829   -0.203890
     61          6           0       18.722119    1.660719    0.485635
     62          6           0       20.097883    1.714055   -0.059444
     63          6           0       20.148542    2.414192   -1.416043
     64          6           0       21.055049    2.444230    0.995470
     65          1           0       -4.019352    3.360995    1.931195
     66          1           0       -9.990963    4.242716   -0.492934
     67          1           0      -10.457176   -2.067152   -1.750860
     68          1           0       -2.759681   -1.292737    2.059556
     69          1           0       -2.145199    1.322500    1.893865
     70          1           0       -2.328206    0.348572    3.819460
     71          1           0       -3.199097    1.733071    3.968112
     72          1           0       -3.958943    0.196689    3.863579
     73          1           0       -2.206905   -1.492738   -0.453515
     74          1           0       -2.125585    0.212022   -0.484973
     75          1           0       -0.243739   -0.128626    1.481029
     76          1           0       -0.377917   -1.685853    1.386998
     77          1           0       -4.742257    5.832351    0.773277
     78          1           0       -5.609155    6.805584    2.125618
     79          1           0       -4.609724    5.260116    2.378737
     80          1           0       -7.867640    6.874800    1.255012
     81          1           0       -9.305497    6.010834   -1.203048
     82          1           0       -9.445993    7.755489   -0.474887
     83          1           0      -12.520774    3.593750   -0.061432
     84          1           0      -12.061463    3.545629   -2.141729
     85          1           0      -13.190866    2.391514   -1.433047
     86          1           0      -12.856250   -1.161582   -1.280341
     87          1           0      -13.453160    0.515034   -1.738313
     88          1           0      -12.926623    0.551047   -3.782293
     89          1           0      -11.526419   -1.000590   -3.781417
     90          1           0      -13.428130   -1.076982   -3.698558
     91          1           0       -9.997860   -4.853439   -0.714338
     92          1           0       -9.321219   -4.688065   -2.210443
     93          1           0       -8.264426   -5.529594   -0.857469
     94          1           0       -3.745036   -3.609403   -0.340183
     95          1           0       -1.936733   -6.254686    2.530518
     96          1           0       -2.193433   -4.510101    3.461123
     97          1           0       -3.277809   -5.855713    3.426105
     98          1           0        2.605192   -1.971508   -1.485588
     99          1           0        2.409039   -0.131461   -1.909955
    100          1           0        4.123919   -0.957568    0.444881
    101          1           0        5.331644    1.676231   -2.321268
    102          1           0        5.580143    0.049701   -3.325849
    103          1           0        4.016465    0.706222   -3.199125
    104          1           0        6.394372    1.373051   -0.313057
    105          1           0        6.166676   -0.092676    0.830845
    106          1           0        7.370184   -1.514013   -0.712243
    107          1           0        7.512720   -0.281848   -1.716085
    108          1           0        9.061873    0.910901    0.100515
    109          1           0        8.695237   -0.669439    0.891900
    110          1           0       10.099951   -0.447537   -1.822075
    111          1           0        9.152569   -2.506825   -1.642664
    112          1           0       10.978552   -2.992714   -1.376274
    113          1           0        9.775973   -2.725280    0.107512
    114          1           0       11.199897    0.642892    0.722460
    115          1           0       11.481218   -1.296494    1.033681
    116          1           0       12.944228   -1.506776   -0.688203
    117          1           0       12.540789   -0.094919   -1.666509
    118          1           0       13.582498    1.049894    0.483938
    119          1           0       13.932993   -0.406705    1.377869
    120          1           0       15.158106    0.213313   -1.461867
    121          1           0       14.999371   -2.331802   -0.975694
    122          1           0       16.642782   -1.885801   -1.117290
    123          1           0       15.661076   -2.106185    0.364431
    124          1           0       15.894481    1.537674    0.893529
    125          1           0       16.371257    0.113480    1.191438
    126          1           0       18.067208   -0.264845   -0.399568
    127          1           0       17.560566    1.122887   -1.286921
    128          1           0       18.245768    2.602210    0.313900
    129          1           0       18.734632    1.328618    1.542616
    130          1           0       20.688694    0.540742   -0.334926
    131          1           0       19.537747    3.429857   -1.166664
    132          1           0       21.171697    2.531423   -1.806721
    133          1           0       19.549819    1.845813   -2.305372
    134          1           0       21.060423    1.863939    1.891343
    135          1           0       22.098516    2.461704    0.585790
    136          1           0       20.405040    3.411505    1.040768
    137          1           0       -7.212536    1.754339    0.353616
    138          1           0       -7.559426   -0.280027   -0.186786
 ---------------------------------------------------------------------
 Rotational constants (GHZ):      0.0629397      0.0061137      0.0057583
 Standard basis: SVP (5D, 7F)
 There are  1330 symmetry adapted cartesian basis functions of A   symmetry.
 There are  1266 symmetry adapted basis functions of A   symmetry.
  1266 basis functions,  2118 primitive gaussians,  1330 cartesian basis functions
   236 alpha electrons      236 beta electrons
       nuclear repulsion energy      8275.4063407598 Hartrees.
 NAtoms=  138 NActive=  138 NUniq=  138 SFac= 1.00D+00 NAtFMM=   60 NAOKFM=T Big=T
 Integral buffers will be    131072 words long.
 Regular integral format.
 Two-electron integral symmetry is turned on.
 One-electron integrals computed using PRISM.
 NBasis=  1266 RedAO= T EigKep=  3.14D-04  NBF=  1266
 NBsUse=  1266 1.00D-06 EigRej= -1.00D+00 NBFU=  1266
 ExpMin= 1.22D-01 ExpMax= 2.27D+03 ExpMxC= 3.41D+02 IAcc=1 IRadAn=         1 AccDes= 0.00D+00
 Harris functional with IExCor=  402 and IRadAn=       1 diagonalized for initial guess.
 HarFok:  IExCor=  402 AccDes= 0.00D+00 IRadAn=         1 IDoV= 1 UseB2=F ITyADJ=14
 ICtDFT=  3500011 ScaDFX=  1.000000  1.000000  1.000000  1.000000
 FoFCou: FMM=F IPFlag=           0 FMFlag=      100000 FMFlg1=        2001
         NFxFlg=           0 DoJE=T BraDBF=F KetDBF=T FulRan=T
         wScrn=  0.000000 ICntrl=     500 IOpCl=  0 I1Cent=   200000004 NGrid=           0
         NMat0=    1 NMatS0=      1 NMatT0=    0 NMatD0=    1 NMtDS0=    0 NMtDT0=    0
 Petite list used in FoFCou.
 Requested convergence on RMS density matrix=1.00D-08 within 128 cycles.
 Requested convergence on MAX density matrix=1.00D-06.
 Requested convergence on             energy=1.00D-06.
 No special actions if energy rises.
 Integral accuracy reduced to 1.0D-05 until final iterations.
 Initial convergence to 1.0D-05 achieved.  Increase integral accuracy.
 SCF Done:  E(RB3LYP) =  -2733.05296890     A.U. after   17 cycles
            NFock= 17  Conv=0.39D-08     -V/T= 2.0114
 DoSCS=F DFT=T ScalE2(SS,OS)=  1.000000  1.000000
 ExpMin= 1.22D-01 ExpMax= 2.27D+03 ExpMxC= 3.41D+02 IAcc=3 IRadAn=         5 AccDes= 0.00D+00
 HarFok:  IExCor=  205 AccDes= 0.00D+00 IRadAn=         5 IDoV=-2 UseB2=F ITyADJ=14
 ICtDFT= 12500011 ScaDFX=  1.000000  1.000000  1.000000  1.000000
 Range of M.O.s used for correlation:    65  1266
 NBasis=  1266 NAE=   236 NBE=   236 NFC=    64 NFV=     0
 NROrb=   1202 NOA=   172 NOB=   172 NVA=  1030 NVB=  1030

 **** Warning!!: The smallest alpha delta epsilon is  0.92588784D-01

 Would need an additional        965744300000 words for in-memory AO integral storage.
 Orbital symmetries:
       Occupied  (A) (A) (A) (A) (A) (A) (A) (A) (A) (A) (A) (A)
                 (A) (A) (A) (A) (A) (A) (A) (A) (A) (A) (A) (A)
                 (A) (A) (A) (A) (A) (A) (A) (A) (A) (A) (A) (A)
                 (A) (A) (A) (A) (A) (A) (A) (A) (A) (A) (A) (A)
                 (A) (A) (A) (A) (A) (A) (A) (A) (A) (A) (A) (A)
                 (A) (A) (A) (A) (A) (A) (A) (A) (A) (A) (A) (A)
                 (A) (A) (A) (A) (A) (A) (A) (A) (A) (A) (A) (A)
                 (A) (A) (A) (A) (A) (A) (A) (A) (A) (A) (A) (A)
                 (A) (A) (A) (A) (A) (A) (A) (A) (A) (A) (A) (A)
                 (A) (A) (A) (A) (A) (A) (A) (A) (A) (A) (A) (A)
                 (A) (A) (A) (A) (A) (A) (A) (A) (A) (A) (A) (A)
                 (A) (A) (A) (A) (A) (A) (A) (A) (A) (A) (A) (A)
                 (A) (A) (A) (A) (A) (A) (A) (A) (A) (A) (A) (A)
                 (A) (A) (A) (A) (A) (A) (A) (A) (A) (A) (A) (A)
                 (A) (A) (A) (A) (A) (A) (A) (A) (A) (A) (A) (A)
                 (A) (A) (A) (A) (A) (A) (A) (A) (A) (A) (A) (A)
                 (A) (A) (A) (A) (A) (A) (A) (A) (A) (A) (A) (A)
                 (A) (A) (A) (A) (A) (A) (A) (A) (A) (A) (A) (A)
                 (A) (A) (A) (A) (A) (A) (A) (A) (A) (A) (A) (A)
                 (A) (A) (A) (A) (A) (A) (A) (A)
       Virtual   (A) (A) (A) (A) (A) (A) (A) (A) (A) (A) (A) (A)
                 (A) (A) (A) (A) (A) (A) (A) (A) (A) (A) (A) (A)
                 (A) (A) (A) (A) (A) (A) (A) (A) (A) (A) (A) (A)
                 (A) (A) (A) (A) (A) (A) (A) (A) (A) (A) (A) (A)
                 (A) (A) (A) (A) (A) (A) (A) (A) (A) (A) (A) (A)
                 (A) (A) (A) (A) (A) (A) (A) (A) (A) (A) (A) (A)
                 (A) (A) (A) (A) (A) (A) (A) (A) (A) (A) (A) (A)
                 (A) (A) (A) (A) (A) (A) (A) (A) (A) (A) (A) (A)
                 (A) (A) (A) (A) (A) (A) (A) (A) (A) (A) (A) (A)
                 (A) (A) (A) (A) (A) (A) (A) (A) (A) (A) (A) (A)
                 (A) (A) (A) (A) (A) (A) (A) (A) (A) (A) (A) (A)
                 (A) (A) (A) (A) (A) (A) (A) (A) (A) (A) (A) (A)
                 (A) (A) (A) (A) (A) (A) (A) (A) (A) (A) (A) (A)
                 (A) (A) (A) (A) (A) (A) (A) (A) (A) (A) (A) (A)
                 (A) (A) (A) (A) (A) (A) (A) (A) (A) (A) (A) (A)
                 (A) (A) (A) (A) (A) (A) (A) (A) (A) (A) (A) (A)
                 (A) (A) (A) (A) (A) (A) (A) (A) (A) (A) (A) (A)
                 (A) (A) (A) (A) (A) (A) (A) (A) (A) (A) (A) (A)
                 (A) (A) (A) (A) (A) (A) (A) (A) (A) (A) (A) (A)
                 (A) (A) (A) (A) (A) (A) (A) (A) (A) (A) (A) (A)
                 (A) (A) (A) (A) (A) (A) (A) (A) (A) (A) (A) (A)
                 (A) (A) (A) (A) (A) (A) (A) (A) (A) (A) (A) (A)
                 (A) (A) (A) (A) (A) (A) (A) (A) (A) (A) (A) (A)
                 (A) (A) (A) (A) (A) (A) (A) (A) (A) (A) (A) (A)
                 (A) (A) (A) (A) (A) (A) (A) (A) (A) (A) (A) (A)
                 (A) (A) (A) (A) (A) (A) (A) (A) (A) (A) (A) (A)
                 (A) (A) (A) (A) (A) (A) (A) (A) (A) (A) (A) (A)
                 (A) (A) (A) (A) (A) (A) (A) (A) (A) (A) (A) (A)
                 (A) (A) (A) (A) (A) (A) (A) (A) (A) (A) (A) (A)
                 (A) (A) (A) (A) (A) (A) (A) (A) (A) (A) (A) (A)
                 (A) (A) (A) (A) (A) (A) (A) (A) (A) (A) (A) (A)
                 (A) (A) (A) (A) (A) (A) (A) (A) (A) (A) (A) (A)
                 (A) (A) (A) (A) (A) (A) (A) (A) (A) (A) (A) (A)
                 (A) (A) (A) (A) (A) (A) (A) (A) (A) (A) (A) (A)
                 (A) (A) (A) (A) (A) (A) (A) (A) (A) (A) (A) (A)
                 (A) (A) (A) (A) (A) (A) (A) (A) (A) (A) (A) (A)
                 (A) (A) (A) (A) (A) (A) (A) (A) (A) (A) (A) (A)
                 (A) (A) (A) (A) (A) (A) (A) (A) (A) (A) (A) (A)
                 (A) (A) (A) (A) (A) (A) (A) (A) (A) (A) (A) (A)
                 (A) (A) (A) (A) (A) (A) (A) (A) (A) (A) (A) (A)
                 (A) (A) (A) (A) (A) (A) (A) (A) (A) (A) (A) (A)
                 (A) (A) (A) (A) (A) (A) (A) (A) (A) (A) (A) (A)
                 (A) (A) (A) (A) (A) (A) (A) (A) (A) (A) (A) (A)
                 (A) (A) (A) (A) (A) (A) (A) (A) (A) (A) (A) (A)
                 (A) (A) (A) (A) (A) (A) (A) (A) (A) (A) (A) (A)
                 (A) (A) (A) (A) (A) (A) (A) (A) (A) (A) (A) (A)
                 (A) (A) (A) (A) (A) (A) (A) (A) (A) (A) (A) (A)
                 (A) (A) (A) (A) (A) (A) (A) (A) (A) (A) (A) (A)
                 (A) (A) (A) (A) (A) (A) (A) (A) (A) (A) (A) (A)
                 (A) (A) (A) (A) (A) (A) (A) (A) (A) (A) (A) (A)
                 (A) (A) (A) (A) (A) (A) (A) (A) (A) (A) (A) (A)
                 (A) (A) (A) (A) (A) (A) (A) (A) (A) (A) (A) (A)
                 (A) (A) (A) (A) (A) (A) (A) (A) (A) (A) (A) (A)
                 (A) (A) (A) (A) (A) (A) (A) (A) (A) (A) (A) (A)
                 (A) (A) (A) (A) (A) (A) (A) (A) (A) (A) (A) (A)
                 (A) (A) (A) (A) (A) (A) (A) (A) (A) (A) (A) (A)
                 (A) (A) (A) (A) (A) (A) (A) (A) (A) (A) (A) (A)
                 (A) (A) (A) (A) (A) (A) (A) (A) (A) (A) (A) (A)
                 (A) (A) (A) (A) (A) (A) (A) (A) (A) (A) (A) (A)
                 (A) (A) (A) (A) (A) (A) (A) (A) (A) (A) (A) (A)
                 (A) (A) (A) (A) (A) (A) (A) (A) (A) (A) (A) (A)
                 (A) (A) (A) (A) (A) (A) (A) (A) (A) (A) (A) (A)
                 (A) (A) (A) (A) (A) (A) (A) (A) (A) (A) (A) (A)
                 (A) (A) (A) (A) (A) (A) (A) (A) (A) (A) (A) (A)
                 (A) (A) (A) (A) (A) (A) (A) (A) (A) (A) (A) (A)
                 (A) (A) (A) (A) (A) (A) (A) (A) (A) (A) (A) (A)
                 (A) (A) (A) (A) (A) (A) (A) (A) (A) (A) (A) (A)
                 (A) (A) (A) (A) (A) (A) (A) (A) (A) (A) (A) (A)
                 (A) (A) (A) (A) (A) (A) (A) (A) (A) (A) (A) (A)
                 (A) (A) (A) (A) (A) (A) (A) (A) (A) (A) (A) (A)
                 (A) (A) (A) (A) (A) (A) (A) (A) (A) (A) (A) (A)
                 (A) (A) (A) (A) (A) (A) (A) (A) (A) (A) (A) (A)
                 (A) (A) (A) (A) (A) (A) (A) (A) (A) (A) (A) (A)
                 (A) (A) (A) (A) (A) (A) (A) (A) (A) (A) (A) (A)
                 (A) (A) (A) (A) (A) (A) (A) (A) (A) (A) (A) (A)
                 (A) (A) (A) (A) (A) (A) (A) (A) (A) (A) (A) (A)
                 (A) (A) (A) (A) (A) (A) (A) (A) (A) (A) (A) (A)
                 (A) (A) (A) (A) (A) (A) (A) (A) (A) (A) (A) (A)
                 (A) (A) (A) (A) (A) (A) (A) (A) (A) (A) (A) (A)
                 (A) (A) (A) (A) (A) (A) (A) (A) (A) (A) (A) (A)
                 (A) (A) (A) (A) (A) (A) (A) (A) (A) (A) (A) (A)
                 (A) (A) (A) (A) (A) (A) (A) (A) (A) (A) (A) (A)
                 (A) (A) (A) (A) (A) (A) (A) (A) (A) (A) (A) (A)
                 (A) (A) (A) (A) (A) (A) (A) (A) (A) (A) (A) (A)
                 (A) (A) (A) (A) (A) (A) (A) (A) (A) (A) (A) (A)
                 (A) (A) (A) (A) (A) (A) (A) (A) (A) (A)
     8 initial guesses have been made.
 Convergence on wavefunction:    0.001000000000000
 Iteration     1 Dimension     8 NMult     0 NNew      8
 CISAX will form     8 AO SS matrices at one time.
 Iteration     2 Dimension    12 NMult     8 NNew      4
 Iteration     3 Dimension    16 NMult    12 NNew      4
 Iteration     4 Dimension    20 NMult    16 NNew      4
 Iteration     5 Dimension    24 NMult    20 NNew      4
 Iteration     6 Dimension    28 NMult    24 NNew      4
 ***********************************************************************
 Excited states from <AA,BB:AA,BB> singles matrix:
 ***********************************************************************
 
 Ground to excited state transition densities written to RWF  633
 Ground to excited state transition electric dipole moments (Au):
       state          X           Y           Z        Dip. S.      Osc.
         1         0.1729      1.5381      0.2785      2.4732      0.1328
 Ground to excited state transition velocity dipole moments (Au):
       state          X           Y           Z        Dip. S.      Osc.
         1        -0.0129     -0.1205     -0.0225      0.0152      0.1256
 Ground to excited state transition magnetic dipole moments (Au):
       state          X           Y           Z
         1        -0.4297     -0.4855      2.8705
 Ground to excited state transition velocity quadrupole moments (Au):
       state          XX          YY          ZZ          XY          XZ          YZ
         1         0.2467     -0.0604     -0.0570      1.6116      0.2398     -0.0533
 <0|del|b> * <b|rxdel|0> + <0|del|b> * <b|delr+rdel|0>
 Rotatory Strengths (R) in cgs (10**-40 erg-esu-cm/Gauss)
       state          XX          YY          ZZ    R(velocity)    E-M Angle
         1       -59.3235    -96.9904    151.1884     -1.7085       90.09
 1/2[<0|r|b>*<b|rxdel|0> + (<0|rxdel|b>*<b|r|0>)*]
 Rotatory Strengths (R) in cgs (10**-40 erg-esu-cm/Gauss)
       state          XX          YY          ZZ     R(length)
         1        52.5199    528.0699   -565.3922      5.0659
  1/2[<0|del|b>*<b|r|0> + (<0|r|b>*<b|del|0>)*] (Au)
       state          X           Y           Z        Dip. S.   Osc.(frdel)
         1        -0.0022     -0.1853     -0.0063      0.1938      0.1292

 Excitation energies and oscillator strengths:
 
 Excited State   1:      Singlet-A      2.1924 eV  565.51 nm  f=0.1328  <S**2>=0.000
     235 -> 237       -0.12554
     235 -> 238       -0.31499
     236 -> 237        0.60376
     236 -> 238       -0.13214
 This state for optimization and/or second-order correction.
 Total Energy, E(TD-HF/TD-KS) =  -2732.97239793    
 Copying the excited state density for this state as the 1-particle RhoCI density.
 SavETr:  write IOETrn=   770 NScale= 10 NData=  16 NLR=1 NState=    1 LETran=      28.

 **********************************************************************

            Population analysis using the SCF density.

 **********************************************************************

 Orbital symmetries:
       Occupied  (A) (A) (A) (A) (A) (A) (A) (A) (A) (A) (A) (A)
                 (A) (A) (A) (A) (A) (A) (A) (A) (A) (A) (A) (A)
                 (A) (A) (A) (A) (A) (A) (A) (A) (A) (A) (A) (A)
                 (A) (A) (A) (A) (A) (A) (A) (A) (A) (A) (A) (A)
                 (A) (A) (A) (A) (A) (A) (A) (A) (A) (A) (A) (A)
                 (A) (A) (A) (A) (A) (A) (A) (A) (A) (A) (A) (A)
                 (A) (A) (A) (A) (A) (A) (A) (A) (A) (A) (A) (A)
                 (A) (A) (A) (A) (A) (A) (A) (A) (A) (A) (A) (A)
                 (A) (A) (A) (A) (A) (A) (A) (A) (A) (A) (A) (A)
                 (A) (A) (A) (A) (A) (A) (A) (A) (A) (A) (A) (A)
                 (A) (A) (A) (A) (A) (A) (A) (A) (A) (A) (A) (A)
                 (A) (A) (A) (A) (A) (A) (A) (A) (A) (A) (A) (A)
                 (A) (A) (A) (A) (A) (A) (A) (A) (A) (A) (A) (A)
                 (A) (A) (A) (A) (A) (A) (A) (A) (A) (A) (A) (A)
                 (A) (A) (A) (A) (A) (A) (A) (A) (A) (A) (A) (A)
                 (A) (A) (A) (A) (A) (A) (A) (A) (A) (A) (A) (A)
                 (A) (A) (A) (A) (A) (A) (A) (A) (A) (A) (A) (A)
                 (A) (A) (A) (A) (A) (A) (A) (A) (A) (A) (A) (A)
                 (A) (A) (A) (A) (A) (A) (A) (A) (A) (A) (A) (A)
                 (A) (A) (A) (A) (A) (A) (A) (A)
       Virtual   (A) (A) (A) (A) (A) (A) (A) (A) (A) (A) (A) (A)
                 (A) (A) (A) (A) (A) (A) (A) (A) (A) (A) (A) (A)
                 (A) (A) (A) (A) (A) (A) (A) (A) (A) (A) (A) (A)
                 (A) (A) (A) (A) (A) (A) (A) (A) (A) (A) (A) (A)
                 (A) (A) (A) (A) (A) (A) (A) (A) (A) (A) (A) (A)
                 (A) (A) (A) (A) (A) (A) (A) (A) (A) (A) (A) (A)
                 (A) (A) (A) (A) (A) (A) (A) (A) (A) (A) (A) (A)
                 (A) (A) (A) (A) (A) (A) (A) (A) (A) (A) (A) (A)
                 (A) (A) (A) (A) (A) (A) (A) (A) (A) (A) (A) (A)
                 (A) (A) (A) (A) (A) (A) (A) (A) (A) (A) (A) (A)
                 (A) (A) (A) (A) (A) (A) (A) (A) (A) (A) (A) (A)
                 (A) (A) (A) (A) (A) (A) (A) (A) (A) (A) (A) (A)
                 (A) (A) (A) (A) (A) (A) (A) (A) (A) (A) (A) (A)
                 (A) (A) (A) (A) (A) (A) (A) (A) (A) (A) (A) (A)
                 (A) (A) (A) (A) (A) (A) (A) (A) (A) (A) (A) (A)
                 (A) (A) (A) (A) (A) (A) (A) (A) (A) (A) (A) (A)
                 (A) (A) (A) (A) (A) (A) (A) (A) (A) (A) (A) (A)
                 (A) (A) (A) (A) (A) (A) (A) (A) (A) (A) (A) (A)
                 (A) (A) (A) (A) (A) (A) (A) (A) (A) (A) (A) (A)
                 (A) (A) (A) (A) (A) (A) (A) (A) (A) (A) (A) (A)
                 (A) (A) (A) (A) (A) (A) (A) (A) (A) (A) (A) (A)
                 (A) (A) (A) (A) (A) (A) (A) (A) (A) (A) (A) (A)
                 (A) (A) (A) (A) (A) (A) (A) (A) (A) (A) (A) (A)
                 (A) (A) (A) (A) (A) (A) (A) (A) (A) (A) (A) (A)
                 (A) (A) (A) (A) (A) (A) (A) (A) (A) (A) (A) (A)
                 (A) (A) (A) (A) (A) (A) (A) (A) (A) (A) (A) (A)
                 (A) (A) (A) (A) (A) (A) (A) (A) (A) (A) (A) (A)
                 (A) (A) (A) (A) (A) (A) (A) (A) (A) (A) (A) (A)
                 (A) (A) (A) (A) (A) (A) (A) (A) (A) (A) (A) (A)
                 (A) (A) (A) (A) (A) (A) (A) (A) (A) (A) (A) (A)
                 (A) (A) (A) (A) (A) (A) (A) (A) (A) (A) (A) (A)
                 (A) (A) (A) (A) (A) (A) (A) (A) (A) (A) (A) (A)
                 (A) (A) (A) (A) (A) (A) (A) (A) (A) (A) (A) (A)
                 (A) (A) (A) (A) (A) (A) (A) (A) (A) (A) (A) (A)
                 (A) (A) (A) (A) (A) (A) (A) (A) (A) (A) (A) (A)
                 (A) (A) (A) (A) (A) (A) (A) (A) (A) (A) (A) (A)
                 (A) (A) (A) (A) (A) (A) (A) (A) (A) (A) (A) (A)
                 (A) (A) (A) (A) (A) (A) (A) (A) (A) (A) (A) (A)
                 (A) (A) (A) (A) (A) (A) (A) (A) (A) (A) (A) (A)
                 (A) (A) (A) (A) (A) (A) (A) (A) (A) (A) (A) (A)
                 (A) (A) (A) (A) (A) (A) (A) (A) (A) (A) (A) (A)
                 (A) (A) (A) (A) (A) (A) (A) (A) (A) (A) (A) (A)
                 (A) (A) (A) (A) (A) (A) (A) (A) (A) (A) (A) (A)
                 (A) (A) (A) (A) (A) (A) (A) (A) (A) (A) (A) (A)
                 (A) (A) (A) (A) (A) (A) (A) (A) (A) (A) (A) (A)
                 (A) (A) (A) (A) (A) (A) (A) (A) (A) (A) (A) (A)
                 (A) (A) (A) (A) (A) (A) (A) (A) (A) (A) (A) (A)
                 (A) (A) (A) (A) (A) (A) (A) (A) (A) (A) (A) (A)
                 (A) (A) (A) (A) (A) (A) (A) (A) (A) (A) (A) (A)
                 (A) (A) (A) (A) (A) (A) (A) (A) (A) (A) (A) (A)
                 (A) (A) (A) (A) (A) (A) (A) (A) (A) (A) (A) (A)
                 (A) (A) (A) (A) (A) (A) (A) (A) (A) (A) (A) (A)
                 (A) (A) (A) (A) (A) (A) (A) (A) (A) (A) (A) (A)
                 (A) (A) (A) (A) (A) (A) (A) (A) (A) (A) (A) (A)
                 (A) (A) (A) (A) (A) (A) (A) (A) (A) (A) (A) (A)
                 (A) (A) (A) (A) (A) (A) (A) (A) (A) (A) (A) (A)
                 (A) (A) (A) (A) (A) (A) (A) (A) (A) (A) (A) (A)
                 (A) (A) (A) (A) (A) (A) (A) (A) (A) (A) (A) (A)
                 (A) (A) (A) (A) (A) (A) (A) (A) (A) (A) (A) (A)
                 (A) (A) (A) (A) (A) (A) (A) (A) (A) (A) (A) (A)
                 (A) (A) (A) (A) (A) (A) (A) (A) (A) (A) (A) (A)
                 (A) (A) (A) (A) (A) (A) (A) (A) (A) (A) (A) (A)
                 (A) (A) (A) (A) (A) (A) (A) (A) (A) (A) (A) (A)
                 (A) (A) (A) (A) (A) (A) (A) (A) (A) (A) (A) (A)
                 (A) (A) (A) (A) (A) (A) (A) (A) (A) (A) (A) (A)
                 (A) (A) (A) (A) (A) (A) (A) (A) (A) (A) (A) (A)
                 (A) (A) (A) (A) (A) (A) (A) (A) (A) (A) (A) (A)
                 (A) (A) (A) (A) (A) (A) (A) (A) (A) (A) (A) (A)
                 (A) (A) (A) (A) (A) (A) (A) (A) (A) (A) (A) (A)
                 (A) (A) (A) (A) (A) (A) (A) (A) (A) (A) (A) (A)
                 (A) (A) (A) (A) (A) (A) (A) (A) (A) (A) (A) (A)
                 (A) (A) (A) (A) (A) (A) (A) (A) (A) (A) (A) (A)
                 (A) (A) (A) (A) (A) (A) (A) (A) (A) (A) (A) (A)
                 (A) (A) (A) (A) (A) (A) (A) (A) (A) (A) (A) (A)
                 (A) (A) (A) (A) (A) (A) (A) (A) (A) (A) (A) (A)
                 (A) (A) (A) (A) (A) (A) (A) (A) (A) (A) (A) (A)
                 (A) (A) (A) (A) (A) (A) (A) (A) (A) (A) (A) (A)
                 (A) (A) (A) (A) (A) (A) (A) (A) (A) (A) (A) (A)
                 (A) (A) (A) (A) (A) (A) (A) (A) (A) (A) (A) (A)
                 (A) (A) (A) (A) (A) (A) (A) (A) (A) (A) (A) (A)
                 (A) (A) (A) (A) (A) (A) (A) (A) (A) (A) (A) (A)
                 (A) (A) (A) (A) (A) (A) (A) (A) (A) (A) (A) (A)
                 (A) (A) (A) (A) (A) (A) (A) (A) (A) (A) (A) (A)
                 (A) (A) (A) (A) (A) (A) (A) (A) (A) (A) (A) (A)
                 (A) (A) (A) (A) (A) (A) (A) (A) (A) (A) (A) (A)
                 (A) (A) (A) (A) (A) (A) (A) (A) (A) (A)
 The electronic state is 1-A.
 Alpha  occ. eigenvalues --  -19.18327 -19.18056 -19.12877 -19.10843 -19.10825
 Alpha  occ. eigenvalues --  -14.36674 -14.36119 -14.32258 -14.29620 -10.32508
 Alpha  occ. eigenvalues --  -10.30652 -10.27055 -10.25147 -10.24884 -10.23994
 Alpha  occ. eigenvalues --  -10.23477 -10.23031 -10.22937 -10.22647 -10.21865
 Alpha  occ. eigenvalues --  -10.21790 -10.21416 -10.21266 -10.21197 -10.21140
 Alpha  occ. eigenvalues --  -10.20891 -10.20858 -10.20711 -10.20700 -10.20644
 Alpha  occ. eigenvalues --  -10.20592 -10.20505 -10.20498 -10.20476 -10.20235
 Alpha  occ. eigenvalues --  -10.20212 -10.20205 -10.20150 -10.20133 -10.20048
 Alpha  occ. eigenvalues --  -10.20009 -10.19915 -10.19741 -10.19740 -10.19621
 Alpha  occ. eigenvalues --  -10.19594 -10.19573 -10.19540 -10.19491 -10.19363
 Alpha  occ. eigenvalues --  -10.19043 -10.18858 -10.18803 -10.18385 -10.18200
 Alpha  occ. eigenvalues --  -10.18110 -10.17984 -10.17980 -10.17911 -10.17881
 Alpha  occ. eigenvalues --  -10.17704 -10.17008 -10.16922 -10.16403  -1.11286
 Alpha  occ. eigenvalues --   -1.09093  -1.00199  -0.99785  -0.99635  -0.99180
 Alpha  occ. eigenvalues --   -0.98891  -0.96312  -0.93013  -0.82927  -0.82904
 Alpha  occ. eigenvalues --   -0.82647  -0.82024  -0.81730  -0.81418  -0.81090
 Alpha  occ. eigenvalues --   -0.79841  -0.79500  -0.79357  -0.78805  -0.77796
 Alpha  occ. eigenvalues --   -0.77018  -0.76346  -0.75628  -0.75166  -0.74520
 Alpha  occ. eigenvalues --   -0.73817  -0.73568  -0.72972  -0.72180  -0.70966
 Alpha  occ. eigenvalues --   -0.70429  -0.69474  -0.68573  -0.68022  -0.67746
 Alpha  occ. eigenvalues --   -0.67046  -0.66578  -0.66050  -0.65749  -0.65079
 Alpha  occ. eigenvalues --   -0.64391  -0.63246  -0.62441  -0.61695  -0.61548
 Alpha  occ. eigenvalues --   -0.60592  -0.59615  -0.58540  -0.58005  -0.57943
 Alpha  occ. eigenvalues --   -0.57471  -0.56610  -0.56427  -0.56235  -0.55365
 Alpha  occ. eigenvalues --   -0.54819  -0.54672  -0.54171  -0.53679  -0.52992
 Alpha  occ. eigenvalues --   -0.52689  -0.52202  -0.51542  -0.51079  -0.50669
 Alpha  occ. eigenvalues --   -0.50391  -0.50066  -0.49244  -0.48827  -0.48423
 Alpha  occ. eigenvalues --   -0.47969  -0.47883  -0.47704  -0.47520  -0.47222
 Alpha  occ. eigenvalues --   -0.47114  -0.46716  -0.46071  -0.45996  -0.45802
 Alpha  occ. eigenvalues --   -0.45222  -0.45139  -0.44998  -0.44790  -0.44626
 Alpha  occ. eigenvalues --   -0.44513  -0.44157  -0.44049  -0.43854  -0.43272
 Alpha  occ. eigenvalues --   -0.43167  -0.43093  -0.42897  -0.42625  -0.42547
 Alpha  occ. eigenvalues --   -0.42249  -0.42170  -0.42101  -0.41854  -0.41709
 Alpha  occ. eigenvalues --   -0.41573  -0.41424  -0.41106  -0.40787  -0.40606
 Alpha  occ. eigenvalues --   -0.40479  -0.39864  -0.39432  -0.39235  -0.39098
 Alpha  occ. eigenvalues --   -0.38939  -0.38791  -0.38583  -0.38256  -0.38139
 Alpha  occ. eigenvalues --   -0.38075  -0.37671  -0.37588  -0.37443  -0.37336
 Alpha  occ. eigenvalues --   -0.37144  -0.36873  -0.36657  -0.36563  -0.36489
 Alpha  occ. eigenvalues --   -0.36333  -0.36105  -0.35901  -0.35840  -0.35559
 Alpha  occ. eigenvalues --   -0.35329  -0.35302  -0.35139  -0.35007  -0.34881
 Alpha  occ. eigenvalues --   -0.34329  -0.34038  -0.33994  -0.33851  -0.33603
 Alpha  occ. eigenvalues --   -0.33582  -0.33254  -0.33050  -0.32694  -0.32462
 Alpha  occ. eigenvalues --   -0.32173  -0.32094  -0.31879  -0.31693  -0.31667
 Alpha  occ. eigenvalues --   -0.31492  -0.30847  -0.30728  -0.30428  -0.30280
 Alpha  occ. eigenvalues --   -0.30108  -0.28784  -0.28557  -0.28285  -0.28081
 Alpha  occ. eigenvalues --   -0.27637  -0.26924  -0.25767  -0.25549  -0.25112
 Alpha  occ. eigenvalues --   -0.24907  -0.24100  -0.23986  -0.23204  -0.19763
 Alpha  occ. eigenvalues --   -0.18735
 Alpha virt. eigenvalues --   -0.09476  -0.07566  -0.03974  -0.01888  -0.01418
 Alpha virt. eigenvalues --   -0.00089   0.00481   0.01394   0.02504   0.03498
 Alpha virt. eigenvalues --    0.03617   0.03811   0.04265   0.04332   0.04432
 Alpha virt. eigenvalues --    0.05180   0.05283   0.05316   0.05544   0.05961
 Alpha virt. eigenvalues --    0.06379   0.06565   0.06640   0.06671   0.06939
 Alpha virt. eigenvalues --    0.07371   0.07550   0.07722   0.07854   0.08049
 Alpha virt. eigenvalues --    0.08109   0.08470   0.08557   0.08835   0.08971
 Alpha virt. eigenvalues --    0.09237   0.09283   0.09374   0.09454   0.09732
 Alpha virt. eigenvalues --    0.09752   0.10129   0.10330   0.10491   0.10547
 Alpha virt. eigenvalues --    0.11013   0.11129   0.11281   0.11451   0.11589
 Alpha virt. eigenvalues --    0.11625   0.11723   0.11918   0.11996   0.12168
 Alpha virt. eigenvalues --    0.12383   0.12433   0.12841   0.12868   0.13030
 Alpha virt. eigenvalues --    0.13165   0.13326   0.13602   0.13970   0.14164
 Alpha virt. eigenvalues --    0.14398   0.14644   0.14764   0.14878   0.14945
 Alpha virt. eigenvalues --    0.15128   0.15447   0.15597   0.15644   0.15842
 Alpha virt. eigenvalues --    0.15937   0.16144   0.16365   0.16431   0.16740
 Alpha virt. eigenvalues --    0.16824   0.17302   0.17492   0.17717   0.17786
 Alpha virt. eigenvalues --    0.18111   0.18204   0.18390   0.18508   0.18901
 Alpha virt. eigenvalues --    0.19015   0.19662   0.19763   0.20101   0.20216
 Alpha virt. eigenvalues --    0.20414   0.20522   0.20710   0.20843   0.21157
 Alpha virt. eigenvalues --    0.21251   0.21633   0.21853   0.22265   0.22409
 Alpha virt. eigenvalues --    0.22458   0.22682   0.22923   0.23339   0.23462
 Alpha virt. eigenvalues --    0.23728   0.23924   0.24039   0.24392   0.24558
 Alpha virt. eigenvalues --    0.24779   0.24817   0.25146   0.25676   0.25872
 Alpha virt. eigenvalues --    0.26250   0.26551   0.26664   0.27498   0.27560
 Alpha virt. eigenvalues --    0.28099   0.28163   0.28723   0.29297   0.29457
 Alpha virt. eigenvalues --    0.29710   0.30031   0.30367   0.30831   0.31354
 Alpha virt. eigenvalues --    0.31834   0.31925   0.32350   0.32608   0.32730
 Alpha virt. eigenvalues --    0.32873   0.33388   0.34233   0.34827   0.35088
 Alpha virt. eigenvalues --    0.35893   0.36167   0.36333   0.36882   0.37123
 Alpha virt. eigenvalues --    0.37645   0.37953   0.38193   0.38231   0.38994
 Alpha virt. eigenvalues --    0.39098   0.39587   0.39803   0.39986   0.40105
 Alpha virt. eigenvalues --    0.40235   0.40672   0.40856   0.41278   0.41521
 Alpha virt. eigenvalues --    0.41661   0.41757   0.41961   0.42123   0.42385
 Alpha virt. eigenvalues --    0.42477   0.42704   0.42973   0.43216   0.43321
 Alpha virt. eigenvalues --    0.43420   0.43555   0.43609   0.43753   0.44162
 Alpha virt. eigenvalues --    0.44205   0.44401   0.44814   0.45262   0.45431
 Alpha virt. eigenvalues --    0.45525   0.45779   0.46011   0.46515   0.46911
 Alpha virt. eigenvalues --    0.47099   0.47409   0.47573   0.47865   0.47901
 Alpha virt. eigenvalues --    0.48276   0.48313   0.48767   0.48892   0.49015
 Alpha virt. eigenvalues --    0.49122   0.49583   0.49789   0.49832   0.50213
 Alpha virt. eigenvalues --    0.50509   0.50653   0.50968   0.51101   0.51486
 Alpha virt. eigenvalues --    0.51645   0.51689   0.52022   0.52101   0.52674
 Alpha virt. eigenvalues --    0.53193   0.53460   0.53494   0.53738   0.54098
 Alpha virt. eigenvalues --    0.54178   0.54414   0.54808   0.55404   0.55438
 Alpha virt. eigenvalues --    0.55607   0.56050   0.56172   0.56341   0.56444
 Alpha virt. eigenvalues --    0.56716   0.57005   0.57214   0.57316   0.57474
 Alpha virt. eigenvalues --    0.57717   0.58162   0.58209   0.58380   0.58473
 Alpha virt. eigenvalues --    0.58633   0.58901   0.59066   0.59323   0.59361
 Alpha virt. eigenvalues --    0.59711   0.59767   0.59808   0.59984   0.60233
 Alpha virt. eigenvalues --    0.60355   0.60686   0.60748   0.61119   0.61132
 Alpha virt. eigenvalues --    0.61439   0.61535   0.61788   0.61971   0.62094
 Alpha virt. eigenvalues --    0.62260   0.62348   0.62426   0.62621   0.62696
 Alpha virt. eigenvalues --    0.62991   0.63042   0.63208   0.63235   0.63406
 Alpha virt. eigenvalues --    0.63424   0.63904   0.63974   0.64064   0.64326
 Alpha virt. eigenvalues --    0.64499   0.64528   0.64616   0.64707   0.64753
 Alpha virt. eigenvalues --    0.64952   0.65235   0.65302   0.65410   0.65690
 Alpha virt. eigenvalues --    0.65727   0.65748   0.65902   0.65944   0.65997
 Alpha virt. eigenvalues --    0.66161   0.66294   0.66431   0.66574   0.66704
 Alpha virt. eigenvalues --    0.66853   0.66874   0.67068   0.67124   0.67300
 Alpha virt. eigenvalues --    0.67470   0.67642   0.67766   0.67859   0.68078
 Alpha virt. eigenvalues --    0.68129   0.68426   0.68491   0.68576   0.68735
 Alpha virt. eigenvalues --    0.68852   0.69018   0.69091   0.69256   0.69297
 Alpha virt. eigenvalues --    0.69419   0.69645   0.69749   0.69896   0.70119
 Alpha virt. eigenvalues --    0.70240   0.70541   0.70549   0.70625   0.70835
 Alpha virt. eigenvalues --    0.71024   0.71086   0.71348   0.71537   0.71684
 Alpha virt. eigenvalues --    0.71735   0.72102   0.72209   0.72350   0.72505
 Alpha virt. eigenvalues --    0.72696   0.72976   0.73155   0.73260   0.73439
 Alpha virt. eigenvalues --    0.73495   0.73669   0.73910   0.74014   0.74194
 Alpha virt. eigenvalues --    0.74284   0.74714   0.74774   0.74945   0.75147
 Alpha virt. eigenvalues --    0.75615   0.75753   0.75891   0.76182   0.76413
 Alpha virt. eigenvalues --    0.76763   0.76849   0.77096   0.77355   0.77793
 Alpha virt. eigenvalues --    0.77862   0.77946   0.78173   0.78388   0.78633
 Alpha virt. eigenvalues --    0.78905   0.79417   0.79799   0.80156   0.80261
 Alpha virt. eigenvalues --    0.80954   0.81188   0.81401   0.81904   0.81994
 Alpha virt. eigenvalues --    0.82272   0.82356   0.82805   0.83504   0.84281
 Alpha virt. eigenvalues --    0.84650   0.84841   0.85012   0.85642   0.85893
 Alpha virt. eigenvalues --    0.86595   0.86930   0.87053   0.87811   0.88209
 Alpha virt. eigenvalues --    0.88556   0.89057   0.89760   0.90227   0.91481
 Alpha virt. eigenvalues --    0.91751   0.91852   0.92349   0.93421   0.93777
 Alpha virt. eigenvalues --    0.94004   0.94114   0.94938   0.95051   0.95141
 Alpha virt. eigenvalues --    0.95462   0.95751   0.96766   0.96934   0.96993
 Alpha virt. eigenvalues --    0.97856   0.97912   0.98076   0.98754   0.99264
 Alpha virt. eigenvalues --    0.99411   1.00037   1.00448   1.00491   1.00679
 Alpha virt. eigenvalues --    1.00790   1.01656   1.02216   1.02602   1.03007
 Alpha virt. eigenvalues --    1.03408   1.03837   1.04156   1.05225   1.05453
 Alpha virt. eigenvalues --    1.05881   1.06337   1.06369   1.06815   1.07106
 Alpha virt. eigenvalues --    1.07592   1.08204   1.08445   1.09206   1.09447
 Alpha virt. eigenvalues --    1.10595   1.10693   1.11049   1.11493   1.12423
 Alpha virt. eigenvalues --    1.12722   1.12845   1.13316   1.13953   1.14215
 Alpha virt. eigenvalues --    1.14726   1.14925   1.15028   1.16130   1.17212
 Alpha virt. eigenvalues --    1.17407   1.17748   1.18232   1.18488   1.18726
 Alpha virt. eigenvalues --    1.18926   1.19418   1.19517   1.19622   1.20305
 Alpha virt. eigenvalues --    1.20898   1.21743   1.21902   1.22307   1.22488
 Alpha virt. eigenvalues --    1.23905   1.24072   1.24185   1.24713   1.24870
 Alpha virt. eigenvalues --    1.25264   1.25552   1.26581   1.27525   1.27593
 Alpha virt. eigenvalues --    1.27812   1.28239   1.28829   1.29003   1.29027
 Alpha virt. eigenvalues --    1.29492   1.29648   1.29781   1.29940   1.30226
 Alpha virt. eigenvalues --    1.30927   1.31185   1.31369   1.31952   1.32452
 Alpha virt. eigenvalues --    1.32864   1.33711   1.34057   1.34304   1.34854
 Alpha virt. eigenvalues --    1.35296   1.35462   1.35753   1.35945   1.36402
 Alpha virt. eigenvalues --    1.36702   1.37242   1.37606   1.38046   1.38254
 Alpha virt. eigenvalues --    1.38728   1.38750   1.38929   1.41260   1.41459
 Alpha virt. eigenvalues --    1.41676   1.42248   1.42657   1.42828   1.42890
 Alpha virt. eigenvalues --    1.43262   1.43673   1.44322   1.44581   1.44782
 Alpha virt. eigenvalues --    1.45484   1.46091   1.46994   1.47641   1.47676
 Alpha virt. eigenvalues --    1.48128   1.48296   1.48750   1.49299   1.49404
 Alpha virt. eigenvalues --    1.49800   1.50351   1.50478   1.50574   1.51176
 Alpha virt. eigenvalues --    1.51344   1.51761   1.51966   1.52043   1.52297
 Alpha virt. eigenvalues --    1.52519   1.53147   1.53411   1.54063   1.54848
 Alpha virt. eigenvalues --    1.55059   1.55421   1.55969   1.56720   1.56782
 Alpha virt. eigenvalues --    1.57052   1.57302   1.57501   1.58034   1.58126
 Alpha virt. eigenvalues --    1.58305   1.58673   1.58846   1.59071   1.59217
 Alpha virt. eigenvalues --    1.60003   1.60305   1.61206   1.61329   1.61664
 Alpha virt. eigenvalues --    1.62070   1.62328   1.62945   1.63091   1.63318
 Alpha virt. eigenvalues --    1.64022   1.64245   1.64537   1.65102   1.65247
 Alpha virt. eigenvalues --    1.65994   1.66257   1.66540   1.66660   1.66722
 Alpha virt. eigenvalues --    1.66959   1.67322   1.67355   1.67746   1.68217
 Alpha virt. eigenvalues --    1.68495   1.69090   1.69235   1.69315   1.69617
 Alpha virt. eigenvalues --    1.69702   1.69882   1.70454   1.70795   1.71049
 Alpha virt. eigenvalues --    1.71280   1.71331   1.71639   1.71877   1.72049
 Alpha virt. eigenvalues --    1.72120   1.72315   1.72916   1.73090   1.73628
 Alpha virt. eigenvalues --    1.73957   1.74027   1.74265   1.74500   1.74609
 Alpha virt. eigenvalues --    1.75034   1.75172   1.75336   1.75474   1.75631
 Alpha virt. eigenvalues --    1.75920   1.76116   1.76302   1.76435   1.76579
 Alpha virt. eigenvalues --    1.76746   1.76867   1.77120   1.77271   1.77938
 Alpha virt. eigenvalues --    1.78114   1.78132   1.78347   1.78731   1.78776
 Alpha virt. eigenvalues --    1.79156   1.79349   1.79503   1.80172   1.80275
 Alpha virt. eigenvalues --    1.80383   1.80560   1.80571   1.80859   1.80883
 Alpha virt. eigenvalues --    1.81366   1.81795   1.81881   1.82038   1.82183
 Alpha virt. eigenvalues --    1.82418   1.82500   1.83009   1.83377   1.83448
 Alpha virt. eigenvalues --    1.83768   1.83803   1.83921   1.84107   1.84384
 Alpha virt. eigenvalues --    1.84553   1.84747   1.84973   1.85074   1.85624
 Alpha virt. eigenvalues --    1.85702   1.86021   1.86178   1.86382   1.86393
 Alpha virt. eigenvalues --    1.86608   1.86787   1.87069   1.87191   1.87788
 Alpha virt. eigenvalues --    1.87899   1.88226   1.88724   1.88925   1.89093
 Alpha virt. eigenvalues --    1.89390   1.89728   1.90107   1.90334   1.90438
 Alpha virt. eigenvalues --    1.90831   1.90992   1.91337   1.91472   1.91802
 Alpha virt. eigenvalues --    1.91881   1.92325   1.92779   1.92792   1.93133
 Alpha virt. eigenvalues --    1.93163   1.93592   1.93820   1.94060   1.94244
 Alpha virt. eigenvalues --    1.94300   1.94912   1.94972   1.95307   1.95592
 Alpha virt. eigenvalues --    1.95723   1.96215   1.96315   1.96413   1.97055
 Alpha virt. eigenvalues --    1.97226   1.97488   1.97525   1.97807   1.98357
 Alpha virt. eigenvalues --    1.98570   1.98697   1.99011   1.99050   1.99101
 Alpha virt. eigenvalues --    1.99529   1.99586   1.99885   2.00415   2.00606
 Alpha virt. eigenvalues --    2.00886   2.01121   2.01581   2.02004   2.02158
 Alpha virt. eigenvalues --    2.02311   2.02437   2.02936   2.03470   2.03810
 Alpha virt. eigenvalues --    2.04092   2.04140   2.04863   2.05037   2.05298
 Alpha virt. eigenvalues --    2.05398   2.05744   2.05967   2.06065   2.07552
 Alpha virt. eigenvalues --    2.07637   2.07701   2.08236   2.08432   2.08659
 Alpha virt. eigenvalues --    2.08686   2.09784   2.09956   2.10574   2.10751
 Alpha virt. eigenvalues --    2.10923   2.11114   2.11672   2.11946   2.12504
 Alpha virt. eigenvalues --    2.12582   2.12706   2.13042   2.13558   2.13762
 Alpha virt. eigenvalues --    2.14497   2.15244   2.15684   2.15694   2.16073
 Alpha virt. eigenvalues --    2.16264   2.16495   2.16981   2.17020   2.17959
 Alpha virt. eigenvalues --    2.18292   2.18459   2.19292   2.19341   2.20002
 Alpha virt. eigenvalues --    2.20718   2.20801   2.21010   2.21386   2.22412
 Alpha virt. eigenvalues --    2.22459   2.23048   2.23345   2.23614   2.23765
 Alpha virt. eigenvalues --    2.24689   2.24991   2.25273   2.25631   2.25931
 Alpha virt. eigenvalues --    2.26032   2.26404   2.26648   2.26801   2.27177
 Alpha virt. eigenvalues --    2.27439   2.27990   2.28200   2.28598   2.29008
 Alpha virt. eigenvalues --    2.29393   2.29810   2.30773   2.30867   2.31260
 Alpha virt. eigenvalues --    2.31449   2.31598   2.32015   2.32197   2.32690
 Alpha virt. eigenvalues --    2.33173   2.33376   2.33825   2.34295   2.35230
 Alpha virt. eigenvalues --    2.35429   2.36038   2.36483   2.37050   2.37225
 Alpha virt. eigenvalues --    2.38308   2.38670   2.39066   2.39106   2.39155
 Alpha virt. eigenvalues --    2.39630   2.39981   2.40173   2.40354   2.40903
 Alpha virt. eigenvalues --    2.41659   2.42230   2.42381   2.42582   2.42988
 Alpha virt. eigenvalues --    2.43328   2.43475   2.44195   2.44401   2.45177
 Alpha virt. eigenvalues --    2.45777   2.46014   2.46237   2.46589   2.47205
 Alpha virt. eigenvalues --    2.47661   2.47835   2.48008   2.48343   2.48382
 Alpha virt. eigenvalues --    2.49170   2.49473   2.50049   2.50510   2.50756
 Alpha virt. eigenvalues --    2.51014   2.51536   2.52027   2.52148   2.52992
 Alpha virt. eigenvalues --    2.53110   2.53242   2.54731   2.55028   2.55128
 Alpha virt. eigenvalues --    2.55785   2.55850   2.56688   2.57201   2.57872
 Alpha virt. eigenvalues --    2.58346   2.58726   2.58790   2.59494   2.60325
 Alpha virt. eigenvalues --    2.60386   2.60451   2.60475   2.60582   2.60796
 Alpha virt. eigenvalues --    2.62586   2.62857   2.63688   2.63786   2.64609
 Alpha virt. eigenvalues --    2.64821   2.65279   2.66201   2.66337   2.66363
 Alpha virt. eigenvalues --    2.66564   2.66662   2.67784   2.68161   2.68575
 Alpha virt. eigenvalues --    2.68750   2.68886   2.69553   2.69843   2.70551
 Alpha virt. eigenvalues --    2.71174   2.71649   2.72062   2.72121   2.72750
 Alpha virt. eigenvalues --    2.73262   2.73508   2.73897   2.74535   2.74673
 Alpha virt. eigenvalues --    2.74765   2.75109   2.75596   2.76149   2.76901
 Alpha virt. eigenvalues --    2.77191   2.77423   2.77826   2.77979   2.79014
 Alpha virt. eigenvalues --    2.79303   2.79386   2.79801   2.79903   2.80688
 Alpha virt. eigenvalues --    2.81451   2.81894   2.82393   2.82498   2.82699
 Alpha virt. eigenvalues --    2.83184   2.83542   2.83832   2.83947   2.84248
 Alpha virt. eigenvalues --    2.84761   2.85181   2.85894   2.86417   2.86724
 Alpha virt. eigenvalues --    2.86882   2.86949   2.87543   2.87659   2.87683
 Alpha virt. eigenvalues --    2.88563   2.88836   2.89758   2.90090   2.91659
 Alpha virt. eigenvalues --    2.91755   2.92029   2.92541   2.92700   2.93976
 Alpha virt. eigenvalues --    2.94406   2.95264   2.95539   2.96109   2.96298
 Alpha virt. eigenvalues --    2.96583   2.98140   2.98167   2.98580   2.98960
 Alpha virt. eigenvalues --    2.99428   2.99442   2.99566   3.00300   3.00707
 Alpha virt. eigenvalues --    3.01565   3.01736   3.01931   3.02070   3.02678
 Alpha virt. eigenvalues --    3.02982   3.04124   3.04777   3.05236   3.05644
 Alpha virt. eigenvalues --    3.05847   3.05939   3.06278   3.06372   3.07475
 Alpha virt. eigenvalues --    3.07484   3.08367   3.09392   3.10166   3.12215
 Alpha virt. eigenvalues --    3.12719   3.13082   3.13933   3.14941   3.15511
 Alpha virt. eigenvalues --    3.16148   3.16246   3.18378   3.19260   3.19525
 Alpha virt. eigenvalues --    3.19860   3.21544   3.22678   3.23143   3.26353
 Alpha virt. eigenvalues --    3.26665   3.28527   3.29623   3.35717   3.35888
 Alpha virt. eigenvalues --    3.37307   3.41526   3.43953   3.44981   3.46319
 Alpha virt. eigenvalues --    3.47287   3.49837   3.55883   3.59606   3.60562
 Alpha virt. eigenvalues --    3.61551   3.62306   3.64817   3.65643   3.72836
          Condensed to atoms (all electrons):
 Mulliken charges:
               1
     1  C    0.049546
     2  C   -0.131917
     3  C   -0.136319
     4  C   -0.052749
     5  N   -0.040580
     6  C   -0.100952
     7  C   -0.034272
     8  C   -0.073721
     9  C   -0.015692
    10  C    0.108534
    11  C    0.035149
    12  C    0.098833
    13  C    0.211513
    14  O   -0.277937
    15  O   -0.318772
    16  N   -0.046429
    17  C    0.148459
    18  C   -0.074361
    19  C    0.020810
    20  C    0.126843
    21  C    0.032600
    22  C   -0.046641
    23  C    0.014824
    24  N   -0.223973
    25  C   -0.009629
    26  C   -0.164077
    27  C   -0.123283
    28  C    0.041864
    29  C    0.112345
    30  C    0.093629
    31  C   -0.035834
    32  N   -0.081202
    33  C    0.042389
    34  C   -0.096755
    35  C   -0.001029
    36  C    0.042789
    37  C    0.046875
    38  C    0.055200
    39  O   -0.215672
    40  C   -0.032581
    41  C    0.161102
    42  O   -0.257750
    43  O   -0.260145
    44  C    0.234466
    45  C    0.296660
    46  C   -0.069908
    47  C   -0.097826
    48  C   -0.025519
    49  C    0.046825
    50  C    0.125752
    51  C    0.008462
    52  C   -0.057740
    53  C   -0.062458
    54  C   -0.042488
    55  C    0.078539
    56  C   -0.026331
    57  C   -0.074742
    58  C    0.073434
    59  C    0.143025
    60  C    0.035366
    61  C    0.102153
    62  C   -0.187804
    63  C   -0.024461
    64  C    0.046132
    65  H    0.009101
    66  H   -0.002507
    67  H   -0.004355
    68  H   -0.011832
    69  H    0.006648
    70  H   -0.016586
    71  H   -0.014992
    72  H    0.011116
    73  H    0.003289
    74  H    0.017321
    75  H    0.009331
    76  H    0.000589
    77  H    0.014377
    78  H    0.051796
    79  H    0.033733
    80  H   -0.034042
    81  H    0.014734
    82  H    0.035924
    83  H    0.074122
    84  H    0.043613
    85  H   -0.036925
    86  H    0.022004
    87  H   -0.013374
    88  H    0.016771
    89  H    0.064782
    90  H    0.006437
    91  H    0.018387
    92  H    0.023142
    93  H    0.062580
    94  H    0.056132
    95  H    0.050002
    96  H    0.044286
    97  H    0.012098
    98  H    0.031759
    99  H    0.031710
   100  H   -0.044482
   101  H    0.028306
   102  H    0.058671
   103  H    0.028654
   104  H   -0.015989
   105  H    0.011021
   106  H   -0.021920
   107  H   -0.071236
   108  H    0.004596
   109  H   -0.015704
   110  H    0.007664
   111  H    0.024949
   112  H    0.042350
   113  H    0.014215
   114  H    0.025309
   115  H    0.012974
   116  H   -0.045562
   117  H    0.012363
   118  H   -0.009587
   119  H    0.002536
   120  H   -0.006712
   121  H   -0.016682
   122  H    0.024656
   123  H   -0.035690
   124  H   -0.024766
   125  H   -0.107168
   126  H   -0.024159
   127  H   -0.012033
   128  H   -0.009519
   129  H   -0.003043
   130  H   -0.005763
   131  H    0.012989
   132  H    0.019336
   133  H    0.036013
   134  H    0.011029
   135  H    0.020896
   136  H    0.021508
   137  H    0.172933
   138  H    0.133303
 Sum of Mulliken charges =   0.00000
 Mulliken charges with hydrogens summed into heavy atoms:
               1
     1  C    0.049546
     2  C   -0.122816
     3  C   -0.138825
     4  C   -0.057104
     5  N   -0.040580
     6  C   -0.100952
     7  C   -0.046104
     8  C   -0.067073
     9  C   -0.015692
    10  C    0.088072
    11  C    0.055760
    12  C    0.108753
    13  C    0.211513
    14  O   -0.277937
    15  O   -0.318772
    16  N    0.126504
    17  C    0.148459
    18  C   -0.074361
    19  C    0.020810
    20  C    0.126843
    21  C    0.132506
    22  C   -0.080683
    23  C    0.065482
    24  N   -0.223973
    25  C   -0.009629
    26  C   -0.164077
    27  C   -0.123283
    28  C    0.041864
    29  C    0.193155
    30  C    0.102258
    31  C    0.052157
    32  N    0.052101
    33  C    0.042389
    34  C   -0.096755
    35  C   -0.001029
    36  C    0.042789
    37  C    0.150984
    38  C    0.055200
    39  O   -0.215672
    40  C    0.023551
    41  C    0.161102
    42  O   -0.257750
    43  O   -0.260145
    44  C    0.340852
    45  C    0.360129
    46  C   -0.114390
    47  C   -0.097826
    48  C    0.090113
    49  C    0.041858
    50  C    0.032596
    51  C   -0.002645
    52  C   -0.050076
    53  C    0.019056
    54  C   -0.004205
    55  C    0.045340
    56  C   -0.033383
    57  C   -0.081454
    58  C    0.045718
    59  C    0.011091
    60  C   -0.000826
    61  C    0.089591
    62  C   -0.193567
    63  C    0.043876
    64  C    0.099565
 Electronic spatial extent (au):  <R**2>=         179423.6306
 Charge=              0.0000 electrons
 Dipole moment (field-independent basis, Debye):
    X=              3.9713    Y=              3.6703    Z=              1.5861  Tot=              5.6354
 Quadrupole moment (field-independent basis, Debye-Ang):
   XX=           -377.4583   YY=           -383.4771   ZZ=           -390.8853
   XY=            -35.4297   XZ=              9.1941   YZ=             -3.3050
 Traceless Quadrupole moment (field-independent basis, Debye-Ang):
   XX=              6.4819   YY=              0.4631   ZZ=             -6.9451
   XY=            -35.4297   XZ=              9.1941   YZ=             -3.3050
 Octapole moment (field-independent basis, Debye-Ang**2):
  XXX=           -463.7514  YYY=             82.6688  ZZZ=             23.2926  XYY=            -62.7363
  XXY=            -36.7272  XXZ=           -189.6654  XZZ=             15.4218  YZZ=            -36.2194
  YYZ=             92.7887  XYZ=            -32.7735
 Hexadecapole moment (field-independent basis, Debye-Ang**3):
 XXXX=        -226076.1572 YYYY=         -17469.7598 ZZZZ=          -4577.6150 XXXY=          -3051.6212
 XXXZ=           2317.8249 YYYX=          -1416.1146 YYYZ=           -380.1351 ZZZX=           -114.3494
 ZZZY=           -124.0645 XXYY=         -41688.6317 XXZZ=         -39454.5298 YYZZ=          -3541.1797
 XXYZ=            206.9267 YYXZ=           -163.7807 ZZXY=             -6.4462
 N-N= 8.275406340760D+03 E-N=-2.288639585530D+04  KE= 2.702275787040D+03
 1\1\GINC-PEDRO-RYZENSSD\SP\RB3LYP TD-FC\SVP\C55H74N4O5\PADAWAN\02-Aug-
 2019\0\\# td=(NStates=1) B3LYP/SVP\\TD\\0,1\C,0,-5.0336510632,-1.89151
 53936,0.4017750534\C,0,-4.9216924882,2.7233287846,1.4990462905\C,0,-9.
 2901189216,3.3622270219,-0.2304515131\C,0,-9.8271507696,-1.4242932327,
 -1.1113136848\N,0,-5.1636555279,0.3508967126,0.7944578828\C,0,-4.47053
 56697,-0.7059973207,0.8336068041\C,0,-3.0988495715,-0.5873051652,1.321
 5971555\C,0,-3.1746324286,0.8948183741,1.9220013059\C,0,-4.4429734904,
 1.3064504629,1.3333769347\C,0,-3.263864955,0.9045979721,3.4354414067\C
 ,0,-1.9431363843,-0.7232122829,0.2193398796\C,0,-0.4983130435,-0.88851
 70683,0.7383262853\C,0,0.4355272141,-0.9959764705,-0.4632378814\O,0,0.
 0567374413,-1.2281051771,-1.6451281243\O,0,1.7286230594,-0.8063974128,
 -0.0870611488\N,0,-7.093313926,2.8312904008,0.4511346227\C,0,-6.008212
 3966,3.3330377221,1.1174926062\C,0,-6.3421974054,4.788485288,1.0585623
 49\C,0,-7.5800671035,4.9500038359,0.593905918\C,0,-8.0852894748,3.6579
 242861,0.262956451\C,0,-5.3518256991,5.7232478399,1.5782090869\C,0,-8.
 1996272454,6.2678807997,0.4746859699\C,0,-9.1153494331,6.7032100429,-0
 .4717496538\N,0,-9.3038985905,0.929680201,-0.6025027187\C,0,-9.9707709
 4,2.1200044991,-0.5822074899\C,0,-11.3682106876,1.8495185129,-1.084962
 3301\C,0,-11.4620801585,0.5557329134,-1.3687418289\C,0,-10.1299352192,
 -0.0386338151,-1.0235756001\C,0,-12.4000985108,2.9990784094,-1.1493580
 261\C,0,-12.6909668362,-0.2199844779,-1.8773886986\C,0,-12.5114312738,
 -0.4601492793,-3.3730254738\N,0,-7.4187208297,-1.2852102062,-0.2745359
 821\C,0,-8.5594375313,-2.0512038472,-0.8149348559\C,0,-8.2062430633,-3
 .4268695692,-0.7079033576\C,0,-6.8576906782,-3.4267595043,-0.201507774
 7\C,0,-6.4339644998,-2.1357063892,-0.0004049643\C,0,-8.9794507027,-4.6
 744881983,-1.1142504194\C,0,-5.7175487001,-4.2957046056,0.0639573413\O
 ,0,-5.6798774779,-5.5277623063,-0.1282400899\C,0,-4.5056281914,-3.4070
 314647,0.5138504471\C,0,-3.872031001,-3.7582699205,1.8468512108\O,0,-4
 .2574508186,-3.3050884427,2.9040584739\O,0,-3.0955982474,-4.7487498479
 ,1.7269131192\C,0,-2.5254072445,-5.3796974158,2.9543275724\C,0,2.68252
 04206,-0.9136352611,-1.1447885047\C,0,3.9816414109,-0.5971502174,-0.50
 31124113\C,0,4.9623484914,0.0847095259,-1.1114250991\C,0,4.9932085166,
 0.5733880705,-2.5047175886\C,0,6.257727518,0.3527130105,-0.3086697812\
 C,0,7.5154427847,-0.4935755405,-0.7622030872\C,0,8.8233139325,-0.22764
 67498,-0.0962179693\C,0,10.1547363993,-0.8329176184,-0.741521507\C,0,1
 0.0448705257,-2.3234461475,-0.9033896239\C,0,11.3009939496,-0.41778609
 33,0.1638558299\C,0,12.7161232865,-0.5525905763,-0.5741919423\C,0,13.8
 446030497,-0.011098336,0.2680388594\C,0,15.3136102728,-0.2050413856,-0
 .4498385418\C,0,15.719871559,-1.6641352789,-0.5379525636\C,0,16.358156
 56,0.5639109084,0.376286651\C,0,17.7318580746,0.703633281,-0.222116113
 \C,0,18.7224731716,1.6408084097,0.4620270189\C,0,20.0978816898,1.68989
 67943,-0.0843467072\C,0,20.1482955285,2.3832549016,-1.4444325211\C,0,2
 1.0566681881,2.4242037592,0.96621841\H,0,-4.0159692572,3.3738386159,1.
 9163065116\H,0,-9.9884266958,4.2502822703,-0.5076520879\H,0,-10.462680
 5245,-2.0652036759,-1.7339828714\H,0,-2.7614284698,-1.2806172969,2.066
 7475505\H,0,-2.1441357281,1.3330735306,1.8876516774\H,0,-2.3267729353,
 0.3688932577,3.8181809221\H,0,-3.1959950914,1.7550905588,3.9606362588\
 H,0,-3.9576453614,0.2190670912,3.8642816044\H,0,-2.2107865871,-1.49367
 41005,-0.4457190191\H,0,-2.127576097,0.2108172727,-0.4856752617\H,0,-0
 .2446202818,-0.1222183682,1.4805684181\H,0,-0.3806184011,-1.6797399326
 ,1.3943469431\H,0,-4.7369785144,5.8402483929,0.7467174715\H,0,-5.60175
 53819,6.8211370284,2.0948787825\H,0,-4.6038684736,5.2758156256,2.35488
 9623\H,0,-7.8608210915,6.8885887334,1.2256441183\H,0,-9.3015155035,6.0
 140915697,-1.2270242885\H,0,-9.4394986965,7.762484976,-0.507400963\H,0
 ,-12.5186362256,3.6063098182,-0.0710349166\H,0,-12.0609599443,3.547378
 6953,-2.1514144582\H,0,-13.1911201348,2.3980576415,-1.4361779732\H,0,-
 12.860378411,-1.1546143881,-1.2661413652\H,0,-13.4557525998,0.52038619
 33,-1.7319555544\H,0,-12.9307287028,0.5456913822,-3.7764849928\H,0,-11
 .5322681948,-1.0074983234,-3.7689858507\H,0,-13.4340001535,-1.08133722
 85,-3.6843159739\H,0,-10.0057071195,-4.8468440042,-0.6840307051\H,0,-9
 .3300169806,-4.6896369097,-2.1814450427\H,0,-8.2731424889,-5.525650832
 1,-0.8251204675\H,0,-3.7512069721,-3.6080170919,-0.3207534239\H,0,-1.9
 436947625,-6.2410992056,2.561639498\H,0,-2.1977282192,-4.4916426482,3.
 4837928219\H,0,-3.2836413805,-5.8361887105,3.4562525009\H,0,2.59998390
 59,-1.9829659401,-1.4790390709\H,0,2.405575452,-0.144822063,-1.9123590
 031\H,0,4.1213149032,-0.9611984341,0.4452424272\H,0,5.3298948187,1.657
 5182608,-2.3348182016\H,0,5.5758041976,0.0257585384,-3.3315245541\H,0,
 4.0129614143,0.6846596528,-3.2068715123\H,0,6.3938073969,1.3630824332,
 -0.3259327844\H,0,6.1653345782,-0.0967095606,0.8253802454\H,0,7.366073
 3922,-1.5270194265,-0.7115619158\H,0,7.5092304655,-0.2999979792,-1.721
 5969887\H,0,9.0611015976,0.8999788392,0.0879089392\H,0,8.693292392,-0.
 6760117527,0.8873815506\H,0,10.0961922878,-0.4691243557,-1.8287174467\
 H,0,9.1466349797,-2.5264313363,-1.638402388\H,0,10.9722722583,-3.01305
 29051,-1.3709877037\H,0,9.7711221323,-2.7369253781,0.112362967\H,0,11.
 1992952269,0.6326420443,0.7095595412\H,0,11.4786738309,-1.3054957861,1
 .0301629465\H,0,12.9401387245,-1.5259441656,-0.6917623892\H,0,12.53754
 19064,-0.1184919282,-1.6767392076\H,0,13.5821693718,1.0357732881,0.467
 2296339\H,0,13.9317073977,-0.4167781056,1.3680936553\H,0,15.15535788,0
 .1877999861,-1.4755995733\H,0,14.9941349664,-2.3546980516,-0.976717004
 9\H,0,16.6379376673,-1.9112551621,-1.1217579597\H,0,15.6571109899,-2.1
 231974523,0.3617754489\H,0,15.8950097742,1.5229688672,0.8726577248\H,0
 ,16.370411698,0.0997305964,1.1772511477\H,0,18.0647276945,-0.288373047
 8,-0.4131411819\H,0,17.5589704826,1.0955214404,-1.3069691294\H,0,18.24
 70493944,2.5819745934,0.2859939891\H,0,18.7354157958,1.3139272022,1.52
 06292129\H,0,20.6871650489,0.5145694179,-0.3544642902\H,0,19.538831239
 7,3.4008283529,-1.1996218646\H,0,21.1712843721,2.4973978095,-1.8364567
 523\H,0,19.548259799,1.8111567374,-2.33048523\H,0,21.0620714436,1.8483
 463026,1.8649475314\H,0,22.0998428415,2.4384738748,0.5556697241\H,0,20
 .4077804074,3.3924224418,1.0072194598\H,0,-7.2121530484,1.7629951727,0
 .3491067568\H,0,-7.5617377222,-0.2736275388,-0.1809582234\\Version=ES6
 4L-G09RevD.01\State=1-A\HF=-2733.0529689\RMSD=3.919e-09\PG=C01 [X(C55H
 74N4O5)]\\@


 YOU KNOW YOU'RE A TEACHER WHEN YOU SAY 2, WRITE 3, AND MEAN 4.
 -- RONALD ANSTROM, HIGH SCHOOL TEACHER, UNDERWOOD, N.D. 1974
 Job cpu time:       0 days  4 hours 45 minutes 26.6 seconds.
 File lengths (MBytes):  RWF=   1953 Int=      0 D2E=      0 Chk=    148 Scr=      1
 Normal termination of Gaussian 09 at Fri Aug  2 08:08:39 2019.
