 Entering Gaussian System, Link 0=g16
 Input=Geometria-12-.com
 Output=Geometria-12-.log
 Initial command:
 /usr/local/g09/l1.exe "/home/padawan/israel-mol/pheophytin/spectra/abs/Gau-45203.inp" -scrdir="/home/padawan/israel-mol/pheophytin/spectra/abs/"
 Entering Link 1 = /usr/local/g09/l1.exe PID=     45205.
  
 Copyright (c) 1988,1990,1992,1993,1995,1998,2003,2009,2013,
            Gaussian, Inc.  All Rights Reserved.
  
 This is part of the Gaussian(R) 09 program.  It is based on
 the Gaussian(R) 03 system (copyright 2003, Gaussian, Inc.),
 the Gaussian(R) 98 system (copyright 1998, Gaussian, Inc.),
 the Gaussian(R) 94 system (copyright 1995, Gaussian, Inc.),
 the Gaussian 92(TM) system (copyright 1992, Gaussian, Inc.),
 the Gaussian 90(TM) system (copyright 1990, Gaussian, Inc.),
 the Gaussian 88(TM) system (copyright 1988, Gaussian, Inc.),
 the Gaussian 86(TM) system (copyright 1986, Carnegie Mellon
 University), and the Gaussian 82(TM) system (copyright 1983,
 Carnegie Mellon University). Gaussian is a federally registered
 trademark of Gaussian, Inc.
  
 This software contains proprietary and confidential information,
 including trade secrets, belonging to Gaussian, Inc.
  
 This software is provided under written license and may be
 used, copied, transmitted, or stored only in accord with that
 written license.
  
 The following legend is applicable only to US Government
 contracts under FAR:
  
                    RESTRICTED RIGHTS LEGEND
  
 Use, reproduction and disclosure by the US Government is
 subject to restrictions as set forth in subparagraphs (a)
 and (c) of the Commercial Computer Software - Restricted
 Rights clause in FAR 52.227-19.
  
 Gaussian, Inc.
 340 Quinnipiac St., Bldg. 40, Wallingford CT 06492
  
  
 ---------------------------------------------------------------
 Warning -- This program may not be used in any manner that
 competes with the business of Gaussian, Inc. or will provide
 assistance to any competitor of Gaussian, Inc.  The licensee
 of this program is prohibited from giving any competitor of
 Gaussian, Inc. access to this program.  By using this program,
 the user acknowledges that Gaussian, Inc. is engaged in the
 business of creating and licensing software in the field of
 computational chemistry and represents and warrants to the
 licensee that it is not a competitor of Gaussian, Inc. and that
 it will not use this program in any manner prohibited above.
 ---------------------------------------------------------------
  

 Cite this work as:
 Gaussian 09, Revision D.01,
 M. J. Frisch, G. W. Trucks, H. B. Schlegel, G. E. Scuseria, 
 M. A. Robb, J. R. Cheeseman, G. Scalmani, V. Barone, B. Mennucci, 
 G. A. Petersson, H. Nakatsuji, M. Caricato, X. Li, H. P. Hratchian, 
 A. F. Izmaylov, J. Bloino, G. Zheng, J. L. Sonnenberg, M. Hada, 
 M. Ehara, K. Toyota, R. Fukuda, J. Hasegawa, M. Ishida, T. Nakajima, 
 Y. Honda, O. Kitao, H. Nakai, T. Vreven, J. A. Montgomery, Jr., 
 J. E. Peralta, F. Ogliaro, M. Bearpark, J. J. Heyd, E. Brothers, 
 K. N. Kudin, V. N. Staroverov, T. Keith, R. Kobayashi, J. Normand, 
 K. Raghavachari, A. Rendell, J. C. Burant, S. S. Iyengar, J. Tomasi, 
 M. Cossi, N. Rega, J. M. Millam, M. Klene, J. E. Knox, J. B. Cross, 
 V. Bakken, C. Adamo, J. Jaramillo, R. Gomperts, R. E. Stratmann, 
 O. Yazyev, A. J. Austin, R. Cammi, C. Pomelli, J. W. Ochterski, 
 R. L. Martin, K. Morokuma, V. G. Zakrzewski, G. A. Voth, 
 P. Salvador, J. J. Dannenberg, S. Dapprich, A. D. Daniels, 
 O. Farkas, J. B. Foresman, J. V. Ortiz, J. Cioslowski, 
 and D. J. Fox, Gaussian, Inc., Wallingford CT, 2013.
 
 ******************************************
 Gaussian 09:  ES64L-G09RevD.01 24-Apr-2013
                24-Jul-2019 
 ******************************************
 %nproc=3
 Will use up to    3 processors via shared memory.
 %Mem=2GB
 --------------------------
 # td=(NStates=1) B3LYP/SVP
 --------------------------
 1/38=1/1;
 2/12=2,17=6,18=5,40=1/2;
 3/5=18,7=101,11=9,16=1,25=1,30=1,74=-5/1,2,8,3;
 4//1;
 5/5=2,38=5/2;
 8/6=1,10=1,108=1/1;
 9/41=1,42=1,70=2/14;
 6/7=2,8=2,9=2,10=2/1;
 99/5=1,9=1/99;
 --
 TD
 --
 Symbolic Z-matrix:
 Charge =  0 Multiplicity = 1
 6                    -5.0988   -1.90483   0.45019 
 6                    -4.86374   2.81751   1.41492 
 6                    -9.36056   3.26274  -0.21744 
 6                    -9.70002  -1.37946  -0.93722 
 7                    -5.15029   0.42697   0.80794 
 6                    -4.47876  -0.61913   0.79231 
 6                    -3.04334  -0.53181   1.28053 
 6                    -3.13299   0.94458   1.90173 
 6                    -4.39331   1.48234   1.33413 
 6                    -3.05844   0.85772   3.45117 
 6                    -1.99105  -0.5755    0.16652 
 6                    -0.58774  -0.77426   0.57007 
 6                     0.31385  -1.1157   -0.56941 
 8                     0.0103   -1.56466  -1.63874 
 8                     1.62148  -0.86216  -0.20065 
 7                    -7.18672   2.78728   0.57649 
 6                    -6.02196   3.40721   1.03067 
 6                    -6.26083   4.83232   1.07882 
 6                    -7.56395   4.98008   0.595 
 6                    -8.053     3.70664   0.2275 
 6                    -5.22165   5.88147   1.63884 
 6                    -8.34227   6.28701   0.34235 
 6                    -9.11682   6.68721  -0.62569 
 7                    -9.22121   0.93316  -0.50334 
 6                    -9.90538   2.05936  -0.52865 
 6                    -11.2891   1.83598  -0.87195 
 6                    -11.39716   0.45637  -1.07941 
 6                    -10.02662  -0.07108  -0.80847 
 6                    -12.32571   2.82985  -1.14266 
 6                    -12.63726  -0.31779  -1.6618 
 6                    -12.68023  -0.38253  -3.24557 
 7                    -7.40551  -1.14384  -0.2367 
 6                    -8.43831  -1.92455  -0.6657 
 6                    -8.08797  -3.29823  -0.63089 
 6                    -6.74617  -3.28574  -0.22021 
 6                    -6.40582  -2.02823   0.0509 
 6                    -8.98914  -4.42401  -0.99583 
 6                    -5.63945  -4.24576   0.0596 
 8                    -5.57898  -5.44952  -0.17371 
 6                    -4.43971  -3.2281    0.43962 
 6                    -3.95078  -3.76749   1.79804 
 8                    -4.24879  -3.46212   2.88414 
 8                    -3.05261  -4.7154    1.63927 
 6                    -2.46863  -5.4829    2.75445 
 6                     2.69173  -1.10321  -1.27558 
 6                     4.03211  -0.69295  -0.60518 
 6                     4.99092  -0.07175  -1.20034 
 6                     4.98591   0.30993  -2.64222 
 6                     6.36124   0.11048  -0.54699 
 6                     7.54285  -0.52466  -1.20057 
 6                     8.82557  -0.43388  -0.29828 
 6                     10.13371  -1.02043  -0.79039 
 6                     10.00757  -2.53184  -0.92716 
 6                     11.27154  -0.57373   0.04442 
 6                     12.69907  -0.77389  -0.59935 
 6                     13.78333  -0.09402   0.17047 
 6                     15.23294  -0.22227  -0.46125 
 6                     15.76635  -1.62979  -0.61972 
 6                     16.24882   0.61287   0.5111 
 6                     17.66597   0.86631  -0.16446 
 6                     18.54733   1.83884   0.6857 
 6                     19.95898   1.92861   0.23082 
 6                     20.06391   2.42388  -1.21807 
 6                     20.76688   2.70651   1.28208 
 1                    -4.00835   3.42881   1.91795 
 1                    -9.94849   4.30036  -0.50867 
 1                    -10.34842  -2.09294  -1.41526 
 1                    -2.50764  -1.32556   1.76137 
 1                    -2.32545   1.67244   1.65875 
 1                    -2.03235   0.71798   3.77732 
 1                    -3.28463   1.87949   3.80807 
 1                    -3.90457   0.29813   3.93119 
 1                    -2.17497  -1.4304   -0.53728 
 1                    -2.24373   0.36559  -0.51806 
 1                    -0.49319   0.01849   1.28165 
 1                    -0.15248  -1.40451   1.18754 
 1                    -4.31254   5.67356   1.12714 
 1                    -5.67082   6.9737    1.42004 
 1                    -5.07879   5.68136   2.62415 
 1                    -8.06453   6.9449    1.14225 
 1                    -9.2741    5.83807  -1.55722 
 1                    -9.38724   7.90466  -0.45543 
 1                    -12.0566   3.58159  -0.33329 
 1                    -12.41867   3.51394  -2.14558 
 1                    -13.38482   2.34399  -1.10871 
 1                    -12.64044  -1.28429  -1.34376 
 1                    -13.65107   0.09766  -1.48073 
 1                    -12.66656   0.53016  -3.72576 
 1                    -11.75657  -0.88174  -3.80051 
 1                    -13.37617  -1.17796  -3.6127 
 1                    -10.00368  -4.20728  -0.52291 
 1                    -9.19147  -4.36007  -2.08729 
 1                    -8.50973  -5.45469  -0.75479 
 1                    -3.46517  -3.34728  -0.28227 
 1                    -1.9044   -6.27506   2.32288 
 1                    -2.15871  -4.75029   3.53982 
 1                    -3.51892  -6.14703   3.1667 
 1                     2.56009  -2.08337  -1.70595 
 1                     2.49627  -0.64777  -2.28272 
 1                     4.08738  -0.93237   0.48611 
 1                     5.69035   1.23629  -2.99873 
 1                     5.56509  -0.57323  -3.3845 
 1                     4.0108    0.59486  -3.13349 
 1                     6.48101   1.1656   -0.23646 
 1                     6.387    -0.44668   0.50367 
 1                     7.21252  -1.46108  -1.45786 
 1                     7.56114  -0.11253  -2.29729 
 1                     8.92439   0.7688   -0.12018 
 1                     8.60569  -0.61934   0.68521 
 1                     10.20595  -0.48981  -1.883 
 1                     9.13304  -3.03186  -1.33907 
 1                     10.82176  -2.91258  -1.58062 
 1                     10.20381  -2.99773   0.00006 
 1                     11.11304   0.36695   0.21006 
 1                     11.22847  -1.0365    0.92926 
 1                     12.96667  -1.77232  -0.6305 
 1                     12.65132  -0.29862  -1.81485 
 1                     13.51231   0.85702   0.23742 
 1                     13.81081  -0.4905    1.27543 
 1                     15.28288   0.11037  -1.39459 
 1                     14.98078  -2.313    -1.18518 
 1                     16.68303  -1.7583   -1.13983 
 1                     15.94797  -2.18899   0.35308 
 1                     15.66551   1.59742   0.71846 
 1                     16.35072   0.16384   1.55954 
 1                     18.15885  -0.15871  -0.06114 
 1                     17.71732   1.05761  -1.24787 
 1                     18.06333   2.84837   0.75268 
 1                     18.50091   1.40323   1.78101 
 1                     20.36753   0.97074   0.06874 
 1                     19.90149   3.60593  -1.36503 
 1                     21.22873   2.30865  -1.37911 
 1                     19.45046   1.66683  -1.76875 
 1                     20.89084   2.3182    2.53442 
 1                     21.97364   2.66814   1.21592 
 1                     20.49558   3.81864   1.15693 
 1                    -7.31537   1.68193   0.44534 
 1                    -7.63555  -0.07558   0.06523 
 
 Stoichiometry    C55H74N4O5
 Framework group  C1[X(C55H74N4O5)]
 Deg. of freedom   408
 Full point group                 C1      NOp   1
 Largest Abelian subgroup         C1      NOp   1
 Largest concise Abelian subgroup C1      NOp   1
                         Standard orientation:                         
 ---------------------------------------------------------------------
 Center     Atomic      Atomic             Coordinates (Angstroms)
 Number     Number       Type             X           Y           Z
 ---------------------------------------------------------------------
      1          6           0       -5.095778   -1.907471    0.478904
      2          6           0       -4.870725    2.829180    1.373270
      3          6           0       -9.367811    3.240847   -0.267143
      4          6           0       -9.697523   -1.412239   -0.917815
      5          7           0       -5.152170    0.429290    0.801863
      6          6           0       -4.478493   -0.615554    0.802060
      7          6           0       -3.043451   -0.518037    1.289437
      8          6           0       -3.136348    0.967258    1.888542
      9          6           0       -4.397543    1.493920    1.312543
     10          6           0       -3.062227    0.903638    3.439134
     11          6           0       -1.990640   -0.576159    0.176578
     12          6           0       -0.587085   -0.766014    0.583540
     13          6           0        0.315638   -1.122545   -0.550404
     14          8           0        0.013426   -1.588003   -1.613036
     15          8           0        1.622612   -0.860871   -0.184999
     16          7           0       -7.193320    2.781712    0.534554
     17          6           0       -6.030004    3.410718    0.979872
     18          6           0       -6.271795    4.835900    1.006705
     19          6           0       -7.575022    4.973769    0.520264
     20          6           0       -8.061332    3.694001    0.171605
     21          6           0       -5.234978    5.895402    1.551397
     22          6           0       -8.355915    6.275202    0.247905
     23          6           0       -9.130903    6.659350   -0.726263
     24          7           0       -9.223602    0.907561   -0.518265
     25          6           0       -9.910063    2.031855   -0.560590
     26          6           0      -11.293189    1.800555   -0.901017
     27          6           0      -11.398355    0.417796   -1.087946
     28          6           0      -10.026848   -0.102756   -0.808692
     29          6           0      -12.331718    2.788164   -1.186867
     30          6           0      -12.636646   -0.367495   -1.659176
     31          6           0      -12.678867   -0.455902   -3.241827
     32          7           0       -7.403771   -1.161516   -0.220069
     33          6           0       -8.434806   -1.950645   -0.637759
     34          6           0       -8.081684   -3.322930   -0.582363
     35          6           0       -6.740069   -3.301578   -0.171440
     36          6           0       -6.402393   -2.039477    0.081031
     37          6           0       -8.980414   -4.455868   -0.930818
     38          6           0       -5.631503   -4.255063    0.123030
     39          8           0       -5.568484   -5.462043   -0.092304
     40          6           0       -4.433990   -3.229407    0.488284
     41          6           0       -3.944483   -3.747501    1.854755
     42          8           0       -4.243537   -3.426602    2.936080
     43          8           0       -3.044325   -4.695827    1.710450
     44          6           0       -2.459210   -5.445437    2.837140
     45          6           0        2.693767   -1.115716   -1.255837
     46          6           0        4.033043   -0.692771   -0.591145
     47          6           0        4.990819   -0.078541   -1.195151
     48          6           0        4.985585    0.281608   -2.642556
     49          6           0        6.360508    0.116198   -0.544099
     50          6           0        7.543661   -0.526185   -1.187718
     51          6           0        8.825853   -0.419351   -0.286424
     52          6           0       10.135377   -1.010488   -0.769274
     53          6           0       10.012366   -2.524023   -0.883567
     54          6           0       11.271967   -0.549082    0.059196
     55          6           0       12.700152   -0.755889   -0.581021
     56          6           0       13.782720   -0.062406    0.178977
     57          6           0       15.232838   -0.197091   -0.450244
     58          6           0       15.769174   -1.605720   -0.587542
     59          6           0       16.246629    0.654514    0.509921
     60          6           0       17.663527    0.900766   -0.168834
     61          6           0       18.542566    1.887650    0.667060
     62          6           0       19.954208    1.973525    0.211402
     63          6           0       20.058687    2.447372   -1.244671
     64          6           0       20.760114    2.768649    1.251242
     65          1           0       -4.016780    3.449659    1.867442
     66          1           0       -9.957750    4.272810   -0.574008
     67          1           0      -10.344282   -2.134083   -1.385410
     68          1           0       -2.506318   -1.303442    1.782232
     69          1           0       -2.330206    1.693063    1.635035
     70          1           0       -2.035979    0.770866    3.767689
     71          1           0       -3.290638    1.930145    3.780692
     72          1           0       -3.907395    0.349532    3.927129
     73          1           0       -2.172545   -1.441822   -0.514478
     74          1           0       -2.244971    0.354111   -0.522036
     75          1           0       -0.494421    0.037430    1.283266
     76          1           0       -0.150773   -1.386112    1.210481
     77          1           0       -4.325241    5.681752    1.043175
     78          1           0       -5.686290    6.983330    1.316198
     79          1           0       -5.092084    5.710275    2.539630
     80          1           0       -8.079828    6.945501    1.038009
     81          1           0       -9.286093    5.796115   -1.645100
     82          1           0       -9.403876    7.878645   -0.574253
     83          1           0      -12.064455    3.552421   -0.388692
     84          1           0      -12.425680    3.457043   -2.199905
     85          1           0      -13.389846    2.300699   -1.146060
     86          1           0      -12.637972   -1.329149   -1.326779
     87          1           0      -13.651372    0.048539   -1.484679
     88          1           0      -12.666877    0.449562   -3.735551
     89          1           0      -11.753978   -0.961426   -3.788937
     90          1           0      -13.373047   -1.258129   -3.597313
     91          1           0       -9.995573   -4.234191   -0.461547
     92          1           0       -9.182453   -4.408606   -2.023179
     93          1           0       -8.498990   -5.481861   -0.674287
     94          1           0       -3.458926   -3.357330   -0.231406
     95          1           0       -1.893197   -6.242786    2.417616
     96          1           0       -2.151092   -4.700579    3.611622
     97          1           0       -3.508306   -6.105502    3.258867
     98          1           0        2.564292   -2.102437   -1.671607
     99          1           0        2.497771   -0.675726   -2.269713
    100          1           0        4.088384   -0.915793    0.503609
    101          1           0        5.688274    1.203989   -3.012576
    102          1           0        5.566858   -0.611326   -3.371390
    103          1           0        4.010089    0.557193   -3.138366
    104          1           0        6.478003    1.176073   -0.249277
    105          1           0        6.386996   -0.425201    0.514754
    106          1           0        7.215345   -1.467011   -1.431149
    107          1           0        7.561535   -0.130400   -2.290456
    108          1           0        8.922144    0.786041   -0.126226
    109          1           0        8.605970   -0.590590    0.699640
    110          1           0       10.206956   -0.496054   -1.869647
    111          1           0        9.139025   -3.031915   -1.288296
    112          1           0       10.827585   -2.912793   -1.530990
    113          1           0       10.209196   -2.975653    0.050563
    114          1           0       11.111480    0.393632    0.210745
    115          1           0       11.229496   -0.998706    0.950814
    116          1           0       12.969800   -1.754118   -0.597192
    117          1           0       12.651905   -0.298871   -1.803480
    118          1           0       13.509740    0.888962    0.231655
    119          1           0       13.810579   -0.442326    1.289735
    120          1           0       15.282459    0.121717   -1.388419
    121          1           0       14.985226   -2.298884   -1.143040
    122          1           0       16.686322   -1.740085   -1.105352
    123          1           0       15.951562   -2.149998    0.393549
    124          1           0       15.661233    1.640848    0.702387
    125          1           0       16.349044    0.221360    1.564969
    126          1           0       18.158452   -0.121590   -0.050078
    127          1           0       17.714901    1.076011   -1.254958
    128          1           0       18.056487    2.897077    0.718824
    129          1           0       18.496617    1.468306    1.768716
    130          1           0       20.364779    1.014180    0.063747
    131          1           0       19.893914    3.626767   -1.409278
    132          1           0       21.223805    2.332139   -1.403563
    133          1           0       19.446999    1.680954   -1.784232
    134          1           0       20.884386    2.399291    2.509276
    135          1           0       21.966976    2.731761    1.186087
    136          1           0       20.486594    3.878227    1.109449
    137          1           0       -7.319664    1.674271    0.419836
    138          1           0       -7.636103   -0.089352    0.065832
 ---------------------------------------------------------------------
 Rotational constants (GHZ):      0.0628819      0.0061665      0.0057997
 Standard basis: SVP (5D, 7F)
 There are  1330 symmetry adapted cartesian basis functions of A   symmetry.
 There are  1266 symmetry adapted basis functions of A   symmetry.
  1266 basis functions,  2118 primitive gaussians,  1330 cartesian basis functions
   236 alpha electrons      236 beta electrons
       nuclear repulsion energy      8300.7588319048 Hartrees.
 NAtoms=  138 NActive=  138 NUniq=  138 SFac= 1.00D+00 NAtFMM=   60 NAOKFM=T Big=T
 Integral buffers will be    131072 words long.
 Regular integral format.
 Two-electron integral symmetry is turned on.
 One-electron integrals computed using PRISM.
 NBasis=  1266 RedAO= T EigKep=  2.34D-04  NBF=  1266
 NBsUse=  1266 1.00D-06 EigRej= -1.00D+00 NBFU=  1266
 ExpMin= 1.22D-01 ExpMax= 2.27D+03 ExpMxC= 3.41D+02 IAcc=1 IRadAn=         1 AccDes= 0.00D+00
 Harris functional with IExCor=  402 and IRadAn=       1 diagonalized for initial guess.
 HarFok:  IExCor=  402 AccDes= 0.00D+00 IRadAn=         1 IDoV= 1 UseB2=F ITyADJ=14
 ICtDFT=  3500011 ScaDFX=  1.000000  1.000000  1.000000  1.000000
 FoFCou: FMM=F IPFlag=           0 FMFlag=      100000 FMFlg1=        2001
         NFxFlg=           0 DoJE=T BraDBF=F KetDBF=T FulRan=T
         wScrn=  0.000000 ICntrl=     500 IOpCl=  0 I1Cent=   200000004 NGrid=           0
         NMat0=    1 NMatS0=      1 NMatT0=    0 NMatD0=    1 NMtDS0=    0 NMtDT0=    0
 Petite list used in FoFCou.
 Requested convergence on RMS density matrix=1.00D-08 within 128 cycles.
 Requested convergence on MAX density matrix=1.00D-06.
 Requested convergence on             energy=1.00D-06.
 No special actions if energy rises.
 Integral accuracy reduced to 1.0D-05 until final iterations.
 Initial convergence to 1.0D-05 achieved.  Increase integral accuracy.
 SCF Done:  E(RB3LYP) =  -2732.98394427     A.U. after   17 cycles
            NFock= 17  Conv=0.33D-08     -V/T= 2.0114
 DoSCS=F DFT=T ScalE2(SS,OS)=  1.000000  1.000000
 ExpMin= 1.22D-01 ExpMax= 2.27D+03 ExpMxC= 3.41D+02 IAcc=3 IRadAn=         5 AccDes= 0.00D+00
 HarFok:  IExCor=  205 AccDes= 0.00D+00 IRadAn=         5 IDoV=-2 UseB2=F ITyADJ=14
 ICtDFT= 12500011 ScaDFX=  1.000000  1.000000  1.000000  1.000000
 Range of M.O.s used for correlation:    65  1266
 NBasis=  1266 NAE=   236 NBE=   236 NFC=    64 NFV=     0
 NROrb=   1202 NOA=   172 NOB=   172 NVA=  1030 NVB=  1030

 **** Warning!!: The smallest alpha delta epsilon is  0.86116706D-01

 Would need an additional        965744300000 words for in-memory AO integral storage.
 Orbital symmetries:
       Occupied  (A) (A) (A) (A) (A) (A) (A) (A) (A) (A) (A) (A)
                 (A) (A) (A) (A) (A) (A) (A) (A) (A) (A) (A) (A)
                 (A) (A) (A) (A) (A) (A) (A) (A) (A) (A) (A) (A)
                 (A) (A) (A) (A) (A) (A) (A) (A) (A) (A) (A) (A)
                 (A) (A) (A) (A) (A) (A) (A) (A) (A) (A) (A) (A)
                 (A) (A) (A) (A) (A) (A) (A) (A) (A) (A) (A) (A)
                 (A) (A) (A) (A) (A) (A) (A) (A) (A) (A) (A) (A)
                 (A) (A) (A) (A) (A) (A) (A) (A) (A) (A) (A) (A)
                 (A) (A) (A) (A) (A) (A) (A) (A) (A) (A) (A) (A)
                 (A) (A) (A) (A) (A) (A) (A) (A) (A) (A) (A) (A)
                 (A) (A) (A) (A) (A) (A) (A) (A) (A) (A) (A) (A)
                 (A) (A) (A) (A) (A) (A) (A) (A) (A) (A) (A) (A)
                 (A) (A) (A) (A) (A) (A) (A) (A) (A) (A) (A) (A)
                 (A) (A) (A) (A) (A) (A) (A) (A) (A) (A) (A) (A)
                 (A) (A) (A) (A) (A) (A) (A) (A) (A) (A) (A) (A)
                 (A) (A) (A) (A) (A) (A) (A) (A) (A) (A) (A) (A)
                 (A) (A) (A) (A) (A) (A) (A) (A) (A) (A) (A) (A)
                 (A) (A) (A) (A) (A) (A) (A) (A) (A) (A) (A) (A)
                 (A) (A) (A) (A) (A) (A) (A) (A) (A) (A) (A) (A)
                 (A) (A) (A) (A) (A) (A) (A) (A)
       Virtual   (A) (A) (A) (A) (A) (A) (A) (A) (A) (A) (A) (A)
                 (A) (A) (A) (A) (A) (A) (A) (A) (A) (A) (A) (A)
                 (A) (A) (A) (A) (A) (A) (A) (A) (A) (A) (A) (A)
                 (A) (A) (A) (A) (A) (A) (A) (A) (A) (A) (A) (A)
                 (A) (A) (A) (A) (A) (A) (A) (A) (A) (A) (A) (A)
                 (A) (A) (A) (A) (A) (A) (A) (A) (A) (A) (A) (A)
                 (A) (A) (A) (A) (A) (A) (A) (A) (A) (A) (A) (A)
                 (A) (A) (A) (A) (A) (A) (A) (A) (A) (A) (A) (A)
                 (A) (A) (A) (A) (A) (A) (A) (A) (A) (A) (A) (A)
                 (A) (A) (A) (A) (A) (A) (A) (A) (A) (A) (A) (A)
                 (A) (A) (A) (A) (A) (A) (A) (A) (A) (A) (A) (A)
                 (A) (A) (A) (A) (A) (A) (A) (A) (A) (A) (A) (A)
                 (A) (A) (A) (A) (A) (A) (A) (A) (A) (A) (A) (A)
                 (A) (A) (A) (A) (A) (A) (A) (A) (A) (A) (A) (A)
                 (A) (A) (A) (A) (A) (A) (A) (A) (A) (A) (A) (A)
                 (A) (A) (A) (A) (A) (A) (A) (A) (A) (A) (A) (A)
                 (A) (A) (A) (A) (A) (A) (A) (A) (A) (A) (A) (A)
                 (A) (A) (A) (A) (A) (A) (A) (A) (A) (A) (A) (A)
                 (A) (A) (A) (A) (A) (A) (A) (A) (A) (A) (A) (A)
                 (A) (A) (A) (A) (A) (A) (A) (A) (A) (A) (A) (A)
                 (A) (A) (A) (A) (A) (A) (A) (A) (A) (A) (A) (A)
                 (A) (A) (A) (A) (A) (A) (A) (A) (A) (A) (A) (A)
                 (A) (A) (A) (A) (A) (A) (A) (A) (A) (A) (A) (A)
                 (A) (A) (A) (A) (A) (A) (A) (A) (A) (A) (A) (A)
                 (A) (A) (A) (A) (A) (A) (A) (A) (A) (A) (A) (A)
                 (A) (A) (A) (A) (A) (A) (A) (A) (A) (A) (A) (A)
                 (A) (A) (A) (A) (A) (A) (A) (A) (A) (A) (A) (A)
                 (A) (A) (A) (A) (A) (A) (A) (A) (A) (A) (A) (A)
                 (A) (A) (A) (A) (A) (A) (A) (A) (A) (A) (A) (A)
                 (A) (A) (A) (A) (A) (A) (A) (A) (A) (A) (A) (A)
                 (A) (A) (A) (A) (A) (A) (A) (A) (A) (A) (A) (A)
                 (A) (A) (A) (A) (A) (A) (A) (A) (A) (A) (A) (A)
                 (A) (A) (A) (A) (A) (A) (A) (A) (A) (A) (A) (A)
                 (A) (A) (A) (A) (A) (A) (A) (A) (A) (A) (A) (A)
                 (A) (A) (A) (A) (A) (A) (A) (A) (A) (A) (A) (A)
                 (A) (A) (A) (A) (A) (A) (A) (A) (A) (A) (A) (A)
                 (A) (A) (A) (A) (A) (A) (A) (A) (A) (A) (A) (A)
                 (A) (A) (A) (A) (A) (A) (A) (A) (A) (A) (A) (A)
                 (A) (A) (A) (A) (A) (A) (A) (A) (A) (A) (A) (A)
                 (A) (A) (A) (A) (A) (A) (A) (A) (A) (A) (A) (A)
                 (A) (A) (A) (A) (A) (A) (A) (A) (A) (A) (A) (A)
                 (A) (A) (A) (A) (A) (A) (A) (A) (A) (A) (A) (A)
                 (A) (A) (A) (A) (A) (A) (A) (A) (A) (A) (A) (A)
                 (A) (A) (A) (A) (A) (A) (A) (A) (A) (A) (A) (A)
                 (A) (A) (A) (A) (A) (A) (A) (A) (A) (A) (A) (A)
                 (A) (A) (A) (A) (A) (A) (A) (A) (A) (A) (A) (A)
                 (A) (A) (A) (A) (A) (A) (A) (A) (A) (A) (A) (A)
                 (A) (A) (A) (A) (A) (A) (A) (A) (A) (A) (A) (A)
                 (A) (A) (A) (A) (A) (A) (A) (A) (A) (A) (A) (A)
                 (A) (A) (A) (A) (A) (A) (A) (A) (A) (A) (A) (A)
                 (A) (A) (A) (A) (A) (A) (A) (A) (A) (A) (A) (A)
                 (A) (A) (A) (A) (A) (A) (A) (A) (A) (A) (A) (A)
                 (A) (A) (A) (A) (A) (A) (A) (A) (A) (A) (A) (A)
                 (A) (A) (A) (A) (A) (A) (A) (A) (A) (A) (A) (A)
                 (A) (A) (A) (A) (A) (A) (A) (A) (A) (A) (A) (A)
                 (A) (A) (A) (A) (A) (A) (A) (A) (A) (A) (A) (A)
                 (A) (A) (A) (A) (A) (A) (A) (A) (A) (A) (A) (A)
                 (A) (A) (A) (A) (A) (A) (A) (A) (A) (A) (A) (A)
                 (A) (A) (A) (A) (A) (A) (A) (A) (A) (A) (A) (A)
                 (A) (A) (A) (A) (A) (A) (A) (A) (A) (A) (A) (A)
                 (A) (A) (A) (A) (A) (A) (A) (A) (A) (A) (A) (A)
                 (A) (A) (A) (A) (A) (A) (A) (A) (A) (A) (A) (A)
                 (A) (A) (A) (A) (A) (A) (A) (A) (A) (A) (A) (A)
                 (A) (A) (A) (A) (A) (A) (A) (A) (A) (A) (A) (A)
                 (A) (A) (A) (A) (A) (A) (A) (A) (A) (A) (A) (A)
                 (A) (A) (A) (A) (A) (A) (A) (A) (A) (A) (A) (A)
                 (A) (A) (A) (A) (A) (A) (A) (A) (A) (A) (A) (A)
                 (A) (A) (A) (A) (A) (A) (A) (A) (A) (A) (A) (A)
                 (A) (A) (A) (A) (A) (A) (A) (A) (A) (A) (A) (A)
                 (A) (A) (A) (A) (A) (A) (A) (A) (A) (A) (A) (A)
                 (A) (A) (A) (A) (A) (A) (A) (A) (A) (A) (A) (A)
                 (A) (A) (A) (A) (A) (A) (A) (A) (A) (A) (A) (A)
                 (A) (A) (A) (A) (A) (A) (A) (A) (A) (A) (A) (A)
                 (A) (A) (A) (A) (A) (A) (A) (A) (A) (A) (A) (A)
                 (A) (A) (A) (A) (A) (A) (A) (A) (A) (A) (A) (A)
                 (A) (A) (A) (A) (A) (A) (A) (A) (A) (A) (A) (A)
                 (A) (A) (A) (A) (A) (A) (A) (A) (A) (A) (A) (A)
                 (A) (A) (A) (A) (A) (A) (A) (A) (A) (A) (A) (A)
                 (A) (A) (A) (A) (A) (A) (A) (A) (A) (A) (A) (A)
                 (A) (A) (A) (A) (A) (A) (A) (A) (A) (A) (A) (A)
                 (A) (A) (A) (A) (A) (A) (A) (A) (A) (A) (A) (A)
                 (A) (A) (A) (A) (A) (A) (A) (A) (A) (A) (A) (A)
                 (A) (A) (A) (A) (A) (A) (A) (A) (A) (A) (A) (A)
                 (A) (A) (A) (A) (A) (A) (A) (A) (A) (A) (A) (A)
                 (A) (A) (A) (A) (A) (A) (A) (A) (A) (A) (A) (A)
                 (A) (A) (A) (A) (A) (A) (A) (A) (A) (A)
     8 initial guesses have been made.
 Convergence on wavefunction:    0.001000000000000
 Iteration     1 Dimension     8 NMult     0 NNew      8
 CISAX will form     8 AO SS matrices at one time.
 Iteration     2 Dimension    12 NMult     8 NNew      4
 Iteration     3 Dimension    16 NMult    12 NNew      4
 Iteration     4 Dimension    20 NMult    16 NNew      4
 Iteration     5 Dimension    24 NMult    20 NNew      4
 Iteration     6 Dimension    28 NMult    24 NNew      4
 ***********************************************************************
 Excited states from <AA,BB:AA,BB> singles matrix:
 ***********************************************************************
 
 Ground to excited state transition densities written to RWF  633
 Ground to excited state transition electric dipole moments (Au):
       state          X           Y           Z        Dip. S.      Osc.
         1         0.1084     -1.7705     -0.1628      3.1730      0.1613
 Ground to excited state transition velocity dipole moments (Au):
       state          X           Y           Z        Dip. S.      Osc.
         1        -0.0074      0.1321      0.0131      0.0177      0.1545
 Ground to excited state transition magnetic dipole moments (Au):
       state          X           Y           Z
         1         0.0887      0.2413     -2.2467
 Ground to excited state transition velocity quadrupole moments (Au):
       state          XX          YY          ZZ          XY          XZ          YZ
         1         0.1604      0.2472      0.0471     -1.6811     -0.1201      0.0854
 <0|del|b> * <b|rxdel|0> + <0|del|b> * <b|delr+rdel|0>
 Rotatory Strengths (R) in cgs (10**-40 erg-esu-cm/Gauss)
       state          XX          YY          ZZ    R(velocity)    E-M Angle
         1       -16.4069    -40.1754     74.1109      5.8429       89.64
 1/2[<0|r|b>*<b|rxdel|0> + (<0|rxdel|b>*<b|r|0>)*]
 Rotatory Strengths (R) in cgs (10**-40 erg-esu-cm/Gauss)
       state          XX          YY          ZZ     R(length)
         1        -6.7956    302.1521   -258.6241     12.2441
  1/2[<0|del|b>*<b|r|0> + (<0|r|b>*<b|del|0>)*] (Au)
       state          X           Y           Z        Dip. S.   Osc.(frdel)
         1        -0.0008     -0.2339     -0.0021      0.2368      0.1579

 Excitation energies and oscillator strengths:
 
 Excited State   1:      Singlet-A      2.0755 eV  597.36 nm  f=0.1613  <S**2>=0.000
     235 -> 237        0.19788
     235 -> 238        0.28235
     236 -> 237        0.60054
     236 -> 238       -0.13930
 This state for optimization and/or second-order correction.
 Total Energy, E(TD-HF/TD-KS) =  -2732.90766924    
 Copying the excited state density for this state as the 1-particle RhoCI density.
 SavETr:  write IOETrn=   770 NScale= 10 NData=  16 NLR=1 NState=    1 LETran=      28.

 **********************************************************************

            Population analysis using the SCF density.

 **********************************************************************

 Orbital symmetries:
       Occupied  (A) (A) (A) (A) (A) (A) (A) (A) (A) (A) (A) (A)
                 (A) (A) (A) (A) (A) (A) (A) (A) (A) (A) (A) (A)
                 (A) (A) (A) (A) (A) (A) (A) (A) (A) (A) (A) (A)
                 (A) (A) (A) (A) (A) (A) (A) (A) (A) (A) (A) (A)
                 (A) (A) (A) (A) (A) (A) (A) (A) (A) (A) (A) (A)
                 (A) (A) (A) (A) (A) (A) (A) (A) (A) (A) (A) (A)
                 (A) (A) (A) (A) (A) (A) (A) (A) (A) (A) (A) (A)
                 (A) (A) (A) (A) (A) (A) (A) (A) (A) (A) (A) (A)
                 (A) (A) (A) (A) (A) (A) (A) (A) (A) (A) (A) (A)
                 (A) (A) (A) (A) (A) (A) (A) (A) (A) (A) (A) (A)
                 (A) (A) (A) (A) (A) (A) (A) (A) (A) (A) (A) (A)
                 (A) (A) (A) (A) (A) (A) (A) (A) (A) (A) (A) (A)
                 (A) (A) (A) (A) (A) (A) (A) (A) (A) (A) (A) (A)
                 (A) (A) (A) (A) (A) (A) (A) (A) (A) (A) (A) (A)
                 (A) (A) (A) (A) (A) (A) (A) (A) (A) (A) (A) (A)
                 (A) (A) (A) (A) (A) (A) (A) (A) (A) (A) (A) (A)
                 (A) (A) (A) (A) (A) (A) (A) (A) (A) (A) (A) (A)
                 (A) (A) (A) (A) (A) (A) (A) (A) (A) (A) (A) (A)
                 (A) (A) (A) (A) (A) (A) (A) (A) (A) (A) (A) (A)
                 (A) (A) (A) (A) (A) (A) (A) (A)
       Virtual   (A) (A) (A) (A) (A) (A) (A) (A) (A) (A) (A) (A)
                 (A) (A) (A) (A) (A) (A) (A) (A) (A) (A) (A) (A)
                 (A) (A) (A) (A) (A) (A) (A) (A) (A) (A) (A) (A)
                 (A) (A) (A) (A) (A) (A) (A) (A) (A) (A) (A) (A)
                 (A) (A) (A) (A) (A) (A) (A) (A) (A) (A) (A) (A)
                 (A) (A) (A) (A) (A) (A) (A) (A) (A) (A) (A) (A)
                 (A) (A) (A) (A) (A) (A) (A) (A) (A) (A) (A) (A)
                 (A) (A) (A) (A) (A) (A) (A) (A) (A) (A) (A) (A)
                 (A) (A) (A) (A) (A) (A) (A) (A) (A) (A) (A) (A)
                 (A) (A) (A) (A) (A) (A) (A) (A) (A) (A) (A) (A)
                 (A) (A) (A) (A) (A) (A) (A) (A) (A) (A) (A) (A)
                 (A) (A) (A) (A) (A) (A) (A) (A) (A) (A) (A) (A)
                 (A) (A) (A) (A) (A) (A) (A) (A) (A) (A) (A) (A)
                 (A) (A) (A) (A) (A) (A) (A) (A) (A) (A) (A) (A)
                 (A) (A) (A) (A) (A) (A) (A) (A) (A) (A) (A) (A)
                 (A) (A) (A) (A) (A) (A) (A) (A) (A) (A) (A) (A)
                 (A) (A) (A) (A) (A) (A) (A) (A) (A) (A) (A) (A)
                 (A) (A) (A) (A) (A) (A) (A) (A) (A) (A) (A) (A)
                 (A) (A) (A) (A) (A) (A) (A) (A) (A) (A) (A) (A)
                 (A) (A) (A) (A) (A) (A) (A) (A) (A) (A) (A) (A)
                 (A) (A) (A) (A) (A) (A) (A) (A) (A) (A) (A) (A)
                 (A) (A) (A) (A) (A) (A) (A) (A) (A) (A) (A) (A)
                 (A) (A) (A) (A) (A) (A) (A) (A) (A) (A) (A) (A)
                 (A) (A) (A) (A) (A) (A) (A) (A) (A) (A) (A) (A)
                 (A) (A) (A) (A) (A) (A) (A) (A) (A) (A) (A) (A)
                 (A) (A) (A) (A) (A) (A) (A) (A) (A) (A) (A) (A)
                 (A) (A) (A) (A) (A) (A) (A) (A) (A) (A) (A) (A)
                 (A) (A) (A) (A) (A) (A) (A) (A) (A) (A) (A) (A)
                 (A) (A) (A) (A) (A) (A) (A) (A) (A) (A) (A) (A)
                 (A) (A) (A) (A) (A) (A) (A) (A) (A) (A) (A) (A)
                 (A) (A) (A) (A) (A) (A) (A) (A) (A) (A) (A) (A)
                 (A) (A) (A) (A) (A) (A) (A) (A) (A) (A) (A) (A)
                 (A) (A) (A) (A) (A) (A) (A) (A) (A) (A) (A) (A)
                 (A) (A) (A) (A) (A) (A) (A) (A) (A) (A) (A) (A)
                 (A) (A) (A) (A) (A) (A) (A) (A) (A) (A) (A) (A)
                 (A) (A) (A) (A) (A) (A) (A) (A) (A) (A) (A) (A)
                 (A) (A) (A) (A) (A) (A) (A) (A) (A) (A) (A) (A)
                 (A) (A) (A) (A) (A) (A) (A) (A) (A) (A) (A) (A)
                 (A) (A) (A) (A) (A) (A) (A) (A) (A) (A) (A) (A)
                 (A) (A) (A) (A) (A) (A) (A) (A) (A) (A) (A) (A)
                 (A) (A) (A) (A) (A) (A) (A) (A) (A) (A) (A) (A)
                 (A) (A) (A) (A) (A) (A) (A) (A) (A) (A) (A) (A)
                 (A) (A) (A) (A) (A) (A) (A) (A) (A) (A) (A) (A)
                 (A) (A) (A) (A) (A) (A) (A) (A) (A) (A) (A) (A)
                 (A) (A) (A) (A) (A) (A) (A) (A) (A) (A) (A) (A)
                 (A) (A) (A) (A) (A) (A) (A) (A) (A) (A) (A) (A)
                 (A) (A) (A) (A) (A) (A) (A) (A) (A) (A) (A) (A)
                 (A) (A) (A) (A) (A) (A) (A) (A) (A) (A) (A) (A)
                 (A) (A) (A) (A) (A) (A) (A) (A) (A) (A) (A) (A)
                 (A) (A) (A) (A) (A) (A) (A) (A) (A) (A) (A) (A)
                 (A) (A) (A) (A) (A) (A) (A) (A) (A) (A) (A) (A)
                 (A) (A) (A) (A) (A) (A) (A) (A) (A) (A) (A) (A)
                 (A) (A) (A) (A) (A) (A) (A) (A) (A) (A) (A) (A)
                 (A) (A) (A) (A) (A) (A) (A) (A) (A) (A) (A) (A)
                 (A) (A) (A) (A) (A) (A) (A) (A) (A) (A) (A) (A)
                 (A) (A) (A) (A) (A) (A) (A) (A) (A) (A) (A) (A)
                 (A) (A) (A) (A) (A) (A) (A) (A) (A) (A) (A) (A)
                 (A) (A) (A) (A) (A) (A) (A) (A) (A) (A) (A) (A)
                 (A) (A) (A) (A) (A) (A) (A) (A) (A) (A) (A) (A)
                 (A) (A) (A) (A) (A) (A) (A) (A) (A) (A) (A) (A)
                 (A) (A) (A) (A) (A) (A) (A) (A) (A) (A) (A) (A)
                 (A) (A) (A) (A) (A) (A) (A) (A) (A) (A) (A) (A)
                 (A) (A) (A) (A) (A) (A) (A) (A) (A) (A) (A) (A)
                 (A) (A) (A) (A) (A) (A) (A) (A) (A) (A) (A) (A)
                 (A) (A) (A) (A) (A) (A) (A) (A) (A) (A) (A) (A)
                 (A) (A) (A) (A) (A) (A) (A) (A) (A) (A) (A) (A)
                 (A) (A) (A) (A) (A) (A) (A) (A) (A) (A) (A) (A)
                 (A) (A) (A) (A) (A) (A) (A) (A) (A) (A) (A) (A)
                 (A) (A) (A) (A) (A) (A) (A) (A) (A) (A) (A) (A)
                 (A) (A) (A) (A) (A) (A) (A) (A) (A) (A) (A) (A)
                 (A) (A) (A) (A) (A) (A) (A) (A) (A) (A) (A) (A)
                 (A) (A) (A) (A) (A) (A) (A) (A) (A) (A) (A) (A)
                 (A) (A) (A) (A) (A) (A) (A) (A) (A) (A) (A) (A)
                 (A) (A) (A) (A) (A) (A) (A) (A) (A) (A) (A) (A)
                 (A) (A) (A) (A) (A) (A) (A) (A) (A) (A) (A) (A)
                 (A) (A) (A) (A) (A) (A) (A) (A) (A) (A) (A) (A)
                 (A) (A) (A) (A) (A) (A) (A) (A) (A) (A) (A) (A)
                 (A) (A) (A) (A) (A) (A) (A) (A) (A) (A) (A) (A)
                 (A) (A) (A) (A) (A) (A) (A) (A) (A) (A) (A) (A)
                 (A) (A) (A) (A) (A) (A) (A) (A) (A) (A) (A) (A)
                 (A) (A) (A) (A) (A) (A) (A) (A) (A) (A) (A) (A)
                 (A) (A) (A) (A) (A) (A) (A) (A) (A) (A) (A) (A)
                 (A) (A) (A) (A) (A) (A) (A) (A) (A) (A) (A) (A)
                 (A) (A) (A) (A) (A) (A) (A) (A) (A) (A) (A) (A)
                 (A) (A) (A) (A) (A) (A) (A) (A) (A) (A) (A) (A)
                 (A) (A) (A) (A) (A) (A) (A) (A) (A) (A)
 The electronic state is 1-A.
 Alpha  occ. eigenvalues --  -19.17203 -19.16076 -19.13203 -19.13090 -19.11031
 Alpha  occ. eigenvalues --  -14.37438 -14.36405 -14.32234 -14.29926 -10.31858
 Alpha  occ. eigenvalues --  -10.30379 -10.28739 -10.26534 -10.25481 -10.23290
 Alpha  occ. eigenvalues --  -10.23144 -10.22916 -10.22870 -10.22489 -10.22254
 Alpha  occ. eigenvalues --  -10.22056 -10.22035 -10.21696 -10.21160 -10.20980
 Alpha  occ. eigenvalues --  -10.20972 -10.20948 -10.20946 -10.20878 -10.20690
 Alpha  occ. eigenvalues --  -10.20503 -10.20461 -10.20386 -10.20377 -10.20179
 Alpha  occ. eigenvalues --  -10.20151 -10.20136 -10.20066 -10.20054 -10.19880
 Alpha  occ. eigenvalues --  -10.19846 -10.19699 -10.19625 -10.19574 -10.19466
 Alpha  occ. eigenvalues --  -10.19388 -10.19284 -10.19118 -10.19074 -10.19069
 Alpha  occ. eigenvalues --  -10.18974 -10.18941 -10.18805 -10.18652 -10.18569
 Alpha  occ. eigenvalues --  -10.18564 -10.18559 -10.18553 -10.18489 -10.18426
 Alpha  occ. eigenvalues --  -10.18177 -10.17790 -10.17353 -10.16139  -1.10105
 Alpha  occ. eigenvalues --   -1.08036  -1.02389  -1.00104  -0.99785  -0.99119
 Alpha  occ. eigenvalues --   -0.98841  -0.96553  -0.95434  -0.85706  -0.83343
 Alpha  occ. eigenvalues --   -0.82863  -0.82204  -0.81485  -0.81307  -0.80764
 Alpha  occ. eigenvalues --   -0.80105  -0.79814  -0.79756  -0.78704  -0.78288
 Alpha  occ. eigenvalues --   -0.77036  -0.76139  -0.75592  -0.74724  -0.74261
 Alpha  occ. eigenvalues --   -0.73673  -0.73154  -0.72265  -0.71748  -0.71038
 Alpha  occ. eigenvalues --   -0.70488  -0.69059  -0.68944  -0.68574  -0.67231
 Alpha  occ. eigenvalues --   -0.67110  -0.66385  -0.66215  -0.65610  -0.65198
 Alpha  occ. eigenvalues --   -0.64618  -0.63080  -0.62104  -0.61615  -0.61216
 Alpha  occ. eigenvalues --   -0.60546  -0.59447  -0.58538  -0.57814  -0.57354
 Alpha  occ. eigenvalues --   -0.57316  -0.56852  -0.56622  -0.56154  -0.56104
 Alpha  occ. eigenvalues --   -0.54907  -0.54536  -0.54165  -0.54132  -0.52985
 Alpha  occ. eigenvalues --   -0.52719  -0.52118  -0.51666  -0.50852  -0.50237
 Alpha  occ. eigenvalues --   -0.49915  -0.49433  -0.49136  -0.48669  -0.48399
 Alpha  occ. eigenvalues --   -0.47740  -0.47391  -0.47300  -0.47105  -0.46736
 Alpha  occ. eigenvalues --   -0.46411  -0.46121  -0.45911  -0.45782  -0.45725
 Alpha  occ. eigenvalues --   -0.45575  -0.45336  -0.45174  -0.44908  -0.44791
 Alpha  occ. eigenvalues --   -0.44412  -0.44225  -0.43955  -0.43857  -0.43618
 Alpha  occ. eigenvalues --   -0.43504  -0.43404  -0.43250  -0.42819  -0.42505
 Alpha  occ. eigenvalues --   -0.42345  -0.42213  -0.41810  -0.41334  -0.41051
 Alpha  occ. eigenvalues --   -0.41031  -0.40894  -0.40870  -0.40640  -0.40558
 Alpha  occ. eigenvalues --   -0.40039  -0.39656  -0.39504  -0.39311  -0.39185
 Alpha  occ. eigenvalues --   -0.39030  -0.38904  -0.38798  -0.38576  -0.38270
 Alpha  occ. eigenvalues --   -0.38138  -0.38023  -0.37987  -0.37843  -0.37636
 Alpha  occ. eigenvalues --   -0.37599  -0.37408  -0.37167  -0.37025  -0.36923
 Alpha  occ. eigenvalues --   -0.36739  -0.36613  -0.36576  -0.36266  -0.36232
 Alpha  occ. eigenvalues --   -0.35832  -0.35504  -0.35272  -0.35025  -0.34520
 Alpha  occ. eigenvalues --   -0.34324  -0.34216  -0.33992  -0.33869  -0.33642
 Alpha  occ. eigenvalues --   -0.32989  -0.32758  -0.32531  -0.32206  -0.32050
 Alpha  occ. eigenvalues --   -0.31929  -0.31751  -0.31535  -0.31374  -0.30980
 Alpha  occ. eigenvalues --   -0.30942  -0.30840  -0.30693  -0.30582  -0.30234
 Alpha  occ. eigenvalues --   -0.30102  -0.29187  -0.28921  -0.28613  -0.28221
 Alpha  occ. eigenvalues --   -0.27438  -0.27294  -0.26880  -0.26507  -0.25661
 Alpha  occ. eigenvalues --   -0.25633  -0.25124  -0.24736  -0.22547  -0.19618
 Alpha  occ. eigenvalues --   -0.18778
 Alpha virt. eigenvalues --   -0.10167  -0.07413  -0.04386  -0.01752  -0.00358
 Alpha virt. eigenvalues --    0.00292   0.00802   0.02141   0.02539   0.03078
 Alpha virt. eigenvalues --    0.03648   0.03746   0.03820   0.04092   0.04567
 Alpha virt. eigenvalues --    0.04684   0.05071   0.05141   0.05357   0.05598
 Alpha virt. eigenvalues --    0.05799   0.06068   0.06212   0.06600   0.06937
 Alpha virt. eigenvalues --    0.07157   0.07239   0.07477   0.07520   0.07813
 Alpha virt. eigenvalues --    0.08008   0.08117   0.08332   0.08458   0.08553
 Alpha virt. eigenvalues --    0.08819   0.08939   0.09098   0.09600   0.09738
 Alpha virt. eigenvalues --    0.09795   0.09903   0.09936   0.10652   0.10725
 Alpha virt. eigenvalues --    0.10909   0.11077   0.11243   0.11334   0.11379
 Alpha virt. eigenvalues --    0.11730   0.11762   0.11859   0.11913   0.12041
 Alpha virt. eigenvalues --    0.12124   0.12418   0.12437   0.12773   0.13102
 Alpha virt. eigenvalues --    0.13213   0.13269   0.13378   0.13447   0.13687
 Alpha virt. eigenvalues --    0.13845   0.13989   0.14194   0.14522   0.14542
 Alpha virt. eigenvalues --    0.14895   0.14974   0.15018   0.15113   0.15449
 Alpha virt. eigenvalues --    0.15693   0.15733   0.16057   0.16587   0.16708
 Alpha virt. eigenvalues --    0.16735   0.17046   0.17066   0.17427   0.17615
 Alpha virt. eigenvalues --    0.17755   0.18238   0.18295   0.18579   0.18906
 Alpha virt. eigenvalues --    0.19057   0.19340   0.19621   0.19805   0.19893
 Alpha virt. eigenvalues --    0.20227   0.20321   0.20750   0.21011   0.21108
 Alpha virt. eigenvalues --    0.21213   0.21548   0.21843   0.21996   0.22292
 Alpha virt. eigenvalues --    0.22444   0.22519   0.22761   0.23313   0.23396
 Alpha virt. eigenvalues --    0.23548   0.23741   0.23995   0.24035   0.24210
 Alpha virt. eigenvalues --    0.24585   0.25046   0.25163   0.25604   0.25917
 Alpha virt. eigenvalues --    0.26011   0.26114   0.26218   0.26752   0.26852
 Alpha virt. eigenvalues --    0.27480   0.27647   0.27932   0.28621   0.29139
 Alpha virt. eigenvalues --    0.29570   0.29748   0.30567   0.30873   0.31527
 Alpha virt. eigenvalues --    0.31835   0.32072   0.32414   0.32878   0.33125
 Alpha virt. eigenvalues --    0.33653   0.33975   0.34214   0.34366   0.35256
 Alpha virt. eigenvalues --    0.35736   0.36192   0.36249   0.36660   0.37162
 Alpha virt. eigenvalues --    0.37423   0.37648   0.38474   0.38625   0.38741
 Alpha virt. eigenvalues --    0.39318   0.39434   0.39816   0.40028   0.40072
 Alpha virt. eigenvalues --    0.40296   0.40620   0.40678   0.40962   0.41247
 Alpha virt. eigenvalues --    0.41283   0.41520   0.41578   0.41734   0.42040
 Alpha virt. eigenvalues --    0.42158   0.42531   0.42675   0.42719   0.43012
 Alpha virt. eigenvalues --    0.43243   0.43662   0.43785   0.43998   0.44067
 Alpha virt. eigenvalues --    0.44295   0.44476   0.44505   0.44568   0.44847
 Alpha virt. eigenvalues --    0.45267   0.45560   0.45751   0.46127   0.46298
 Alpha virt. eigenvalues --    0.46459   0.46741   0.46858   0.47110   0.47237
 Alpha virt. eigenvalues --    0.47761   0.47941   0.48605   0.48693   0.49158
 Alpha virt. eigenvalues --    0.49313   0.49720   0.49961   0.50006   0.50187
 Alpha virt. eigenvalues --    0.50527   0.50658   0.51165   0.51302   0.51709
 Alpha virt. eigenvalues --    0.51944   0.52227   0.52515   0.52618   0.52938
 Alpha virt. eigenvalues --    0.53238   0.53484   0.53535   0.53709   0.53870
 Alpha virt. eigenvalues --    0.54231   0.54562   0.54831   0.55104   0.55445
 Alpha virt. eigenvalues --    0.55648   0.55812   0.55840   0.56058   0.56251
 Alpha virt. eigenvalues --    0.56576   0.56716   0.56901   0.57464   0.57639
 Alpha virt. eigenvalues --    0.57737   0.57994   0.58305   0.58379   0.58468
 Alpha virt. eigenvalues --    0.58607   0.58769   0.59365   0.59430   0.59488
 Alpha virt. eigenvalues --    0.59538   0.59821   0.59998   0.60193   0.60253
 Alpha virt. eigenvalues --    0.60355   0.60606   0.60805   0.60931   0.61024
 Alpha virt. eigenvalues --    0.61150   0.61210   0.61483   0.61718   0.61883
 Alpha virt. eigenvalues --    0.61998   0.62150   0.62247   0.62325   0.62507
 Alpha virt. eigenvalues --    0.62548   0.62676   0.62839   0.63053   0.63147
 Alpha virt. eigenvalues --    0.63265   0.63300   0.63648   0.63709   0.63864
 Alpha virt. eigenvalues --    0.64068   0.64189   0.64275   0.64338   0.64528
 Alpha virt. eigenvalues --    0.64691   0.64784   0.64911   0.64980   0.65180
 Alpha virt. eigenvalues --    0.65329   0.65404   0.65680   0.65760   0.65782
 Alpha virt. eigenvalues --    0.65972   0.66028   0.66079   0.66560   0.66581
 Alpha virt. eigenvalues --    0.66639   0.66787   0.66984   0.67071   0.67283
 Alpha virt. eigenvalues --    0.67526   0.67651   0.67690   0.67940   0.68053
 Alpha virt. eigenvalues --    0.68340   0.68488   0.68682   0.68824   0.68924
 Alpha virt. eigenvalues --    0.69025   0.69150   0.69215   0.69338   0.69530
 Alpha virt. eigenvalues --    0.69765   0.69797   0.70019   0.70275   0.70316
 Alpha virt. eigenvalues --    0.70519   0.70619   0.70735   0.70814   0.71040
 Alpha virt. eigenvalues --    0.71288   0.71464   0.71569   0.71640   0.71781
 Alpha virt. eigenvalues --    0.72076   0.72192   0.72356   0.72581   0.72705
 Alpha virt. eigenvalues --    0.72940   0.72988   0.73128   0.73167   0.73463
 Alpha virt. eigenvalues --    0.73642   0.73825   0.74008   0.74209   0.74482
 Alpha virt. eigenvalues --    0.74517   0.74584   0.74980   0.75252   0.75290
 Alpha virt. eigenvalues --    0.75770   0.76018   0.76170   0.76388   0.76511
 Alpha virt. eigenvalues --    0.76593   0.76841   0.77096   0.77189   0.77707
 Alpha virt. eigenvalues --    0.77781   0.77833   0.78420   0.78541   0.79050
 Alpha virt. eigenvalues --    0.79092   0.79222   0.79446   0.79733   0.80132
 Alpha virt. eigenvalues --    0.80612   0.80941   0.81277   0.81352   0.81599
 Alpha virt. eigenvalues --    0.81913   0.82456   0.82520   0.82687   0.83260
 Alpha virt. eigenvalues --    0.83941   0.84426   0.85007   0.85164   0.85350
 Alpha virt. eigenvalues --    0.86028   0.86716   0.87117   0.87551   0.88445
 Alpha virt. eigenvalues --    0.89584   0.89987   0.90189   0.90622   0.90857
 Alpha virt. eigenvalues --    0.91329   0.92577   0.92838   0.92920   0.93171
 Alpha virt. eigenvalues --    0.93595   0.94200   0.94534   0.94716   0.95520
 Alpha virt. eigenvalues --    0.96047   0.96127   0.96404   0.97052   0.97362
 Alpha virt. eigenvalues --    0.98273   0.98595   0.99184   0.99502   0.99864
 Alpha virt. eigenvalues --    1.00671   1.01064   1.01845   1.02161   1.02351
 Alpha virt. eigenvalues --    1.02555   1.02776   1.02946   1.03234   1.03974
 Alpha virt. eigenvalues --    1.04110   1.04431   1.04964   1.05267   1.05725
 Alpha virt. eigenvalues --    1.06144   1.06425   1.06510   1.06696   1.07277
 Alpha virt. eigenvalues --    1.07934   1.09261   1.09302   1.09421   1.09855
 Alpha virt. eigenvalues --    1.10273   1.10958   1.11394   1.11660   1.11814
 Alpha virt. eigenvalues --    1.12443   1.13006   1.13578   1.13668   1.14154
 Alpha virt. eigenvalues --    1.14823   1.15020   1.15235   1.15978   1.16212
 Alpha virt. eigenvalues --    1.16651   1.16754   1.17417   1.17653   1.18155
 Alpha virt. eigenvalues --    1.18717   1.19265   1.19971   1.20133   1.20675
 Alpha virt. eigenvalues --    1.21045   1.21589   1.21971   1.22636   1.22708
 Alpha virt. eigenvalues --    1.23008   1.23204   1.24222   1.24395   1.24455
 Alpha virt. eigenvalues --    1.25318   1.25489   1.26482   1.26791   1.27116
 Alpha virt. eigenvalues --    1.27388   1.27985   1.28347   1.28846   1.29057
 Alpha virt. eigenvalues --    1.29233   1.29545   1.29927   1.30260   1.30495
 Alpha virt. eigenvalues --    1.30964   1.31358   1.31889   1.32379   1.32944
 Alpha virt. eigenvalues --    1.33381   1.33705   1.33845   1.34021   1.34697
 Alpha virt. eigenvalues --    1.35282   1.36017   1.36083   1.36421   1.36683
 Alpha virt. eigenvalues --    1.37082   1.37461   1.37774   1.37967   1.38594
 Alpha virt. eigenvalues --    1.38641   1.39436   1.39511   1.40310   1.40876
 Alpha virt. eigenvalues --    1.40981   1.41674   1.41815   1.42144   1.42672
 Alpha virt. eigenvalues --    1.43013   1.43256   1.44007   1.44229   1.44948
 Alpha virt. eigenvalues --    1.45394   1.45730   1.46598   1.47098   1.47288
 Alpha virt. eigenvalues --    1.47464   1.47757   1.48047   1.48301   1.48497
 Alpha virt. eigenvalues --    1.48870   1.49272   1.49592   1.49814   1.50137
 Alpha virt. eigenvalues --    1.50262   1.50358   1.51303   1.51402   1.51857
 Alpha virt. eigenvalues --    1.52542   1.52804   1.52893   1.53653   1.53723
 Alpha virt. eigenvalues --    1.53771   1.53910   1.54309   1.55040   1.55439
 Alpha virt. eigenvalues --    1.55485   1.55972   1.56370   1.56495   1.57338
 Alpha virt. eigenvalues --    1.57606   1.57842   1.58332   1.58553   1.58879
 Alpha virt. eigenvalues --    1.59711   1.59852   1.59957   1.60337   1.61228
 Alpha virt. eigenvalues --    1.61622   1.61827   1.62283   1.62916   1.63247
 Alpha virt. eigenvalues --    1.63602   1.63897   1.64375   1.64514   1.64747
 Alpha virt. eigenvalues --    1.64901   1.65045   1.65623   1.66074   1.66281
 Alpha virt. eigenvalues --    1.66387   1.66684   1.67199   1.67530   1.67668
 Alpha virt. eigenvalues --    1.67823   1.68038   1.68514   1.68648   1.69547
 Alpha virt. eigenvalues --    1.69760   1.70016   1.70078   1.70441   1.71122
 Alpha virt. eigenvalues --    1.71313   1.71422   1.71540   1.71654   1.71916
 Alpha virt. eigenvalues --    1.72185   1.72491   1.72602   1.72717   1.72925
 Alpha virt. eigenvalues --    1.73092   1.73140   1.73252   1.73669   1.73802
 Alpha virt. eigenvalues --    1.73905   1.74018   1.74304   1.74460   1.75206
 Alpha virt. eigenvalues --    1.75490   1.75611   1.75765   1.76162   1.76269
 Alpha virt. eigenvalues --    1.76338   1.76989   1.77200   1.77318   1.77589
 Alpha virt. eigenvalues --    1.77645   1.77774   1.77872   1.78550   1.78753
 Alpha virt. eigenvalues --    1.79046   1.79232   1.79447   1.79568   1.79741
 Alpha virt. eigenvalues --    1.80022   1.80215   1.80619   1.80801   1.80839
 Alpha virt. eigenvalues --    1.81311   1.81496   1.81714   1.81842   1.82104
 Alpha virt. eigenvalues --    1.82251   1.82583   1.82825   1.82918   1.82969
 Alpha virt. eigenvalues --    1.83428   1.83621   1.84134   1.84180   1.84306
 Alpha virt. eigenvalues --    1.84440   1.84677   1.85114   1.85161   1.85412
 Alpha virt. eigenvalues --    1.85576   1.85673   1.85845   1.85890   1.86237
 Alpha virt. eigenvalues --    1.86318   1.86782   1.87018   1.87151   1.87593
 Alpha virt. eigenvalues --    1.87811   1.87959   1.88147   1.88163   1.88375
 Alpha virt. eigenvalues --    1.88470   1.89325   1.89633   1.90013   1.90245
 Alpha virt. eigenvalues --    1.90378   1.90613   1.90833   1.90893   1.91197
 Alpha virt. eigenvalues --    1.91456   1.92004   1.92050   1.92313   1.92645
 Alpha virt. eigenvalues --    1.92667   1.92999   1.93176   1.93797   1.93951
 Alpha virt. eigenvalues --    1.94148   1.94453   1.94741   1.94879   1.95117
 Alpha virt. eigenvalues --    1.95446   1.95540   1.95706   1.96014   1.96070
 Alpha virt. eigenvalues --    1.96220   1.96288   1.96740   1.96870   1.97221
 Alpha virt. eigenvalues --    1.97834   1.97900   1.98216   1.98313   1.98423
 Alpha virt. eigenvalues --    1.98613   1.99097   1.99584   1.99990   2.00290
 Alpha virt. eigenvalues --    2.00446   2.00681   2.00862   2.00927   2.01582
 Alpha virt. eigenvalues --    2.02242   2.02560   2.02607   2.03652   2.03869
 Alpha virt. eigenvalues --    2.04152   2.04361   2.04768   2.04878   2.04978
 Alpha virt. eigenvalues --    2.05483   2.05734   2.06267   2.06748   2.06872
 Alpha virt. eigenvalues --    2.07110   2.07249   2.07494   2.07718   2.08684
 Alpha virt. eigenvalues --    2.08696   2.08807   2.09291   2.09705   2.10316
 Alpha virt. eigenvalues --    2.10541   2.10892   2.11296   2.11708   2.11839
 Alpha virt. eigenvalues --    2.12451   2.12851   2.12988   2.13484   2.13675
 Alpha virt. eigenvalues --    2.13708   2.14266   2.14801   2.15218   2.15484
 Alpha virt. eigenvalues --    2.16057   2.16487   2.16870   2.17327   2.17498
 Alpha virt. eigenvalues --    2.17870   2.18077   2.18345   2.18769   2.19464
 Alpha virt. eigenvalues --    2.19506   2.19949   2.20032   2.20312   2.20767
 Alpha virt. eigenvalues --    2.21253   2.21720   2.22030   2.22929   2.23229
 Alpha virt. eigenvalues --    2.23368   2.24015   2.24430   2.25014   2.26126
 Alpha virt. eigenvalues --    2.26263   2.26369   2.27149   2.27249   2.27792
 Alpha virt. eigenvalues --    2.28408   2.28835   2.29001   2.29630   2.30071
 Alpha virt. eigenvalues --    2.30400   2.30804   2.31017   2.31331   2.31521
 Alpha virt. eigenvalues --    2.32311   2.32931   2.33309   2.33417   2.33609
 Alpha virt. eigenvalues --    2.33959   2.34041   2.34368   2.34741   2.35114
 Alpha virt. eigenvalues --    2.35427   2.35786   2.35855   2.36721   2.37186
 Alpha virt. eigenvalues --    2.37446   2.37568   2.38310   2.38863   2.38912
 Alpha virt. eigenvalues --    2.38945   2.39194   2.39690   2.39969   2.40628
 Alpha virt. eigenvalues --    2.41159   2.41344   2.41862   2.42075   2.42190
 Alpha virt. eigenvalues --    2.42935   2.43577   2.44473   2.44552   2.44676
 Alpha virt. eigenvalues --    2.45217   2.45274   2.46114   2.46292   2.46440
 Alpha virt. eigenvalues --    2.46696   2.46703   2.46943   2.47443   2.47662
 Alpha virt. eigenvalues --    2.48497   2.48546   2.49022   2.49622   2.50176
 Alpha virt. eigenvalues --    2.50220   2.50882   2.51388   2.52395   2.52694
 Alpha virt. eigenvalues --    2.53220   2.53430   2.53482   2.54019   2.54306
 Alpha virt. eigenvalues --    2.56165   2.56338   2.56585   2.56745   2.56928
 Alpha virt. eigenvalues --    2.57665   2.57768   2.59118   2.59435   2.59643
 Alpha virt. eigenvalues --    2.59811   2.60029   2.60336   2.60989   2.61386
 Alpha virt. eigenvalues --    2.61783   2.62535   2.62582   2.63057   2.63168
 Alpha virt. eigenvalues --    2.63595   2.63730   2.63989   2.64463   2.64952
 Alpha virt. eigenvalues --    2.65263   2.65995   2.66343   2.66923   2.67712
 Alpha virt. eigenvalues --    2.67740   2.68543   2.68869   2.69353   2.69646
 Alpha virt. eigenvalues --    2.70216   2.70599   2.70754   2.71056   2.72045
 Alpha virt. eigenvalues --    2.72169   2.72384   2.72540   2.72802   2.73073
 Alpha virt. eigenvalues --    2.73301   2.73766   2.74941   2.75318   2.76454
 Alpha virt. eigenvalues --    2.77263   2.77321   2.77602   2.77863   2.78109
 Alpha virt. eigenvalues --    2.78879   2.78938   2.80047   2.80388   2.80399
 Alpha virt. eigenvalues --    2.81027   2.81258   2.81562   2.81839   2.82117
 Alpha virt. eigenvalues --    2.82436   2.82725   2.83509   2.83802   2.83863
 Alpha virt. eigenvalues --    2.84538   2.85180   2.85473   2.85638   2.86377
 Alpha virt. eigenvalues --    2.86868   2.87237   2.87839   2.88111   2.88953
 Alpha virt. eigenvalues --    2.89768   2.90015   2.90121   2.90589   2.90968
 Alpha virt. eigenvalues --    2.91443   2.91626   2.91923   2.91980   2.92329
 Alpha virt. eigenvalues --    2.92717   2.93205   2.93811   2.94717   2.94879
 Alpha virt. eigenvalues --    2.95211   2.95979   2.96271   2.97321   2.97609
 Alpha virt. eigenvalues --    2.98095   2.98955   2.99202   3.00054   3.00113
 Alpha virt. eigenvalues --    3.00577   3.01353   3.01537   3.02176   3.02601
 Alpha virt. eigenvalues --    3.03214   3.03544   3.03895   3.04063   3.05366
 Alpha virt. eigenvalues --    3.05621   3.05865   3.06561   3.07928   3.08344
 Alpha virt. eigenvalues --    3.08368   3.10118   3.10172   3.10985   3.12395
 Alpha virt. eigenvalues --    3.12607   3.15036   3.15490   3.15817   3.16273
 Alpha virt. eigenvalues --    3.17604   3.18140   3.18246   3.20766   3.22060
 Alpha virt. eigenvalues --    3.23126   3.23338   3.24122   3.24828   3.25891
 Alpha virt. eigenvalues --    3.26298   3.27335   3.29652   3.30921   3.31977
 Alpha virt. eigenvalues --    3.35995   3.39610   3.41849   3.43624   3.47210
 Alpha virt. eigenvalues --    3.48530   3.50914   3.55448   3.58025   3.61706
 Alpha virt. eigenvalues --    3.62168   3.63512   3.64876   3.68907   3.72484
          Condensed to atoms (all electrons):
 Mulliken charges:
               1
     1  C   -0.005520
     2  C   -0.121317
     3  C   -0.139162
     4  C   -0.138026
     5  N   -0.091123
     6  C   -0.058389
     7  C   -0.020913
     8  C   -0.035450
     9  C   -0.063259
    10  C    0.098293
    11  C   -0.005588
    12  C    0.083295
    13  C    0.214818
    14  O   -0.214629
    15  O   -0.371465
    16  N   -0.083527
    17  C    0.176849
    18  C   -0.174359
    19  C   -0.016460
    20  C   -0.013050
    21  C    0.161443
    22  C   -0.019437
    23  C   -0.087543
    24  N   -0.206518
    25  C    0.102577
    26  C   -0.076734
    27  C   -0.087441
    28  C    0.117607
    29  C   -0.023690
    30  C    0.132797
    31  C   -0.033884
    32  N   -0.090995
    33  C    0.057888
    34  C   -0.169222
    35  C   -0.012629
    36  C    0.140774
    37  C    0.079120
    38  C    0.107504
    39  O   -0.170047
    40  C   -0.150559
    41  C    0.153102
    42  O   -0.185375
    43  O   -0.314864
    44  C    0.147562
    45  C    0.256059
    46  C   -0.065923
    47  C   -0.043365
    48  C   -0.076118
    49  C    0.000557
    50  C    0.077290
    51  C    0.013545
    52  C   -0.067103
    53  C    0.071214
    54  C    0.196683
    55  C    0.001606
    56  C    0.081661
    57  C    0.015285
    58  C   -0.014204
    59  C   -0.016193
    60  C   -0.012893
    61  C    0.019317
    62  C   -0.024306
    63  C   -0.040381
    64  C   -0.074759
    65  H   -0.005782
    66  H    0.011907
    67  H   -0.031381
    68  H   -0.018347
    69  H   -0.001422
    70  H    0.010981
    71  H   -0.020310
    72  H    0.036885
    73  H    0.021481
    74  H    0.021669
    75  H   -0.001496
    76  H   -0.018364
    77  H    0.020493
    78  H    0.045530
    79  H    0.007801
    80  H   -0.005200
    81  H    0.076546
    82  H    0.065643
    83  H    0.037522
    84  H    0.044675
    85  H    0.029085
    86  H   -0.031071
    87  H    0.010648
    88  H    0.007027
    89  H   -0.003033
    90  H    0.016483
    91  H    0.034178
    92  H    0.033468
    93  H    0.061982
    94  H    0.096764
    95  H    0.046879
    96  H    0.063786
    97  H    0.043868
    98  H    0.018619
    99  H    0.011436
   100  H    0.007200
   101  H    0.038214
   102  H    0.048004
   103  H    0.038804
   104  H    0.008832
   105  H   -0.004809
   106  H   -0.031115
   107  H   -0.004878
   108  H   -0.010935
   109  H   -0.043188
   110  H   -0.000366
   111  H    0.006430
   112  H    0.001322
   113  H   -0.018509
   114  H   -0.075643
   115  H   -0.051047
   116  H   -0.018028
   117  H    0.005085
   118  H   -0.048028
   119  H   -0.001203
   120  H   -0.048410
   121  H    0.013033
   122  H    0.002854
   123  H    0.000401
   124  H   -0.000096
   125  H    0.012018
   126  H    0.001315
   127  H    0.011769
   128  H   -0.001488
   129  H    0.003216
   130  H   -0.026956
   131  H    0.029248
   132  H    0.020586
   133  H    0.033318
   134  H    0.031363
   135  H    0.013483
   136  H    0.027257
   137  H    0.193790
   138  H    0.207781
 Sum of Mulliken charges =   0.00000
 Mulliken charges with hydrogens summed into heavy atoms:
               1
     1  C   -0.005520
     2  C   -0.127099
     3  C   -0.127256
     4  C   -0.169407
     5  N   -0.091123
     6  C   -0.058389
     7  C   -0.039260
     8  C   -0.036872
     9  C   -0.063259
    10  C    0.125851
    11  C    0.037561
    12  C    0.063434
    13  C    0.214818
    14  O   -0.214629
    15  O   -0.371465
    16  N    0.110263
    17  C    0.176849
    18  C   -0.174359
    19  C   -0.016460
    20  C   -0.013050
    21  C    0.235268
    22  C   -0.024638
    23  C    0.054646
    24  N   -0.206518
    25  C    0.102577
    26  C   -0.076734
    27  C   -0.087441
    28  C    0.117607
    29  C    0.087592
    30  C    0.112374
    31  C   -0.013406
    32  N    0.116785
    33  C    0.057888
    34  C   -0.169222
    35  C   -0.012629
    36  C    0.140774
    37  C    0.208748
    38  C    0.107504
    39  O   -0.170047
    40  C   -0.053794
    41  C    0.153102
    42  O   -0.185375
    43  O   -0.314864
    44  C    0.302095
    45  C    0.286115
    46  C   -0.058723
    47  C   -0.043365
    48  C    0.048904
    49  C    0.004580
    50  C    0.041297
    51  C   -0.040577
    52  C   -0.067469
    53  C    0.060458
    54  C    0.069993
    55  C   -0.011337
    56  C    0.032430
    57  C   -0.033126
    58  C    0.002083
    59  C   -0.004271
    60  C    0.000191
    61  C    0.021044
    62  C   -0.051262
    63  C    0.042771
    64  C   -0.002656
 Electronic spatial extent (au):  <R**2>=         178242.5373
 Charge=              0.0000 electrons
 Dipole moment (field-independent basis, Debye):
    X=              3.5300    Y=              3.0165    Z=              0.9125  Tot=              4.7321
 Quadrupole moment (field-independent basis, Debye-Ang):
   XX=           -366.4229   YY=           -384.3560   ZZ=           -394.3606
   XY=            -22.5954   XZ=              8.8558   YZ=              1.1042
 Traceless Quadrupole moment (field-independent basis, Debye-Ang):
   XX=             15.2903   YY=             -2.6428   ZZ=            -12.6474
   XY=            -22.5954   XZ=              8.8558   YZ=              1.1042
 Octapole moment (field-independent basis, Debye-Ang**2):
  XXX=           -145.9667  YYY=             83.3330  ZZZ=              3.3380  XYY=            -81.1063
  XXY=           -123.8715  XXZ=           -193.0151  XZZ=             13.5285  YZZ=            -27.8192
  YYZ=             67.3535  XYZ=            -58.3116
 Hexadecapole moment (field-independent basis, Debye-Ang**3):
 XXXX=        -221872.0001 YYYY=         -17518.9085 ZZZZ=          -4541.7665 XXXY=          -1117.8749
 XXXZ=           1766.8757 YYYX=          -1108.5600 YYYZ=           -161.6215 ZZZX=             35.8930
 ZZZY=            -42.3713 XXYY=         -41088.3906 XXZZ=         -39494.0788 YYZZ=          -3693.7946
 XXYZ=            155.7098 YYXZ=           -131.7109 ZZXY=            -36.6788
 N-N= 8.300758831905D+03 E-N=-2.293662060448D+04  KE= 2.702137317852D+03
 1\1\GINC-PEDRO-RYZENSSD\SP\RB3LYP TD-FC\SVP\C55H74N4O5\PADAWAN\24-Jul-
 2019\0\\# td=(NStates=1) B3LYP/SVP\\TD\\0,1\C,0,-5.0987975779,-1.90482
 67248,0.4501898949\C,0,-4.8637366927,2.8175082025,1.4149178777\C,0,-9.
 3605559653,3.2627370729,-0.2174402119\C,0,-9.7000180563,-1.3794587493,
 -0.937216275\N,0,-5.1502941917,0.4269743203,0.8079392309\C,0,-4.478756
 4917,-0.6191286339,0.7923126747\C,0,-3.0433440209,-0.5318096157,1.2805
 330491\C,0,-3.1329882642,0.9445833506,1.9017292787\C,0,-4.393308524,1.
 4823380517,1.3341270097\C,0,-3.0584444129,0.8577232846,3.4511729799\C,
 0,-1.9910511758,-0.5754975115,0.1665245981\C,0,-0.5877419864,-0.774255
 6422,0.5700694596\C,0,0.3138450459,-1.1156984427,-0.5694084984\O,0,0.0
 103027979,-1.5646588325,-1.6387374852\O,0,1.6214823453,-0.8621629894,-
 0.200652508\N,0,-7.1867232669,2.7872759994,0.5764871579\C,0,-6.0219637
 718,3.4072051388,1.0306739243\C,0,-6.2608292686,4.8323196715,1.0788243
 752\C,0,-7.5639454913,4.9800768432,0.594996027\C,0,-8.0529962455,3.706
 6391576,0.2275029057\C,0,-5.2216526818,5.8814736625,1.6388351495\C,0,-
 8.3422715099,6.2870127129,0.3423527366\C,0,-9.1168195802,6.6872084427,
 -0.6256850473\N,0,-9.2212103216,0.9331605491,-0.5033428027\C,0,-9.9053
 844013,2.0593584345,-0.5286521344\C,0,-11.2891027768,1.8359771587,-0.8
 71951029\C,0,-11.3971636669,0.4563729774,-1.079412896\C,0,-10.02662488
 82,-0.0710770594,-0.8084740899\C,0,-12.325711072,2.8298514867,-1.14265
 7356\C,0,-12.6372614656,-0.3177942589,-1.6617971394\C,0,-12.6802281535
 ,-0.3825315176,-3.2455727286\N,0,-7.4055095086,-1.1438360688,-0.236702
 1987\C,0,-8.438305418,-1.9245511819,-0.6656999324\C,0,-8.0879712361,-3
 .2982267049,-0.6308856559\C,0,-6.7461695261,-3.2857354018,-0.220209644
 9\C,0,-6.4058216856,-2.0282256412,0.0509001662\C,0,-8.9891416718,-4.42
 40131508,-0.9958285773\C,0,-5.6394508903,-4.2457596111,0.0595969053\O,
 0,-5.5789773879,-5.4495244825,-0.1737146374\C,0,-4.4397115998,-3.22810
 3572,0.4396230244\C,0,-3.9507788758,-3.7674908426,1.7980363293\O,0,-4.
 2487899525,-3.4621241463,2.8841364817\O,0,-3.052613949,-4.7153965126,1
 .6392743553\C,0,-2.468631567,-5.4828977359,2.7544475844\C,0,2.69173134
 17,-1.103214219,-1.275581584\C,0,4.0321064574,-0.6929497974,-0.6051826
 184\C,0,4.9909213487,-0.0717461197,-1.200343991\C,0,4.9859077865,0.309
 9317249,-2.6422213389\C,0,6.361237869,0.1104787871,-0.5469936136\C,0,7
 .542845525,-0.5246586488,-1.2005669236\C,0,8.8255741585,-0.4338773728,
 -0.2982781753\C,0,10.1337142971,-1.0204263692,-0.7903863934\C,0,10.007
 5667953,-2.5318369866,-0.9271620011\C,0,11.2715410043,-0.5737316879,0.
 0444238867\C,0,12.6990715814,-0.7738927065,-0.5993544585\C,0,13.783326
 9221,-0.0940166279,0.1704691024\C,0,15.232942206,-0.2222731088,-0.4612
 496829\C,0,15.7663462064,-1.6297918446,-0.6197207404\C,0,16.2488156259
 ,0.6128658039,0.5111001323\C,0,17.6659714859,0.8663095487,-0.164460347
 4\C,0,18.5473256569,1.8388382127,0.6856993861\C,0,19.9589777994,1.9286
 106657,0.23082481\C,0,20.0639070896,2.423878964,-1.2180698848\C,0,20.7
 668792092,2.70651199,1.2820799962\H,0,-4.0083484951,3.4288141134,1.917
 9466756\H,0,-9.9484927024,4.3003572778,-0.5086721899\H,0,-10.348419098
 3,-2.0929364491,-1.4152609992\H,0,-2.5076430913,-1.3255617914,1.761367
 0124\H,0,-2.3254538599,1.6724374669,1.6587487871\H,0,-2.0323534933,0.7
 179781662,3.7773168357\H,0,-3.2846339553,1.879492999,3.8080710023\H,0,
 -3.9045700539,0.298134998,3.931188295\H,0,-2.1749730057,-1.4303977729,
 -0.537278175\H,0,-2.2437277122,0.3655927503,-0.5180585001\H,0,-0.49318
 51383,0.0184857022,1.2816485262\H,0,-0.1524755869,-1.4045124098,1.1875
 36262\H,0,-4.3125360701,5.6735617243,1.1271355134\H,0,-5.6708222886,6.
 9737022849,1.4200412987\H,0,-5.0787859654,5.6813561796,2.6241465487\H,
 0,-8.0645314625,6.9449043649,1.1422457785\H,0,-9.2741027622,5.83807396
 79,-1.5572173078\H,0,-9.3872434709,7.9046591934,-0.4554257655\H,0,-12.
 056600022,3.5815873459,-0.3332911422\H,0,-12.4186657149,3.5139353509,-
 2.1455838752\H,0,-13.3848195048,2.3439922349,-1.1087052259\H,0,-12.640
 4364168,-1.2842873554,-1.343759127\H,0,-13.6510721317,0.0976639211,-1.
 4807304318\H,0,-12.6665622861,0.5301598291,-3.7257599203\H,0,-11.75657
 06251,-0.8817357472,-3.800509003\H,0,-13.3761743709,-1.1779568905,-3.6
 126988122\H,0,-10.0036769165,-4.2072800478,-0.5229145935\H,0,-9.191473
 1262,-4.3600739534,-2.0872856268\H,0,-8.5097261473,-5.4546937364,-0.75
 47934348\H,0,-3.4651683682,-3.3472810183,-0.2822695756\H,0,-1.90440083
 31,-6.275062602,2.3228756217\H,0,-2.1587143178,-4.7502885128,3.5398184
 244\H,0,-3.5189249089,-6.1470297946,3.166703546\H,0,2.5600899165,-2.08
 33659801,-1.7059517622\H,0,2.496274522,-0.647772358,-2.2827160388\H,0,
 4.0873815099,-0.9323655509,0.4861065137\H,0,5.6903508643,1.2362861376,
 -2.9987345933\H,0,5.5650931265,-0.5732313606,-3.3844998516\H,0,4.01080
 11983,0.5948606729,-3.1334941745\H,0,6.4810061168,1.1656026853,-0.2364
 638375\H,0,6.3869967444,-0.4466845581,0.5036680742\H,0,7.2125180367,-1
 .4610828329,-1.4578565453\H,0,7.5611356561,-0.1125292323,-2.2972945585
 \H,0,8.9243879262,0.7687957209,-0.1201818699\H,0,8.6056936322,-0.61933
 60851,0.6852113335\H,0,10.2059532639,-0.4898064239,-1.8830028753\H,0,9
 .1330436206,-3.0318618794,-1.339072455\H,0,10.8217572068,-2.9125828581
 ,-1.5806186668\H,0,10.2038054006,-2.9977314587,0.0000617369\H,0,11.113
 0366011,0.3669454746,0.2100595912\H,0,11.2284688104,-1.0364988864,0.92
 92628565\H,0,12.9666713777,-1.7723188031,-0.6304962626\H,0,12.65132328
 45,-0.298619941,-1.814853019\H,0,13.5123123861,0.8570154123,0.23741665
 26\H,0,13.8108053075,-0.4904954773,1.2754343893\H,0,15.2828806323,0.11
 03722433,-1.3945914724\H,0,14.9807836313,-2.3130038822,-1.185177851\H,
 0,16.6830321767,-1.7582998666,-1.1398297669\H,0,15.9479700758,-2.18899
 4032,0.3530845799\H,0,15.6655068239,1.5974163119,0.7184623052\H,0,16.3
 507197288,0.163837007,1.5595393765\H,0,18.1588471064,-0.1587100815,-0.
 0611359814\H,0,17.7173163172,1.0576076491,-1.2478732198\H,0,18.0633310
 226,2.848371233,0.7526806578\H,0,18.5009123454,1.4032261321,1.78100525
 05\H,0,20.3675330857,0.9707350345,0.06873803\H,0,19.9014875054,3.60592
 8863,-1.3650284052\H,0,21.2287301167,2.3086489346,-1.3791110177\H,0,19
 .450460019,1.6668323049,-1.7687490564\H,0,20.8908443209,2.3182032883,2
 .534424479\H,0,21.9736402212,2.6681368411,1.2159157487\H,0,20.49557918
 73,3.8186350631,1.1569344313\H,0,-7.3153733704,1.6819270659,0.44533637
 97\H,0,-7.6355451029,-0.0755777338,0.065226395\\Version=ES64L-G09RevD.
 01\State=1-A\HF=-2732.9839443\RMSD=3.302e-09\PG=C01 [X(C55H74N4O5)]\\@


 IF THERE IS ONE WAY BETTER THAN ANOTHER IT IS THE WAY OF NATURE.

                          -- ARISTOTLE
 Job cpu time:       0 days  4 hours 55 minutes 44.8 seconds.
 File lengths (MBytes):  RWF=   1953 Int=      0 D2E=      0 Chk=    148 Scr=      1
 Normal termination of Gaussian 09 at Wed Jul 24 12:28:15 2019.
