 Entering Gaussian System, Link 0=g16
 Input=Geometria-225-.com
 Output=Geometria-225-.log
 Initial command:
 /usr/local/g09/l1.exe "/home/padawan/israel-mol/pheophytin/spectra/abs/Gau-94722.inp" -scrdir="/home/padawan/israel-mol/pheophytin/spectra/abs/"
 Entering Link 1 = /usr/local/g09/l1.exe PID=     94724.
  
 Copyright (c) 1988,1990,1992,1993,1995,1998,2003,2009,2013,
            Gaussian, Inc.  All Rights Reserved.
  
 This is part of the Gaussian(R) 09 program.  It is based on
 the Gaussian(R) 03 system (copyright 2003, Gaussian, Inc.),
 the Gaussian(R) 98 system (copyright 1998, Gaussian, Inc.),
 the Gaussian(R) 94 system (copyright 1995, Gaussian, Inc.),
 the Gaussian 92(TM) system (copyright 1992, Gaussian, Inc.),
 the Gaussian 90(TM) system (copyright 1990, Gaussian, Inc.),
 the Gaussian 88(TM) system (copyright 1988, Gaussian, Inc.),
 the Gaussian 86(TM) system (copyright 1986, Carnegie Mellon
 University), and the Gaussian 82(TM) system (copyright 1983,
 Carnegie Mellon University). Gaussian is a federally registered
 trademark of Gaussian, Inc.
  
 This software contains proprietary and confidential information,
 including trade secrets, belonging to Gaussian, Inc.
  
 This software is provided under written license and may be
 used, copied, transmitted, or stored only in accord with that
 written license.
  
 The following legend is applicable only to US Government
 contracts under FAR:
  
                    RESTRICTED RIGHTS LEGEND
  
 Use, reproduction and disclosure by the US Government is
 subject to restrictions as set forth in subparagraphs (a)
 and (c) of the Commercial Computer Software - Restricted
 Rights clause in FAR 52.227-19.
  
 Gaussian, Inc.
 340 Quinnipiac St., Bldg. 40, Wallingford CT 06492
  
  
 ---------------------------------------------------------------
 Warning -- This program may not be used in any manner that
 competes with the business of Gaussian, Inc. or will provide
 assistance to any competitor of Gaussian, Inc.  The licensee
 of this program is prohibited from giving any competitor of
 Gaussian, Inc. access to this program.  By using this program,
 the user acknowledges that Gaussian, Inc. is engaged in the
 business of creating and licensing software in the field of
 computational chemistry and represents and warrants to the
 licensee that it is not a competitor of Gaussian, Inc. and that
 it will not use this program in any manner prohibited above.
 ---------------------------------------------------------------
  

 Cite this work as:
 Gaussian 09, Revision D.01,
 M. J. Frisch, G. W. Trucks, H. B. Schlegel, G. E. Scuseria, 
 M. A. Robb, J. R. Cheeseman, G. Scalmani, V. Barone, B. Mennucci, 
 G. A. Petersson, H. Nakatsuji, M. Caricato, X. Li, H. P. Hratchian, 
 A. F. Izmaylov, J. Bloino, G. Zheng, J. L. Sonnenberg, M. Hada, 
 M. Ehara, K. Toyota, R. Fukuda, J. Hasegawa, M. Ishida, T. Nakajima, 
 Y. Honda, O. Kitao, H. Nakai, T. Vreven, J. A. Montgomery, Jr., 
 J. E. Peralta, F. Ogliaro, M. Bearpark, J. J. Heyd, E. Brothers, 
 K. N. Kudin, V. N. Staroverov, T. Keith, R. Kobayashi, J. Normand, 
 K. Raghavachari, A. Rendell, J. C. Burant, S. S. Iyengar, J. Tomasi, 
 M. Cossi, N. Rega, J. M. Millam, M. Klene, J. E. Knox, J. B. Cross, 
 V. Bakken, C. Adamo, J. Jaramillo, R. Gomperts, R. E. Stratmann, 
 O. Yazyev, A. J. Austin, R. Cammi, C. Pomelli, J. W. Ochterski, 
 R. L. Martin, K. Morokuma, V. G. Zakrzewski, G. A. Voth, 
 P. Salvador, J. J. Dannenberg, S. Dapprich, A. D. Daniels, 
 O. Farkas, J. B. Foresman, J. V. Ortiz, J. Cioslowski, 
 and D. J. Fox, Gaussian, Inc., Wallingford CT, 2013.
 
 ******************************************
 Gaussian 09:  ES64L-G09RevD.01 24-Apr-2013
                 1-Aug-2019 
 ******************************************
 %nproc=3
 Will use up to    3 processors via shared memory.
 %Mem=2GB
 --------------------------
 # td=(NStates=1) B3LYP/SVP
 --------------------------
 1/38=1/1;
 2/12=2,17=6,18=5,40=1/2;
 3/5=18,7=101,11=9,16=1,25=1,30=1,74=-5/1,2,8,3;
 4//1;
 5/5=2,38=5/2;
 8/6=1,10=1,108=1/1;
 9/41=1,42=1,70=2/14;
 6/7=2,8=2,9=2,10=2/1;
 99/5=1,9=1/99;
 --
 TD
 --
 Symbolic Z-matrix:
 Charge =  0 Multiplicity = 1
 6                    -5.11429  -1.95951   0.48392 
 6                    -4.77461   2.75073   1.51395 
 6                    -9.31978   3.34724  -0.26159 
 6                    -9.7002   -1.45323  -1.03536 
 7                    -5.20071   0.37873   0.83955 
 6                    -4.48484  -0.81924   0.92552 
 6                    -3.09484  -0.56493   1.30878 
 6                    -3.09362   0.81508   1.96797 
 6                    -4.47634   1.40177   1.38441 
 6                    -3.19529   0.86044   3.55466 
 6                    -2.06397  -0.65325   0.16834 
 6                    -0.59393  -0.55729   0.61296 
 6                     0.39271  -0.76033  -0.50812 
 8                     0.04389  -1.08713  -1.6555 
 8                     1.61808  -0.73169  -0.09155 
 7                    -6.91401   2.7226    0.35612 
 6                    -5.9068    3.35146   1.05107 
 6                    -6.25999   4.70764   1.07976 
 6                    -7.56008   4.8983    0.58145 
 6                    -8.01246   3.60484   0.19564 
 6                    -5.46706   5.77981   1.68063 
 6                    -8.33773   6.19776   0.51849 
 6                    -8.96914   6.55442  -0.59366 
 7                    -9.16134   0.87554  -0.57417 
 6                    -9.86571   2.02086  -0.5761 
 6                    -11.25019   1.81423  -1.10178 
 6                    -11.40213   0.49693  -1.35308 
 6                    -10.09265  -0.12504  -0.98691 
 6                    -12.26106   2.89406  -1.33277 
 6                    -12.60537  -0.23948  -1.92168 
 6                    -12.57083  -0.45108  -3.46169 
 7                    -7.44569  -1.21872  -0.23999 
 6                    -8.49328  -2.04326  -0.71919 
 6                    -8.08509  -3.42059  -0.77409 
 6                    -6.78778  -3.38012  -0.25323 
 6                    -6.3915   -2.04978   0.18586 
 6                    -8.88493  -4.5522   -1.24195 
 6                    -5.71421  -4.36161   0.1215 
 8                    -5.499    -5.5198   -0.1324 
 6                    -4.53516  -3.37372   0.54965 
 6                    -4.07406  -3.82626   2.01299 
 8                    -4.45451  -3.35939   3.06821 
 8                    -3.32677  -4.88857   1.81601 
 6                    -2.95236  -5.55985   3.04914 
 6                     2.70737  -1.1081   -1.12496 
 6                     4.00235  -0.7753   -0.5145 
 6                     5.02153   0.12003  -0.98774 
 6                     4.95081   1.00277  -2.26834 
 6                     6.28867   0.23748  -0.2486 
 6                     7.54385  -0.40289  -0.85447 
 6                     8.88847  -0.19681  -0.06591 
 6                     10.05823  -0.68684  -0.8023 
 6                     10.0643  -2.18159  -1.03847 
 6                     11.3066  -0.23636  -0.05382 
 6                     12.80782  -0.54053  -0.72467 
 6                     13.90416  -0.02277   0.1454 
 6                     15.28859  -0.1484   -0.51321 
 6                     15.55208  -1.62905  -0.64295 
 6                     16.30759   0.56869   0.42684 
 6                     17.757    0.78142  -0.32679 
 6                     18.64456   1.61405   0.50984 
 6                     20.1387   1.50942   0.03355 
 6                     20.34879   1.96355  -1.438 
 6                     20.91489   2.51458   1.03495 
 1                    -4.01712   3.24537   1.91226 
 1                    -9.98033   4.09668  -0.33813 
 1                    -10.35867  -2.23176  -1.38563 
 1                    -2.62776  -1.38023   2.14592 
 1                    -2.25516   1.36836   1.47126 
 1                    -2.31633   0.28378   3.89075 
 1                    -3.19572   1.90749   4.12218 
 1                    -4.04958   0.31769   3.77386 
 1                    -2.2599   -1.6394   -0.38577 
 1                    -2.11106   0.1653   -0.58393 
 1                    -0.39832   0.28275   1.25402 
 1                    -0.25979  -1.32448   1.35778 
 1                    -4.62022   6.14632   1.03519 
 1                    -5.92413   6.75906   1.87056 
 1                    -5.04504   5.25648   2.62973 
 1                    -8.44048   6.86294   1.45373 
 1                    -9.00529   5.96675  -1.67255 
 1                    -9.4857    7.44661  -0.63343 
 1                    -12.53796   3.48475  -0.43007 
 1                    -11.98341   3.56816  -2.0407 
 1                    -13.20931   2.60633  -1.94514 
 1                    -12.90887  -1.1845   -1.51235 
 1                    -13.57133   0.30244  -1.83042 
 1                    -12.5091   0.51883  -4.18493 
 1                    -11.93781  -1.08445  -3.76129 
 1                    -13.53152  -0.8821   -4.00643 
 1                    -9.90833  -4.80837  -0.67135 
 1                    -9.44424  -4.15331  -2.2123 
 1                    -8.19877  -5.49215  -1.55202 
 1                    -3.78738  -3.55265  -0.18581 
 1                    -2.34877  -6.41567   2.73274 
 1                    -2.3474   -4.89618   3.73464 
 1                    -3.73657  -5.81154   3.6138 
 1                     2.62066  -2.23444  -1.43668 
 1                     2.21585  -0.51604  -1.98226 
 1                     4.24121  -1.45317   0.31546 
 1                     4.86476   2.38849  -1.8238 
 1                     5.87923   0.76112  -3.05861 
 1                     3.94064   0.69277  -2.90071 
 1                     6.18971   1.30916  -0.33133 
 1                     6.07852   0.11054   0.85131 
 1                     7.23818  -1.6183   -0.87899 
 1                     7.49767  -0.18688  -1.98972 
 1                     8.88596   0.88069   0.10116 
 1                     8.67326  -0.64116   0.9443 
 1                     10.18235  -0.31188  -1.81012 
 1                     9.12984  -2.39173  -1.67555 
 1                     10.92051  -2.5329   -1.46777 
 1                     10.04814  -2.95266  -0.20155 
 1                     11.09643   0.76381   0.13883 
 1                     11.25196  -0.70712   0.83878 
 1                     13.09125  -1.63049  -1.07621 
 1                     12.6119   0.09176  -1.54005 
 1                     13.56303   0.97934   0.42316 
 1                     13.78672  -0.58388   1.11905 
 1                     15.24076   0.24582  -1.4044 
 1                     14.89799  -2.20772  -1.43014 
 1                     16.59744  -1.76013  -1.16449 
 1                     15.33703  -2.36688   0.27984 
 1                     15.88697   1.56733   0.36057 
 1                     16.38786   0.25927   1.5381 
 1                     18.19332  -0.26166  -0.38681 
 1                     17.51304   1.16207  -1.30736 
 1                     18.20118   2.66125   0.4073 
 1                     18.69834   1.25641   1.50528 
 1                     20.57831   0.44359   0.31689 
 1                     19.69383   2.82245  -1.64878 
 1                     21.30967   1.98466  -1.78511 
 1                     20.12425   1.1499   -2.16865 
 1                     20.74824   2.01314   1.9885 
 1                     22.06985   2.49992   0.97623 
 1                     20.41404   3.5197    0.95864 
 1                    -7.08131   1.76004   0.26421 
 1                    -7.52633  -0.21566   0.00776 
 
 Stoichiometry    C55H74N4O5
 Framework group  C1[X(C55H74N4O5)]
 Deg. of freedom   408
 Full point group                 C1      NOp   1
 Largest Abelian subgroup         C1      NOp   1
 Largest concise Abelian subgroup C1      NOp   1
                         Standard orientation:                         
 ---------------------------------------------------------------------
 Center     Atomic      Atomic             Coordinates (Angstroms)
 Number     Number       Type             X           Y           Z
 ---------------------------------------------------------------------
      1          6           0       -5.112128   -1.961516    0.450694
      2          6           0       -4.771134    2.733558    1.547385
      3          6           0       -9.312793    3.358067   -0.227523
      4          6           0       -9.695030   -1.430788   -1.069316
      5          7           0       -5.197623    0.371557    0.838988
      6          6           0       -4.482696   -0.827992    0.909360
      7          6           0       -3.093204   -0.580050    1.298578
      8          6           0       -3.092231    0.790565    1.977093
      9          6           0       -4.473530    1.386345    1.399430
     10          6           0       -3.196646    0.813703    3.564092
     11          6           0       -2.060394   -0.653040    0.158818
     12          6           0       -0.591077   -0.564354    0.607304
     13          6           0        0.397398   -0.752300   -0.514803
     14          8           0        0.050367   -1.062707   -1.667264
     15          8           0        1.622053   -0.730354   -0.095735
     16          7           0       -6.908517    2.723163    0.385543
     17          6           0       -5.902117    3.341506    1.091016
     18          6           0       -6.254456    4.697389    1.138150
     19          6           0       -7.553540    4.895925    0.640302
     20          6           0       -8.006106    3.608324    0.235564
     21          6           0       -5.461869    5.760474    1.755401
     22          6           0       -8.330224    6.196680    0.594245
     23          6           0       -8.959451    6.569354   -0.513886
     24          7           0       -9.155444    0.890904   -0.574518
     25          6           0       -9.859047    2.036621   -0.561581
     26          6           0      -11.242738    1.838347   -1.092533
     27          6           0      -11.395115    0.524804   -1.362577
     28          6           0      -10.086688   -0.103147   -1.002900
     29          6           0      -12.252492    2.922003   -1.310083
     30          6           0      -12.597838   -0.202712   -1.943567
     31          6           0      -12.560737   -0.392682   -3.486336
     32          7           0       -7.441768   -1.209030   -0.266807
     33          6           0       -8.489060   -2.026037   -0.759362
     34          6           0       -8.081686   -3.402736   -0.832901
     35          6           0       -6.785267   -3.370484   -0.309266
     36          6           0       -6.388874   -2.046709    0.149169
     37          6           0       -8.881454   -4.527109   -1.318011
     38          6           0       -5.713001   -4.357874    0.053515
     39          8           0       -5.498114   -5.512531   -0.216260
     40          6           0       -4.534052   -3.376904    0.497558
     41          6           0       -4.075818   -3.850272    1.955191
     42          8           0       -4.457807   -3.398018    3.016209
     43          8           0       -3.328887   -4.910230    1.744613
     44          6           0       -2.957083   -5.599016    2.968836
     45          6           0        2.712905   -1.092961   -1.132425
     46          6           0        4.007033   -0.769653   -0.515100
     47          6           0        5.027635    0.131538   -0.973935
     48          6           0        4.959744    1.032228   -2.242129
     49          6           0        6.293551    0.237721   -0.231011
     50          6           0        7.549362   -0.394933   -0.843627
     51          6           0        8.892738   -0.200882   -0.049909
     52          6           0       10.063459   -0.681321   -0.791063
     53          6           0       10.068959   -2.172609   -1.048206
     54          6           0       11.310821   -0.242253   -0.034151
     55          6           0       12.813011   -0.538001   -0.706591
     56          6           0       13.908163   -0.033268    0.172572
     57          6           0       15.293661   -0.150580   -0.485325
     58          6           0       15.556404   -1.629448   -0.635394
     59          6           0       16.311489    0.552530    0.466489
     60          6           0       17.762358    0.774831   -0.281548
     61          6           0       18.648996    1.595011    0.568242
     62          6           0       20.143899    1.496059    0.093128
     63          6           0       20.356869    1.970678   -1.371524
     64          6           0       20.919006    2.486523    1.109904
     65          1           0       -4.014018    3.222027    1.953924
     66          1           0       -9.972705    4.108963   -0.294668
     67          1           0      -10.353402   -2.203872   -1.431639
     68          1           0       -2.628128   -1.407345    2.124994
     69          1           0       -2.252528    1.350190    1.489672
     70          1           0       -2.318662    0.231776    3.893573
     71          1           0       -3.197375    1.852669    4.146264
     72          1           0       -4.051685    0.268507    3.774154
     73          1           0       -2.256008   -1.631176   -0.409441
     74          1           0       -2.105629    0.176028   -0.581958
     75          1           0       -0.396028    0.266469    1.260435
     76          1           0       -0.258745   -1.342161    1.341852
     77          1           0       -4.613656    6.135429    1.116648
     78          1           0       -5.918623    6.737270    1.958270
     79          1           0       -5.041865    5.223572    2.697786
     80          1           0       -8.434171    6.848719    1.538554
     81          1           0       -8.994090    5.996926   -1.600984
     82          1           0       -9.475348    7.462377   -0.542019
     83          1           0      -12.530577    3.500142   -0.399662
     84          1           0      -11.973153    3.605794   -2.007994
     85          1           0      -13.199855    2.643556   -1.928090
     86          1           0      -12.902685   -1.153182   -1.548077
     87          1           0      -13.563603    0.338536   -1.846378
     88          1           0      -12.497097    0.587247   -4.195761
     89          1           0      -11.927614   -1.022212   -3.793692
     90          1           0      -13.520759   -0.815346   -4.038746
     91          1           0       -9.906018   -4.790571   -0.752848
     92          1           0       -9.438795   -4.114249   -2.283630
     93          1           0       -8.195368   -5.463082   -1.640059
     94          1           0       -3.785102   -3.546001   -0.239042
     95          1           0       -2.353501   -6.450722    2.641495
     96          1           0       -2.352889   -4.945465    3.664647
     97          1           0       -3.742445   -5.858076    3.528537
     98          1           0        2.625989   -2.214747   -1.460098
     99          1           0        2.223274   -0.488573   -1.982177
    100          1           0        4.243983   -1.459279    0.305673
    101          1           0        4.873826    2.411625   -1.778308
    102          1           0        5.889388    0.801068   -3.034090
    103          1           0        3.950479    0.731836   -2.880549
    104          1           0        6.195442    1.310521   -0.298848
    105          1           0        6.081384    0.095486    0.866646
    106          1           0        7.242936   -1.609671   -0.885750
    107          1           0        7.505319   -0.162965   -1.975811
    108          1           0        8.890652    0.874166    0.132283
    109          1           0        8.675463   -0.659227    0.953583
    110          1           0       10.189598   -0.292321   -1.793296
    111          1           0        9.135479   -2.373132   -1.689796
    112          1           0       10.925682   -2.518444   -1.480900
    113          1           0       10.050819   -2.955344   -0.222226
    114          1           0       11.100976    0.755249    0.172164
    115          1           0       11.254301   -0.725467    0.851650
    116          1           0       13.096336   -1.623114   -1.072919
    117          1           0       12.618936    0.105815   -1.513346
    118          1           0       13.567208    0.965072    0.463787
    119          1           0       13.788649   -0.607926    1.138038
    120          1           0       15.247653    0.256146   -1.370968
    121          1           0       14.903303   -2.196554   -1.431775
    122          1           0       16.602589   -1.753904   -1.156900
    123          1           0       15.339243   -2.380021    0.276563
    124          1           0       15.891645    1.552293    0.413518
    125          1           0       16.389608    0.227469    1.573426
    126          1           0       18.198092   -0.267603   -0.355458
    127          1           0       17.520365    1.169384   -1.257100
    128          1           0       18.206499    2.643859    0.479647
    129          1           0       18.700800    1.223390    1.558647
    130          1           0       20.582314    0.426056    0.362240
    131          1           0       19.702849    2.832901   -1.571353
    132          1           0       21.318372    1.995996   -1.716627
    133          1           0       20.133073    1.167524   -2.113921
    134          1           0       20.750349    1.971851    2.056027
    135          1           0       22.074053    2.471893    1.053004
    136          1           0       20.418953    3.492951    1.046859
    137          1           0       -7.076297    1.762110    0.279830
    138          1           0       -7.522179   -0.209493   -0.005126
 ---------------------------------------------------------------------
 Rotational constants (GHZ):      0.0629170      0.0061279      0.0057809
 Standard basis: SVP (5D, 7F)
 There are  1330 symmetry adapted cartesian basis functions of A   symmetry.
 There are  1266 symmetry adapted basis functions of A   symmetry.
  1266 basis functions,  2118 primitive gaussians,  1330 cartesian basis functions
   236 alpha electrons      236 beta electrons
       nuclear repulsion energy      8283.0717766575 Hartrees.
 NAtoms=  138 NActive=  138 NUniq=  138 SFac= 1.00D+00 NAtFMM=   60 NAOKFM=T Big=T
 Integral buffers will be    131072 words long.
 Regular integral format.
 Two-electron integral symmetry is turned on.
 One-electron integrals computed using PRISM.
 NBasis=  1266 RedAO= T EigKep=  3.20D-04  NBF=  1266
 NBsUse=  1266 1.00D-06 EigRej= -1.00D+00 NBFU=  1266
 ExpMin= 1.22D-01 ExpMax= 2.27D+03 ExpMxC= 3.41D+02 IAcc=1 IRadAn=         1 AccDes= 0.00D+00
 Harris functional with IExCor=  402 and IRadAn=       1 diagonalized for initial guess.
 HarFok:  IExCor=  402 AccDes= 0.00D+00 IRadAn=         1 IDoV= 1 UseB2=F ITyADJ=14
 ICtDFT=  3500011 ScaDFX=  1.000000  1.000000  1.000000  1.000000
 FoFCou: FMM=F IPFlag=           0 FMFlag=      100000 FMFlg1=        2001
         NFxFlg=           0 DoJE=T BraDBF=F KetDBF=T FulRan=T
         wScrn=  0.000000 ICntrl=     500 IOpCl=  0 I1Cent=   200000004 NGrid=           0
         NMat0=    1 NMatS0=      1 NMatT0=    0 NMatD0=    1 NMtDS0=    0 NMtDT0=    0
 Petite list used in FoFCou.
 Requested convergence on RMS density matrix=1.00D-08 within 128 cycles.
 Requested convergence on MAX density matrix=1.00D-06.
 Requested convergence on             energy=1.00D-06.
 No special actions if energy rises.
 Integral accuracy reduced to 1.0D-05 until final iterations.
 Initial convergence to 1.0D-05 achieved.  Increase integral accuracy.
 SCF Done:  E(RB3LYP) =  -2733.08060703     A.U. after   17 cycles
            NFock= 17  Conv=0.48D-08     -V/T= 2.0117
 DoSCS=F DFT=T ScalE2(SS,OS)=  1.000000  1.000000
 ExpMin= 1.22D-01 ExpMax= 2.27D+03 ExpMxC= 3.41D+02 IAcc=3 IRadAn=         5 AccDes= 0.00D+00
 HarFok:  IExCor=  205 AccDes= 0.00D+00 IRadAn=         5 IDoV=-2 UseB2=F ITyADJ=14
 ICtDFT= 12500011 ScaDFX=  1.000000  1.000000  1.000000  1.000000
 Range of M.O.s used for correlation:    65  1266
 NBasis=  1266 NAE=   236 NBE=   236 NFC=    64 NFV=     0
 NROrb=   1202 NOA=   172 NOB=   172 NVA=  1030 NVB=  1030

 **** Warning!!: The smallest alpha delta epsilon is  0.89072005D-01

 Would need an additional        965744300000 words for in-memory AO integral storage.
 Orbital symmetries:
       Occupied  (A) (A) (A) (A) (A) (A) (A) (A) (A) (A) (A) (A)
                 (A) (A) (A) (A) (A) (A) (A) (A) (A) (A) (A) (A)
                 (A) (A) (A) (A) (A) (A) (A) (A) (A) (A) (A) (A)
                 (A) (A) (A) (A) (A) (A) (A) (A) (A) (A) (A) (A)
                 (A) (A) (A) (A) (A) (A) (A) (A) (A) (A) (A) (A)
                 (A) (A) (A) (A) (A) (A) (A) (A) (A) (A) (A) (A)
                 (A) (A) (A) (A) (A) (A) (A) (A) (A) (A) (A) (A)
                 (A) (A) (A) (A) (A) (A) (A) (A) (A) (A) (A) (A)
                 (A) (A) (A) (A) (A) (A) (A) (A) (A) (A) (A) (A)
                 (A) (A) (A) (A) (A) (A) (A) (A) (A) (A) (A) (A)
                 (A) (A) (A) (A) (A) (A) (A) (A) (A) (A) (A) (A)
                 (A) (A) (A) (A) (A) (A) (A) (A) (A) (A) (A) (A)
                 (A) (A) (A) (A) (A) (A) (A) (A) (A) (A) (A) (A)
                 (A) (A) (A) (A) (A) (A) (A) (A) (A) (A) (A) (A)
                 (A) (A) (A) (A) (A) (A) (A) (A) (A) (A) (A) (A)
                 (A) (A) (A) (A) (A) (A) (A) (A) (A) (A) (A) (A)
                 (A) (A) (A) (A) (A) (A) (A) (A) (A) (A) (A) (A)
                 (A) (A) (A) (A) (A) (A) (A) (A) (A) (A) (A) (A)
                 (A) (A) (A) (A) (A) (A) (A) (A) (A) (A) (A) (A)
                 (A) (A) (A) (A) (A) (A) (A) (A)
       Virtual   (A) (A) (A) (A) (A) (A) (A) (A) (A) (A) (A) (A)
                 (A) (A) (A) (A) (A) (A) (A) (A) (A) (A) (A) (A)
                 (A) (A) (A) (A) (A) (A) (A) (A) (A) (A) (A) (A)
                 (A) (A) (A) (A) (A) (A) (A) (A) (A) (A) (A) (A)
                 (A) (A) (A) (A) (A) (A) (A) (A) (A) (A) (A) (A)
                 (A) (A) (A) (A) (A) (A) (A) (A) (A) (A) (A) (A)
                 (A) (A) (A) (A) (A) (A) (A) (A) (A) (A) (A) (A)
                 (A) (A) (A) (A) (A) (A) (A) (A) (A) (A) (A) (A)
                 (A) (A) (A) (A) (A) (A) (A) (A) (A) (A) (A) (A)
                 (A) (A) (A) (A) (A) (A) (A) (A) (A) (A) (A) (A)
                 (A) (A) (A) (A) (A) (A) (A) (A) (A) (A) (A) (A)
                 (A) (A) (A) (A) (A) (A) (A) (A) (A) (A) (A) (A)
                 (A) (A) (A) (A) (A) (A) (A) (A) (A) (A) (A) (A)
                 (A) (A) (A) (A) (A) (A) (A) (A) (A) (A) (A) (A)
                 (A) (A) (A) (A) (A) (A) (A) (A) (A) (A) (A) (A)
                 (A) (A) (A) (A) (A) (A) (A) (A) (A) (A) (A) (A)
                 (A) (A) (A) (A) (A) (A) (A) (A) (A) (A) (A) (A)
                 (A) (A) (A) (A) (A) (A) (A) (A) (A) (A) (A) (A)
                 (A) (A) (A) (A) (A) (A) (A) (A) (A) (A) (A) (A)
                 (A) (A) (A) (A) (A) (A) (A) (A) (A) (A) (A) (A)
                 (A) (A) (A) (A) (A) (A) (A) (A) (A) (A) (A) (A)
                 (A) (A) (A) (A) (A) (A) (A) (A) (A) (A) (A) (A)
                 (A) (A) (A) (A) (A) (A) (A) (A) (A) (A) (A) (A)
                 (A) (A) (A) (A) (A) (A) (A) (A) (A) (A) (A) (A)
                 (A) (A) (A) (A) (A) (A) (A) (A) (A) (A) (A) (A)
                 (A) (A) (A) (A) (A) (A) (A) (A) (A) (A) (A) (A)
                 (A) (A) (A) (A) (A) (A) (A) (A) (A) (A) (A) (A)
                 (A) (A) (A) (A) (A) (A) (A) (A) (A) (A) (A) (A)
                 (A) (A) (A) (A) (A) (A) (A) (A) (A) (A) (A) (A)
                 (A) (A) (A) (A) (A) (A) (A) (A) (A) (A) (A) (A)
                 (A) (A) (A) (A) (A) (A) (A) (A) (A) (A) (A) (A)
                 (A) (A) (A) (A) (A) (A) (A) (A) (A) (A) (A) (A)
                 (A) (A) (A) (A) (A) (A) (A) (A) (A) (A) (A) (A)
                 (A) (A) (A) (A) (A) (A) (A) (A) (A) (A) (A) (A)
                 (A) (A) (A) (A) (A) (A) (A) (A) (A) (A) (A) (A)
                 (A) (A) (A) (A) (A) (A) (A) (A) (A) (A) (A) (A)
                 (A) (A) (A) (A) (A) (A) (A) (A) (A) (A) (A) (A)
                 (A) (A) (A) (A) (A) (A) (A) (A) (A) (A) (A) (A)
                 (A) (A) (A) (A) (A) (A) (A) (A) (A) (A) (A) (A)
                 (A) (A) (A) (A) (A) (A) (A) (A) (A) (A) (A) (A)
                 (A) (A) (A) (A) (A) (A) (A) (A) (A) (A) (A) (A)
                 (A) (A) (A) (A) (A) (A) (A) (A) (A) (A) (A) (A)
                 (A) (A) (A) (A) (A) (A) (A) (A) (A) (A) (A) (A)
                 (A) (A) (A) (A) (A) (A) (A) (A) (A) (A) (A) (A)
                 (A) (A) (A) (A) (A) (A) (A) (A) (A) (A) (A) (A)
                 (A) (A) (A) (A) (A) (A) (A) (A) (A) (A) (A) (A)
                 (A) (A) (A) (A) (A) (A) (A) (A) (A) (A) (A) (A)
                 (A) (A) (A) (A) (A) (A) (A) (A) (A) (A) (A) (A)
                 (A) (A) (A) (A) (A) (A) (A) (A) (A) (A) (A) (A)
                 (A) (A) (A) (A) (A) (A) (A) (A) (A) (A) (A) (A)
                 (A) (A) (A) (A) (A) (A) (A) (A) (A) (A) (A) (A)
                 (A) (A) (A) (A) (A) (A) (A) (A) (A) (A) (A) (A)
                 (A) (A) (A) (A) (A) (A) (A) (A) (A) (A) (A) (A)
                 (A) (A) (A) (A) (A) (A) (A) (A) (A) (A) (A) (A)
                 (A) (A) (A) (A) (A) (A) (A) (A) (A) (A) (A) (A)
                 (A) (A) (A) (A) (A) (A) (A) (A) (A) (A) (A) (A)
                 (A) (A) (A) (A) (A) (A) (A) (A) (A) (A) (A) (A)
                 (A) (A) (A) (A) (A) (A) (A) (A) (A) (A) (A) (A)
                 (A) (A) (A) (A) (A) (A) (A) (A) (A) (A) (A) (A)
                 (A) (A) (A) (A) (A) (A) (A) (A) (A) (A) (A) (A)
                 (A) (A) (A) (A) (A) (A) (A) (A) (A) (A) (A) (A)
                 (A) (A) (A) (A) (A) (A) (A) (A) (A) (A) (A) (A)
                 (A) (A) (A) (A) (A) (A) (A) (A) (A) (A) (A) (A)
                 (A) (A) (A) (A) (A) (A) (A) (A) (A) (A) (A) (A)
                 (A) (A) (A) (A) (A) (A) (A) (A) (A) (A) (A) (A)
                 (A) (A) (A) (A) (A) (A) (A) (A) (A) (A) (A) (A)
                 (A) (A) (A) (A) (A) (A) (A) (A) (A) (A) (A) (A)
                 (A) (A) (A) (A) (A) (A) (A) (A) (A) (A) (A) (A)
                 (A) (A) (A) (A) (A) (A) (A) (A) (A) (A) (A) (A)
                 (A) (A) (A) (A) (A) (A) (A) (A) (A) (A) (A) (A)
                 (A) (A) (A) (A) (A) (A) (A) (A) (A) (A) (A) (A)
                 (A) (A) (A) (A) (A) (A) (A) (A) (A) (A) (A) (A)
                 (A) (A) (A) (A) (A) (A) (A) (A) (A) (A) (A) (A)
                 (A) (A) (A) (A) (A) (A) (A) (A) (A) (A) (A) (A)
                 (A) (A) (A) (A) (A) (A) (A) (A) (A) (A) (A) (A)
                 (A) (A) (A) (A) (A) (A) (A) (A) (A) (A) (A) (A)
                 (A) (A) (A) (A) (A) (A) (A) (A) (A) (A) (A) (A)
                 (A) (A) (A) (A) (A) (A) (A) (A) (A) (A) (A) (A)
                 (A) (A) (A) (A) (A) (A) (A) (A) (A) (A) (A) (A)
                 (A) (A) (A) (A) (A) (A) (A) (A) (A) (A) (A) (A)
                 (A) (A) (A) (A) (A) (A) (A) (A) (A) (A) (A) (A)
                 (A) (A) (A) (A) (A) (A) (A) (A) (A) (A) (A) (A)
                 (A) (A) (A) (A) (A) (A) (A) (A) (A) (A) (A) (A)
                 (A) (A) (A) (A) (A) (A) (A) (A) (A) (A) (A) (A)
                 (A) (A) (A) (A) (A) (A) (A) (A) (A) (A) (A) (A)
                 (A) (A) (A) (A) (A) (A) (A) (A) (A) (A)
     8 initial guesses have been made.
 Convergence on wavefunction:    0.001000000000000
 Iteration     1 Dimension     8 NMult     0 NNew      8
 CISAX will form     8 AO SS matrices at one time.
 Iteration     2 Dimension    12 NMult     8 NNew      4
 Iteration     3 Dimension    16 NMult    12 NNew      4
 Iteration     4 Dimension    20 NMult    16 NNew      4
 Iteration     5 Dimension    24 NMult    20 NNew      4
 Iteration     6 Dimension    28 NMult    24 NNew      4
 ***********************************************************************
 Excited states from <AA,BB:AA,BB> singles matrix:
 ***********************************************************************
 
 Ground to excited state transition densities written to RWF  633
 Ground to excited state transition electric dipole moments (Au):
       state          X           Y           Z        Dip. S.      Osc.
         1         0.2423     -1.6711     -0.1468      2.8730      0.1470
 Ground to excited state transition velocity dipole moments (Au):
       state          X           Y           Z        Dip. S.      Osc.
         1        -0.0180      0.1253      0.0112      0.0161      0.1402
 Ground to excited state transition magnetic dipole moments (Au):
       state          X           Y           Z
         1         0.2822      0.2753     -2.5623
 Ground to excited state transition velocity quadrupole moments (Au):
       state          XX          YY          ZZ          XY          XZ          YZ
         1         0.4114      0.1147      0.0232     -1.6276     -0.1146      0.0781
 <0|del|b> * <b|rxdel|0> + <0|del|b> * <b|delr+rdel|0>
 Rotatory Strengths (R) in cgs (10**-40 erg-esu-cm/Gauss)
       state          XX          YY          ZZ    R(velocity)    E-M Angle
         1         9.0555    -78.0147     75.8402      2.2937       89.87
 1/2[<0|r|b>*<b|rxdel|0> + (<0|rxdel|b>*<b|r|0>)*]
 Rotatory Strengths (R) in cgs (10**-40 erg-esu-cm/Gauss)
       state          XX          YY          ZZ     R(length)
         1       -48.3473    325.3706   -265.9588      3.6881
  1/2[<0|del|b>*<b|r|0> + (<0|r|b>*<b|del|0>)*] (Au)
       state          X           Y           Z        Dip. S.   Osc.(frdel)
         1        -0.0044     -0.2093     -0.0016      0.2153      0.1436

 Excitation energies and oscillator strengths:
 
 Excited State   1:      Singlet-A      2.0888 eV  593.56 nm  f=0.1470  <S**2>=0.000
     235 -> 238       -0.32831
     236 -> 237        0.61562
 This state for optimization and/or second-order correction.
 Total Energy, E(TD-HF/TD-KS) =  -2733.00384426    
 Copying the excited state density for this state as the 1-particle RhoCI density.
 SavETr:  write IOETrn=   770 NScale= 10 NData=  16 NLR=1 NState=    1 LETran=      28.

 **********************************************************************

            Population analysis using the SCF density.

 **********************************************************************

 Orbital symmetries:
       Occupied  (A) (A) (A) (A) (A) (A) (A) (A) (A) (A) (A) (A)
                 (A) (A) (A) (A) (A) (A) (A) (A) (A) (A) (A) (A)
                 (A) (A) (A) (A) (A) (A) (A) (A) (A) (A) (A) (A)
                 (A) (A) (A) (A) (A) (A) (A) (A) (A) (A) (A) (A)
                 (A) (A) (A) (A) (A) (A) (A) (A) (A) (A) (A) (A)
                 (A) (A) (A) (A) (A) (A) (A) (A) (A) (A) (A) (A)
                 (A) (A) (A) (A) (A) (A) (A) (A) (A) (A) (A) (A)
                 (A) (A) (A) (A) (A) (A) (A) (A) (A) (A) (A) (A)
                 (A) (A) (A) (A) (A) (A) (A) (A) (A) (A) (A) (A)
                 (A) (A) (A) (A) (A) (A) (A) (A) (A) (A) (A) (A)
                 (A) (A) (A) (A) (A) (A) (A) (A) (A) (A) (A) (A)
                 (A) (A) (A) (A) (A) (A) (A) (A) (A) (A) (A) (A)
                 (A) (A) (A) (A) (A) (A) (A) (A) (A) (A) (A) (A)
                 (A) (A) (A) (A) (A) (A) (A) (A) (A) (A) (A) (A)
                 (A) (A) (A) (A) (A) (A) (A) (A) (A) (A) (A) (A)
                 (A) (A) (A) (A) (A) (A) (A) (A) (A) (A) (A) (A)
                 (A) (A) (A) (A) (A) (A) (A) (A) (A) (A) (A) (A)
                 (A) (A) (A) (A) (A) (A) (A) (A) (A) (A) (A) (A)
                 (A) (A) (A) (A) (A) (A) (A) (A) (A) (A) (A) (A)
                 (A) (A) (A) (A) (A) (A) (A) (A)
       Virtual   (A) (A) (A) (A) (A) (A) (A) (A) (A) (A) (A) (A)
                 (A) (A) (A) (A) (A) (A) (A) (A) (A) (A) (A) (A)
                 (A) (A) (A) (A) (A) (A) (A) (A) (A) (A) (A) (A)
                 (A) (A) (A) (A) (A) (A) (A) (A) (A) (A) (A) (A)
                 (A) (A) (A) (A) (A) (A) (A) (A) (A) (A) (A) (A)
                 (A) (A) (A) (A) (A) (A) (A) (A) (A) (A) (A) (A)
                 (A) (A) (A) (A) (A) (A) (A) (A) (A) (A) (A) (A)
                 (A) (A) (A) (A) (A) (A) (A) (A) (A) (A) (A) (A)
                 (A) (A) (A) (A) (A) (A) (A) (A) (A) (A) (A) (A)
                 (A) (A) (A) (A) (A) (A) (A) (A) (A) (A) (A) (A)
                 (A) (A) (A) (A) (A) (A) (A) (A) (A) (A) (A) (A)
                 (A) (A) (A) (A) (A) (A) (A) (A) (A) (A) (A) (A)
                 (A) (A) (A) (A) (A) (A) (A) (A) (A) (A) (A) (A)
                 (A) (A) (A) (A) (A) (A) (A) (A) (A) (A) (A) (A)
                 (A) (A) (A) (A) (A) (A) (A) (A) (A) (A) (A) (A)
                 (A) (A) (A) (A) (A) (A) (A) (A) (A) (A) (A) (A)
                 (A) (A) (A) (A) (A) (A) (A) (A) (A) (A) (A) (A)
                 (A) (A) (A) (A) (A) (A) (A) (A) (A) (A) (A) (A)
                 (A) (A) (A) (A) (A) (A) (A) (A) (A) (A) (A) (A)
                 (A) (A) (A) (A) (A) (A) (A) (A) (A) (A) (A) (A)
                 (A) (A) (A) (A) (A) (A) (A) (A) (A) (A) (A) (A)
                 (A) (A) (A) (A) (A) (A) (A) (A) (A) (A) (A) (A)
                 (A) (A) (A) (A) (A) (A) (A) (A) (A) (A) (A) (A)
                 (A) (A) (A) (A) (A) (A) (A) (A) (A) (A) (A) (A)
                 (A) (A) (A) (A) (A) (A) (A) (A) (A) (A) (A) (A)
                 (A) (A) (A) (A) (A) (A) (A) (A) (A) (A) (A) (A)
                 (A) (A) (A) (A) (A) (A) (A) (A) (A) (A) (A) (A)
                 (A) (A) (A) (A) (A) (A) (A) (A) (A) (A) (A) (A)
                 (A) (A) (A) (A) (A) (A) (A) (A) (A) (A) (A) (A)
                 (A) (A) (A) (A) (A) (A) (A) (A) (A) (A) (A) (A)
                 (A) (A) (A) (A) (A) (A) (A) (A) (A) (A) (A) (A)
                 (A) (A) (A) (A) (A) (A) (A) (A) (A) (A) (A) (A)
                 (A) (A) (A) (A) (A) (A) (A) (A) (A) (A) (A) (A)
                 (A) (A) (A) (A) (A) (A) (A) (A) (A) (A) (A) (A)
                 (A) (A) (A) (A) (A) (A) (A) (A) (A) (A) (A) (A)
                 (A) (A) (A) (A) (A) (A) (A) (A) (A) (A) (A) (A)
                 (A) (A) (A) (A) (A) (A) (A) (A) (A) (A) (A) (A)
                 (A) (A) (A) (A) (A) (A) (A) (A) (A) (A) (A) (A)
                 (A) (A) (A) (A) (A) (A) (A) (A) (A) (A) (A) (A)
                 (A) (A) (A) (A) (A) (A) (A) (A) (A) (A) (A) (A)
                 (A) (A) (A) (A) (A) (A) (A) (A) (A) (A) (A) (A)
                 (A) (A) (A) (A) (A) (A) (A) (A) (A) (A) (A) (A)
                 (A) (A) (A) (A) (A) (A) (A) (A) (A) (A) (A) (A)
                 (A) (A) (A) (A) (A) (A) (A) (A) (A) (A) (A) (A)
                 (A) (A) (A) (A) (A) (A) (A) (A) (A) (A) (A) (A)
                 (A) (A) (A) (A) (A) (A) (A) (A) (A) (A) (A) (A)
                 (A) (A) (A) (A) (A) (A) (A) (A) (A) (A) (A) (A)
                 (A) (A) (A) (A) (A) (A) (A) (A) (A) (A) (A) (A)
                 (A) (A) (A) (A) (A) (A) (A) (A) (A) (A) (A) (A)
                 (A) (A) (A) (A) (A) (A) (A) (A) (A) (A) (A) (A)
                 (A) (A) (A) (A) (A) (A) (A) (A) (A) (A) (A) (A)
                 (A) (A) (A) (A) (A) (A) (A) (A) (A) (A) (A) (A)
                 (A) (A) (A) (A) (A) (A) (A) (A) (A) (A) (A) (A)
                 (A) (A) (A) (A) (A) (A) (A) (A) (A) (A) (A) (A)
                 (A) (A) (A) (A) (A) (A) (A) (A) (A) (A) (A) (A)
                 (A) (A) (A) (A) (A) (A) (A) (A) (A) (A) (A) (A)
                 (A) (A) (A) (A) (A) (A) (A) (A) (A) (A) (A) (A)
                 (A) (A) (A) (A) (A) (A) (A) (A) (A) (A) (A) (A)
                 (A) (A) (A) (A) (A) (A) (A) (A) (A) (A) (A) (A)
                 (A) (A) (A) (A) (A) (A) (A) (A) (A) (A) (A) (A)
                 (A) (A) (A) (A) (A) (A) (A) (A) (A) (A) (A) (A)
                 (A) (A) (A) (A) (A) (A) (A) (A) (A) (A) (A) (A)
                 (A) (A) (A) (A) (A) (A) (A) (A) (A) (A) (A) (A)
                 (A) (A) (A) (A) (A) (A) (A) (A) (A) (A) (A) (A)
                 (A) (A) (A) (A) (A) (A) (A) (A) (A) (A) (A) (A)
                 (A) (A) (A) (A) (A) (A) (A) (A) (A) (A) (A) (A)
                 (A) (A) (A) (A) (A) (A) (A) (A) (A) (A) (A) (A)
                 (A) (A) (A) (A) (A) (A) (A) (A) (A) (A) (A) (A)
                 (A) (A) (A) (A) (A) (A) (A) (A) (A) (A) (A) (A)
                 (A) (A) (A) (A) (A) (A) (A) (A) (A) (A) (A) (A)
                 (A) (A) (A) (A) (A) (A) (A) (A) (A) (A) (A) (A)
                 (A) (A) (A) (A) (A) (A) (A) (A) (A) (A) (A) (A)
                 (A) (A) (A) (A) (A) (A) (A) (A) (A) (A) (A) (A)
                 (A) (A) (A) (A) (A) (A) (A) (A) (A) (A) (A) (A)
                 (A) (A) (A) (A) (A) (A) (A) (A) (A) (A) (A) (A)
                 (A) (A) (A) (A) (A) (A) (A) (A) (A) (A) (A) (A)
                 (A) (A) (A) (A) (A) (A) (A) (A) (A) (A) (A) (A)
                 (A) (A) (A) (A) (A) (A) (A) (A) (A) (A) (A) (A)
                 (A) (A) (A) (A) (A) (A) (A) (A) (A) (A) (A) (A)
                 (A) (A) (A) (A) (A) (A) (A) (A) (A) (A) (A) (A)
                 (A) (A) (A) (A) (A) (A) (A) (A) (A) (A) (A) (A)
                 (A) (A) (A) (A) (A) (A) (A) (A) (A) (A) (A) (A)
                 (A) (A) (A) (A) (A) (A) (A) (A) (A) (A) (A) (A)
                 (A) (A) (A) (A) (A) (A) (A) (A) (A) (A) (A) (A)
                 (A) (A) (A) (A) (A) (A) (A) (A) (A) (A) (A) (A)
                 (A) (A) (A) (A) (A) (A) (A) (A) (A) (A)
 The electronic state is 1-A.
 Alpha  occ. eigenvalues --  -19.18463 -19.17344 -19.12279 -19.12143 -19.10687
 Alpha  occ. eigenvalues --  -14.36001 -14.35972 -14.31907 -14.30174 -10.31417
 Alpha  occ. eigenvalues --  -10.30535 -10.27415 -10.26303 -10.25094 -10.23922
 Alpha  occ. eigenvalues --  -10.23401 -10.23229 -10.22767 -10.22598 -10.22498
 Alpha  occ. eigenvalues --  -10.22359 -10.22340 -10.21943 -10.21583 -10.21581
 Alpha  occ. eigenvalues --  -10.21529 -10.21288 -10.21200 -10.20865 -10.20446
 Alpha  occ. eigenvalues --  -10.20392 -10.20240 -10.20194 -10.20160 -10.20133
 Alpha  occ. eigenvalues --  -10.19920 -10.19751 -10.19743 -10.19645 -10.19540
 Alpha  occ. eigenvalues --  -10.19512 -10.19511 -10.19384 -10.19330 -10.19250
 Alpha  occ. eigenvalues --  -10.19245 -10.18933 -10.18925 -10.18844 -10.18731
 Alpha  occ. eigenvalues --  -10.18650 -10.18600 -10.18462 -10.18373 -10.18244
 Alpha  occ. eigenvalues --  -10.18230 -10.18102 -10.18082 -10.17982 -10.17968
 Alpha  occ. eigenvalues --  -10.17613 -10.17304 -10.17299 -10.16786  -1.10167
 Alpha  occ. eigenvalues --   -1.08753  -1.02773  -1.00520  -0.97916  -0.97405
 Alpha  occ. eigenvalues --   -0.95897  -0.92843  -0.91970  -0.84547  -0.83197
 Alpha  occ. eigenvalues --   -0.82128  -0.81624  -0.81384  -0.81031  -0.80468
 Alpha  occ. eigenvalues --   -0.79923  -0.79699  -0.78952  -0.78357  -0.77188
 Alpha  occ. eigenvalues --   -0.76655  -0.75473  -0.75123  -0.74662  -0.74312
 Alpha  occ. eigenvalues --   -0.73924  -0.72922  -0.72480  -0.71293  -0.70602
 Alpha  occ. eigenvalues --   -0.69883  -0.69166  -0.68520  -0.68027  -0.67792
 Alpha  occ. eigenvalues --   -0.67405  -0.66522  -0.65998  -0.65669  -0.64639
 Alpha  occ. eigenvalues --   -0.63921  -0.62299  -0.62108  -0.61455  -0.60838
 Alpha  occ. eigenvalues --   -0.60484  -0.59249  -0.58156  -0.57844  -0.56997
 Alpha  occ. eigenvalues --   -0.56882  -0.56789  -0.56298  -0.56213  -0.55172
 Alpha  occ. eigenvalues --   -0.54564  -0.54427  -0.54318  -0.53263  -0.52959
 Alpha  occ. eigenvalues --   -0.52619  -0.51366  -0.51221  -0.50600  -0.50227
 Alpha  occ. eigenvalues --   -0.49507  -0.49075  -0.48840  -0.48700  -0.48367
 Alpha  occ. eigenvalues --   -0.48250  -0.47498  -0.47371  -0.47283  -0.47139
 Alpha  occ. eigenvalues --   -0.46794  -0.46064  -0.45759  -0.45655  -0.45547
 Alpha  occ. eigenvalues --   -0.45177  -0.44857  -0.44529  -0.44459  -0.44395
 Alpha  occ. eigenvalues --   -0.44032  -0.43808  -0.43752  -0.43470  -0.43363
 Alpha  occ. eigenvalues --   -0.43114  -0.43000  -0.42939  -0.42421  -0.42288
 Alpha  occ. eigenvalues --   -0.42241  -0.41982  -0.41811  -0.41538  -0.41290
 Alpha  occ. eigenvalues --   -0.41058  -0.40950  -0.40724  -0.40296  -0.39979
 Alpha  occ. eigenvalues --   -0.39869  -0.39375  -0.39293  -0.39257  -0.39047
 Alpha  occ. eigenvalues --   -0.38999  -0.38806  -0.38777  -0.38482  -0.38251
 Alpha  occ. eigenvalues --   -0.38171  -0.37752  -0.37641  -0.37376  -0.37149
 Alpha  occ. eigenvalues --   -0.36955  -0.36866  -0.36625  -0.36461  -0.36419
 Alpha  occ. eigenvalues --   -0.35977  -0.35904  -0.35862  -0.35500  -0.35448
 Alpha  occ. eigenvalues --   -0.35408  -0.35271  -0.35078  -0.34976  -0.34720
 Alpha  occ. eigenvalues --   -0.34648  -0.34421  -0.34154  -0.33926  -0.33591
 Alpha  occ. eigenvalues --   -0.33560  -0.33386  -0.33129  -0.32889  -0.32574
 Alpha  occ. eigenvalues --   -0.32417  -0.32213  -0.31989  -0.31770  -0.31741
 Alpha  occ. eigenvalues --   -0.30788  -0.30749  -0.30549  -0.30100  -0.29882
 Alpha  occ. eigenvalues --   -0.29764  -0.29506  -0.28214  -0.27538  -0.27229
 Alpha  occ. eigenvalues --   -0.26799  -0.26726  -0.26368  -0.25963  -0.25455
 Alpha  occ. eigenvalues --   -0.24496  -0.24396  -0.24108  -0.23109  -0.19764
 Alpha  occ. eigenvalues --   -0.18542
 Alpha virt. eigenvalues --   -0.09635  -0.07636  -0.04369  -0.03549  -0.01184
 Alpha virt. eigenvalues --    0.00608   0.01012   0.01161   0.01518   0.02055
 Alpha virt. eigenvalues --    0.04061   0.04282   0.04505   0.04826   0.05094
 Alpha virt. eigenvalues --    0.05328   0.05504   0.05643   0.05727   0.06023
 Alpha virt. eigenvalues --    0.06155   0.06412   0.06780   0.06882   0.07105
 Alpha virt. eigenvalues --    0.07248   0.07519   0.07699   0.07819   0.08123
 Alpha virt. eigenvalues --    0.08376   0.08530   0.08729   0.08970   0.09006
 Alpha virt. eigenvalues --    0.09288   0.09435   0.09662   0.09863   0.09893
 Alpha virt. eigenvalues --    0.10127   0.10374   0.10469   0.10640   0.11021
 Alpha virt. eigenvalues --    0.11110   0.11263   0.11360   0.11507   0.11593
 Alpha virt. eigenvalues --    0.11656   0.11882   0.11904   0.12259   0.12275
 Alpha virt. eigenvalues --    0.12351   0.12571   0.12750   0.12948   0.12990
 Alpha virt. eigenvalues --    0.13404   0.13607   0.13755   0.13905   0.14108
 Alpha virt. eigenvalues --    0.14155   0.14298   0.14493   0.14513   0.14866
 Alpha virt. eigenvalues --    0.14969   0.15081   0.15136   0.15275   0.15496
 Alpha virt. eigenvalues --    0.15581   0.15846   0.15976   0.16416   0.16630
 Alpha virt. eigenvalues --    0.16963   0.17006   0.17106   0.17304   0.17373
 Alpha virt. eigenvalues --    0.17844   0.18008   0.18448   0.18594   0.19026
 Alpha virt. eigenvalues --    0.19111   0.19480   0.19560   0.19678   0.19943
 Alpha virt. eigenvalues --    0.20276   0.20352   0.20520   0.20720   0.21047
 Alpha virt. eigenvalues --    0.21180   0.21828   0.22026   0.22040   0.22536
 Alpha virt. eigenvalues --    0.22750   0.23112   0.23226   0.23373   0.23581
 Alpha virt. eigenvalues --    0.23794   0.24068   0.24253   0.24581   0.24882
 Alpha virt. eigenvalues --    0.25121   0.25343   0.25416   0.25686   0.26052
 Alpha virt. eigenvalues --    0.26380   0.26655   0.27226   0.27331   0.27351
 Alpha virt. eigenvalues --    0.27740   0.27948   0.28221   0.28528   0.28859
 Alpha virt. eigenvalues --    0.29481   0.29658   0.30085   0.30241   0.30665
 Alpha virt. eigenvalues --    0.30703   0.32200   0.32357   0.32805   0.33147
 Alpha virt. eigenvalues --    0.33672   0.34287   0.34417   0.34961   0.35078
 Alpha virt. eigenvalues --    0.35388   0.36348   0.36552   0.36612   0.37023
 Alpha virt. eigenvalues --    0.37272   0.37695   0.38029   0.38067   0.38638
 Alpha virt. eigenvalues --    0.38985   0.39366   0.39600   0.39879   0.40046
 Alpha virt. eigenvalues --    0.40229   0.40595   0.40654   0.41209   0.41233
 Alpha virt. eigenvalues --    0.41393   0.41497   0.41643   0.41751   0.42113
 Alpha virt. eigenvalues --    0.42272   0.42655   0.42777   0.42842   0.42937
 Alpha virt. eigenvalues --    0.43126   0.43681   0.43985   0.44388   0.44525
 Alpha virt. eigenvalues --    0.44693   0.44829   0.45157   0.45416   0.45481
 Alpha virt. eigenvalues --    0.45812   0.45946   0.46142   0.46443   0.46790
 Alpha virt. eigenvalues --    0.47152   0.47312   0.47470   0.47823   0.47831
 Alpha virt. eigenvalues --    0.48034   0.48168   0.48409   0.48822   0.48969
 Alpha virt. eigenvalues --    0.49283   0.49491   0.49548   0.49681   0.49970
 Alpha virt. eigenvalues --    0.50069   0.50433   0.50699   0.50959   0.51304
 Alpha virt. eigenvalues --    0.51408   0.51602   0.51980   0.52095   0.52476
 Alpha virt. eigenvalues --    0.52528   0.53212   0.53458   0.53706   0.53881
 Alpha virt. eigenvalues --    0.54074   0.54752   0.54878   0.54919   0.55347
 Alpha virt. eigenvalues --    0.55472   0.55612   0.56127   0.56262   0.56649
 Alpha virt. eigenvalues --    0.56702   0.57102   0.57573   0.57716   0.57806
 Alpha virt. eigenvalues --    0.57998   0.58412   0.58577   0.58649   0.59013
 Alpha virt. eigenvalues --    0.59043   0.59375   0.59437   0.59619   0.59636
 Alpha virt. eigenvalues --    0.59672   0.59861   0.60024   0.60196   0.60451
 Alpha virt. eigenvalues --    0.60665   0.60891   0.60999   0.61177   0.61216
 Alpha virt. eigenvalues --    0.61356   0.61407   0.61612   0.61743   0.62024
 Alpha virt. eigenvalues --    0.62221   0.62365   0.62545   0.62719   0.62740
 Alpha virt. eigenvalues --    0.62868   0.63013   0.63299   0.63459   0.63491
 Alpha virt. eigenvalues --    0.63521   0.63798   0.63918   0.64040   0.64119
 Alpha virt. eigenvalues --    0.64183   0.64361   0.64557   0.64623   0.64705
 Alpha virt. eigenvalues --    0.64825   0.64886   0.64983   0.65181   0.65256
 Alpha virt. eigenvalues --    0.65328   0.65415   0.65690   0.65889   0.66115
 Alpha virt. eigenvalues --    0.66192   0.66407   0.66599   0.66711   0.66787
 Alpha virt. eigenvalues --    0.66962   0.67071   0.67145   0.67338   0.67436
 Alpha virt. eigenvalues --    0.67502   0.67634   0.67883   0.68027   0.68249
 Alpha virt. eigenvalues --    0.68330   0.68442   0.68623   0.68739   0.68967
 Alpha virt. eigenvalues --    0.69015   0.69067   0.69179   0.69414   0.69506
 Alpha virt. eigenvalues --    0.69647   0.69680   0.69767   0.69865   0.70072
 Alpha virt. eigenvalues --    0.70116   0.70367   0.70403   0.70499   0.70679
 Alpha virt. eigenvalues --    0.70813   0.70882   0.71358   0.71598   0.71677
 Alpha virt. eigenvalues --    0.71868   0.71964   0.72041   0.72331   0.72480
 Alpha virt. eigenvalues --    0.72629   0.72830   0.72987   0.73097   0.73437
 Alpha virt. eigenvalues --    0.73477   0.73568   0.73784   0.74077   0.74517
 Alpha virt. eigenvalues --    0.74616   0.75054   0.75187   0.75301   0.75369
 Alpha virt. eigenvalues --    0.75563   0.75726   0.75824   0.76005   0.76156
 Alpha virt. eigenvalues --    0.76217   0.76511   0.77213   0.77436   0.77630
 Alpha virt. eigenvalues --    0.77926   0.78305   0.78519   0.78769   0.78862
 Alpha virt. eigenvalues --    0.78925   0.79405   0.79873   0.79995   0.80477
 Alpha virt. eigenvalues --    0.81019   0.81474   0.81750   0.82012   0.82604
 Alpha virt. eigenvalues --    0.82746   0.83111   0.83320   0.83660   0.84176
 Alpha virt. eigenvalues --    0.84325   0.84568   0.84958   0.85050   0.85699
 Alpha virt. eigenvalues --    0.86479   0.86521   0.87155   0.87737   0.88109
 Alpha virt. eigenvalues --    0.88353   0.89415   0.89965   0.90228   0.90281
 Alpha virt. eigenvalues --    0.90802   0.91536   0.92106   0.92804   0.92986
 Alpha virt. eigenvalues --    0.93378   0.94522   0.94647   0.94924   0.95192
 Alpha virt. eigenvalues --    0.95339   0.95413   0.95693   0.96185   0.97100
 Alpha virt. eigenvalues --    0.97457   0.98329   0.98774   0.99338   0.99685
 Alpha virt. eigenvalues --    0.99779   1.00255   1.00365   1.00793   1.01012
 Alpha virt. eigenvalues --    1.02010   1.02738   1.03381   1.03899   1.04052
 Alpha virt. eigenvalues --    1.04300   1.04433   1.04751   1.05361   1.05934
 Alpha virt. eigenvalues --    1.06311   1.06991   1.07193   1.07650   1.07672
 Alpha virt. eigenvalues --    1.08344   1.08983   1.09096   1.09645   1.10031
 Alpha virt. eigenvalues --    1.10325   1.10838   1.11203   1.11562   1.11788
 Alpha virt. eigenvalues --    1.12913   1.13029   1.13053   1.13575   1.13725
 Alpha virt. eigenvalues --    1.14195   1.15076   1.15266   1.15674   1.16680
 Alpha virt. eigenvalues --    1.17046   1.17113   1.18114   1.18784   1.19446
 Alpha virt. eigenvalues --    1.19975   1.20064   1.20527   1.21050   1.21337
 Alpha virt. eigenvalues --    1.21675   1.21727   1.22099   1.22351   1.23426
 Alpha virt. eigenvalues --    1.23683   1.23851   1.24125   1.24471   1.24707
 Alpha virt. eigenvalues --    1.24872   1.25634   1.26366   1.26750   1.26920
 Alpha virt. eigenvalues --    1.27264   1.27600   1.27992   1.28060   1.28529
 Alpha virt. eigenvalues --    1.29127   1.29174   1.29798   1.29937   1.30380
 Alpha virt. eigenvalues --    1.31040   1.31284   1.31589   1.31857   1.32179
 Alpha virt. eigenvalues --    1.32541   1.32721   1.32832   1.33256   1.33637
 Alpha virt. eigenvalues --    1.33753   1.34468   1.34972   1.35559   1.35917
 Alpha virt. eigenvalues --    1.36471   1.36578   1.37426   1.37720   1.37916
 Alpha virt. eigenvalues --    1.38597   1.38926   1.39584   1.39734   1.40447
 Alpha virt. eigenvalues --    1.40912   1.41200   1.41580   1.41809   1.42955
 Alpha virt. eigenvalues --    1.43295   1.43481   1.44367   1.44788   1.45182
 Alpha virt. eigenvalues --    1.45490   1.45954   1.46539   1.46686   1.47016
 Alpha virt. eigenvalues --    1.47286   1.48315   1.48483   1.48964   1.49043
 Alpha virt. eigenvalues --    1.49446   1.49674   1.50072   1.51017   1.51027
 Alpha virt. eigenvalues --    1.51638   1.52225   1.52390   1.52479   1.53092
 Alpha virt. eigenvalues --    1.53201   1.53682   1.54121   1.54560   1.55014
 Alpha virt. eigenvalues --    1.55119   1.55241   1.55353   1.55710   1.55885
 Alpha virt. eigenvalues --    1.56083   1.56763   1.56889   1.57470   1.57791
 Alpha virt. eigenvalues --    1.58475   1.58807   1.59354   1.59436   1.60048
 Alpha virt. eigenvalues --    1.60458   1.60908   1.61296   1.61498   1.61846
 Alpha virt. eigenvalues --    1.62532   1.63010   1.63316   1.63856   1.64244
 Alpha virt. eigenvalues --    1.64440   1.64667   1.65079   1.65363   1.65408
 Alpha virt. eigenvalues --    1.65802   1.66977   1.67082   1.67216   1.67427
 Alpha virt. eigenvalues --    1.67726   1.67944   1.68037   1.68371   1.68475
 Alpha virt. eigenvalues --    1.68986   1.69015   1.69238   1.69475   1.69832
 Alpha virt. eigenvalues --    1.70382   1.70676   1.71099   1.71158   1.71271
 Alpha virt. eigenvalues --    1.71545   1.71655   1.71898   1.72002   1.72244
 Alpha virt. eigenvalues --    1.72717   1.72854   1.72980   1.73394   1.73483
 Alpha virt. eigenvalues --    1.73779   1.73887   1.74009   1.74245   1.74811
 Alpha virt. eigenvalues --    1.74952   1.74991   1.75177   1.75273   1.75729
 Alpha virt. eigenvalues --    1.75789   1.76287   1.76488   1.76705   1.77103
 Alpha virt. eigenvalues --    1.77391   1.77465   1.77648   1.77834   1.78147
 Alpha virt. eigenvalues --    1.78414   1.78579   1.78849   1.78871   1.78996
 Alpha virt. eigenvalues --    1.79141   1.79438   1.79548   1.79601   1.79755
 Alpha virt. eigenvalues --    1.80100   1.80239   1.80514   1.80599   1.81011
 Alpha virt. eigenvalues --    1.81190   1.81219   1.81555   1.81718   1.81979
 Alpha virt. eigenvalues --    1.82124   1.82310   1.82935   1.83003   1.83277
 Alpha virt. eigenvalues --    1.83575   1.83678   1.83704   1.83835   1.83983
 Alpha virt. eigenvalues --    1.84150   1.84377   1.84653   1.84947   1.85086
 Alpha virt. eigenvalues --    1.85218   1.86024   1.86104   1.86145   1.86395
 Alpha virt. eigenvalues --    1.86569   1.87009   1.87262   1.88019   1.88276
 Alpha virt. eigenvalues --    1.88397   1.88453   1.88636   1.88739   1.89242
 Alpha virt. eigenvalues --    1.89492   1.89951   1.90136   1.90422   1.90589
 Alpha virt. eigenvalues --    1.90764   1.91085   1.91243   1.91326   1.91688
 Alpha virt. eigenvalues --    1.91970   1.92100   1.92198   1.92330   1.92646
 Alpha virt. eigenvalues --    1.93113   1.93316   1.93423   1.93786   1.94024
 Alpha virt. eigenvalues --    1.94161   1.94506   1.95238   1.95495   1.95740
 Alpha virt. eigenvalues --    1.96116   1.96383   1.96613   1.96691   1.97350
 Alpha virt. eigenvalues --    1.97754   1.97885   1.97979   1.98113   1.98228
 Alpha virt. eigenvalues --    1.98328   1.98610   1.98872   1.99809   1.99846
 Alpha virt. eigenvalues --    2.00077   2.00808   2.00847   2.01123   2.01398
 Alpha virt. eigenvalues --    2.01615   2.01861   2.02070   2.02395   2.02782
 Alpha virt. eigenvalues --    2.02974   2.03178   2.03298   2.03673   2.03960
 Alpha virt. eigenvalues --    2.04225   2.04695   2.04872   2.04965   2.05260
 Alpha virt. eigenvalues --    2.05529   2.06090   2.06326   2.06795   2.06996
 Alpha virt. eigenvalues --    2.07131   2.07297   2.07634   2.08194   2.08217
 Alpha virt. eigenvalues --    2.08411   2.08826   2.09607   2.09635   2.10038
 Alpha virt. eigenvalues --    2.10669   2.11117   2.11258   2.11543   2.12284
 Alpha virt. eigenvalues --    2.12835   2.13015   2.13498   2.14125   2.14615
 Alpha virt. eigenvalues --    2.14995   2.15120   2.15477   2.15915   2.16240
 Alpha virt. eigenvalues --    2.16726   2.17178   2.17564   2.17970   2.18257
 Alpha virt. eigenvalues --    2.18403   2.18769   2.19073   2.19520   2.20080
 Alpha virt. eigenvalues --    2.20473   2.20967   2.21179   2.21462   2.21625
 Alpha virt. eigenvalues --    2.22194   2.22635   2.22805   2.23397   2.23533
 Alpha virt. eigenvalues --    2.23915   2.24588   2.24897   2.25666   2.26116
 Alpha virt. eigenvalues --    2.26342   2.26655   2.27303   2.27433   2.27936
 Alpha virt. eigenvalues --    2.27986   2.28384   2.28850   2.29223   2.29952
 Alpha virt. eigenvalues --    2.30235   2.30598   2.31363   2.31547   2.31936
 Alpha virt. eigenvalues --    2.32166   2.32365   2.32653   2.33079   2.33328
 Alpha virt. eigenvalues --    2.33746   2.34038   2.34700   2.35212   2.35282
 Alpha virt. eigenvalues --    2.35959   2.36152   2.36817   2.37612   2.37800
 Alpha virt. eigenvalues --    2.38238   2.38398   2.38858   2.39254   2.39621
 Alpha virt. eigenvalues --    2.40137   2.40345   2.40710   2.41003   2.41483
 Alpha virt. eigenvalues --    2.42092   2.42286   2.42555   2.42595   2.43607
 Alpha virt. eigenvalues --    2.43977   2.44288   2.44446   2.44814   2.45276
 Alpha virt. eigenvalues --    2.45330   2.45717   2.46247   2.46449   2.46899
 Alpha virt. eigenvalues --    2.47010   2.47263   2.47741   2.47948   2.48161
 Alpha virt. eigenvalues --    2.49283   2.49751   2.49822   2.49914   2.50218
 Alpha virt. eigenvalues --    2.50662   2.50823   2.51697   2.51908   2.52234
 Alpha virt. eigenvalues --    2.52981   2.53068   2.53602   2.53681   2.54256
 Alpha virt. eigenvalues --    2.55033   2.55121   2.55725   2.55999   2.56380
 Alpha virt. eigenvalues --    2.57108   2.57641   2.57986   2.58345   2.58413
 Alpha virt. eigenvalues --    2.58775   2.59261   2.59680   2.60199   2.60785
 Alpha virt. eigenvalues --    2.60916   2.61154   2.61412   2.62076   2.62256
 Alpha virt. eigenvalues --    2.63825   2.64079   2.64191   2.64813   2.65403
 Alpha virt. eigenvalues --    2.65640   2.65905   2.65925   2.66279   2.66680
 Alpha virt. eigenvalues --    2.67263   2.67784   2.67951   2.68116   2.69250
 Alpha virt. eigenvalues --    2.69364   2.69463   2.70414   2.70525   2.70875
 Alpha virt. eigenvalues --    2.71706   2.72005   2.72523   2.72797   2.73402
 Alpha virt. eigenvalues --    2.73921   2.74619   2.74764   2.74992   2.75463
 Alpha virt. eigenvalues --    2.76064   2.77207   2.78182   2.78279   2.78909
 Alpha virt. eigenvalues --    2.79127   2.79527   2.79773   2.80385   2.80628
 Alpha virt. eigenvalues --    2.81397   2.81940   2.82450   2.82728   2.83076
 Alpha virt. eigenvalues --    2.83300   2.84016   2.84606   2.84792   2.85667
 Alpha virt. eigenvalues --    2.85741   2.86114   2.86574   2.87227   2.87871
 Alpha virt. eigenvalues --    2.87981   2.88196   2.88228   2.88335   2.89173
 Alpha virt. eigenvalues --    2.89828   2.89912   2.90397   2.90786   2.91573
 Alpha virt. eigenvalues --    2.91759   2.92365   2.92673   2.92883   2.93077
 Alpha virt. eigenvalues --    2.93212   2.93708   2.93978   2.94205   2.94547
 Alpha virt. eigenvalues --    2.94950   2.95917   2.97136   2.97567   2.98343
 Alpha virt. eigenvalues --    2.98985   2.99600   3.00037   3.00374   3.00661
 Alpha virt. eigenvalues --    3.01441   3.01503   3.02493   3.03151   3.03583
 Alpha virt. eigenvalues --    3.03997   3.04459   3.05057   3.05440   3.06403
 Alpha virt. eigenvalues --    3.07177   3.07659   3.07873   3.08404   3.08565
 Alpha virt. eigenvalues --    3.08882   3.09220   3.10417   3.10685   3.11679
 Alpha virt. eigenvalues --    3.12433   3.13645   3.14603   3.14890   3.15221
 Alpha virt. eigenvalues --    3.15718   3.17433   3.17912   3.18605   3.19306
 Alpha virt. eigenvalues --    3.21351   3.22155   3.22566   3.23498   3.23821
 Alpha virt. eigenvalues --    3.24726   3.25931   3.26444   3.31844   3.33141
 Alpha virt. eigenvalues --    3.36580   3.39224   3.39393   3.41035   3.45126
 Alpha virt. eigenvalues --    3.47872   3.52936   3.54352   3.56188   3.62222
 Alpha virt. eigenvalues --    3.63019   3.63933   3.66285   3.67466   3.70612
          Condensed to atoms (all electrons):
 Mulliken charges:
               1
     1  C   -0.013974
     2  C   -0.012896
     3  C   -0.026786
     4  C   -0.056565
     5  N   -0.217062
     6  C    0.021733
     7  C   -0.094422
     8  C   -0.053218
     9  C   -0.054993
    10  C    0.086492
    11  C    0.063632
    12  C    0.023405
    13  C    0.181307
    14  O   -0.291169
    15  O   -0.305401
    16  N   -0.062787
    17  C    0.197695
    18  C   -0.116836
    19  C    0.012830
    20  C    0.124122
    21  C    0.063282
    22  C   -0.056836
    23  C   -0.041378
    24  N   -0.263705
    25  C    0.042969
    26  C   -0.135661
    27  C   -0.016254
    28  C    0.088969
    29  C    0.117233
    30  C    0.095586
    31  C   -0.006611
    32  N   -0.107602
    33  C    0.055896
    34  C   -0.052161
    35  C   -0.096305
    36  C    0.142218
    37  C   -0.017669
    38  C    0.101464
    39  O   -0.159084
    40  C   -0.044228
    41  C    0.195422
    42  O   -0.234824
    43  O   -0.270629
    44  C    0.229924
    45  C    0.181986
    46  C   -0.045255
    47  C   -0.148689
    48  C   -0.110791
    49  C    0.105673
    50  C   -0.054564
    51  C    0.082250
    52  C   -0.025772
    53  C    0.030577
    54  C    0.072914
    55  C    0.018174
    56  C    0.014516
    57  C    0.071989
    58  C   -0.066134
    59  C    0.016316
    60  C    0.020547
    61  C    0.060373
    62  C   -0.173186
    63  C    0.096178
    64  C    0.023664
    65  H   -0.096424
    66  H   -0.083719
    67  H   -0.054385
    68  H    0.026211
    69  H    0.002567
    70  H    0.009398
    71  H    0.038110
    72  H    0.014218
    73  H    0.028846
    74  H    0.018922
    75  H    0.004776
    76  H    0.015399
    77  H    0.023685
    78  H    0.008155
    79  H    0.038515
    80  H    0.043966
    81  H    0.064854
    82  H    0.001974
    83  H    0.028138
    84  H   -0.017988
    85  H    0.008605
    86  H   -0.003727
    87  H   -0.002955
    88  H    0.017213
    89  H   -0.042712
    90  H    0.001445
    91  H    0.054668
    92  H    0.030848
    93  H    0.078554
    94  H    0.037917
    95  H    0.036424
    96  H    0.024814
    97  H    0.001073
    98  H    0.060064
    99  H    0.054818
   100  H    0.006922
   101  H    0.060887
   102  H    0.075916
   103  H    0.051962
   104  H   -0.018167
   105  H    0.001125
   106  H    0.016437
   107  H    0.006099
   108  H   -0.007685
   109  H    0.009346
   110  H   -0.021684
   111  H    0.012549
   112  H   -0.025375
   113  H   -0.004645
   114  H   -0.034720
   115  H   -0.049535
   116  H    0.025902
   117  H   -0.022608
   118  H   -0.022595
   119  H   -0.007745
   120  H   -0.067539
   121  H    0.013492
   122  H    0.017421
   123  H    0.030130
   124  H   -0.019146
   125  H    0.018449
   126  H    0.000941
   127  H   -0.005053
   128  H    0.002698
   129  H   -0.017213
   130  H    0.011223
   131  H    0.013736
   132  H   -0.022385
   133  H   -0.010039
   134  H   -0.004945
   135  H    0.015446
   136  H    0.018581
   137  H    0.115039
   138  H    0.158621
 Sum of Mulliken charges =   0.00000
 Mulliken charges with hydrogens summed into heavy atoms:
               1
     1  C   -0.013974
     2  C   -0.109319
     3  C   -0.110505
     4  C   -0.110950
     5  N   -0.217062
     6  C    0.021733
     7  C   -0.068211
     8  C   -0.050651
     9  C   -0.054993
    10  C    0.148219
    11  C    0.111400
    12  C    0.043580
    13  C    0.181307
    14  O   -0.291169
    15  O   -0.305401
    16  N    0.052252
    17  C    0.197695
    18  C   -0.116836
    19  C    0.012830
    20  C    0.124122
    21  C    0.133637
    22  C   -0.012870
    23  C    0.025450
    24  N   -0.263705
    25  C    0.042969
    26  C   -0.135661
    27  C   -0.016254
    28  C    0.088969
    29  C    0.135988
    30  C    0.088904
    31  C   -0.030665
    32  N    0.051018
    33  C    0.055896
    34  C   -0.052161
    35  C   -0.096305
    36  C    0.142218
    37  C    0.146401
    38  C    0.101464
    39  O   -0.159084
    40  C   -0.006310
    41  C    0.195422
    42  O   -0.234824
    43  O   -0.270629
    44  C    0.292236
    45  C    0.296869
    46  C   -0.038334
    47  C   -0.148689
    48  C    0.077973
    49  C    0.088630
    50  C   -0.032028
    51  C    0.083911
    52  C   -0.047455
    53  C    0.013106
    54  C   -0.011341
    55  C    0.021468
    56  C   -0.015824
    57  C    0.004449
    58  C   -0.005092
    59  C    0.015619
    60  C    0.016435
    61  C    0.045858
    62  C   -0.161963
    63  C    0.077490
    64  C    0.052744
 Electronic spatial extent (au):  <R**2>=         178948.5792
 Charge=              0.0000 electrons
 Dipole moment (field-independent basis, Debye):
    X=              3.6542    Y=              3.9629    Z=              1.0881  Tot=              5.4992
 Quadrupole moment (field-independent basis, Debye-Ang):
   XX=           -343.5469   YY=           -375.0217   ZZ=           -392.5370
   XY=            -27.9768   XZ=              2.5610   YZ=             -3.4001
 Traceless Quadrupole moment (field-independent basis, Debye-Ang):
   XX=             26.8216   YY=             -4.6531   ZZ=            -22.1684
   XY=            -27.9768   XZ=              2.5610   YZ=             -3.4001
 Octapole moment (field-independent basis, Debye-Ang**2):
  XXX=           -387.2705  YYY=            108.2461  ZZZ=             16.3893  XYY=           -182.0787
  XXY=             69.4848  XXZ=           -290.8008  XZZ=              9.5372  YZZ=            -29.1698
  YYZ=             76.4352  XYZ=            -59.0607
 Hexadecapole moment (field-independent basis, Debye-Ang**3):
 XXXX=        -221478.1616 YYYY=         -17029.6472 ZZZZ=          -4807.8614 XXXY=          -3229.7133
 XXXZ=            259.6338 YYYX=          -1435.6540 YYYZ=           -336.3322 ZZZX=            -27.1463
 ZZZY=           -142.4552 XXYY=         -40168.8210 XXZZ=         -38915.9402 YYZZ=          -3513.0612
 XXYZ=           -297.0246 YYXZ=           -174.7843 ZZXY=            -17.1314
 N-N= 8.283071776657D+03 E-N=-2.290200739578D+04  KE= 2.701533978502D+03
 1\1\GINC-PEDRO-RYZENSSD\SP\RB3LYP TD-FC\SVP\C55H74N4O5\PADAWAN\02-Aug-
 2019\0\\# td=(NStates=1) B3LYP/SVP\\TD\\0,1\C,0,-5.114289127,-1.959512
 1933,0.4839232682\C,0,-4.7746077798,2.7507315249,1.5139477807\C,0,-9.3
 197818879,3.3472355228,-0.2615946274\C,0,-9.7001980743,-1.453226126,-1
 .035356089\N,0,-5.2007092332,0.3787294958,0.8395523922\C,0,-4.48483709
 98,-0.8192386449,0.925515995\C,0,-3.0948391704,-0.564932928,1.30877587
 34\C,0,-3.0936243278,0.8150804003,1.9679659024\C,0,-4.4763368268,1.401
 7699949,1.3844120382\C,0,-3.1952880973,0.8604435567,3.5546633289\C,0,-
 2.0639684675,-0.6532452862,0.1683447801\C,0,-0.5939326055,-0.557293946
 ,0.6129637491\C,0,0.3927129327,-0.7603329062,-0.5081223698\O,0,0.04388
 61562,-1.0871310797,-1.6554991614\O,0,1.6180820053,-0.7316899421,-0.09
 15515979\N,0,-6.9140059952,2.7225995318,0.3561151207\C,0,-5.9068022556
 ,3.3514595643,1.0510659635\C,0,-6.2599891846,4.7076372032,1.0797644692
 \C,0,-7.5600751043,4.8982986654,0.5814546729\C,0,-8.0124621921,3.60483
 89776,0.1956397194\C,0,-5.4670572222,5.7798134964,1.6806293289\C,0,-8.
 3377310558,6.197763788,0.5184903503\C,0,-8.9691448127,6.5544151634,-0.
 593661845\N,0,-9.161344335,0.8755447875,-0.5741698854\C,0,-9.865710433
 9,2.0208645852,-0.5760968789\C,0,-11.2501888854,1.8142349845,-1.101784
 0123\C,0,-11.4021341639,0.4969270328,-1.3530802627\C,0,-10.0926514908,
 -0.1250424559,-0.9869119337\C,0,-12.2610646074,2.8940579074,-1.3327663
 669\C,0,-12.6053682763,-0.2394764271,-1.921683128\C,0,-12.5708272134,-
 0.4510783722,-3.4616943407\N,0,-7.445693527,-1.2187235576,-0.239992527
 8\C,0,-8.4932809156,-2.0432630531,-0.7191852809\C,0,-8.0850909481,-3.4
 205889411,-0.7740899763\C,0,-6.7877836875,-3.3801248408,-0.2532329472\
 C,0,-6.3915002534,-2.0497777964,0.1858636626\C,0,-8.8849312507,-4.5521
 959691,-1.2419531897\C,0,-5.714208366,-4.3616111962,0.1215030959\O,0,-
 5.4989993901,-5.5198015103,-0.132400506\C,0,-4.5351611447,-3.373718133
 4,0.5496540275\C,0,-4.074061204,-3.8262567192,2.0129878245\O,0,-4.4545
 105246,-3.3593938733,3.0682148896\O,0,-3.3267713647,-4.8885738303,1.81
 60120291\C,0,-2.9523599398,-5.5598454306,3.0491370533\C,0,2.7073729059
 ,-1.1081047081,-1.1249565215\C,0,4.0023534821,-0.7752980322,-0.5145035
 505\C,0,5.02153441,0.1200330582,-0.9877427309\C,0,4.9508142771,1.00277
 10088,-2.2683439512\C,0,6.2886706123,0.2374814873,-0.2486037746\C,0,7.
 543845625,-0.4028864715,-0.8544723141\C,0,8.8884704481,-0.1968136665,-
 0.065914939\C,0,10.0582267484,-0.6868430109,-0.8022975846\C,0,10.06430
 24688,-2.1815919621,-1.0384731322\C,0,11.3066045107,-0.2363579505,-0.0
 538159373\C,0,12.8078224564,-0.5405293701,-0.7246669898\C,0,13.9041590
 053,-0.0227695032,0.1453965952\C,0,15.2885877706,-0.1483957211,-0.5132
 148794\C,0,15.5520847803,-1.6290517706,-0.6429530636\C,0,16.3075915035
 ,0.5686913864,0.4268417065\C,0,17.7570005889,0.7814210598,-0.326786580
 1\C,0,18.6445553798,1.6140457335,0.5098418004\C,0,20.1386957712,1.5094
 187465,0.033545082\C,0,20.3487855775,1.9635529314,-1.438001878\C,0,20.
 9148940107,2.5145827971,1.0349452827\H,0,-4.0171193722,3.2453657686,1.
 9122561065\H,0,-9.9803258857,4.0966769098,-0.3381251352\H,0,-10.358670
 1234,-2.2317603315,-1.3856280359\H,0,-2.6277551025,-1.3802272579,2.145
 9154672\H,0,-2.2551568302,1.3683570589,1.4712600382\H,0,-2.3163318912,
 0.2837847469,3.8907481788\H,0,-3.1957150634,1.9074857983,4.1221824134\
 H,0,-4.0495845554,0.3176869532,3.7738625625\H,0,-2.2599014985,-1.63939
 8673,-0.3857730245\H,0,-2.1110644458,0.1653027213,-0.5839250867\H,0,-0
 .3983156514,0.2827521288,1.2540157629\H,0,-0.2597863179,-1.324484407,1
 .3577832867\H,0,-4.6202168382,6.146319,1.0351863184\H,0,-5.9241276192,
 6.7590608208,1.8705563502\H,0,-5.0450425911,5.2564836924,2.6297271067\
 H,0,-8.4404790573,6.8629361681,1.4537269266\H,0,-9.0052858805,5.966746
 8352,-1.672548841\H,0,-9.4857033169,7.4466133888,-0.6334335663\H,0,-12
 .5379581578,3.484747662,-0.4300708202\H,0,-11.9834121895,3.5681607735,
 -2.0407033871\H,0,-13.209311954,2.6063284685,-1.9451388693\H,0,-12.908
 8732605,-1.1844973764,-1.5123459857\H,0,-13.5713341579,0.3024443991,-1
 .8304154003\H,0,-12.5090965396,0.518828696,-4.1849258369\H,0,-11.93780
 87489,-1.0844460182,-3.7612850806\H,0,-13.5315199055,-0.8820973045,-4.
 0064281851\H,0,-9.9083273815,-4.8083701568,-0.6713494369\H,0,-9.444238
 4027,-4.1533132773,-2.212298128\H,0,-8.1987650512,-5.4921474817,-1.552
 0231578\H,0,-3.7873805895,-3.5526515554,-0.1858099296\H,0,-2.348765269
 5,-6.4156666624,2.7327366078\H,0,-2.3474031867,-4.8961831022,3.7346379
 064\H,0,-3.7365666731,-5.8115362452,3.6137982554\H,0,2.6206559731,-2.2
 344410876,-1.4366848355\H,0,2.2158464791,-0.5160391847,-1.9822559928\H
 ,0,4.2412068924,-1.4531676311,0.3154594489\H,0,4.864758305,2.388491358
 1,-1.8237970995\H,0,5.8792345407,0.7611220747,-3.0586072623\H,0,3.9406
 441826,0.6927704638,-2.9007108962\H,0,6.1897069869,1.3091570407,-0.331
 3333244\H,0,6.0785158963,0.1105411645,0.8513128387\H,0,7.238180603,-1.
 6182985545,-0.8789886585\H,0,7.4976693094,-0.1868766671,-1.9897238014\
 H,0,8.8859640838,0.88068691,0.1011602643\H,0,8.6732603888,-0.641158267
 3,0.9442972421\H,0,10.1823509037,-0.3118786312,-1.8101155866\H,0,9.129
 8433005,-2.391727866,-1.6755461024\H,0,10.9205070818,-2.5329048903,-1.
 4677673816\H,0,10.0481398341,-2.9526569513,-0.2015484241\H,0,11.096434
 9409,0.7638051606,0.1388324684\H,0,11.2519611596,-0.7071159481,0.83878
 38086\H,0,13.091253836,-1.6304946207,-1.0762108341\H,0,12.6118993421,0
 .0917590969,-1.5400455383\H,0,13.5630274576,0.9793376446,0.4231552264\
 H,0,13.7867228993,-0.5838848163,1.1190487508\H,0,15.2407564198,0.24581
 57877,-1.4044024535\H,0,14.8979853514,-2.2077233541,-1.4301423474\H,0,
 16.5974436179,-1.7601300496,-1.1644922331\H,0,15.3370289817,-2.3668818
 208,0.2798372551\H,0,15.8869689701,1.5673333036,0.3605665157\H,0,16.38
 78634431,0.25926655,1.5380972323\H,0,18.1933205538,-0.2616603765,-0.38
 68085487\H,0,17.5130358892,1.1620680951,-1.3073591684\H,0,18.201184808
 ,2.6612525212,0.4072961193\H,0,18.6983420884,1.2564114506,1.5052776778
 \H,0,20.5783141638,0.4435923202,0.3168928455\H,0,19.6938267393,2.82245
 05152,-1.6487767801\H,0,21.3096682105,1.9846565354,-1.7851116178\H,0,2
 0.1242473977,1.1499006118,-2.1686490464\H,0,20.7482400605,2.0131427823
 ,1.9884998866\H,0,22.0698498422,2.4999200194,0.9762317803\H,0,20.41404
 10335,3.5196951691,0.9586446024\H,0,-7.0813099641,1.7600448777,0.26420
 82669\H,0,-7.5263341818,-0.2156617422,0.0077606485\\Version=ES64L-G09R
 evD.01\State=1-A\HF=-2733.080607\RMSD=4.793e-09\PG=C01 [X(C55H74N4O5)]
 \\@


 IT IS BY LOGIC THAT WE PROVE, BUT BY INTUITION THAT WE DISCOVER.
     -- J.H.POINCARE (1854-1912)
 Job cpu time:       0 days  5 hours 41 minutes 15.6 seconds.
 File lengths (MBytes):  RWF=   1953 Int=      0 D2E=      0 Chk=    148 Scr=      1
 Normal termination of Gaussian 09 at Fri Aug  2 01:44:03 2019.
