 Entering Gaussian System, Link 0=g16
 Input=Geometria-258-.com
 Output=Geometria-258-.log
 Initial command:
 /usr/local/g09/l1.exe "/home/padawan/israel-mol/pheophytin/spectra/abs/Gau-101921.inp" -scrdir="/home/padawan/israel-mol/pheophytin/spectra/abs/"
 Entering Link 1 = /usr/local/g09/l1.exe PID=    101923.
  
 Copyright (c) 1988,1990,1992,1993,1995,1998,2003,2009,2013,
            Gaussian, Inc.  All Rights Reserved.
  
 This is part of the Gaussian(R) 09 program.  It is based on
 the Gaussian(R) 03 system (copyright 2003, Gaussian, Inc.),
 the Gaussian(R) 98 system (copyright 1998, Gaussian, Inc.),
 the Gaussian(R) 94 system (copyright 1995, Gaussian, Inc.),
 the Gaussian 92(TM) system (copyright 1992, Gaussian, Inc.),
 the Gaussian 90(TM) system (copyright 1990, Gaussian, Inc.),
 the Gaussian 88(TM) system (copyright 1988, Gaussian, Inc.),
 the Gaussian 86(TM) system (copyright 1986, Carnegie Mellon
 University), and the Gaussian 82(TM) system (copyright 1983,
 Carnegie Mellon University). Gaussian is a federally registered
 trademark of Gaussian, Inc.
  
 This software contains proprietary and confidential information,
 including trade secrets, belonging to Gaussian, Inc.
  
 This software is provided under written license and may be
 used, copied, transmitted, or stored only in accord with that
 written license.
  
 The following legend is applicable only to US Government
 contracts under FAR:
  
                    RESTRICTED RIGHTS LEGEND
  
 Use, reproduction and disclosure by the US Government is
 subject to restrictions as set forth in subparagraphs (a)
 and (c) of the Commercial Computer Software - Restricted
 Rights clause in FAR 52.227-19.
  
 Gaussian, Inc.
 340 Quinnipiac St., Bldg. 40, Wallingford CT 06492
  
  
 ---------------------------------------------------------------
 Warning -- This program may not be used in any manner that
 competes with the business of Gaussian, Inc. or will provide
 assistance to any competitor of Gaussian, Inc.  The licensee
 of this program is prohibited from giving any competitor of
 Gaussian, Inc. access to this program.  By using this program,
 the user acknowledges that Gaussian, Inc. is engaged in the
 business of creating and licensing software in the field of
 computational chemistry and represents and warrants to the
 licensee that it is not a competitor of Gaussian, Inc. and that
 it will not use this program in any manner prohibited above.
 ---------------------------------------------------------------
  

 Cite this work as:
 Gaussian 09, Revision D.01,
 M. J. Frisch, G. W. Trucks, H. B. Schlegel, G. E. Scuseria, 
 M. A. Robb, J. R. Cheeseman, G. Scalmani, V. Barone, B. Mennucci, 
 G. A. Petersson, H. Nakatsuji, M. Caricato, X. Li, H. P. Hratchian, 
 A. F. Izmaylov, J. Bloino, G. Zheng, J. L. Sonnenberg, M. Hada, 
 M. Ehara, K. Toyota, R. Fukuda, J. Hasegawa, M. Ishida, T. Nakajima, 
 Y. Honda, O. Kitao, H. Nakai, T. Vreven, J. A. Montgomery, Jr., 
 J. E. Peralta, F. Ogliaro, M. Bearpark, J. J. Heyd, E. Brothers, 
 K. N. Kudin, V. N. Staroverov, T. Keith, R. Kobayashi, J. Normand, 
 K. Raghavachari, A. Rendell, J. C. Burant, S. S. Iyengar, J. Tomasi, 
 M. Cossi, N. Rega, J. M. Millam, M. Klene, J. E. Knox, J. B. Cross, 
 V. Bakken, C. Adamo, J. Jaramillo, R. Gomperts, R. E. Stratmann, 
 O. Yazyev, A. J. Austin, R. Cammi, C. Pomelli, J. W. Ochterski, 
 R. L. Martin, K. Morokuma, V. G. Zakrzewski, G. A. Voth, 
 P. Salvador, J. J. Dannenberg, S. Dapprich, A. D. Daniels, 
 O. Farkas, J. B. Foresman, J. V. Ortiz, J. Cioslowski, 
 and D. J. Fox, Gaussian, Inc., Wallingford CT, 2013.
 
 ******************************************
 Gaussian 09:  ES64L-G09RevD.01 24-Apr-2013
                 2-Aug-2019 
 ******************************************
 %nproc=3
 Will use up to    3 processors via shared memory.
 %Mem=2GB
 --------------------------
 # td=(NStates=1) B3LYP/SVP
 --------------------------
 1/38=1/1;
 2/12=2,17=6,18=5,40=1/2;
 3/5=18,7=101,11=9,16=1,25=1,30=1,74=-5/1,2,8,3;
 4//1;
 5/5=2,38=5/2;
 8/6=1,10=1,108=1/1;
 9/41=1,42=1,70=2/14;
 6/7=2,8=2,9=2,10=2/1;
 99/5=1,9=1/99;
 --
 TD
 --
 Symbolic Z-matrix:
 Charge =  0 Multiplicity = 1
 6                    -5.15996  -1.93593   0.37428 
 6                    -4.66693   2.83777   1.44792 
 6                    -9.25671   3.42197  -0.21701 
 6                    -9.77427  -1.25726  -1.15812 
 7                    -5.02135   0.36651   0.68024 
 6                    -4.41233  -0.81695   0.77536 
 6                    -3.02551  -0.67231   1.24679 
 6                    -3.03071   0.80921   1.83065 
 6                    -4.34856   1.43898   1.2807 
 6                    -2.98569   0.7791    3.38204 
 6                    -2.01223  -0.83904   0.17181 
 6                    -0.55657  -0.90987   0.5764 
 6                     0.38778  -1.18445  -0.55259 
 8                     0.02566  -1.63554  -1.61431 
 8                     1.74364  -0.91432  -0.24372 
 7                    -6.97479   2.70998   0.51845 
 6                    -5.87047   3.38975   1.03234 
 6                    -6.12037   4.68688   1.11702 
 6                    -7.46589   4.91946   0.61499 
 6                    -7.89444   3.64207   0.28508 
 6                    -5.10461   5.78507   1.4734 
 6                    -8.21876   6.12394   0.46766 
 6                    -8.90195   6.58388  -0.6778 
 7                    -9.12675   0.98443  -0.64059 
 6                    -9.84403   2.14805  -0.55266 
 6                    -11.2337   1.9839   -0.91854 
 6                    -11.37367   0.62102  -1.1824 
 6                    -10.11024   0.09673  -0.98563 
 6                    -12.34565   3.04371  -0.89691 
 6                    -12.6419  -0.12881  -1.65795 
 6                    -12.74575  -0.44793  -3.11386 
 7                    -7.49825  -1.23672  -0.12649 
 6                    -8.61663  -1.91274  -0.79697 
 6                    -8.22272  -3.32676  -0.71749 
 6                    -6.95373  -3.35003  -0.33229 
 6                    -6.54052  -2.04158   0.04798 
 6                    -9.08159  -4.51564  -1.28336 
 6                    -5.86955  -4.29205   0.13629 
 8                    -5.97448  -5.51112   0.06249 
 6                    -4.66576  -3.41794   0.46385 
 6                    -4.09844  -3.88051   1.9102 
 8                    -4.54586  -3.51549   2.98531 
 8                    -3.23547  -4.89777   1.73236 
 6                    -2.92475  -5.55295   2.9864 
 6                     2.75933  -1.22669  -1.20817 
 6                     4.02929  -0.68413  -0.6299 
 6                     5.05026  -0.04256  -1.14005 
 6                     4.91385   0.44635  -2.5884 
 6                     6.27437   0.22279  -0.4372 
 6                     7.49602  -0.49026  -1.06108 
 6                     8.83623  -0.07522  -0.23069 
 6                     10.11518  -0.78     -0.82033 
 6                     10.03147  -2.29666  -0.81924 
 6                     11.3726  -0.2255   -0.05334 
 6                     12.70469  -0.69253  -0.62465 
 6                     13.85767   0.09724   0.06454 
 6                     15.24888  -0.07227  -0.48281 
 6                     15.72132  -1.62861  -0.15876 
 6                     16.29535   0.81563   0.26815 
 6                     17.74137   0.78403  -0.24082 
 6                     18.58119   1.61697   0.6473 
 6                     20.13561   1.83215   0.08894 
 6                     20.22828   2.62898  -1.1861 
 6                     20.90041   2.62355   1.17419 
 1                    -4.05095   3.41856   1.95279 
 1                    -9.8025    4.20137  -0.2261 
 1                    -10.60421  -1.98699  -1.31287 
 1                    -2.88989  -1.49405   2.09178 
 1                    -2.07253   1.24955   1.45572 
 1                    -2.0432    0.46497   3.6863 
 1                    -2.79534   1.81398   3.69136 
 1                    -3.75925   0.40466   3.86906 
 1                    -2.07245  -1.64797  -0.59489 
 1                    -2.13137  -0.19737  -0.55558 
 1                    -0.18006   0.02021   0.89409 
 1                    -0.35594  -1.70035   1.43608 
 1                    -4.21597   5.90834   0.84722 
 1                    -5.66951   6.71745   1.30008 
 1                    -4.93195   5.66952   2.49584 
 1                    -8.18408   6.81514   1.36021 
 1                    -9.22485   6.15356  -1.63063 
 1                    -9.50752   7.43918  -0.65061 
 1                    -12.39625   3.72151   0.00466 
 1                    -12.33267   3.53619  -1.83436 
 1                    -13.41129   2.65213  -0.8471 
 1                    -12.84048  -1.07803  -1.23524 
 1                    -13.50207   0.64241  -1.20698 
 1                    -12.68159   0.41329  -3.73569 
 1                    -11.85029  -1.02945  -3.45713 
 1                    -13.56175  -1.05181  -3.43144 
 1                    -10.32185  -4.69459  -0.96442 
 1                    -9.00248  -4.39023  -2.56815 
 1                    -8.29385  -5.28677  -1.27277 
 1                    -3.99708  -3.59265  -0.2455 
 1                    -2.2321   -6.27455   2.72208 
 1                    -2.3861   -4.99243   3.59971 
 1                    -3.86133  -5.90485   3.54191 
 1                     2.66308  -2.38951  -1.51203 
 1                     2.24955  -0.6239   -2.09692 
 1                     4.26009  -1.05008   0.44907 
 1                     5.10629   1.62388  -2.74842 
 1                     5.71863  -0.0493   -3.19864 
 1                     3.96639   0.0021   -2.8927 
 1                     6.40507   1.23301  -0.54288 
 1                     6.00586  -0.07206   0.47818 
 1                     7.4594   -1.47928  -1.18381 
 1                     7.81234   0.13098  -2.01359 
 1                     9.06793   1.11242  -0.14239 
 1                     8.53808  -0.36025   0.98092 
 1                     9.97     -0.50862  -1.91672 
 1                     9.36143  -2.45973  -1.46863 
 1                     10.87107  -2.76988  -1.28159 
 1                     10.01219  -2.79941   0.30869 
 1                     11.38389   0.78836  -0.13331 
 1                     11.65925  -0.67642   0.97351 
 1                     12.7356  -1.77747  -0.65099 
 1                     12.652   -0.4266   -1.78971 
 1                     13.76378   1.24819  -0.07068 
 1                     13.92701  -0.261     1.23768 
 1                     15.21476  -0.00061  -1.62118 
 1                     14.95742  -2.34764  -0.48004 
 1                     16.72046  -2.01776  -0.75782 
 1                     15.6511  -1.8033    0.98465 
 1                     15.93113   1.90504   0.27864 
 1                     16.34442   0.47229   1.33549 
 1                     18.1253  -0.29873  -0.17554 
 1                     17.74888   0.98742  -1.26853 
 1                     18.26012   2.70262   0.78241 
 1                     18.83032   1.13687   1.65349 
 1                     20.43232   0.74344  -0.13281 
 1                     19.71773   3.65245  -1.08687 
 1                     21.42165   2.75778  -1.68072 
 1                     19.77902   2.13707  -2.34893 
 1                     20.57594   2.30854   2.34597 
 1                     22.05012   2.59142   0.99214 
 1                     20.80754   3.80374   1.20029 
 1                    -6.90268   1.81075   0.23756 
 1                    -7.34884  -0.12643  -0.13532 
 
 Stoichiometry    C55H74N4O5
 Framework group  C1[X(C55H74N4O5)]
 Deg. of freedom   408
 Full point group                 C1      NOp   1
 Largest Abelian subgroup         C1      NOp   1
 Largest concise Abelian subgroup C1      NOp   1
                         Standard orientation:                         
 ---------------------------------------------------------------------
 Center     Atomic      Atomic             Coordinates (Angstroms)
 Number     Number       Type             X           Y           Z
 ---------------------------------------------------------------------
      1          6           0       -5.169890   -1.916014    0.354022
      2          6           0       -4.654484    2.845015    1.472483
      3          6           0       -9.240130    3.467022   -0.190138
      4          6           0       -9.779699   -1.200658   -1.175211
      5          7           0       -5.020329    0.382770    0.681534
      6          6           0       -4.417131   -0.804469    0.766043
      7          6           0       -3.029980   -0.670979    1.239770
      8          6           0       -3.028418    0.805044    1.837422
      9          6           0       -4.342791    1.446317    1.292447
     10          6           0       -2.984699    0.760248    3.388489
     11          6           0       -2.016721   -0.832604    0.163987
     12          6           0       -0.561720   -0.914274    0.568922
     13          6           0        0.382128   -1.182900   -0.561916
     14          8           0        0.018616   -1.622306   -1.628049
     15          8           0        1.739055   -0.922259   -0.249591
     16          7           0       -6.962249    2.737116    0.540247
     17          6           0       -5.855022    3.406693    1.061231
     18          6           0       -6.098681    4.704169    1.157825
     19          6           0       -7.442682    4.947963    0.657044
     20          6           0       -7.877187    3.675805    0.314935
     21          6           0       -5.077873    5.794046    1.525143
     22          6           0       -8.189589    6.157406    0.520426
     23          6           0       -8.869684    6.631324   -0.621168
     24          7           0       -9.121695    1.032927   -0.636340
     25          6           0       -9.833381    2.199151   -0.538070
     26          6           0      -11.223557    2.045182   -0.906429
     27          6           0      -11.369949    0.685516   -1.183095
     28          6           0      -10.109228    0.153278   -0.990338
     29          6           0      -12.330371    3.110139   -0.875700
     30          6           0      -12.641451   -0.053668   -1.666498
     31          6           0      -12.745767   -0.358694   -3.125397
     32          7           0       -7.504379   -1.200802   -0.141844
     33          6           0       -8.625532   -1.865101   -0.819385
     34          6           0       -8.238553   -3.281698   -0.752823
     35          6           0       -6.969973   -3.314730   -0.366965
     36          6           0       -6.550694   -2.011902    0.025782
     37          6           0       -9.102759   -4.461064   -1.330351
     38          6           0       -5.890733   -4.266340    0.093572
     39          8           0       -6.001518   -5.484140    0.008326
     40          6           0       -4.682958   -3.401182    0.430104
     41          6           0       -4.118967   -3.879970    1.872475
     42          8           0       -4.565407   -3.522816    2.950629
     43          8           0       -3.260812   -4.899713    1.685765
     44          6           0       -2.954206   -5.568060    2.933853
     45          6           0        2.753929   -1.230555   -1.216210
     46          6           0        4.026075   -0.699593   -0.632006
     47          6           0        5.050528   -0.058270   -1.135439
     48          6           0        4.917576    0.444779   -2.579259
     49          6           0        6.275390    0.194565   -0.429293
     50          6           0        7.494030   -0.518564   -1.058942
     51          6           0        8.835614   -0.117810   -0.223778
     52          6           0       10.111574   -0.823272   -0.819068
     53          6           0       10.020498   -2.339453   -0.832185
     54          6           0       11.371098   -0.282062   -0.046057
     55          6           0       12.701331   -0.750223   -0.620767
     56          6           0       13.857620    0.027480    0.076562
     57          6           0       15.248398   -0.143682   -0.471372
     58          6           0       15.713033   -1.705257   -0.161525
     59          6           0       16.298603    0.732075    0.288566
     60          6           0       17.744830    0.698197   -0.219658
     61          6           0       18.588022    1.518723    0.676773
     62          6           0       20.143880    1.731545    0.121537
     63          6           0       20.241375    2.539767   -1.145948
     64          6           0       20.911711    2.509067    1.214655
     65          1           0       -4.036073    3.418074    1.983178
     66          1           0       -9.782126    4.249111   -0.192343
     67          1           0      -10.613066   -1.924870   -1.337343
     68          1           0       -2.898979   -1.501207    2.077154
     69          1           0       -2.067833    1.244192    1.467282
     70          1           0       -2.043980    0.438724    3.690466
     71          1           0       -2.789556    1.791262    3.707584
     72          1           0       -3.760429    0.385048    3.871460
     73          1           0       -2.080296   -1.634043   -0.610266
     74          1           0       -2.132196   -0.183608   -0.557467
     75          1           0       -0.180941    0.010957    0.895536
     76          1           0       -0.365567   -1.713704    1.421333
     77          1           0       -4.188174    5.918819    0.900761
     78          1           0       -5.638112    6.730729    1.360133
     79          1           0       -4.906538    5.668131    2.546587
     80          1           0       -8.152223    6.840083    1.419410
     81          1           0       -9.193959    6.211478   -1.578200
     82          1           0       -9.471112    7.489271   -0.586420
     83          1           0      -12.378352    3.779740    0.032123
     84          1           0      -12.314295    3.611263   -1.808506
     85          1           0      -13.397935    2.723297   -0.830286
     86          1           0      -12.844946   -1.005813   -1.252801
     87          1           0      -13.498197    0.717480   -1.208963
     88          1           0      -12.676962    0.507960   -3.739123
     89          1           0      -11.852880   -0.941337   -3.473454
     90          1           0      -13.564450   -0.955619   -3.449167
     91          1           0      -10.344108   -4.636945   -1.013963
     92          1           0       -9.022087   -4.324061   -2.613866
     93          1           0       -8.318783   -5.236074   -1.326400
     94          1           0       -4.014603   -3.572513   -0.280368
     95          1           0       -2.264877   -6.290521    2.663294
     96          1           0       -2.413298   -5.015906    3.552745
     97          1           0       -3.892899   -5.920558    3.485402
     98          1           0        2.652263   -2.390010   -1.530967
     99          1           0        2.247745   -0.617038   -2.099648
    100          1           0        4.254294   -1.076703    0.443662
    101          1           0        5.115851    1.622809   -2.728158
    102          1           0        5.720392   -0.049061   -3.193537
    103          1           0        3.968193    0.008002   -2.888356
    104          1           0        6.411071    1.205078   -0.525456
    105          1           0        6.004769   -0.107496    0.483108
    106          1           0        7.452702   -1.506216   -1.190913
    107          1           0        7.814072    0.109975   -2.005388
    108          1           0        9.073018    1.067816   -0.124245
    109          1           0        8.535183   -0.412670    0.984915
    110          1           0        9.968527   -0.540975   -1.912978
    111          1           0        9.350155   -2.493203   -1.483531
    112          1           0       10.858138   -2.812413   -1.298339
    113          1           0        9.997934   -2.852596    0.290997
    114          1           0       11.387372    0.732428   -0.116568
    115          1           0       11.654791   -0.743930    0.976736
    116          1           0       12.726989   -1.835002   -0.657205
    117          1           0       12.650802   -0.473187   -1.783336
    118          1           0       13.769413    1.180085   -0.047986
    119          1           0       13.924339   -0.342020    1.246359
    120          1           0       15.215474   -0.061247   -1.609050
    121          1           0       14.945890   -2.417534   -0.490025
    122          1           0       16.710712   -2.093652   -0.763486
    123          1           0       15.641112   -1.890251    0.980159
    124          1           0       15.939671    1.823098    0.308964
    125          1           0       16.345209    0.378565    1.352692
    126          1           0       18.123455   -0.386984   -0.164211
    127          1           0       17.754093    0.911121   -1.245418
    128          1           0       18.272127    2.604614    0.821786
    129          1           0       18.834065    1.028060    1.678622
    130          1           0       20.435470    0.643521   -0.110153
    131          1           0       19.735722    3.564741   -1.037537
    132          1           0       21.435720    2.667374   -1.638514
    133          1           0       19.790598    2.060909   -2.313630
    134          1           0       20.584843    2.184725    2.383215
    135          1           0       22.061382    2.473042    1.033122
    136          1           0       20.824550    3.689400    1.251696
    137          1           0       -6.894296    1.840206    0.251027
    138          1           0       -7.349572   -0.091225   -0.140216
 ---------------------------------------------------------------------
 Rotational constants (GHZ):      0.0625997      0.0061300      0.0057643
 Standard basis: SVP (5D, 7F)
 There are  1330 symmetry adapted cartesian basis functions of A   symmetry.
 There are  1266 symmetry adapted basis functions of A   symmetry.
  1266 basis functions,  2118 primitive gaussians,  1330 cartesian basis functions
   236 alpha electrons      236 beta electrons
       nuclear repulsion energy      8276.5136520691 Hartrees.
 NAtoms=  138 NActive=  138 NUniq=  138 SFac= 1.00D+00 NAtFMM=   60 NAOKFM=T Big=T
 Integral buffers will be    131072 words long.
 Regular integral format.
 Two-electron integral symmetry is turned on.
 One-electron integrals computed using PRISM.
 NBasis=  1266 RedAO= T EigKep=  2.75D-04  NBF=  1266
 NBsUse=  1266 1.00D-06 EigRej= -1.00D+00 NBFU=  1266
 ExpMin= 1.22D-01 ExpMax= 2.27D+03 ExpMxC= 3.41D+02 IAcc=1 IRadAn=         1 AccDes= 0.00D+00
 Harris functional with IExCor=  402 and IRadAn=       1 diagonalized for initial guess.
 HarFok:  IExCor=  402 AccDes= 0.00D+00 IRadAn=         1 IDoV= 1 UseB2=F ITyADJ=14
 ICtDFT=  3500011 ScaDFX=  1.000000  1.000000  1.000000  1.000000
 FoFCou: FMM=F IPFlag=           0 FMFlag=      100000 FMFlg1=        2001
         NFxFlg=           0 DoJE=T BraDBF=F KetDBF=T FulRan=T
         wScrn=  0.000000 ICntrl=     500 IOpCl=  0 I1Cent=   200000004 NGrid=           0
         NMat0=    1 NMatS0=      1 NMatT0=    0 NMatD0=    1 NMtDS0=    0 NMtDT0=    0
 Petite list used in FoFCou.
 Requested convergence on RMS density matrix=1.00D-08 within 128 cycles.
 Requested convergence on MAX density matrix=1.00D-06.
 Requested convergence on             energy=1.00D-06.
 No special actions if energy rises.
 Integral accuracy reduced to 1.0D-05 until final iterations.
 Initial convergence to 1.0D-05 achieved.  Increase integral accuracy.
 SCF Done:  E(RB3LYP) =  -2732.96121743     A.U. after   17 cycles
            NFock= 17  Conv=0.56D-08     -V/T= 2.0115
 DoSCS=F DFT=T ScalE2(SS,OS)=  1.000000  1.000000
 ExpMin= 1.22D-01 ExpMax= 2.27D+03 ExpMxC= 3.41D+02 IAcc=3 IRadAn=         5 AccDes= 0.00D+00
 HarFok:  IExCor=  205 AccDes= 0.00D+00 IRadAn=         5 IDoV=-2 UseB2=F ITyADJ=14
 ICtDFT= 12500011 ScaDFX=  1.000000  1.000000  1.000000  1.000000
 Range of M.O.s used for correlation:    65  1266
 NBasis=  1266 NAE=   236 NBE=   236 NFC=    64 NFV=     0
 NROrb=   1202 NOA=   172 NOB=   172 NVA=  1030 NVB=  1030

 **** Warning!!: The smallest alpha delta epsilon is  0.87750901D-01

 Would need an additional        965744300000 words for in-memory AO integral storage.
 Orbital symmetries:
       Occupied  (A) (A) (A) (A) (A) (A) (A) (A) (A) (A) (A) (A)
                 (A) (A) (A) (A) (A) (A) (A) (A) (A) (A) (A) (A)
                 (A) (A) (A) (A) (A) (A) (A) (A) (A) (A) (A) (A)
                 (A) (A) (A) (A) (A) (A) (A) (A) (A) (A) (A) (A)
                 (A) (A) (A) (A) (A) (A) (A) (A) (A) (A) (A) (A)
                 (A) (A) (A) (A) (A) (A) (A) (A) (A) (A) (A) (A)
                 (A) (A) (A) (A) (A) (A) (A) (A) (A) (A) (A) (A)
                 (A) (A) (A) (A) (A) (A) (A) (A) (A) (A) (A) (A)
                 (A) (A) (A) (A) (A) (A) (A) (A) (A) (A) (A) (A)
                 (A) (A) (A) (A) (A) (A) (A) (A) (A) (A) (A) (A)
                 (A) (A) (A) (A) (A) (A) (A) (A) (A) (A) (A) (A)
                 (A) (A) (A) (A) (A) (A) (A) (A) (A) (A) (A) (A)
                 (A) (A) (A) (A) (A) (A) (A) (A) (A) (A) (A) (A)
                 (A) (A) (A) (A) (A) (A) (A) (A) (A) (A) (A) (A)
                 (A) (A) (A) (A) (A) (A) (A) (A) (A) (A) (A) (A)
                 (A) (A) (A) (A) (A) (A) (A) (A) (A) (A) (A) (A)
                 (A) (A) (A) (A) (A) (A) (A) (A) (A) (A) (A) (A)
                 (A) (A) (A) (A) (A) (A) (A) (A) (A) (A) (A) (A)
                 (A) (A) (A) (A) (A) (A) (A) (A) (A) (A) (A) (A)
                 (A) (A) (A) (A) (A) (A) (A) (A)
       Virtual   (A) (A) (A) (A) (A) (A) (A) (A) (A) (A) (A) (A)
                 (A) (A) (A) (A) (A) (A) (A) (A) (A) (A) (A) (A)
                 (A) (A) (A) (A) (A) (A) (A) (A) (A) (A) (A) (A)
                 (A) (A) (A) (A) (A) (A) (A) (A) (A) (A) (A) (A)
                 (A) (A) (A) (A) (A) (A) (A) (A) (A) (A) (A) (A)
                 (A) (A) (A) (A) (A) (A) (A) (A) (A) (A) (A) (A)
                 (A) (A) (A) (A) (A) (A) (A) (A) (A) (A) (A) (A)
                 (A) (A) (A) (A) (A) (A) (A) (A) (A) (A) (A) (A)
                 (A) (A) (A) (A) (A) (A) (A) (A) (A) (A) (A) (A)
                 (A) (A) (A) (A) (A) (A) (A) (A) (A) (A) (A) (A)
                 (A) (A) (A) (A) (A) (A) (A) (A) (A) (A) (A) (A)
                 (A) (A) (A) (A) (A) (A) (A) (A) (A) (A) (A) (A)
                 (A) (A) (A) (A) (A) (A) (A) (A) (A) (A) (A) (A)
                 (A) (A) (A) (A) (A) (A) (A) (A) (A) (A) (A) (A)
                 (A) (A) (A) (A) (A) (A) (A) (A) (A) (A) (A) (A)
                 (A) (A) (A) (A) (A) (A) (A) (A) (A) (A) (A) (A)
                 (A) (A) (A) (A) (A) (A) (A) (A) (A) (A) (A) (A)
                 (A) (A) (A) (A) (A) (A) (A) (A) (A) (A) (A) (A)
                 (A) (A) (A) (A) (A) (A) (A) (A) (A) (A) (A) (A)
                 (A) (A) (A) (A) (A) (A) (A) (A) (A) (A) (A) (A)
                 (A) (A) (A) (A) (A) (A) (A) (A) (A) (A) (A) (A)
                 (A) (A) (A) (A) (A) (A) (A) (A) (A) (A) (A) (A)
                 (A) (A) (A) (A) (A) (A) (A) (A) (A) (A) (A) (A)
                 (A) (A) (A) (A) (A) (A) (A) (A) (A) (A) (A) (A)
                 (A) (A) (A) (A) (A) (A) (A) (A) (A) (A) (A) (A)
                 (A) (A) (A) (A) (A) (A) (A) (A) (A) (A) (A) (A)
                 (A) (A) (A) (A) (A) (A) (A) (A) (A) (A) (A) (A)
                 (A) (A) (A) (A) (A) (A) (A) (A) (A) (A) (A) (A)
                 (A) (A) (A) (A) (A) (A) (A) (A) (A) (A) (A) (A)
                 (A) (A) (A) (A) (A) (A) (A) (A) (A) (A) (A) (A)
                 (A) (A) (A) (A) (A) (A) (A) (A) (A) (A) (A) (A)
                 (A) (A) (A) (A) (A) (A) (A) (A) (A) (A) (A) (A)
                 (A) (A) (A) (A) (A) (A) (A) (A) (A) (A) (A) (A)
                 (A) (A) (A) (A) (A) (A) (A) (A) (A) (A) (A) (A)
                 (A) (A) (A) (A) (A) (A) (A) (A) (A) (A) (A) (A)
                 (A) (A) (A) (A) (A) (A) (A) (A) (A) (A) (A) (A)
                 (A) (A) (A) (A) (A) (A) (A) (A) (A) (A) (A) (A)
                 (A) (A) (A) (A) (A) (A) (A) (A) (A) (A) (A) (A)
                 (A) (A) (A) (A) (A) (A) (A) (A) (A) (A) (A) (A)
                 (A) (A) (A) (A) (A) (A) (A) (A) (A) (A) (A) (A)
                 (A) (A) (A) (A) (A) (A) (A) (A) (A) (A) (A) (A)
                 (A) (A) (A) (A) (A) (A) (A) (A) (A) (A) (A) (A)
                 (A) (A) (A) (A) (A) (A) (A) (A) (A) (A) (A) (A)
                 (A) (A) (A) (A) (A) (A) (A) (A) (A) (A) (A) (A)
                 (A) (A) (A) (A) (A) (A) (A) (A) (A) (A) (A) (A)
                 (A) (A) (A) (A) (A) (A) (A) (A) (A) (A) (A) (A)
                 (A) (A) (A) (A) (A) (A) (A) (A) (A) (A) (A) (A)
                 (A) (A) (A) (A) (A) (A) (A) (A) (A) (A) (A) (A)
                 (A) (A) (A) (A) (A) (A) (A) (A) (A) (A) (A) (A)
                 (A) (A) (A) (A) (A) (A) (A) (A) (A) (A) (A) (A)
                 (A) (A) (A) (A) (A) (A) (A) (A) (A) (A) (A) (A)
                 (A) (A) (A) (A) (A) (A) (A) (A) (A) (A) (A) (A)
                 (A) (A) (A) (A) (A) (A) (A) (A) (A) (A) (A) (A)
                 (A) (A) (A) (A) (A) (A) (A) (A) (A) (A) (A) (A)
                 (A) (A) (A) (A) (A) (A) (A) (A) (A) (A) (A) (A)
                 (A) (A) (A) (A) (A) (A) (A) (A) (A) (A) (A) (A)
                 (A) (A) (A) (A) (A) (A) (A) (A) (A) (A) (A) (A)
                 (A) (A) (A) (A) (A) (A) (A) (A) (A) (A) (A) (A)
                 (A) (A) (A) (A) (A) (A) (A) (A) (A) (A) (A) (A)
                 (A) (A) (A) (A) (A) (A) (A) (A) (A) (A) (A) (A)
                 (A) (A) (A) (A) (A) (A) (A) (A) (A) (A) (A) (A)
                 (A) (A) (A) (A) (A) (A) (A) (A) (A) (A) (A) (A)
                 (A) (A) (A) (A) (A) (A) (A) (A) (A) (A) (A) (A)
                 (A) (A) (A) (A) (A) (A) (A) (A) (A) (A) (A) (A)
                 (A) (A) (A) (A) (A) (A) (A) (A) (A) (A) (A) (A)
                 (A) (A) (A) (A) (A) (A) (A) (A) (A) (A) (A) (A)
                 (A) (A) (A) (A) (A) (A) (A) (A) (A) (A) (A) (A)
                 (A) (A) (A) (A) (A) (A) (A) (A) (A) (A) (A) (A)
                 (A) (A) (A) (A) (A) (A) (A) (A) (A) (A) (A) (A)
                 (A) (A) (A) (A) (A) (A) (A) (A) (A) (A) (A) (A)
                 (A) (A) (A) (A) (A) (A) (A) (A) (A) (A) (A) (A)
                 (A) (A) (A) (A) (A) (A) (A) (A) (A) (A) (A) (A)
                 (A) (A) (A) (A) (A) (A) (A) (A) (A) (A) (A) (A)
                 (A) (A) (A) (A) (A) (A) (A) (A) (A) (A) (A) (A)
                 (A) (A) (A) (A) (A) (A) (A) (A) (A) (A) (A) (A)
                 (A) (A) (A) (A) (A) (A) (A) (A) (A) (A) (A) (A)
                 (A) (A) (A) (A) (A) (A) (A) (A) (A) (A) (A) (A)
                 (A) (A) (A) (A) (A) (A) (A) (A) (A) (A) (A) (A)
                 (A) (A) (A) (A) (A) (A) (A) (A) (A) (A) (A) (A)
                 (A) (A) (A) (A) (A) (A) (A) (A) (A) (A) (A) (A)
                 (A) (A) (A) (A) (A) (A) (A) (A) (A) (A) (A) (A)
                 (A) (A) (A) (A) (A) (A) (A) (A) (A) (A) (A) (A)
                 (A) (A) (A) (A) (A) (A) (A) (A) (A) (A) (A) (A)
                 (A) (A) (A) (A) (A) (A) (A) (A) (A) (A) (A) (A)
                 (A) (A) (A) (A) (A) (A) (A) (A) (A) (A) (A) (A)
                 (A) (A) (A) (A) (A) (A) (A) (A) (A) (A)
     8 initial guesses have been made.
 Convergence on wavefunction:    0.001000000000000
 Iteration     1 Dimension     8 NMult     0 NNew      8
 CISAX will form     8 AO SS matrices at one time.
 New state      1 was old state      2
 Iteration     2 Dimension    12 NMult     8 NNew      4
 Iteration     3 Dimension    16 NMult    12 NNew      4
 Iteration     4 Dimension    20 NMult    16 NNew      4
 Iteration     5 Dimension    24 NMult    20 NNew      4
 Iteration     6 Dimension    28 NMult    24 NNew      4
 ***********************************************************************
 Excited states from <AA,BB:AA,BB> singles matrix:
 ***********************************************************************
 
 Ground to excited state transition densities written to RWF  633
 Ground to excited state transition electric dipole moments (Au):
       state          X           Y           Z        Dip. S.      Osc.
         1         0.5061      1.3017      0.3157      2.0503      0.1040
 Ground to excited state transition velocity dipole moments (Au):
       state          X           Y           Z        Dip. S.      Osc.
         1        -0.0358     -0.0965     -0.0227      0.0111      0.0974
 Ground to excited state transition magnetic dipole moments (Au):
       state          X           Y           Z
         1        -0.3529     -0.4921      2.4192
 Ground to excited state transition velocity quadrupole moments (Au):
       state          XX          YY          ZZ          XY          XZ          YZ
         1         0.9994     -0.2390     -0.0282      1.1958      0.2864     -0.0576
 <0|del|b> * <b|rxdel|0> + <0|del|b> * <b|delr+rdel|0>
 Rotatory Strengths (R) in cgs (10**-40 erg-esu-cm/Gauss)
       state          XX          YY          ZZ    R(velocity)    E-M Angle
         1       -32.4655    -60.7647    141.3846     16.0515       88.87
 1/2[<0|r|b>*<b|rxdel|0> + (<0|rxdel|b>*<b|r|0>)*]
 Rotatory Strengths (R) in cgs (10**-40 erg-esu-cm/Gauss)
       state          XX          YY          ZZ     R(length)
         1       126.3076    452.9664   -540.0424     13.0772
  1/2[<0|del|b>*<b|r|0> + (<0|r|b>*<b|del|0>)*] (Au)
       state          X           Y           Z        Dip. S.   Osc.(frdel)
         1        -0.0181     -0.1256     -0.0072      0.1510      0.1006

 Excitation energies and oscillator strengths:
 
 Excited State   1:      Singlet-A      2.0711 eV  598.64 nm  f=0.1040  <S**2>=0.000
     235 -> 237       -0.35847
     235 -> 238        0.26299
     236 -> 237        0.48651
     236 -> 238        0.24368
 This state for optimization and/or second-order correction.
 Total Energy, E(TD-HF/TD-KS) =  -2732.88510549    
 Copying the excited state density for this state as the 1-particle RhoCI density.
 SavETr:  write IOETrn=   770 NScale= 10 NData=  16 NLR=1 NState=    1 LETran=      28.

 **********************************************************************

            Population analysis using the SCF density.

 **********************************************************************

 Orbital symmetries:
       Occupied  (A) (A) (A) (A) (A) (A) (A) (A) (A) (A) (A) (A)
                 (A) (A) (A) (A) (A) (A) (A) (A) (A) (A) (A) (A)
                 (A) (A) (A) (A) (A) (A) (A) (A) (A) (A) (A) (A)
                 (A) (A) (A) (A) (A) (A) (A) (A) (A) (A) (A) (A)
                 (A) (A) (A) (A) (A) (A) (A) (A) (A) (A) (A) (A)
                 (A) (A) (A) (A) (A) (A) (A) (A) (A) (A) (A) (A)
                 (A) (A) (A) (A) (A) (A) (A) (A) (A) (A) (A) (A)
                 (A) (A) (A) (A) (A) (A) (A) (A) (A) (A) (A) (A)
                 (A) (A) (A) (A) (A) (A) (A) (A) (A) (A) (A) (A)
                 (A) (A) (A) (A) (A) (A) (A) (A) (A) (A) (A) (A)
                 (A) (A) (A) (A) (A) (A) (A) (A) (A) (A) (A) (A)
                 (A) (A) (A) (A) (A) (A) (A) (A) (A) (A) (A) (A)
                 (A) (A) (A) (A) (A) (A) (A) (A) (A) (A) (A) (A)
                 (A) (A) (A) (A) (A) (A) (A) (A) (A) (A) (A) (A)
                 (A) (A) (A) (A) (A) (A) (A) (A) (A) (A) (A) (A)
                 (A) (A) (A) (A) (A) (A) (A) (A) (A) (A) (A) (A)
                 (A) (A) (A) (A) (A) (A) (A) (A) (A) (A) (A) (A)
                 (A) (A) (A) (A) (A) (A) (A) (A) (A) (A) (A) (A)
                 (A) (A) (A) (A) (A) (A) (A) (A) (A) (A) (A) (A)
                 (A) (A) (A) (A) (A) (A) (A) (A)
       Virtual   (A) (A) (A) (A) (A) (A) (A) (A) (A) (A) (A) (A)
                 (A) (A) (A) (A) (A) (A) (A) (A) (A) (A) (A) (A)
                 (A) (A) (A) (A) (A) (A) (A) (A) (A) (A) (A) (A)
                 (A) (A) (A) (A) (A) (A) (A) (A) (A) (A) (A) (A)
                 (A) (A) (A) (A) (A) (A) (A) (A) (A) (A) (A) (A)
                 (A) (A) (A) (A) (A) (A) (A) (A) (A) (A) (A) (A)
                 (A) (A) (A) (A) (A) (A) (A) (A) (A) (A) (A) (A)
                 (A) (A) (A) (A) (A) (A) (A) (A) (A) (A) (A) (A)
                 (A) (A) (A) (A) (A) (A) (A) (A) (A) (A) (A) (A)
                 (A) (A) (A) (A) (A) (A) (A) (A) (A) (A) (A) (A)
                 (A) (A) (A) (A) (A) (A) (A) (A) (A) (A) (A) (A)
                 (A) (A) (A) (A) (A) (A) (A) (A) (A) (A) (A) (A)
                 (A) (A) (A) (A) (A) (A) (A) (A) (A) (A) (A) (A)
                 (A) (A) (A) (A) (A) (A) (A) (A) (A) (A) (A) (A)
                 (A) (A) (A) (A) (A) (A) (A) (A) (A) (A) (A) (A)
                 (A) (A) (A) (A) (A) (A) (A) (A) (A) (A) (A) (A)
                 (A) (A) (A) (A) (A) (A) (A) (A) (A) (A) (A) (A)
                 (A) (A) (A) (A) (A) (A) (A) (A) (A) (A) (A) (A)
                 (A) (A) (A) (A) (A) (A) (A) (A) (A) (A) (A) (A)
                 (A) (A) (A) (A) (A) (A) (A) (A) (A) (A) (A) (A)
                 (A) (A) (A) (A) (A) (A) (A) (A) (A) (A) (A) (A)
                 (A) (A) (A) (A) (A) (A) (A) (A) (A) (A) (A) (A)
                 (A) (A) (A) (A) (A) (A) (A) (A) (A) (A) (A) (A)
                 (A) (A) (A) (A) (A) (A) (A) (A) (A) (A) (A) (A)
                 (A) (A) (A) (A) (A) (A) (A) (A) (A) (A) (A) (A)
                 (A) (A) (A) (A) (A) (A) (A) (A) (A) (A) (A) (A)
                 (A) (A) (A) (A) (A) (A) (A) (A) (A) (A) (A) (A)
                 (A) (A) (A) (A) (A) (A) (A) (A) (A) (A) (A) (A)
                 (A) (A) (A) (A) (A) (A) (A) (A) (A) (A) (A) (A)
                 (A) (A) (A) (A) (A) (A) (A) (A) (A) (A) (A) (A)
                 (A) (A) (A) (A) (A) (A) (A) (A) (A) (A) (A) (A)
                 (A) (A) (A) (A) (A) (A) (A) (A) (A) (A) (A) (A)
                 (A) (A) (A) (A) (A) (A) (A) (A) (A) (A) (A) (A)
                 (A) (A) (A) (A) (A) (A) (A) (A) (A) (A) (A) (A)
                 (A) (A) (A) (A) (A) (A) (A) (A) (A) (A) (A) (A)
                 (A) (A) (A) (A) (A) (A) (A) (A) (A) (A) (A) (A)
                 (A) (A) (A) (A) (A) (A) (A) (A) (A) (A) (A) (A)
                 (A) (A) (A) (A) (A) (A) (A) (A) (A) (A) (A) (A)
                 (A) (A) (A) (A) (A) (A) (A) (A) (A) (A) (A) (A)
                 (A) (A) (A) (A) (A) (A) (A) (A) (A) (A) (A) (A)
                 (A) (A) (A) (A) (A) (A) (A) (A) (A) (A) (A) (A)
                 (A) (A) (A) (A) (A) (A) (A) (A) (A) (A) (A) (A)
                 (A) (A) (A) (A) (A) (A) (A) (A) (A) (A) (A) (A)
                 (A) (A) (A) (A) (A) (A) (A) (A) (A) (A) (A) (A)
                 (A) (A) (A) (A) (A) (A) (A) (A) (A) (A) (A) (A)
                 (A) (A) (A) (A) (A) (A) (A) (A) (A) (A) (A) (A)
                 (A) (A) (A) (A) (A) (A) (A) (A) (A) (A) (A) (A)
                 (A) (A) (A) (A) (A) (A) (A) (A) (A) (A) (A) (A)
                 (A) (A) (A) (A) (A) (A) (A) (A) (A) (A) (A) (A)
                 (A) (A) (A) (A) (A) (A) (A) (A) (A) (A) (A) (A)
                 (A) (A) (A) (A) (A) (A) (A) (A) (A) (A) (A) (A)
                 (A) (A) (A) (A) (A) (A) (A) (A) (A) (A) (A) (A)
                 (A) (A) (A) (A) (A) (A) (A) (A) (A) (A) (A) (A)
                 (A) (A) (A) (A) (A) (A) (A) (A) (A) (A) (A) (A)
                 (A) (A) (A) (A) (A) (A) (A) (A) (A) (A) (A) (A)
                 (A) (A) (A) (A) (A) (A) (A) (A) (A) (A) (A) (A)
                 (A) (A) (A) (A) (A) (A) (A) (A) (A) (A) (A) (A)
                 (A) (A) (A) (A) (A) (A) (A) (A) (A) (A) (A) (A)
                 (A) (A) (A) (A) (A) (A) (A) (A) (A) (A) (A) (A)
                 (A) (A) (A) (A) (A) (A) (A) (A) (A) (A) (A) (A)
                 (A) (A) (A) (A) (A) (A) (A) (A) (A) (A) (A) (A)
                 (A) (A) (A) (A) (A) (A) (A) (A) (A) (A) (A) (A)
                 (A) (A) (A) (A) (A) (A) (A) (A) (A) (A) (A) (A)
                 (A) (A) (A) (A) (A) (A) (A) (A) (A) (A) (A) (A)
                 (A) (A) (A) (A) (A) (A) (A) (A) (A) (A) (A) (A)
                 (A) (A) (A) (A) (A) (A) (A) (A) (A) (A) (A) (A)
                 (A) (A) (A) (A) (A) (A) (A) (A) (A) (A) (A) (A)
                 (A) (A) (A) (A) (A) (A) (A) (A) (A) (A) (A) (A)
                 (A) (A) (A) (A) (A) (A) (A) (A) (A) (A) (A) (A)
                 (A) (A) (A) (A) (A) (A) (A) (A) (A) (A) (A) (A)
                 (A) (A) (A) (A) (A) (A) (A) (A) (A) (A) (A) (A)
                 (A) (A) (A) (A) (A) (A) (A) (A) (A) (A) (A) (A)
                 (A) (A) (A) (A) (A) (A) (A) (A) (A) (A) (A) (A)
                 (A) (A) (A) (A) (A) (A) (A) (A) (A) (A) (A) (A)
                 (A) (A) (A) (A) (A) (A) (A) (A) (A) (A) (A) (A)
                 (A) (A) (A) (A) (A) (A) (A) (A) (A) (A) (A) (A)
                 (A) (A) (A) (A) (A) (A) (A) (A) (A) (A) (A) (A)
                 (A) (A) (A) (A) (A) (A) (A) (A) (A) (A) (A) (A)
                 (A) (A) (A) (A) (A) (A) (A) (A) (A) (A) (A) (A)
                 (A) (A) (A) (A) (A) (A) (A) (A) (A) (A) (A) (A)
                 (A) (A) (A) (A) (A) (A) (A) (A) (A) (A) (A) (A)
                 (A) (A) (A) (A) (A) (A) (A) (A) (A) (A) (A) (A)
                 (A) (A) (A) (A) (A) (A) (A) (A) (A) (A) (A) (A)
                 (A) (A) (A) (A) (A) (A) (A) (A) (A) (A) (A) (A)
                 (A) (A) (A) (A) (A) (A) (A) (A) (A) (A) (A) (A)
                 (A) (A) (A) (A) (A) (A) (A) (A) (A) (A)
 The electronic state is 1-A.
 Alpha  occ. eigenvalues --  -19.18838 -19.16850 -19.13382 -19.13132 -19.12590
 Alpha  occ. eigenvalues --  -14.36828 -14.36117 -14.31870 -14.29297 -10.32361
 Alpha  occ. eigenvalues --  -10.31964 -10.28187 -10.26529 -10.23574 -10.23570
 Alpha  occ. eigenvalues --  -10.23468 -10.23113 -10.22981 -10.22874 -10.22781
 Alpha  occ. eigenvalues --  -10.22016 -10.21905 -10.21865 -10.21747 -10.21312
 Alpha  occ. eigenvalues --  -10.21093 -10.20919 -10.20884 -10.20778 -10.20640
 Alpha  occ. eigenvalues --  -10.20560 -10.20540 -10.20279 -10.20239 -10.20225
 Alpha  occ. eigenvalues --  -10.20225 -10.20219 -10.20020 -10.19965 -10.19895
 Alpha  occ. eigenvalues --  -10.19793 -10.19745 -10.19438 -10.19432 -10.19420
 Alpha  occ. eigenvalues --  -10.19378 -10.19234 -10.19196 -10.19172 -10.19138
 Alpha  occ. eigenvalues --  -10.18999 -10.18955 -10.18915 -10.18795 -10.18758
 Alpha  occ. eigenvalues --  -10.18354 -10.18189 -10.18028 -10.17983 -10.17826
 Alpha  occ. eigenvalues --  -10.17667 -10.17410 -10.17305 -10.17043  -1.09762
 Alpha  occ. eigenvalues --   -1.07935  -1.02369  -1.00793  -1.00688  -0.99463
 Alpha  occ. eigenvalues --   -0.98933  -0.93621  -0.93405  -0.83890  -0.83872
 Alpha  occ. eigenvalues --   -0.82237  -0.81901  -0.81676  -0.81360  -0.80605
 Alpha  occ. eigenvalues --   -0.80471  -0.79026  -0.78837  -0.78610  -0.77455
 Alpha  occ. eigenvalues --   -0.76694  -0.75938  -0.75214  -0.75096  -0.74303
 Alpha  occ. eigenvalues --   -0.73762  -0.73397  -0.72700  -0.71768  -0.71101
 Alpha  occ. eigenvalues --   -0.69932  -0.69918  -0.68813  -0.68507  -0.67701
 Alpha  occ. eigenvalues --   -0.66584  -0.65871  -0.65399  -0.65212  -0.64624
 Alpha  occ. eigenvalues --   -0.64341  -0.63885  -0.63227  -0.61742  -0.61509
 Alpha  occ. eigenvalues --   -0.61294  -0.58831  -0.58585  -0.57866  -0.57592
 Alpha  occ. eigenvalues --   -0.56895  -0.56597  -0.56079  -0.55181  -0.54923
 Alpha  occ. eigenvalues --   -0.54792  -0.54377  -0.54314  -0.53485  -0.53110
 Alpha  occ. eigenvalues --   -0.52922  -0.51632  -0.51514  -0.51295  -0.50533
 Alpha  occ. eigenvalues --   -0.49873  -0.49724  -0.49493  -0.49312  -0.48663
 Alpha  occ. eigenvalues --   -0.48416  -0.47642  -0.47589  -0.47553  -0.47198
 Alpha  occ. eigenvalues --   -0.47091  -0.46408  -0.46189  -0.46128  -0.45968
 Alpha  occ. eigenvalues --   -0.45704  -0.45375  -0.45034  -0.44860  -0.44588
 Alpha  occ. eigenvalues --   -0.44289  -0.44123  -0.43936  -0.43874  -0.43719
 Alpha  occ. eigenvalues --   -0.43446  -0.43326  -0.42846  -0.42800  -0.42495
 Alpha  occ. eigenvalues --   -0.42395  -0.42242  -0.42038  -0.41904  -0.41759
 Alpha  occ. eigenvalues --   -0.41600  -0.41000  -0.40891  -0.40307  -0.40264
 Alpha  occ. eigenvalues --   -0.40060  -0.39840  -0.39591  -0.39417  -0.39377
 Alpha  occ. eigenvalues --   -0.39042  -0.38689  -0.38475  -0.38445  -0.38361
 Alpha  occ. eigenvalues --   -0.38104  -0.37898  -0.37679  -0.37451  -0.37269
 Alpha  occ. eigenvalues --   -0.37208  -0.37134  -0.37080  -0.36796  -0.36644
 Alpha  occ. eigenvalues --   -0.36508  -0.36263  -0.36185  -0.35912  -0.35745
 Alpha  occ. eigenvalues --   -0.35618  -0.35599  -0.35351  -0.35153  -0.35031
 Alpha  occ. eigenvalues --   -0.34916  -0.34452  -0.34446  -0.34091  -0.33848
 Alpha  occ. eigenvalues --   -0.33461  -0.33146  -0.32840  -0.32687  -0.32389
 Alpha  occ. eigenvalues --   -0.32186  -0.31821  -0.31559  -0.31402  -0.31156
 Alpha  occ. eigenvalues --   -0.30785  -0.30643  -0.30253  -0.29856  -0.29409
 Alpha  occ. eigenvalues --   -0.29264  -0.28883  -0.28528  -0.28388  -0.28257
 Alpha  occ. eigenvalues --   -0.27599  -0.27217  -0.27001  -0.26040  -0.25591
 Alpha  occ. eigenvalues --   -0.25242  -0.25009  -0.24065  -0.22491  -0.19591
 Alpha  occ. eigenvalues --   -0.18946
 Alpha virt. eigenvalues --   -0.10171  -0.07976  -0.04213  -0.02766  -0.00818
 Alpha virt. eigenvalues --   -0.00571   0.00390   0.00656   0.02357   0.03387
 Alpha virt. eigenvalues --    0.03700   0.03962   0.04194   0.04757   0.04781
 Alpha virt. eigenvalues --    0.05192   0.05517   0.05794   0.05920   0.05984
 Alpha virt. eigenvalues --    0.06114   0.06452   0.06600   0.06662   0.06807
 Alpha virt. eigenvalues --    0.06850   0.07365   0.07474   0.07723   0.07948
 Alpha virt. eigenvalues --    0.08142   0.08261   0.08481   0.08640   0.08814
 Alpha virt. eigenvalues --    0.09095   0.09214   0.09292   0.09477   0.09645
 Alpha virt. eigenvalues --    0.09821   0.10166   0.10239   0.10742   0.10904
 Alpha virt. eigenvalues --    0.10976   0.11014   0.11124   0.11448   0.11614
 Alpha virt. eigenvalues --    0.11742   0.11960   0.12046   0.12199   0.12393
 Alpha virt. eigenvalues --    0.12498   0.12623   0.12679   0.12885   0.13013
 Alpha virt. eigenvalues --    0.13072   0.13389   0.13435   0.13900   0.14027
 Alpha virt. eigenvalues --    0.14076   0.14168   0.14451   0.14550   0.14720
 Alpha virt. eigenvalues --    0.14811   0.15172   0.15214   0.15383   0.15680
 Alpha virt. eigenvalues --    0.15877   0.15925   0.16181   0.16478   0.16670
 Alpha virt. eigenvalues --    0.16816   0.17023   0.17344   0.17681   0.17817
 Alpha virt. eigenvalues --    0.18157   0.18177   0.18691   0.18717   0.18807
 Alpha virt. eigenvalues --    0.18936   0.19447   0.19502   0.19649   0.19792
 Alpha virt. eigenvalues --    0.19973   0.20209   0.20287   0.20484   0.20519
 Alpha virt. eigenvalues --    0.20866   0.21145   0.21239   0.21517   0.21563
 Alpha virt. eigenvalues --    0.21928   0.22284   0.22375   0.22883   0.23016
 Alpha virt. eigenvalues --    0.23354   0.23526   0.23645   0.24333   0.24509
 Alpha virt. eigenvalues --    0.24860   0.24878   0.25511   0.25697   0.25890
 Alpha virt. eigenvalues --    0.25972   0.26229   0.26461   0.26834   0.26975
 Alpha virt. eigenvalues --    0.27198   0.27890   0.28127   0.28325   0.28596
 Alpha virt. eigenvalues --    0.29714   0.29853   0.30672   0.31019   0.31361
 Alpha virt. eigenvalues --    0.31809   0.32209   0.32541   0.32723   0.32935
 Alpha virt. eigenvalues --    0.33246   0.33738   0.34795   0.34981   0.35213
 Alpha virt. eigenvalues --    0.35808   0.35997   0.36209   0.36591   0.37281
 Alpha virt. eigenvalues --    0.37455   0.37807   0.38256   0.38380   0.39101
 Alpha virt. eigenvalues --    0.39472   0.39776   0.39882   0.40173   0.40384
 Alpha virt. eigenvalues --    0.40487   0.40660   0.40973   0.41060   0.41092
 Alpha virt. eigenvalues --    0.41309   0.41429   0.41853   0.41981   0.42026
 Alpha virt. eigenvalues --    0.42437   0.42493   0.42837   0.43167   0.43228
 Alpha virt. eigenvalues --    0.43513   0.43605   0.43800   0.43938   0.44192
 Alpha virt. eigenvalues --    0.44318   0.44778   0.44979   0.45147   0.45359
 Alpha virt. eigenvalues --    0.45614   0.45727   0.45857   0.45995   0.46350
 Alpha virt. eigenvalues --    0.46679   0.46948   0.47073   0.47226   0.47552
 Alpha virt. eigenvalues --    0.47969   0.48232   0.48627   0.48819   0.49025
 Alpha virt. eigenvalues --    0.49385   0.49503   0.49672   0.49866   0.50074
 Alpha virt. eigenvalues --    0.50507   0.51004   0.51215   0.51230   0.51655
 Alpha virt. eigenvalues --    0.51844   0.51990   0.52238   0.52508   0.52583
 Alpha virt. eigenvalues --    0.53185   0.53342   0.53614   0.53910   0.54051
 Alpha virt. eigenvalues --    0.54299   0.54475   0.54503   0.54777   0.55239
 Alpha virt. eigenvalues --    0.55544   0.55651   0.56165   0.56401   0.56598
 Alpha virt. eigenvalues --    0.56890   0.56994   0.57292   0.57423   0.57555
 Alpha virt. eigenvalues --    0.57720   0.57876   0.57901   0.57996   0.58142
 Alpha virt. eigenvalues --    0.58252   0.58539   0.58741   0.58803   0.58886
 Alpha virt. eigenvalues --    0.59295   0.59580   0.59927   0.60034   0.60445
 Alpha virt. eigenvalues --    0.60522   0.60650   0.60712   0.61011   0.61078
 Alpha virt. eigenvalues --    0.61206   0.61267   0.61435   0.61807   0.61884
 Alpha virt. eigenvalues --    0.62178   0.62245   0.62367   0.62476   0.62649
 Alpha virt. eigenvalues --    0.62745   0.62886   0.63042   0.63222   0.63382
 Alpha virt. eigenvalues --    0.63476   0.63597   0.63718   0.63774   0.63814
 Alpha virt. eigenvalues --    0.64030   0.64254   0.64382   0.64496   0.64627
 Alpha virt. eigenvalues --    0.64694   0.64744   0.65082   0.65130   0.65248
 Alpha virt. eigenvalues --    0.65361   0.65424   0.65570   0.65650   0.65786
 Alpha virt. eigenvalues --    0.65988   0.66149   0.66195   0.66330   0.66635
 Alpha virt. eigenvalues --    0.66707   0.66831   0.67159   0.67321   0.67473
 Alpha virt. eigenvalues --    0.67615   0.67705   0.67807   0.68017   0.68191
 Alpha virt. eigenvalues --    0.68241   0.68273   0.68389   0.68458   0.68719
 Alpha virt. eigenvalues --    0.68795   0.68998   0.69077   0.69315   0.69403
 Alpha virt. eigenvalues --    0.69578   0.69610   0.69716   0.69741   0.69922
 Alpha virt. eigenvalues --    0.70013   0.70389   0.70570   0.70822   0.71022
 Alpha virt. eigenvalues --    0.71153   0.71207   0.71287   0.71656   0.71864
 Alpha virt. eigenvalues --    0.72015   0.72093   0.72192   0.72216   0.72465
 Alpha virt. eigenvalues --    0.72627   0.72783   0.73049   0.73369   0.73435
 Alpha virt. eigenvalues --    0.73755   0.73908   0.74047   0.74318   0.74431
 Alpha virt. eigenvalues --    0.74812   0.74914   0.75136   0.75501   0.75624
 Alpha virt. eigenvalues --    0.75927   0.76008   0.76238   0.76512   0.76852
 Alpha virt. eigenvalues --    0.77009   0.77129   0.77550   0.77783   0.78115
 Alpha virt. eigenvalues --    0.78252   0.78493   0.78901   0.78935   0.79052
 Alpha virt. eigenvalues --    0.79501   0.79873   0.80259   0.80591   0.80715
 Alpha virt. eigenvalues --    0.81055   0.81210   0.81245   0.81728   0.81986
 Alpha virt. eigenvalues --    0.82512   0.82887   0.83040   0.83395   0.83887
 Alpha virt. eigenvalues --    0.84098   0.84698   0.85240   0.85717   0.86109
 Alpha virt. eigenvalues --    0.86176   0.86957   0.87423   0.87813   0.88435
 Alpha virt. eigenvalues --    0.89075   0.89234   0.89502   0.90199   0.90343
 Alpha virt. eigenvalues --    0.90665   0.91667   0.92099   0.92362   0.92956
 Alpha virt. eigenvalues --    0.93418   0.94323   0.94367   0.94596   0.94941
 Alpha virt. eigenvalues --    0.95571   0.96248   0.96589   0.96979   0.97488
 Alpha virt. eigenvalues --    0.97719   0.98054   0.98481   0.98960   0.99426
 Alpha virt. eigenvalues --    0.99951   1.00156   1.00619   1.01119   1.01297
 Alpha virt. eigenvalues --    1.02029   1.02137   1.02464   1.03078   1.03133
 Alpha virt. eigenvalues --    1.03359   1.03753   1.03992   1.04677   1.04967
 Alpha virt. eigenvalues --    1.05289   1.05767   1.05855   1.06489   1.07457
 Alpha virt. eigenvalues --    1.07919   1.08054   1.08551   1.09104   1.09222
 Alpha virt. eigenvalues --    1.09460   1.09606   1.10923   1.11455   1.11980
 Alpha virt. eigenvalues --    1.12649   1.13011   1.13317   1.13751   1.14067
 Alpha virt. eigenvalues --    1.14228   1.14360   1.15128   1.15936   1.16530
 Alpha virt. eigenvalues --    1.17349   1.17610   1.17836   1.18364   1.18495
 Alpha virt. eigenvalues --    1.19020   1.19166   1.19684   1.20081   1.20353
 Alpha virt. eigenvalues --    1.20787   1.21596   1.21973   1.22100   1.22751
 Alpha virt. eigenvalues --    1.22950   1.23201   1.23668   1.23739   1.23865
 Alpha virt. eigenvalues --    1.24745   1.25311   1.25720   1.26070   1.26630
 Alpha virt. eigenvalues --    1.27092   1.27918   1.28076   1.28223   1.28810
 Alpha virt. eigenvalues --    1.29339   1.29634   1.29912   1.30492   1.30545
 Alpha virt. eigenvalues --    1.31003   1.31411   1.31613   1.32138   1.32411
 Alpha virt. eigenvalues --    1.32798   1.33379   1.33428   1.33908   1.34422
 Alpha virt. eigenvalues --    1.34699   1.34850   1.34861   1.35538   1.36010
 Alpha virt. eigenvalues --    1.36456   1.36706   1.36899   1.37799   1.38350
 Alpha virt. eigenvalues --    1.38388   1.39237   1.39370   1.39978   1.40270
 Alpha virt. eigenvalues --    1.40361   1.40604   1.41410   1.42287   1.42703
 Alpha virt. eigenvalues --    1.42876   1.43726   1.44555   1.44826   1.45408
 Alpha virt. eigenvalues --    1.46225   1.47115   1.47217   1.47455   1.47562
 Alpha virt. eigenvalues --    1.47960   1.48384   1.48813   1.48939   1.49261
 Alpha virt. eigenvalues --    1.49769   1.50335   1.50420   1.51187   1.51261
 Alpha virt. eigenvalues --    1.51521   1.51886   1.52155   1.52384   1.52684
 Alpha virt. eigenvalues --    1.52802   1.53602   1.53692   1.54188   1.54249
 Alpha virt. eigenvalues --    1.54826   1.55006   1.55427   1.56067   1.56190
 Alpha virt. eigenvalues --    1.56821   1.56993   1.57161   1.57376   1.57523
 Alpha virt. eigenvalues --    1.57727   1.58062   1.58190   1.59331   1.59500
 Alpha virt. eigenvalues --    1.59797   1.60004   1.60475   1.61136   1.61843
 Alpha virt. eigenvalues --    1.62335   1.62648   1.63149   1.63255   1.64396
 Alpha virt. eigenvalues --    1.64461   1.64675   1.65097   1.65176   1.65358
 Alpha virt. eigenvalues --    1.66093   1.66305   1.66643   1.67103   1.67196
 Alpha virt. eigenvalues --    1.67331   1.67398   1.67658   1.68084   1.68320
 Alpha virt. eigenvalues --    1.68382   1.68992   1.69111   1.69198   1.69364
 Alpha virt. eigenvalues --    1.69494   1.70212   1.70701   1.70786   1.70876
 Alpha virt. eigenvalues --    1.71021   1.71362   1.71404   1.71999   1.72105
 Alpha virt. eigenvalues --    1.72258   1.72316   1.72446   1.72594   1.72899
 Alpha virt. eigenvalues --    1.73189   1.73537   1.73843   1.74070   1.74186
 Alpha virt. eigenvalues --    1.74385   1.74723   1.75011   1.75276   1.75414
 Alpha virt. eigenvalues --    1.75687   1.75724   1.75952   1.76258   1.76471
 Alpha virt. eigenvalues --    1.76873   1.77319   1.77561   1.77698   1.77744
 Alpha virt. eigenvalues --    1.77957   1.78125   1.78325   1.78379   1.78611
 Alpha virt. eigenvalues --    1.79275   1.79537   1.79618   1.79849   1.79943
 Alpha virt. eigenvalues --    1.80178   1.80315   1.80401   1.80652   1.80734
 Alpha virt. eigenvalues --    1.81307   1.81379   1.81639   1.81669   1.81798
 Alpha virt. eigenvalues --    1.81934   1.82163   1.82460   1.82508   1.82569
 Alpha virt. eigenvalues --    1.82890   1.83439   1.83487   1.83536   1.83633
 Alpha virt. eigenvalues --    1.83806   1.84102   1.84241   1.84753   1.85199
 Alpha virt. eigenvalues --    1.85403   1.85516   1.85614   1.85854   1.86259
 Alpha virt. eigenvalues --    1.86330   1.86533   1.86854   1.87235   1.87389
 Alpha virt. eigenvalues --    1.87528   1.87727   1.87790   1.88063   1.88459
 Alpha virt. eigenvalues --    1.88818   1.88875   1.88937   1.89509   1.90084
 Alpha virt. eigenvalues --    1.90385   1.90524   1.90619   1.90731   1.91025
 Alpha virt. eigenvalues --    1.91033   1.91264   1.91779   1.92127   1.92467
 Alpha virt. eigenvalues --    1.92607   1.92874   1.92959   1.93219   1.93622
 Alpha virt. eigenvalues --    1.93838   1.94103   1.94264   1.94316   1.94681
 Alpha virt. eigenvalues --    1.94930   1.95285   1.95949   1.96491   1.96629
 Alpha virt. eigenvalues --    1.96708   1.97113   1.97184   1.97442   1.97607
 Alpha virt. eigenvalues --    1.97851   1.97887   1.98255   1.99001   1.99084
 Alpha virt. eigenvalues --    1.99133   1.99239   1.99335   1.99604   1.99903
 Alpha virt. eigenvalues --    2.00128   2.00544   2.00874   2.01351   2.02188
 Alpha virt. eigenvalues --    2.02404   2.02539   2.02965   2.03339   2.03786
 Alpha virt. eigenvalues --    2.03971   2.04574   2.04827   2.05565   2.05739
 Alpha virt. eigenvalues --    2.06593   2.06884   2.06987   2.07152   2.07513
 Alpha virt. eigenvalues --    2.07758   2.07927   2.08382   2.09073   2.09136
 Alpha virt. eigenvalues --    2.09624   2.09927   2.10174   2.10501   2.10896
 Alpha virt. eigenvalues --    2.11262   2.11694   2.11843   2.12037   2.12491
 Alpha virt. eigenvalues --    2.12553   2.13169   2.13654   2.13982   2.14192
 Alpha virt. eigenvalues --    2.14764   2.15238   2.15574   2.15610   2.15806
 Alpha virt. eigenvalues --    2.16378   2.16732   2.17146   2.17645   2.18034
 Alpha virt. eigenvalues --    2.18802   2.19170   2.19910   2.19934   2.20185
 Alpha virt. eigenvalues --    2.20484   2.20959   2.21191   2.21624   2.21657
 Alpha virt. eigenvalues --    2.22582   2.22808   2.23016   2.23182   2.23299
 Alpha virt. eigenvalues --    2.23728   2.23877   2.24018   2.24672   2.25378
 Alpha virt. eigenvalues --    2.25816   2.25957   2.26431   2.26815   2.27579
 Alpha virt. eigenvalues --    2.27629   2.27973   2.28168   2.28294   2.28400
 Alpha virt. eigenvalues --    2.28821   2.30497   2.30841   2.31008   2.31310
 Alpha virt. eigenvalues --    2.31635   2.32185   2.32233   2.32459   2.33326
 Alpha virt. eigenvalues --    2.33729   2.33969   2.34740   2.34955   2.35537
 Alpha virt. eigenvalues --    2.35806   2.35955   2.36531   2.36783   2.37188
 Alpha virt. eigenvalues --    2.37523   2.38111   2.38295   2.38408   2.38569
 Alpha virt. eigenvalues --    2.39024   2.39462   2.39591   2.39973   2.40257
 Alpha virt. eigenvalues --    2.40387   2.40837   2.41525   2.42055   2.42106
 Alpha virt. eigenvalues --    2.42641   2.43015   2.43431   2.43810   2.44115
 Alpha virt. eigenvalues --    2.44690   2.45184   2.45563   2.46173   2.46363
 Alpha virt. eigenvalues --    2.46717   2.46933   2.47795   2.47976   2.48179
 Alpha virt. eigenvalues --    2.48574   2.49091   2.49318   2.49824   2.50004
 Alpha virt. eigenvalues --    2.50929   2.51491   2.51915   2.52078   2.52681
 Alpha virt. eigenvalues --    2.52945   2.53115   2.53264   2.53873   2.54314
 Alpha virt. eigenvalues --    2.54808   2.55017   2.55300   2.55556   2.56381
 Alpha virt. eigenvalues --    2.56838   2.56976   2.57245   2.57440   2.58303
 Alpha virt. eigenvalues --    2.58439   2.59195   2.60060   2.60549   2.60886
 Alpha virt. eigenvalues --    2.61386   2.61709   2.61959   2.62383   2.62973
 Alpha virt. eigenvalues --    2.63393   2.63840   2.64260   2.64759   2.65157
 Alpha virt. eigenvalues --    2.66156   2.66978   2.67004   2.68179   2.68969
 Alpha virt. eigenvalues --    2.69048   2.69100   2.70246   2.70509   2.71025
 Alpha virt. eigenvalues --    2.71417   2.71933   2.72498   2.72544   2.72932
 Alpha virt. eigenvalues --    2.73422   2.73837   2.74084   2.74444   2.74616
 Alpha virt. eigenvalues --    2.75143   2.75232   2.75761   2.76163   2.76984
 Alpha virt. eigenvalues --    2.77267   2.77520   2.78140   2.78809   2.78987
 Alpha virt. eigenvalues --    2.79192   2.79796   2.80312   2.80668   2.80780
 Alpha virt. eigenvalues --    2.80862   2.81251   2.81652   2.81700   2.81868
 Alpha virt. eigenvalues --    2.82542   2.82884   2.83537   2.83995   2.84069
 Alpha virt. eigenvalues --    2.84886   2.86007   2.86439   2.86711   2.87278
 Alpha virt. eigenvalues --    2.87385   2.88583   2.88971   2.89405   2.89666
 Alpha virt. eigenvalues --    2.89790   2.90325   2.91297   2.91467   2.91625
 Alpha virt. eigenvalues --    2.92202   2.92348   2.92903   2.93367   2.93908
 Alpha virt. eigenvalues --    2.94505   2.94530   2.94888   2.95238   2.95877
 Alpha virt. eigenvalues --    2.95880   2.96353   2.96945   2.97162   2.98351
 Alpha virt. eigenvalues --    2.98422   2.99131   3.00171   3.00308   3.01093
 Alpha virt. eigenvalues --    3.01119   3.01196   3.01961   3.02631   3.03295
 Alpha virt. eigenvalues --    3.03798   3.04318   3.04996   3.06300   3.06450
 Alpha virt. eigenvalues --    3.06844   3.07371   3.07795   3.08119   3.08343
 Alpha virt. eigenvalues --    3.09955   3.10093   3.11055   3.12246   3.12880
 Alpha virt. eigenvalues --    3.13375   3.13485   3.14499   3.15260   3.15985
 Alpha virt. eigenvalues --    3.16721   3.17958   3.18450   3.18615   3.19618
 Alpha virt. eigenvalues --    3.19982   3.20733   3.22185   3.24505   3.25658
 Alpha virt. eigenvalues --    3.26033   3.26907   3.29442   3.32470   3.34919
 Alpha virt. eigenvalues --    3.36963   3.37497   3.39528   3.41363   3.43229
 Alpha virt. eigenvalues --    3.50027   3.52380   3.55859   3.57582   3.59082
 Alpha virt. eigenvalues --    3.60648   3.63124   3.63356   3.66127   3.71133
          Condensed to atoms (all electrons):
 Mulliken charges:
               1
     1  C   -0.003087
     2  C   -0.032991
     3  C    0.034726
     4  C   -0.083388
     5  N   -0.225372
     6  C   -0.101084
     7  C    0.007665
     8  C   -0.087010
     9  C    0.053142
    10  C    0.176362
    11  C    0.100104
    12  C    0.072933
    13  C    0.166513
    14  O   -0.226982
    15  O   -0.362581
    16  N    0.041399
    17  C    0.135945
    18  C   -0.183078
    19  C    0.038415
    20  C    0.061512
    21  C    0.149387
    22  C   -0.086200
    23  C   -0.025164
    24  N   -0.242191
    25  C    0.066571
    26  C   -0.132133
    27  C   -0.080117
    28  C    0.072093
    29  C    0.082165
    30  C    0.057482
    31  C    0.047910
    32  N   -0.047495
    33  C    0.072316
    34  C   -0.130750
    35  C   -0.029288
    36  C    0.041322
    37  C   -0.011967
    38  C    0.096641
    39  O   -0.178952
    40  C    0.093366
    41  C    0.197928
    42  O   -0.235959
    43  O   -0.297647
    44  C    0.256826
    45  C    0.188370
    46  C   -0.077218
    47  C   -0.230583
    48  C    0.056458
    49  C    0.307877
    50  C   -0.000791
    51  C   -0.089719
    52  C   -0.077861
    53  C    0.119083
    54  C    0.101617
    55  C   -0.013899
    56  C   -0.015336
    57  C   -0.066413
    58  C   -0.054835
    59  C    0.012254
    60  C    0.097722
    61  C   -0.032670
    62  C   -0.056661
    63  C   -0.109064
    64  C   -0.052259
    65  H   -0.090792
    66  H   -0.140234
    67  H   -0.010969
    68  H    0.028217
    69  H   -0.003214
    70  H   -0.023939
    71  H   -0.019769
    72  H   -0.000638
    73  H    0.012660
    74  H   -0.065786
    75  H    0.004248
    76  H    0.054624
    77  H    0.034186
    78  H    0.000594
    79  H    0.012262
    80  H    0.034234
    81  H    0.029481
    82  H    0.003684
    83  H    0.034880
    84  H    0.013425
    85  H    0.006532
    86  H   -0.013418
    87  H    0.017151
    88  H   -0.006826
    89  H    0.000922
    90  H    0.003843
    91  H    0.088428
    92  H    0.042266
    93  H    0.040469
    94  H   -0.010821
    95  H    0.002933
    96  H   -0.018875
    97  H    0.055410
    98  H    0.056019
    99  H    0.048208
   100  H   -0.001569
   101  H    0.037088
   102  H    0.016488
   103  H   -0.003941
   104  H   -0.034255
   105  H   -0.056278
   106  H   -0.013516
   107  H    0.021815
   108  H    0.021887
   109  H    0.005108
   110  H   -0.006883
   111  H   -0.064128
   112  H   -0.012600
   113  H    0.033275
   114  H   -0.034112
   115  H    0.011572
   116  H    0.005684
   117  H   -0.016606
   118  H    0.015955
   119  H    0.014322
   120  H    0.005564
   121  H   -0.004880
   122  H    0.040124
   123  H    0.013336
   124  H   -0.002204
   125  H   -0.005276
   126  H   -0.001880
   127  H   -0.020857
   128  H    0.006971
   129  H    0.017883
   130  H    0.014707
   131  H    0.032599
   132  H    0.032113
   133  H    0.021084
   134  H    0.030936
   135  H    0.023651
   136  H    0.026431
   137  H    0.080865
   138  H    0.204773
 Sum of Mulliken charges =   0.00000
 Mulliken charges with hydrogens summed into heavy atoms:
               1
     1  C   -0.003087
     2  C   -0.123783
     3  C   -0.105507
     4  C   -0.094357
     5  N   -0.225372
     6  C   -0.101084
     7  C    0.035882
     8  C   -0.090223
     9  C    0.053142
    10  C    0.132015
    11  C    0.046978
    12  C    0.131805
    13  C    0.166513
    14  O   -0.226982
    15  O   -0.362581
    16  N    0.122264
    17  C    0.135945
    18  C   -0.183078
    19  C    0.038415
    20  C    0.061512
    21  C    0.196429
    22  C   -0.051966
    23  C    0.008001
    24  N   -0.242191
    25  C    0.066571
    26  C   -0.132133
    27  C   -0.080117
    28  C    0.072093
    29  C    0.137002
    30  C    0.061214
    31  C    0.045849
    32  N    0.157279
    33  C    0.072316
    34  C   -0.130750
    35  C   -0.029288
    36  C    0.041322
    37  C    0.159197
    38  C    0.096641
    39  O   -0.178952
    40  C    0.082545
    41  C    0.197928
    42  O   -0.235959
    43  O   -0.297647
    44  C    0.296293
    45  C    0.292598
    46  C   -0.078786
    47  C   -0.230583
    48  C    0.106093
    49  C    0.217344
    50  C    0.007508
    51  C   -0.062724
    52  C   -0.084744
    53  C    0.075630
    54  C    0.079077
    55  C   -0.024821
    56  C    0.014940
    57  C   -0.060849
    58  C   -0.006254
    59  C    0.004773
    60  C    0.074985
    61  C   -0.007815
    62  C   -0.041954
    63  C   -0.023268
    64  C    0.028759
 Electronic spatial extent (au):  <R**2>=         179288.7345
 Charge=              0.0000 electrons
 Dipole moment (field-independent basis, Debye):
    X=              2.7247    Y=              3.5280    Z=              0.3777  Tot=              4.4736
 Quadrupole moment (field-independent basis, Debye-Ang):
   XX=           -365.4391   YY=           -382.7694   ZZ=           -393.0806
   XY=            -28.3413   XZ=              5.5096   YZ=             -0.3469
 Traceless Quadrupole moment (field-independent basis, Debye-Ang):
   XX=             14.9906   YY=             -2.3397   ZZ=            -12.6509
   XY=            -28.3413   XZ=              5.5096   YZ=             -0.3469
 Octapole moment (field-independent basis, Debye-Ang**2):
  XXX=           -718.8135  YYY=            105.2595  ZZZ=             25.3968  XYY=            -80.7266
  XXY=            141.2553  XXZ=           -218.0394  XZZ=            -18.6326  YZZ=            -35.4369
  YYZ=             63.4878  XYZ=            -36.1010
 Hexadecapole moment (field-independent basis, Debye-Ang**3):
 XXXX=        -229336.1739 YYYY=         -18061.6505 ZZZZ=          -4458.7528 XXXY=          -1318.0876
 XXXZ=           1314.0330 YYYX=          -1355.8705 YYYZ=           -286.2936 ZZZX=            -32.8997
 ZZZY=           -127.2797 XXYY=         -40445.5419 XXZZ=         -39613.7359 YYZZ=          -3522.1398
 XXYZ=            409.8613 YYXZ=            -11.8651 ZZXY=            -37.5546
 N-N= 8.276513652069D+03 E-N=-2.288808083793D+04  KE= 2.701979766845D+03
 1\1\GINC-PEDRO-RYZENSSD\SP\RB3LYP TD-FC\SVP\C55H74N4O5\PADAWAN\02-Aug-
 2019\0\\# td=(NStates=1) B3LYP/SVP\\TD\\0,1\C,0,-5.1599636945,-1.93592
 98351,0.3742823041\C,0,-4.6669270117,2.8377702287,1.447921178\C,0,-9.2
 567055803,3.4219729965,-0.2170101689\C,0,-9.774265481,-1.2572565291,-1
 .1581183652\N,0,-5.0213512974,0.3665082737,0.6802364606\C,0,-4.4123298
 491,-0.8169484158,0.7753609795\C,0,-3.0255122377,-0.6723136661,1.24678
 96748\C,0,-3.0307080362,0.8092098133,1.830652171\C,0,-4.3485640495,1.4
 389837163,1.2807016672\C,0,-2.9856871372,0.7790954218,3.3820360662\C,0
 ,-2.012233294,-0.8390438661,0.1718051261\C,0,-0.5565688691,-0.90986920
 35,0.5764000927\C,0,0.3877824396,-1.1844453174,-0.5525868163\O,0,0.025
 664334,-1.6355359202,-1.614305042\O,0,1.7436445616,-0.9143182049,-0.24
 37168144\N,0,-6.9747920738,2.7099782696,0.5184513543\C,0,-5.8704686223
 ,3.3897533936,1.0323440913\C,0,-6.1203652222,4.686875127,1.1170181946\
 C,0,-7.4658856854,4.9194607816,0.6149880262\C,0,-7.8944403899,3.642072
 701,0.2850786633\C,0,-5.1046109776,5.7850740225,1.4733986059\C,0,-8.21
 87591586,6.1239364052,0.4676552668\C,0,-8.901948093,6.5838781097,-0.67
 78002588\N,0,-9.1267508757,0.9844256756,-0.6405865271\C,0,-9.844028265
 7,2.1480473034,-0.5526645357\C,0,-11.2336972362,1.9839019512,-0.918535
 6875\C,0,-11.3736713176,0.621019442,-1.182403195\C,0,-10.11024325,0.09
 67297213,-0.9856318057\C,0,-12.3456530662,3.0437128729,-0.8969127816\C
 ,0,-12.6419019297,-0.12880536,-1.6579467544\C,0,-12.7457547062,-0.4479
 280572,-3.1138595573\N,0,-7.4982487825,-1.2367153567,-0.1264911776\C,0
 ,-8.6166332508,-1.9127400008,-0.7969730597\C,0,-8.2227247115,-3.326759
 5582,-0.7174943167\C,0,-6.9537302821,-3.3500318315,-0.332290853\C,0,-6
 .5405151549,-2.0415769763,0.0479798742\C,0,-9.0815909167,-4.5156423137
 ,-1.2833573301\C,0,-5.8695539006,-4.2920542405,0.1362945751\O,0,-5.974
 4769379,-5.5111206422,0.062488983\C,0,-4.665764205,-3.4179425559,0.463
 8454466\C,0,-4.0984436423,-3.8805121447,1.9101975455\O,0,-4.5458596595
 ,-3.5154894828,2.9853065988\O,0,-3.2354722348,-4.8977747504,1.73236366
 43\C,0,-2.9247471785,-5.5529547416,2.9864007797\C,0,2.7593281014,-1.22
 66865663,-1.2081748433\C,0,4.0292861754,-0.6841289153,-0.6298950896\C,
 0,5.0502572823,-0.0425632014,-1.1400479614\C,0,4.9138505808,0.44634536
 62,-2.5883959564\C,0,6.2743691821,0.2227900182,-0.4372026345\C,0,7.496
 0208425,-0.4902552084,-1.0610829752\C,0,8.8362252236,-0.0752215073,-0.
 2306914166\C,0,10.1151824439,-0.7800023268,-0.8203293877\C,0,10.031469
 1855,-2.2966634692,-0.819241209\C,0,11.3726011103,-0.2254968644,-0.053
 3358893\C,0,12.7046921434,-0.6925345707,-0.6246469878\C,0,13.857674356
 8,0.097242498,0.0645385094\C,0,15.2488838002,-0.0722681083,-0.48281183
 91\C,0,15.721321704,-1.6286117266,-0.1587646448\C,0,16.2953502793,0.81
 56260799,0.2681458369\C,0,17.7413690257,0.7840313208,-0.2408179832\C,0
 ,18.5811890432,1.6169660255,0.6472955458\C,0,20.1356054621,1.832151019
 7,0.0889406216\C,0,20.2282835273,2.628979474,-1.1860966875\C,0,20.9004
 125626,2.6235536942,1.1741892071\H,0,-4.0509527556,3.4185630883,1.9527
 901599\H,0,-9.8024981029,4.2013673788,-0.2261039331\H,0,-10.6042146779
 ,-1.9869858541,-1.3128707602\H,0,-2.8898913161,-1.4940486401,2.0917800
 537\H,0,-2.0725285674,1.2495451777,1.455718484\H,0,-2.0432045785,0.464
 9728657,3.6862977338\H,0,-2.7953350254,1.8139764473,3.6913593311\H,0,-
 3.7592455215,0.4046556501,3.8690620824\H,0,-2.0724527537,-1.6479695301
 ,-0.5948939366\H,0,-2.131366476,-0.1973735464,-0.5555822524\H,0,-0.180
 0638262,0.0202058742,0.8940897703\H,0,-0.3559359329,-1.7003519938,1.43
 60811165\H,0,-4.2159664131,5.9083352016,0.8472175216\H,0,-5.6695121576
 ,6.7174466594,1.3000793025\H,0,-4.9319512819,5.6695249965,2.4958437184
 \H,0,-8.1840834177,6.8151413886,1.3602075747\H,0,-9.2248478367,6.15355
 55161,-1.6306346496\H,0,-9.5075154981,7.4391826458,-0.6506052834\H,0,-
 12.3962539874,3.7215113383,0.0046626532\H,0,-12.332667115,3.5361875762
 ,-1.8343627531\H,0,-13.411292152,2.652133049,-0.8470990653\H,0,-12.840
 4764208,-1.0780267294,-1.2352382749\H,0,-13.5020672312,0.6424083955,-1
 .2069830571\H,0,-12.6815937893,0.4132881419,-3.7356909134\H,0,-11.8502
 89997,-1.0294505187,-3.4571346656\H,0,-13.5617529288,-1.0518142762,-3.
 4314406864\H,0,-10.3218487337,-4.6945887787,-0.9644187439\H,0,-9.00248
 42273,-4.3902269687,-2.5681537136\H,0,-8.2938545602,-5.2867669437,-1.2
 72765232\H,0,-3.9970815596,-3.5926455548,-0.2454958982\H,0,-2.23210360
 34,-6.274552551,2.7220755417\H,0,-2.3860970561,-4.9924327272,3.5997144
 14\H,0,-3.8613291493,-5.9048455762,3.5419110667\H,0,2.6630802155,-2.38
 95065942,-1.5120323702\H,0,2.2495498495,-0.6238999708,-2.0969174589\H,
 0,4.2600887806,-1.050077322,0.4490728103\H,0,5.1062924584,1.6238848975
 ,-2.7484195618\H,0,5.71862848,-0.0492989674,-3.1986412657\H,0,3.966386
 7569,0.0021013969,-2.8927000951\H,0,6.4050685231,1.2330094259,-0.54288
 44795\H,0,6.0058586306,-0.0720570953,0.478175525\H,0,7.4594027252,-1.4
 792846531,-1.1838091405\H,0,7.8123407766,0.1309751181,-2.0135861876\H,
 0,9.0679322806,1.1124200833,-0.1423940911\H,0,8.5380768705,-0.36025017
 65,0.9809209045\H,0,9.9699996686,-0.5086183051,-1.9167162466\H,0,9.361
 4264588,-2.4597346667,-1.4686254103\H,0,10.8710721383,-2.7698785877,-1
 .2815887638\H,0,10.0121862387,-2.7994116268,0.3086926\H,0,11.383893686
 8,0.7883576159,-0.1333147463\H,0,11.6592518887,-0.6764228788,0.9735072
 809\H,0,12.7355982704,-1.7774693181,-0.6509883118\H,0,12.6520033525,-0
 .4266027393,-1.7897105048\H,0,13.7637775327,1.2481945303,-0.0706841575
 \H,0,13.9270069277,-0.2610025281,1.237680614\H,0,15.2147638206,-0.0006
 088548,-1.6211841317\H,0,14.957421295,-2.3476373455,-0.4800373369\H,0,
 16.7204559191,-2.0177558122,-0.7578215661\H,0,15.6511003888,-1.8032954
 621,0.9846477362\H,0,15.9311333865,1.905037074,0.2786383228\H,0,16.344
 4190987,0.4722878521,1.3354869713\H,0,18.1253037521,-0.2987340839,-0.1
 755374215\H,0,17.7488794735,0.9874206304,-1.268525285\H,0,18.260120701
 6,2.7026166576,0.7824136311\H,0,18.8303152857,1.1368694964,1.653492499
 2\H,0,20.4323195644,0.7434423052,-0.132812125\H,0,19.7177291295,3.6524
 535155,-1.0868705895\H,0,21.4216494086,2.7577838481,-1.6807211787\H,0,
 19.7790228753,2.1370693286,-2.3489270742\H,0,20.5759428308,2.308542322
 2,2.3459656332\H,0,22.050117869,2.5914191693,0.9921433714\H,0,20.80754
 03834,3.803743574,1.2002887668\H,0,-6.9026821013,1.8107499482,0.237555
 6017\H,0,-7.348836432,-0.1264328193,-0.13532366\\Version=ES64L-G09RevD
 .01\State=1-A\HF=-2732.9612174\RMSD=5.618e-09\PG=C01 [X(C55H74N4O5)]\\
 @


 NO SCIENCE HAS EVER MADE MORE RAPID PROGRESS IN A
 SHORTER TIME THAN CHEMISTRY.
   -- MARTIN HEINRICH KLOPROTH, 1791
 (FIRST PROFESSOR OF CHEMISTRY AT THE UNIVERSITY OF BERLIN)
 Job cpu time:       0 days  4 hours 47 minutes 52.6 seconds.
 File lengths (MBytes):  RWF=   1953 Int=      0 D2E=      0 Chk=    148 Scr=      1
 Normal termination of Gaussian 09 at Fri Aug  2 14:04:24 2019.
