 Entering Gaussian System, Link 0=g16
 Input=Geometria-396-.com
 Output=Geometria-396-.log
 Initial command:
 /usr/local/g09/l1.exe "/home/padawan/israel-mol/pheophytin/spectra/abs/Gau-113662.inp" -scrdir="/home/padawan/israel-mol/pheophytin/spectra/abs/"
 Entering Link 1 = /usr/local/g09/l1.exe PID=    113664.
  
 Copyright (c) 1988,1990,1992,1993,1995,1998,2003,2009,2013,
            Gaussian, Inc.  All Rights Reserved.
  
 This is part of the Gaussian(R) 09 program.  It is based on
 the Gaussian(R) 03 system (copyright 2003, Gaussian, Inc.),
 the Gaussian(R) 98 system (copyright 1998, Gaussian, Inc.),
 the Gaussian(R) 94 system (copyright 1995, Gaussian, Inc.),
 the Gaussian 92(TM) system (copyright 1992, Gaussian, Inc.),
 the Gaussian 90(TM) system (copyright 1990, Gaussian, Inc.),
 the Gaussian 88(TM) system (copyright 1988, Gaussian, Inc.),
 the Gaussian 86(TM) system (copyright 1986, Carnegie Mellon
 University), and the Gaussian 82(TM) system (copyright 1983,
 Carnegie Mellon University). Gaussian is a federally registered
 trademark of Gaussian, Inc.
  
 This software contains proprietary and confidential information,
 including trade secrets, belonging to Gaussian, Inc.
  
 This software is provided under written license and may be
 used, copied, transmitted, or stored only in accord with that
 written license.
  
 The following legend is applicable only to US Government
 contracts under FAR:
  
                    RESTRICTED RIGHTS LEGEND
  
 Use, reproduction and disclosure by the US Government is
 subject to restrictions as set forth in subparagraphs (a)
 and (c) of the Commercial Computer Software - Restricted
 Rights clause in FAR 52.227-19.
  
 Gaussian, Inc.
 340 Quinnipiac St., Bldg. 40, Wallingford CT 06492
  
  
 ---------------------------------------------------------------
 Warning -- This program may not be used in any manner that
 competes with the business of Gaussian, Inc. or will provide
 assistance to any competitor of Gaussian, Inc.  The licensee
 of this program is prohibited from giving any competitor of
 Gaussian, Inc. access to this program.  By using this program,
 the user acknowledges that Gaussian, Inc. is engaged in the
 business of creating and licensing software in the field of
 computational chemistry and represents and warrants to the
 licensee that it is not a competitor of Gaussian, Inc. and that
 it will not use this program in any manner prohibited above.
 ---------------------------------------------------------------
  

 Cite this work as:
 Gaussian 09, Revision D.01,
 M. J. Frisch, G. W. Trucks, H. B. Schlegel, G. E. Scuseria, 
 M. A. Robb, J. R. Cheeseman, G. Scalmani, V. Barone, B. Mennucci, 
 G. A. Petersson, H. Nakatsuji, M. Caricato, X. Li, H. P. Hratchian, 
 A. F. Izmaylov, J. Bloino, G. Zheng, J. L. Sonnenberg, M. Hada, 
 M. Ehara, K. Toyota, R. Fukuda, J. Hasegawa, M. Ishida, T. Nakajima, 
 Y. Honda, O. Kitao, H. Nakai, T. Vreven, J. A. Montgomery, Jr., 
 J. E. Peralta, F. Ogliaro, M. Bearpark, J. J. Heyd, E. Brothers, 
 K. N. Kudin, V. N. Staroverov, T. Keith, R. Kobayashi, J. Normand, 
 K. Raghavachari, A. Rendell, J. C. Burant, S. S. Iyengar, J. Tomasi, 
 M. Cossi, N. Rega, J. M. Millam, M. Klene, J. E. Knox, J. B. Cross, 
 V. Bakken, C. Adamo, J. Jaramillo, R. Gomperts, R. E. Stratmann, 
 O. Yazyev, A. J. Austin, R. Cammi, C. Pomelli, J. W. Ochterski, 
 R. L. Martin, K. Morokuma, V. G. Zakrzewski, G. A. Voth, 
 P. Salvador, J. J. Dannenberg, S. Dapprich, A. D. Daniels, 
 O. Farkas, J. B. Foresman, J. V. Ortiz, J. Cioslowski, 
 and D. J. Fox, Gaussian, Inc., Wallingford CT, 2013.
 
 ******************************************
 Gaussian 09:  ES64L-G09RevD.01 24-Apr-2013
                 4-Aug-2019 
 ******************************************
 %nproc=3
 Will use up to    3 processors via shared memory.
 %Mem=2GB
 --------------------------
 # td=(NStates=1) B3LYP/SVP
 --------------------------
 1/38=1/1;
 2/12=2,17=6,18=5,40=1/2;
 3/5=18,7=101,11=9,16=1,25=1,30=1,74=-5/1,2,8,3;
 4//1;
 5/5=2,38=5/2;
 8/6=1,10=1,108=1/1;
 9/41=1,42=1,70=2/14;
 6/7=2,8=2,9=2,10=2/1;
 99/5=1,9=1/99;
 --
 TD
 --
 Symbolic Z-matrix:
 Charge =  0 Multiplicity = 1
 6                    -5.0015   -1.81784   0.37353 
 6                    -4.96884   2.86781   1.45187 
 6                    -9.57818   3.21982  -0.27552 
 6                    -9.83465  -1.60294  -0.88125 
 7                    -5.30864   0.58444   0.83142 
 6                    -4.53302  -0.60006   0.82211 
 6                    -3.07271  -0.33768   1.15877 
 6                    -3.15974   1.06488   1.74326 
 6                    -4.51407   1.51316   1.29442 
 6                    -3.01833   1.25568   3.32582 
 6                    -2.15544  -0.57943   0.04683 
 6                    -0.63235  -0.36639   0.38636 
 6                     0.38275  -0.66836  -0.78977 
 8                    -0.02009  -1.02716  -1.83762 
 8                     1.60928  -0.34797  -0.44282 
 7                    -7.31916   2.68892   0.50823 
 6                    -6.26765   3.54392   1.03954 
 6                    -6.57403   4.9211    1.03866 
 6                    -7.87645   4.98232   0.56528 
 6                    -8.28591   3.59424   0.22801 
 6                    -5.71062   6.06184   1.48467 
 6                    -8.56813   6.13077   0.37927 
 6                    -9.3231    6.44324  -0.75283 
 7                    -9.18072   0.74594  -0.54503 
 6                    -9.94654   1.91144  -0.50761 
 6                    -11.36573   1.55356  -0.93666 
 6                    -11.48025   0.21887  -1.09731 
 6                    -10.12786  -0.19575  -0.79765 
 6                    -12.50966   2.62468  -0.94618 
 6                    -12.69556  -0.63889  -1.29497 
 6                    -12.94899  -0.88096  -2.7477 
 7                    -7.40914  -1.29316  -0.27187 
 6                    -8.49255  -2.10081  -0.66653 
 6                    -8.01944  -3.46133  -0.68268 
 6                    -6.65833  -3.47521  -0.33334 
 6                    -6.30239  -2.0589   -0.02918 
 6                    -8.67177  -4.78481  -1.0058 
 6                    -5.48011  -4.3651   -0.06789 
 8                    -5.35224  -5.48836  -0.08059 
 6                    -4.4011   -3.18353   0.45726 
 6                    -3.78227  -3.70956   1.68127 
 8                    -4.02153  -3.30386   2.80933 
 8                    -2.92606  -4.75912   1.48536 
 6                    -2.31081  -5.3329    2.69688 
 6                     2.6576   -0.66958  -1.31711 
 6                     4.01901  -0.39785  -0.58484 
 6                     5.01591   0.34748  -1.11355 
 6                     4.99647   1.20323  -2.20827 
 6                     6.26716   0.35126  -0.14761 
 6                     7.56743  -0.11135  -0.8681 
 6                     8.90765  -0.10441  -0.01194 
 6                     10.09425  -0.6102   -0.7308 
 6                     9.95574  -2.17919  -0.89672 
 6                     11.40941  -0.20051   0.10597 
 6                     12.78654  -0.67101  -0.70232 
 6                     13.93213  -0.25888   0.16389 
 6                     15.41511  -0.4741   -0.39189 
 6                     15.84159  -1.97026  -0.55197 
 6                     16.42725   0.23065   0.44931 
 6                     17.85203   0.42179  -0.17263 
 6                     18.79539   1.18151   0.7304 
 6                     20.19676   1.25363   0.17333 
 6                     20.38652   1.85727  -1.24909 
 6                     21.09391   1.9679    1.2528 
 1                    -4.18646   3.4883    1.82964 
 1                    -10.50856   3.88727  -0.23427 
 1                    -10.61066  -2.4927   -0.93783 
 1                    -2.79854  -1.05487   1.97775 
 1                    -2.28708   1.68453   1.33006 
 1                    -2.02248   0.74286   3.57433 
 1                    -3.04567   2.28269   3.72335 
 1                    -3.70442   0.51547   3.82631 
 1                    -2.14205  -1.5558   -0.55252 
 1                    -2.14989   0.07704  -0.69575 
 1                    -0.43346   0.87829   0.56355 
 1                    -0.1284   -0.98962   1.29634 
 1                    -4.79363   6.17225   0.72273 
 1                    -6.30589   7.08608   1.27575 
 1                    -5.22044   5.89304   2.55038 
 1                    -8.40723   6.99943   0.88526 
 1                    -9.47408   5.91387  -1.72608 
 1                    -10.00617   7.24253  -0.53365 
 1                    -13.19467   2.80199   0.18169 
 1                    -12.00925   3.58385  -1.54567 
 1                    -13.32447   2.37619  -1.58166 
 1                    -12.6788  -1.42642  -0.72347 
 1                    -13.57133  -0.05128  -0.94352 
 1                    -13.15822   0.00375  -3.34772 
 1                    -11.89614  -1.1918   -3.20955 
 1                    -13.72446  -1.59116  -2.95419 
 1                    -9.92541  -4.56244  -0.8318 
 1                    -8.69437  -5.01079  -2.27707 
 1                    -8.24561  -5.7337   -0.35755 
 1                    -3.49948  -3.25909  -0.46957 
 1                    -1.88816  -6.32482   2.37968 
 1                    -1.81191  -4.61836   3.35498 
 1                    -3.13507  -5.66481   3.34754 
 1                     2.78612  -1.79688  -1.51338 
 1                     2.50817  -0.26543  -2.22737 
 1                     4.23764  -1.00711   0.37627 
 1                     5.59171   2.02789  -2.05078 
 1                     5.60141   0.74678  -3.08733 
 1                     4.02889   1.71722  -2.50061 
 1                     6.38337   1.44259   0.04831 
 1                     6.15081  -0.29991   0.83939 
 1                     7.43683  -1.20571  -1.24536 
 1                     7.65165   0.59538  -1.8282 
 1                     9.17839   0.96839   0.32128 
 1                     8.42468  -0.84919   0.94251 
 1                     10.21004  -0.33003  -1.86627 
 1                     8.9523   -2.60504  -1.18855 
 1                     10.89294  -2.56607  -1.54903 
 1                     10.15568  -2.51905   0.21244 
 1                     11.30733   0.85061  -0.03379 
 1                     11.39984  -0.42246   1.12541 
 1                     12.81628  -1.67862  -0.75543 
 1                     12.83995  -0.09101  -1.72453 
 1                     13.89088   0.87554   0.38194 
 1                     13.83469  -0.7995    1.13867 
 1                     15.48856  -0.12256  -1.41979 
 1                     15.04355  -2.66314  -1.10112 
 1                     16.77767  -1.90123  -1.13647 
 1                     16.05506  -2.2576    0.51099 
 1                     16.14175   1.23824   0.75324 
 1                     16.43594  -0.21857   1.35275 
 1                     18.43964  -0.47588  -0.43082 
 1                     17.96279   1.07913  -1.17503 
 1                     18.39881   2.32453   0.95717 
 1                     18.69913   0.9488    1.67515 
 1                     20.65324   0.28644   0.17422 
 1                     20.03659   2.92549  -1.19785 
 1                     21.39507   2.07349  -1.47481 
 1                     19.74266   1.21148  -1.98922 
 1                     20.93495   1.51841   2.28692 
 1                     22.1324   1.76586   1.0209 
 1                     20.93261   3.09748   1.24154 
 1                    -7.19943   1.72746   0.48551 
 1                    -7.76442  -0.32694  -0.17868 
 
 Stoichiometry    C55H74N4O5
 Framework group  C1[X(C55H74N4O5)]
 Deg. of freedom   408
 Full point group                 C1      NOp   1
 Largest Abelian subgroup         C1      NOp   1
 Largest concise Abelian subgroup C1      NOp   1
                         Standard orientation:                         
 ---------------------------------------------------------------------
 Center     Atomic      Atomic             Coordinates (Angstroms)
 Number     Number       Type             X           Y           Z
 ---------------------------------------------------------------------
      1          6           0       -4.990563   -1.848526    0.395433
      2          6           0       -4.995509    2.853051    1.402586
      3          6           0       -9.607541    3.141815   -0.329342
      4          6           0       -9.825297   -1.691483   -0.861837
      5          7           0       -5.316976    0.557877    0.816879
      6          6           0       -4.531875   -0.620361    0.825427
      7          6           0       -3.073710   -0.341196    1.157885
      8          6           0       -3.171996    1.069318    1.721051
      9          6           0       -4.529884    1.499861    1.265640
     10          6           0       -3.032109    1.285233    3.300514
     11          6           0       -2.154539   -0.592409    0.049621
     12          6           0       -0.633204   -0.362034    0.385682
     13          6           0        0.384276   -0.673647   -0.785866
     14          8           0       -0.015681   -1.051510   -1.828099
     15          8           0        1.608197   -0.338196   -0.443971
     16          7           0       -7.344324    2.641005    0.462072
     17          6           0       -6.299709    3.512379    0.980222
     18          6           0       -6.617137    4.886884    0.958493
     19          6           0       -7.920006    4.930460    0.484411
     20          6           0       -8.318316    3.534184    0.168283
     21          6           0       -5.762909    6.041153    1.387039
     22          6           0       -8.620892    6.070368    0.281089
     23          6           0       -9.378351    6.359571   -0.855516
     24          7           0       -9.190235    0.667402   -0.561357
     25          6           0       -9.965389    1.827152   -0.541520
     26          6           0      -11.381665    1.451423   -0.964907
     27          6           0      -11.485470    0.113574   -1.105290
     28          6           0      -10.129786   -0.285584   -0.799551
     29          6           0      -12.534156    2.513061   -0.990521
     30          6           0      -12.693852   -0.756808   -1.289757
     31          6           0      -12.945340   -1.022913   -2.738619
     32          7           0       -7.402345   -1.353039   -0.257535
     33          6           0       -8.479241   -2.175249   -0.639765
     34          6           0       -7.995228   -3.532021   -0.635343
     35          6           0       -6.634044   -3.529677   -0.286009
     36          6           0       -6.289483   -2.106100   -0.003406
     37          6           0       -8.636911   -4.865438   -0.938269
     38          6           0       -5.448721   -4.405951   -0.007242
     39          8           0       -5.311838   -5.528208   -0.002923
     40          6           0       -4.379219   -3.207927    0.499789
     41          6           0       -3.756181   -3.710346    1.731555
     42          8           0       -3.998676   -3.289522    2.853358
     43          8           0       -2.891574   -4.755856    1.551467
     44          6           0       -2.271722   -5.306242    2.771473
     45          6           0        2.659054   -0.664603   -1.313418
     46          6           0        4.018242   -0.370880   -0.585535
     47          6           0        5.009132    0.374320   -1.125611
     48          6           0        4.982809    1.213191   -2.233183
     49          6           0        6.260313    0.402799   -0.160010
     50          6           0        7.564249   -0.060234   -0.873571
     51          6           0        8.904381   -0.029560   -0.017784
     52          6           0       10.094995   -0.536645   -0.729046
     53          6           0        9.969085   -2.109038   -0.871134
     54          6           0       11.406835   -0.103778    0.101245
     55          6           0       12.787687   -0.575411   -0.700001
     56          6           0       13.929940   -0.141011    0.159714
     57          6           0       15.414594   -0.352720   -0.392932
     58          6           0       15.853073   -1.847662   -0.530361
     59          6           0       16.421054    0.372803    0.437359
     60          6           0       17.844245    0.565916   -0.187598
     61          6           0       18.781484    1.346798    0.703689
     62          6           0       20.182226    1.421708    0.145403
     63          6           0       20.367121    2.005210   -1.286035
     64          6           0       21.073623    2.159440    1.213798
     65          1           0       -4.218131    3.485455    1.770798
     66          1           0      -10.543249    3.802318   -0.298107
     67          1           0      -10.594133   -2.588194   -0.904819
     68          1           0       -2.793790   -1.043665    1.987609
     69          1           0       -2.304340    1.689618    1.298381
     70          1           0       -2.032174    0.784248    3.556640
     71          1           0       -3.067688    2.317902    3.682430
     72          1           0       -3.712230    0.547209    3.812259
     73          1           0       -2.133318   -1.577620   -0.534857
     74          1           0       -2.154265    0.052749   -0.702828
     75          1           0       -0.444313    0.886753    0.543946
     76          1           0       -0.124267   -0.967323    1.304940
     77          1           0       -4.846844    6.147351    0.623389
     78          1           0       -6.366378    7.057298    1.162685
     79          1           0       -5.271380    5.892470    2.455123
     80          1           0       -8.466958    6.947868    0.773830
     81          1           0       -9.525087    5.814304   -1.820613
     82          1           0      -10.067809    7.156583   -0.648399
     83          1           0      -13.220562    2.701950    0.134617
     84          1           0      -12.041472    3.467016   -1.604559
     85          1           0      -13.346954    2.248425   -1.622059
     86          1           0      -12.670769   -1.535425   -0.706379
     87          1           0      -13.574315   -0.170988   -0.947141
     88          1           0      -13.161677   -0.149113   -3.351958
     89          1           0      -11.890042   -1.332256   -3.195836
     90          1           0      -13.715090   -1.742361   -2.934214
     91          1           0       -9.892294   -4.650521   -0.767494
     92          1           0       -8.657710   -5.110846   -2.205968
     93          1           0       -8.203142   -5.800939   -0.275763
     94          1           0       -3.477033   -3.290299   -0.425909
     95          1           0       -1.841129   -6.299429    2.469296
     96          1           0       -1.778573   -4.577815    3.418594
     97          1           0       -3.093287   -5.634850    3.427198
     98          1           0        2.796623   -1.793678   -1.492593
     99          1           0        2.506375   -0.275520   -2.229687
    100          1           0        4.241765   -0.963722    0.384672
    101          1           0        5.571413    2.044890   -2.088296
    102          1           0        5.591384    0.748332   -3.105300
    103          1           0        4.011136    1.714908   -2.533161
    104          1           0        6.367758    1.497870    0.019331
    105          1           0        6.149207   -0.234244    0.836772
    106          1           0        7.442437   -1.161202   -1.234166
    107          1           0        7.642792    0.632507   -1.844283
    108          1           0        9.166504    1.050308    0.299095
    109          1           0        8.427406   -0.763627    0.947910
    110          1           0       10.208527   -0.272812   -1.868650
    111          1           0        8.969087   -2.547303   -1.156340
    112          1           0       10.909357   -2.498228   -1.517620
    113          1           0       10.171754   -2.430424    0.243029
    114          1           0       11.296311    0.944257   -0.054431
    115          1           0       11.399047   -0.310305    1.123937
    116          1           0       12.825510   -1.583437   -0.737822
    117          1           0       12.836433   -0.010567   -1.730895
    118          1           0       13.879585    0.996218    0.360543
    119          1           0       13.836847   -0.667544    1.142595
    120          1           0       15.485212   -0.016234   -1.426056
    121          1           0       15.060612   -2.555177   -1.068832
    122          1           0       16.788562   -1.780002   -1.115957
    123          1           0       16.068848   -2.117131    0.536811
    124          1           0       16.127478    1.382565    0.726003
    125          1           0       16.433352   -0.062579    1.347501
    126          1           0       18.439035   -0.330818   -0.432223
    127          1           0       17.949718    1.208851   -1.199861
    128          1           0       18.375747    2.489902    0.913148
    129          1           0       18.687104    1.127676    1.651873
    130          1           0       20.646456    0.458331    0.160900
    131          1           0       20.008629    3.071239   -1.250953
    132          1           0       21.373898    2.226063   -1.515136
    133          1           0       19.728460    1.343117   -2.016200
    134          1           0       20.918281    1.724428    2.254639
    135          1           0       22.113694    1.962246    0.984853
    136          1           0       20.903261    3.287393    1.185436
    137          1           0       -7.216885    1.680308    0.453919
    138          1           0       -7.765367   -0.388401   -0.178964
 ---------------------------------------------------------------------
 Rotational constants (GHZ):      0.0657861      0.0060583      0.0057059
 Standard basis: SVP (5D, 7F)
 There are  1330 symmetry adapted cartesian basis functions of A   symmetry.
 There are  1266 symmetry adapted basis functions of A   symmetry.
  1266 basis functions,  2118 primitive gaussians,  1330 cartesian basis functions
   236 alpha electrons      236 beta electrons
       nuclear repulsion energy      8264.4007137141 Hartrees.
 NAtoms=  138 NActive=  138 NUniq=  138 SFac= 1.00D+00 NAtFMM=   60 NAOKFM=T Big=T
 Integral buffers will be    131072 words long.
 Regular integral format.
 Two-electron integral symmetry is turned on.
 One-electron integrals computed using PRISM.
 NBasis=  1266 RedAO= T EigKep=  3.01D-04  NBF=  1266
 NBsUse=  1266 1.00D-06 EigRej= -1.00D+00 NBFU=  1266
 ExpMin= 1.22D-01 ExpMax= 2.27D+03 ExpMxC= 3.41D+02 IAcc=1 IRadAn=         1 AccDes= 0.00D+00
 Harris functional with IExCor=  402 and IRadAn=       1 diagonalized for initial guess.
 HarFok:  IExCor=  402 AccDes= 0.00D+00 IRadAn=         1 IDoV= 1 UseB2=F ITyADJ=14
 ICtDFT=  3500011 ScaDFX=  1.000000  1.000000  1.000000  1.000000
 FoFCou: FMM=F IPFlag=           0 FMFlag=      100000 FMFlg1=        2001
         NFxFlg=           0 DoJE=T BraDBF=F KetDBF=T FulRan=T
         wScrn=  0.000000 ICntrl=     500 IOpCl=  0 I1Cent=   200000004 NGrid=           0
         NMat0=    1 NMatS0=      1 NMatT0=    0 NMatD0=    1 NMtDS0=    0 NMtDT0=    0
 Petite list used in FoFCou.
 Requested convergence on RMS density matrix=1.00D-08 within 128 cycles.
 Requested convergence on MAX density matrix=1.00D-06.
 Requested convergence on             energy=1.00D-06.
 No special actions if energy rises.
 Integral accuracy reduced to 1.0D-05 until final iterations.
 Initial convergence to 1.0D-05 achieved.  Increase integral accuracy.
 SCF Done:  E(RB3LYP) =  -2733.02111631     A.U. after   16 cycles
            NFock= 16  Conv=0.76D-08     -V/T= 2.0120
 DoSCS=F DFT=T ScalE2(SS,OS)=  1.000000  1.000000
 ExpMin= 1.22D-01 ExpMax= 2.27D+03 ExpMxC= 3.41D+02 IAcc=3 IRadAn=         5 AccDes= 0.00D+00
 HarFok:  IExCor=  205 AccDes= 0.00D+00 IRadAn=         5 IDoV=-2 UseB2=F ITyADJ=14
 ICtDFT= 12500011 ScaDFX=  1.000000  1.000000  1.000000  1.000000
 Range of M.O.s used for correlation:    65  1266
 NBasis=  1266 NAE=   236 NBE=   236 NFC=    64 NFV=     0
 NROrb=   1202 NOA=   172 NOB=   172 NVA=  1030 NVB=  1030

 **** Warning!!: The smallest alpha delta epsilon is  0.79220610D-01

 Would need an additional        965744300000 words for in-memory AO integral storage.
 Orbital symmetries:
       Occupied  (A) (A) (A) (A) (A) (A) (A) (A) (A) (A) (A) (A)
                 (A) (A) (A) (A) (A) (A) (A) (A) (A) (A) (A) (A)
                 (A) (A) (A) (A) (A) (A) (A) (A) (A) (A) (A) (A)
                 (A) (A) (A) (A) (A) (A) (A) (A) (A) (A) (A) (A)
                 (A) (A) (A) (A) (A) (A) (A) (A) (A) (A) (A) (A)
                 (A) (A) (A) (A) (A) (A) (A) (A) (A) (A) (A) (A)
                 (A) (A) (A) (A) (A) (A) (A) (A) (A) (A) (A) (A)
                 (A) (A) (A) (A) (A) (A) (A) (A) (A) (A) (A) (A)
                 (A) (A) (A) (A) (A) (A) (A) (A) (A) (A) (A) (A)
                 (A) (A) (A) (A) (A) (A) (A) (A) (A) (A) (A) (A)
                 (A) (A) (A) (A) (A) (A) (A) (A) (A) (A) (A) (A)
                 (A) (A) (A) (A) (A) (A) (A) (A) (A) (A) (A) (A)
                 (A) (A) (A) (A) (A) (A) (A) (A) (A) (A) (A) (A)
                 (A) (A) (A) (A) (A) (A) (A) (A) (A) (A) (A) (A)
                 (A) (A) (A) (A) (A) (A) (A) (A) (A) (A) (A) (A)
                 (A) (A) (A) (A) (A) (A) (A) (A) (A) (A) (A) (A)
                 (A) (A) (A) (A) (A) (A) (A) (A) (A) (A) (A) (A)
                 (A) (A) (A) (A) (A) (A) (A) (A) (A) (A) (A) (A)
                 (A) (A) (A) (A) (A) (A) (A) (A) (A) (A) (A) (A)
                 (A) (A) (A) (A) (A) (A) (A) (A)
       Virtual   (A) (A) (A) (A) (A) (A) (A) (A) (A) (A) (A) (A)
                 (A) (A) (A) (A) (A) (A) (A) (A) (A) (A) (A) (A)
                 (A) (A) (A) (A) (A) (A) (A) (A) (A) (A) (A) (A)
                 (A) (A) (A) (A) (A) (A) (A) (A) (A) (A) (A) (A)
                 (A) (A) (A) (A) (A) (A) (A) (A) (A) (A) (A) (A)
                 (A) (A) (A) (A) (A) (A) (A) (A) (A) (A) (A) (A)
                 (A) (A) (A) (A) (A) (A) (A) (A) (A) (A) (A) (A)
                 (A) (A) (A) (A) (A) (A) (A) (A) (A) (A) (A) (A)
                 (A) (A) (A) (A) (A) (A) (A) (A) (A) (A) (A) (A)
                 (A) (A) (A) (A) (A) (A) (A) (A) (A) (A) (A) (A)
                 (A) (A) (A) (A) (A) (A) (A) (A) (A) (A) (A) (A)
                 (A) (A) (A) (A) (A) (A) (A) (A) (A) (A) (A) (A)
                 (A) (A) (A) (A) (A) (A) (A) (A) (A) (A) (A) (A)
                 (A) (A) (A) (A) (A) (A) (A) (A) (A) (A) (A) (A)
                 (A) (A) (A) (A) (A) (A) (A) (A) (A) (A) (A) (A)
                 (A) (A) (A) (A) (A) (A) (A) (A) (A) (A) (A) (A)
                 (A) (A) (A) (A) (A) (A) (A) (A) (A) (A) (A) (A)
                 (A) (A) (A) (A) (A) (A) (A) (A) (A) (A) (A) (A)
                 (A) (A) (A) (A) (A) (A) (A) (A) (A) (A) (A) (A)
                 (A) (A) (A) (A) (A) (A) (A) (A) (A) (A) (A) (A)
                 (A) (A) (A) (A) (A) (A) (A) (A) (A) (A) (A) (A)
                 (A) (A) (A) (A) (A) (A) (A) (A) (A) (A) (A) (A)
                 (A) (A) (A) (A) (A) (A) (A) (A) (A) (A) (A) (A)
                 (A) (A) (A) (A) (A) (A) (A) (A) (A) (A) (A) (A)
                 (A) (A) (A) (A) (A) (A) (A) (A) (A) (A) (A) (A)
                 (A) (A) (A) (A) (A) (A) (A) (A) (A) (A) (A) (A)
                 (A) (A) (A) (A) (A) (A) (A) (A) (A) (A) (A) (A)
                 (A) (A) (A) (A) (A) (A) (A) (A) (A) (A) (A) (A)
                 (A) (A) (A) (A) (A) (A) (A) (A) (A) (A) (A) (A)
                 (A) (A) (A) (A) (A) (A) (A) (A) (A) (A) (A) (A)
                 (A) (A) (A) (A) (A) (A) (A) (A) (A) (A) (A) (A)
                 (A) (A) (A) (A) (A) (A) (A) (A) (A) (A) (A) (A)
                 (A) (A) (A) (A) (A) (A) (A) (A) (A) (A) (A) (A)
                 (A) (A) (A) (A) (A) (A) (A) (A) (A) (A) (A) (A)
                 (A) (A) (A) (A) (A) (A) (A) (A) (A) (A) (A) (A)
                 (A) (A) (A) (A) (A) (A) (A) (A) (A) (A) (A) (A)
                 (A) (A) (A) (A) (A) (A) (A) (A) (A) (A) (A) (A)
                 (A) (A) (A) (A) (A) (A) (A) (A) (A) (A) (A) (A)
                 (A) (A) (A) (A) (A) (A) (A) (A) (A) (A) (A) (A)
                 (A) (A) (A) (A) (A) (A) (A) (A) (A) (A) (A) (A)
                 (A) (A) (A) (A) (A) (A) (A) (A) (A) (A) (A) (A)
                 (A) (A) (A) (A) (A) (A) (A) (A) (A) (A) (A) (A)
                 (A) (A) (A) (A) (A) (A) (A) (A) (A) (A) (A) (A)
                 (A) (A) (A) (A) (A) (A) (A) (A) (A) (A) (A) (A)
                 (A) (A) (A) (A) (A) (A) (A) (A) (A) (A) (A) (A)
                 (A) (A) (A) (A) (A) (A) (A) (A) (A) (A) (A) (A)
                 (A) (A) (A) (A) (A) (A) (A) (A) (A) (A) (A) (A)
                 (A) (A) (A) (A) (A) (A) (A) (A) (A) (A) (A) (A)
                 (A) (A) (A) (A) (A) (A) (A) (A) (A) (A) (A) (A)
                 (A) (A) (A) (A) (A) (A) (A) (A) (A) (A) (A) (A)
                 (A) (A) (A) (A) (A) (A) (A) (A) (A) (A) (A) (A)
                 (A) (A) (A) (A) (A) (A) (A) (A) (A) (A) (A) (A)
                 (A) (A) (A) (A) (A) (A) (A) (A) (A) (A) (A) (A)
                 (A) (A) (A) (A) (A) (A) (A) (A) (A) (A) (A) (A)
                 (A) (A) (A) (A) (A) (A) (A) (A) (A) (A) (A) (A)
                 (A) (A) (A) (A) (A) (A) (A) (A) (A) (A) (A) (A)
                 (A) (A) (A) (A) (A) (A) (A) (A) (A) (A) (A) (A)
                 (A) (A) (A) (A) (A) (A) (A) (A) (A) (A) (A) (A)
                 (A) (A) (A) (A) (A) (A) (A) (A) (A) (A) (A) (A)
                 (A) (A) (A) (A) (A) (A) (A) (A) (A) (A) (A) (A)
                 (A) (A) (A) (A) (A) (A) (A) (A) (A) (A) (A) (A)
                 (A) (A) (A) (A) (A) (A) (A) (A) (A) (A) (A) (A)
                 (A) (A) (A) (A) (A) (A) (A) (A) (A) (A) (A) (A)
                 (A) (A) (A) (A) (A) (A) (A) (A) (A) (A) (A) (A)
                 (A) (A) (A) (A) (A) (A) (A) (A) (A) (A) (A) (A)
                 (A) (A) (A) (A) (A) (A) (A) (A) (A) (A) (A) (A)
                 (A) (A) (A) (A) (A) (A) (A) (A) (A) (A) (A) (A)
                 (A) (A) (A) (A) (A) (A) (A) (A) (A) (A) (A) (A)
                 (A) (A) (A) (A) (A) (A) (A) (A) (A) (A) (A) (A)
                 (A) (A) (A) (A) (A) (A) (A) (A) (A) (A) (A) (A)
                 (A) (A) (A) (A) (A) (A) (A) (A) (A) (A) (A) (A)
                 (A) (A) (A) (A) (A) (A) (A) (A) (A) (A) (A) (A)
                 (A) (A) (A) (A) (A) (A) (A) (A) (A) (A) (A) (A)
                 (A) (A) (A) (A) (A) (A) (A) (A) (A) (A) (A) (A)
                 (A) (A) (A) (A) (A) (A) (A) (A) (A) (A) (A) (A)
                 (A) (A) (A) (A) (A) (A) (A) (A) (A) (A) (A) (A)
                 (A) (A) (A) (A) (A) (A) (A) (A) (A) (A) (A) (A)
                 (A) (A) (A) (A) (A) (A) (A) (A) (A) (A) (A) (A)
                 (A) (A) (A) (A) (A) (A) (A) (A) (A) (A) (A) (A)
                 (A) (A) (A) (A) (A) (A) (A) (A) (A) (A) (A) (A)
                 (A) (A) (A) (A) (A) (A) (A) (A) (A) (A) (A) (A)
                 (A) (A) (A) (A) (A) (A) (A) (A) (A) (A) (A) (A)
                 (A) (A) (A) (A) (A) (A) (A) (A) (A) (A) (A) (A)
                 (A) (A) (A) (A) (A) (A) (A) (A) (A) (A) (A) (A)
                 (A) (A) (A) (A) (A) (A) (A) (A) (A) (A) (A) (A)
                 (A) (A) (A) (A) (A) (A) (A) (A) (A) (A)
     8 initial guesses have been made.
 Convergence on wavefunction:    0.001000000000000
 Iteration     1 Dimension     8 NMult     0 NNew      8
 CISAX will form     8 AO SS matrices at one time.
 Iteration     2 Dimension    12 NMult     8 NNew      4
 Iteration     3 Dimension    16 NMult    12 NNew      4
 Iteration     4 Dimension    20 NMult    16 NNew      4
 Iteration     5 Dimension    24 NMult    20 NNew      4
 Iteration     6 Dimension    28 NMult    24 NNew      4
 ***********************************************************************
 Excited states from <AA,BB:AA,BB> singles matrix:
 ***********************************************************************
 
 Ground to excited state transition densities written to RWF  633
 Ground to excited state transition electric dipole moments (Au):
       state          X           Y           Z        Dip. S.      Osc.
         1         0.3876      1.9469      0.3380      4.0549      0.1920
 Ground to excited state transition velocity dipole moments (Au):
       state          X           Y           Z        Dip. S.      Osc.
         1        -0.0263     -0.1345     -0.0236      0.0194      0.1816
 Ground to excited state transition magnetic dipole moments (Au):
       state          X           Y           Z
         1        -0.1864     -0.4281      2.6545
 Ground to excited state transition velocity quadrupole moments (Au):
       state          XX          YY          ZZ          XY          XZ          YZ
         1         0.7835     -0.3311     -0.0303      1.8009      0.3040     -0.0364
 <0|del|b> * <b|rxdel|0> + <0|del|b> * <b|delr+rdel|0>
 Rotatory Strengths (R) in cgs (10**-40 erg-esu-cm/Gauss)
       state          XX          YY          ZZ    R(velocity)    E-M Angle
         1       -33.4899    -71.2213    102.7446     -0.6555       90.03
 1/2[<0|r|b>*<b|rxdel|0> + (<0|rxdel|b>*<b|r|0>)*]
 Rotatory Strengths (R) in cgs (10**-40 erg-esu-cm/Gauss)
       state          XX          YY          ZZ     R(length)
         1        51.0971    589.4448   -634.5006      2.0138
  1/2[<0|del|b>*<b|r|0> + (<0|r|b>*<b|del|0>)*] (Au)
       state          X           Y           Z        Dip. S.   Osc.(frdel)
         1        -0.0102     -0.2620     -0.0080      0.2801      0.1867

 Excitation energies and oscillator strengths:
 
 Excited State   1:      Singlet-A      1.9332 eV  641.35 nm  f=0.1920  <S**2>=0.000
     235 -> 237       -0.12484
     235 -> 238       -0.26575
     236 -> 237        0.63408
 This state for optimization and/or second-order correction.
 Total Energy, E(TD-HF/TD-KS) =  -2732.95007374    
 Copying the excited state density for this state as the 1-particle RhoCI density.
 SavETr:  write IOETrn=   770 NScale= 10 NData=  16 NLR=1 NState=    1 LETran=      28.

 **********************************************************************

            Population analysis using the SCF density.

 **********************************************************************

 Orbital symmetries:
       Occupied  (A) (A) (A) (A) (A) (A) (A) (A) (A) (A) (A) (A)
                 (A) (A) (A) (A) (A) (A) (A) (A) (A) (A) (A) (A)
                 (A) (A) (A) (A) (A) (A) (A) (A) (A) (A) (A) (A)
                 (A) (A) (A) (A) (A) (A) (A) (A) (A) (A) (A) (A)
                 (A) (A) (A) (A) (A) (A) (A) (A) (A) (A) (A) (A)
                 (A) (A) (A) (A) (A) (A) (A) (A) (A) (A) (A) (A)
                 (A) (A) (A) (A) (A) (A) (A) (A) (A) (A) (A) (A)
                 (A) (A) (A) (A) (A) (A) (A) (A) (A) (A) (A) (A)
                 (A) (A) (A) (A) (A) (A) (A) (A) (A) (A) (A) (A)
                 (A) (A) (A) (A) (A) (A) (A) (A) (A) (A) (A) (A)
                 (A) (A) (A) (A) (A) (A) (A) (A) (A) (A) (A) (A)
                 (A) (A) (A) (A) (A) (A) (A) (A) (A) (A) (A) (A)
                 (A) (A) (A) (A) (A) (A) (A) (A) (A) (A) (A) (A)
                 (A) (A) (A) (A) (A) (A) (A) (A) (A) (A) (A) (A)
                 (A) (A) (A) (A) (A) (A) (A) (A) (A) (A) (A) (A)
                 (A) (A) (A) (A) (A) (A) (A) (A) (A) (A) (A) (A)
                 (A) (A) (A) (A) (A) (A) (A) (A) (A) (A) (A) (A)
                 (A) (A) (A) (A) (A) (A) (A) (A) (A) (A) (A) (A)
                 (A) (A) (A) (A) (A) (A) (A) (A) (A) (A) (A) (A)
                 (A) (A) (A) (A) (A) (A) (A) (A)
       Virtual   (A) (A) (A) (A) (A) (A) (A) (A) (A) (A) (A) (A)
                 (A) (A) (A) (A) (A) (A) (A) (A) (A) (A) (A) (A)
                 (A) (A) (A) (A) (A) (A) (A) (A) (A) (A) (A) (A)
                 (A) (A) (A) (A) (A) (A) (A) (A) (A) (A) (A) (A)
                 (A) (A) (A) (A) (A) (A) (A) (A) (A) (A) (A) (A)
                 (A) (A) (A) (A) (A) (A) (A) (A) (A) (A) (A) (A)
                 (A) (A) (A) (A) (A) (A) (A) (A) (A) (A) (A) (A)
                 (A) (A) (A) (A) (A) (A) (A) (A) (A) (A) (A) (A)
                 (A) (A) (A) (A) (A) (A) (A) (A) (A) (A) (A) (A)
                 (A) (A) (A) (A) (A) (A) (A) (A) (A) (A) (A) (A)
                 (A) (A) (A) (A) (A) (A) (A) (A) (A) (A) (A) (A)
                 (A) (A) (A) (A) (A) (A) (A) (A) (A) (A) (A) (A)
                 (A) (A) (A) (A) (A) (A) (A) (A) (A) (A) (A) (A)
                 (A) (A) (A) (A) (A) (A) (A) (A) (A) (A) (A) (A)
                 (A) (A) (A) (A) (A) (A) (A) (A) (A) (A) (A) (A)
                 (A) (A) (A) (A) (A) (A) (A) (A) (A) (A) (A) (A)
                 (A) (A) (A) (A) (A) (A) (A) (A) (A) (A) (A) (A)
                 (A) (A) (A) (A) (A) (A) (A) (A) (A) (A) (A) (A)
                 (A) (A) (A) (A) (A) (A) (A) (A) (A) (A) (A) (A)
                 (A) (A) (A) (A) (A) (A) (A) (A) (A) (A) (A) (A)
                 (A) (A) (A) (A) (A) (A) (A) (A) (A) (A) (A) (A)
                 (A) (A) (A) (A) (A) (A) (A) (A) (A) (A) (A) (A)
                 (A) (A) (A) (A) (A) (A) (A) (A) (A) (A) (A) (A)
                 (A) (A) (A) (A) (A) (A) (A) (A) (A) (A) (A) (A)
                 (A) (A) (A) (A) (A) (A) (A) (A) (A) (A) (A) (A)
                 (A) (A) (A) (A) (A) (A) (A) (A) (A) (A) (A) (A)
                 (A) (A) (A) (A) (A) (A) (A) (A) (A) (A) (A) (A)
                 (A) (A) (A) (A) (A) (A) (A) (A) (A) (A) (A) (A)
                 (A) (A) (A) (A) (A) (A) (A) (A) (A) (A) (A) (A)
                 (A) (A) (A) (A) (A) (A) (A) (A) (A) (A) (A) (A)
                 (A) (A) (A) (A) (A) (A) (A) (A) (A) (A) (A) (A)
                 (A) (A) (A) (A) (A) (A) (A) (A) (A) (A) (A) (A)
                 (A) (A) (A) (A) (A) (A) (A) (A) (A) (A) (A) (A)
                 (A) (A) (A) (A) (A) (A) (A) (A) (A) (A) (A) (A)
                 (A) (A) (A) (A) (A) (A) (A) (A) (A) (A) (A) (A)
                 (A) (A) (A) (A) (A) (A) (A) (A) (A) (A) (A) (A)
                 (A) (A) (A) (A) (A) (A) (A) (A) (A) (A) (A) (A)
                 (A) (A) (A) (A) (A) (A) (A) (A) (A) (A) (A) (A)
                 (A) (A) (A) (A) (A) (A) (A) (A) (A) (A) (A) (A)
                 (A) (A) (A) (A) (A) (A) (A) (A) (A) (A) (A) (A)
                 (A) (A) (A) (A) (A) (A) (A) (A) (A) (A) (A) (A)
                 (A) (A) (A) (A) (A) (A) (A) (A) (A) (A) (A) (A)
                 (A) (A) (A) (A) (A) (A) (A) (A) (A) (A) (A) (A)
                 (A) (A) (A) (A) (A) (A) (A) (A) (A) (A) (A) (A)
                 (A) (A) (A) (A) (A) (A) (A) (A) (A) (A) (A) (A)
                 (A) (A) (A) (A) (A) (A) (A) (A) (A) (A) (A) (A)
                 (A) (A) (A) (A) (A) (A) (A) (A) (A) (A) (A) (A)
                 (A) (A) (A) (A) (A) (A) (A) (A) (A) (A) (A) (A)
                 (A) (A) (A) (A) (A) (A) (A) (A) (A) (A) (A) (A)
                 (A) (A) (A) (A) (A) (A) (A) (A) (A) (A) (A) (A)
                 (A) (A) (A) (A) (A) (A) (A) (A) (A) (A) (A) (A)
                 (A) (A) (A) (A) (A) (A) (A) (A) (A) (A) (A) (A)
                 (A) (A) (A) (A) (A) (A) (A) (A) (A) (A) (A) (A)
                 (A) (A) (A) (A) (A) (A) (A) (A) (A) (A) (A) (A)
                 (A) (A) (A) (A) (A) (A) (A) (A) (A) (A) (A) (A)
                 (A) (A) (A) (A) (A) (A) (A) (A) (A) (A) (A) (A)
                 (A) (A) (A) (A) (A) (A) (A) (A) (A) (A) (A) (A)
                 (A) (A) (A) (A) (A) (A) (A) (A) (A) (A) (A) (A)
                 (A) (A) (A) (A) (A) (A) (A) (A) (A) (A) (A) (A)
                 (A) (A) (A) (A) (A) (A) (A) (A) (A) (A) (A) (A)
                 (A) (A) (A) (A) (A) (A) (A) (A) (A) (A) (A) (A)
                 (A) (A) (A) (A) (A) (A) (A) (A) (A) (A) (A) (A)
                 (A) (A) (A) (A) (A) (A) (A) (A) (A) (A) (A) (A)
                 (A) (A) (A) (A) (A) (A) (A) (A) (A) (A) (A) (A)
                 (A) (A) (A) (A) (A) (A) (A) (A) (A) (A) (A) (A)
                 (A) (A) (A) (A) (A) (A) (A) (A) (A) (A) (A) (A)
                 (A) (A) (A) (A) (A) (A) (A) (A) (A) (A) (A) (A)
                 (A) (A) (A) (A) (A) (A) (A) (A) (A) (A) (A) (A)
                 (A) (A) (A) (A) (A) (A) (A) (A) (A) (A) (A) (A)
                 (A) (A) (A) (A) (A) (A) (A) (A) (A) (A) (A) (A)
                 (A) (A) (A) (A) (A) (A) (A) (A) (A) (A) (A) (A)
                 (A) (A) (A) (A) (A) (A) (A) (A) (A) (A) (A) (A)
                 (A) (A) (A) (A) (A) (A) (A) (A) (A) (A) (A) (A)
                 (A) (A) (A) (A) (A) (A) (A) (A) (A) (A) (A) (A)
                 (A) (A) (A) (A) (A) (A) (A) (A) (A) (A) (A) (A)
                 (A) (A) (A) (A) (A) (A) (A) (A) (A) (A) (A) (A)
                 (A) (A) (A) (A) (A) (A) (A) (A) (A) (A) (A) (A)
                 (A) (A) (A) (A) (A) (A) (A) (A) (A) (A) (A) (A)
                 (A) (A) (A) (A) (A) (A) (A) (A) (A) (A) (A) (A)
                 (A) (A) (A) (A) (A) (A) (A) (A) (A) (A) (A) (A)
                 (A) (A) (A) (A) (A) (A) (A) (A) (A) (A) (A) (A)
                 (A) (A) (A) (A) (A) (A) (A) (A) (A) (A) (A) (A)
                 (A) (A) (A) (A) (A) (A) (A) (A) (A) (A) (A) (A)
                 (A) (A) (A) (A) (A) (A) (A) (A) (A) (A) (A) (A)
                 (A) (A) (A) (A) (A) (A) (A) (A) (A) (A) (A) (A)
                 (A) (A) (A) (A) (A) (A) (A) (A) (A) (A)
 The electronic state is 1-A.
 Alpha  occ. eigenvalues --  -19.18346 -19.16664 -19.14094 -19.12371 -19.11151
 Alpha  occ. eigenvalues --  -14.37265 -14.36170 -14.32378 -14.30890 -10.31310
 Alpha  occ. eigenvalues --  -10.30678 -10.28898 -10.24808 -10.24686 -10.24649
 Alpha  occ. eigenvalues --  -10.24228 -10.23491 -10.23445 -10.23369 -10.22882
 Alpha  occ. eigenvalues --  -10.22818 -10.22357 -10.22173 -10.22172 -10.21840
 Alpha  occ. eigenvalues --  -10.21739 -10.21645 -10.21284 -10.21270 -10.20870
 Alpha  occ. eigenvalues --  -10.20677 -10.20573 -10.20374 -10.20346 -10.20156
 Alpha  occ. eigenvalues --  -10.20136 -10.19942 -10.19908 -10.19893 -10.19877
 Alpha  occ. eigenvalues --  -10.19848 -10.19822 -10.19603 -10.19587 -10.19541
 Alpha  occ. eigenvalues --  -10.19443 -10.19378 -10.19205 -10.18984 -10.18869
 Alpha  occ. eigenvalues --  -10.18724 -10.18696 -10.18675 -10.18653 -10.18638
 Alpha  occ. eigenvalues --  -10.18612 -10.18553 -10.18432 -10.18413 -10.18299
 Alpha  occ. eigenvalues --  -10.18178 -10.18154 -10.17346 -10.17245  -1.11455
 Alpha  occ. eigenvalues --   -1.08819  -1.07179  -1.02836  -0.98379  -0.97534
 Alpha  occ. eigenvalues --   -0.96776  -0.94656  -0.93248  -0.84187  -0.83578
 Alpha  occ. eigenvalues --   -0.82738  -0.81799  -0.81388  -0.80697  -0.80647
 Alpha  occ. eigenvalues --   -0.79557  -0.79462  -0.79171  -0.77504  -0.76909
 Alpha  occ. eigenvalues --   -0.76270  -0.75811  -0.74994  -0.74370  -0.73984
 Alpha  occ. eigenvalues --   -0.73233  -0.72253  -0.71945  -0.71828  -0.70067
 Alpha  occ. eigenvalues --   -0.69309  -0.68622  -0.67816  -0.67443  -0.67371
 Alpha  occ. eigenvalues --   -0.66636  -0.66286  -0.66269  -0.65205  -0.65099
 Alpha  occ. eigenvalues --   -0.63975  -0.63177  -0.62447  -0.62204  -0.61527
 Alpha  occ. eigenvalues --   -0.60897  -0.58612  -0.58129  -0.57527  -0.57383
 Alpha  occ. eigenvalues --   -0.56830  -0.56566  -0.56223  -0.55984  -0.55154
 Alpha  occ. eigenvalues --   -0.54945  -0.54431  -0.53562  -0.53188  -0.52861
 Alpha  occ. eigenvalues --   -0.52078  -0.51820  -0.51248  -0.50432  -0.50154
 Alpha  occ. eigenvalues --   -0.50062  -0.49009  -0.48210  -0.48140  -0.47793
 Alpha  occ. eigenvalues --   -0.47758  -0.47451  -0.47004  -0.46931  -0.46755
 Alpha  occ. eigenvalues --   -0.46540  -0.46387  -0.46253  -0.45662  -0.45601
 Alpha  occ. eigenvalues --   -0.45246  -0.45025  -0.44878  -0.44755  -0.44461
 Alpha  occ. eigenvalues --   -0.44330  -0.43930  -0.43792  -0.43633  -0.43607
 Alpha  occ. eigenvalues --   -0.43181  -0.42743  -0.42614  -0.42336  -0.42096
 Alpha  occ. eigenvalues --   -0.41862  -0.41669  -0.41405  -0.41301  -0.41249
 Alpha  occ. eigenvalues --   -0.41087  -0.40915  -0.40556  -0.40498  -0.40190
 Alpha  occ. eigenvalues --   -0.40029  -0.39784  -0.39665  -0.39529  -0.39414
 Alpha  occ. eigenvalues --   -0.39115  -0.38788  -0.38568  -0.38485  -0.38397
 Alpha  occ. eigenvalues --   -0.38270  -0.38007  -0.37865  -0.37500  -0.37334
 Alpha  occ. eigenvalues --   -0.37105  -0.36933  -0.36827  -0.36679  -0.36487
 Alpha  occ. eigenvalues --   -0.36431  -0.36300  -0.36256  -0.35774  -0.35568
 Alpha  occ. eigenvalues --   -0.35339  -0.35306  -0.35027  -0.34956  -0.34826
 Alpha  occ. eigenvalues --   -0.34354  -0.34337  -0.34072  -0.33935  -0.33476
 Alpha  occ. eigenvalues --   -0.33396  -0.33153  -0.32851  -0.32476  -0.32402
 Alpha  occ. eigenvalues --   -0.32380  -0.31993  -0.31738  -0.31252  -0.31077
 Alpha  occ. eigenvalues --   -0.30769  -0.30645  -0.30467  -0.30230  -0.29958
 Alpha  occ. eigenvalues --   -0.29368  -0.29316  -0.28106  -0.27929  -0.27837
 Alpha  occ. eigenvalues --   -0.27665  -0.27141  -0.26647  -0.26038  -0.25615
 Alpha  occ. eigenvalues --   -0.25157  -0.24485  -0.23600  -0.23381  -0.19455
 Alpha  occ. eigenvalues --   -0.18344
 Alpha virt. eigenvalues --   -0.10422  -0.07289  -0.04384  -0.02625  -0.00359
 Alpha virt. eigenvalues --    0.00201   0.00700   0.01304   0.02075   0.03034
 Alpha virt. eigenvalues --    0.03401   0.03586   0.04102   0.04351   0.04514
 Alpha virt. eigenvalues --    0.04627   0.04867   0.04913   0.05364   0.05727
 Alpha virt. eigenvalues --    0.06414   0.06503   0.06655   0.06915   0.06969
 Alpha virt. eigenvalues --    0.07042   0.07427   0.07510   0.07860   0.07907
 Alpha virt. eigenvalues --    0.08295   0.08372   0.08473   0.08844   0.08902
 Alpha virt. eigenvalues --    0.09026   0.09132   0.09194   0.10050   0.10158
 Alpha virt. eigenvalues --    0.10312   0.10477   0.10719   0.10896   0.11008
 Alpha virt. eigenvalues --    0.11141   0.11295   0.11423   0.11454   0.11638
 Alpha virt. eigenvalues --    0.11785   0.11857   0.11901   0.12063   0.12416
 Alpha virt. eigenvalues --    0.12567   0.12596   0.12683   0.12765   0.12810
 Alpha virt. eigenvalues --    0.13158   0.13246   0.13348   0.13569   0.13634
 Alpha virt. eigenvalues --    0.13713   0.13814   0.14029   0.14581   0.14610
 Alpha virt. eigenvalues --    0.14721   0.14790   0.14940   0.15088   0.15225
 Alpha virt. eigenvalues --    0.15586   0.15813   0.16178   0.16326   0.16424
 Alpha virt. eigenvalues --    0.16678   0.16811   0.17113   0.17254   0.17304
 Alpha virt. eigenvalues --    0.17454   0.17632   0.18169   0.18350   0.18569
 Alpha virt. eigenvalues --    0.18707   0.18921   0.19177   0.19385   0.19590
 Alpha virt. eigenvalues --    0.19889   0.19992   0.20269   0.20323   0.20740
 Alpha virt. eigenvalues --    0.21004   0.21107   0.21212   0.21464   0.21534
 Alpha virt. eigenvalues --    0.21954   0.22262   0.22657   0.23154   0.23258
 Alpha virt. eigenvalues --    0.23430   0.23591   0.23880   0.24075   0.24346
 Alpha virt. eigenvalues --    0.24404   0.24625   0.24809   0.25017   0.25099
 Alpha virt. eigenvalues --    0.25244   0.25899   0.26389   0.26765   0.26932
 Alpha virt. eigenvalues --    0.27412   0.27586   0.27941   0.28143   0.28822
 Alpha virt. eigenvalues --    0.29280   0.29389   0.30119   0.30512   0.31501
 Alpha virt. eigenvalues --    0.32001   0.32047   0.32326   0.33148   0.33278
 Alpha virt. eigenvalues --    0.33519   0.34406   0.34709   0.35127   0.35250
 Alpha virt. eigenvalues --    0.35347   0.35651   0.36781   0.36823   0.37083
 Alpha virt. eigenvalues --    0.37685   0.38095   0.38402   0.38917   0.39133
 Alpha virt. eigenvalues --    0.39378   0.39619   0.39855   0.39912   0.40209
 Alpha virt. eigenvalues --    0.40446   0.40602   0.40689   0.40769   0.40782
 Alpha virt. eigenvalues --    0.41299   0.41513   0.41788   0.41850   0.42088
 Alpha virt. eigenvalues --    0.42320   0.42583   0.42687   0.42771   0.42974
 Alpha virt. eigenvalues --    0.43340   0.43490   0.43865   0.44008   0.44094
 Alpha virt. eigenvalues --    0.44288   0.44391   0.44879   0.44964   0.45371
 Alpha virt. eigenvalues --    0.45535   0.45810   0.46002   0.46114   0.46376
 Alpha virt. eigenvalues --    0.46668   0.46746   0.47090   0.47321   0.47800
 Alpha virt. eigenvalues --    0.48075   0.48223   0.48326   0.48521   0.48810
 Alpha virt. eigenvalues --    0.48901   0.49219   0.49381   0.49527   0.49716
 Alpha virt. eigenvalues --    0.50021   0.50427   0.50488   0.50603   0.51310
 Alpha virt. eigenvalues --    0.51376   0.51526   0.52058   0.52353   0.52491
 Alpha virt. eigenvalues --    0.52713   0.52842   0.53050   0.53503   0.53645
 Alpha virt. eigenvalues --    0.53839   0.54095   0.54275   0.54819   0.55025
 Alpha virt. eigenvalues --    0.55163   0.55516   0.55678   0.55954   0.56033
 Alpha virt. eigenvalues --    0.56291   0.56783   0.56971   0.57141   0.57304
 Alpha virt. eigenvalues --    0.57488   0.57774   0.57918   0.58192   0.58329
 Alpha virt. eigenvalues --    0.58542   0.58767   0.58832   0.59073   0.59189
 Alpha virt. eigenvalues --    0.59284   0.59473   0.59657   0.59937   0.60145
 Alpha virt. eigenvalues --    0.60298   0.60347   0.60450   0.60637   0.61103
 Alpha virt. eigenvalues --    0.61150   0.61387   0.61466   0.61727   0.61930
 Alpha virt. eigenvalues --    0.61974   0.62072   0.62197   0.62371   0.62618
 Alpha virt. eigenvalues --    0.62803   0.62969   0.63064   0.63148   0.63368
 Alpha virt. eigenvalues --    0.63568   0.63653   0.63690   0.63904   0.64015
 Alpha virt. eigenvalues --    0.64143   0.64215   0.64350   0.64545   0.64597
 Alpha virt. eigenvalues --    0.64805   0.64834   0.64901   0.65020   0.65176
 Alpha virt. eigenvalues --    0.65349   0.65587   0.65645   0.65666   0.65745
 Alpha virt. eigenvalues --    0.65869   0.65911   0.66009   0.66115   0.66202
 Alpha virt. eigenvalues --    0.66310   0.66738   0.66806   0.66871   0.67059
 Alpha virt. eigenvalues --    0.67253   0.67357   0.67615   0.67699   0.67841
 Alpha virt. eigenvalues --    0.67870   0.68019   0.68253   0.68346   0.68463
 Alpha virt. eigenvalues --    0.68677   0.68707   0.68798   0.68884   0.69041
 Alpha virt. eigenvalues --    0.69139   0.69297   0.69440   0.69559   0.69661
 Alpha virt. eigenvalues --    0.69829   0.70031   0.70186   0.70291   0.70554
 Alpha virt. eigenvalues --    0.70571   0.70721   0.70833   0.71005   0.71074
 Alpha virt. eigenvalues --    0.71204   0.71390   0.71590   0.71903   0.72118
 Alpha virt. eigenvalues --    0.72284   0.72441   0.72616   0.72758   0.72822
 Alpha virt. eigenvalues --    0.72898   0.73072   0.73203   0.73393   0.73436
 Alpha virt. eigenvalues --    0.73841   0.74059   0.74233   0.74307   0.74470
 Alpha virt. eigenvalues --    0.74646   0.74888   0.75260   0.75717   0.75891
 Alpha virt. eigenvalues --    0.76156   0.76186   0.76424   0.76673   0.76870
 Alpha virt. eigenvalues --    0.77031   0.77492   0.77541   0.77899   0.78120
 Alpha virt. eigenvalues --    0.78517   0.78803   0.78955   0.79527   0.80105
 Alpha virt. eigenvalues --    0.80449   0.80488   0.80577   0.80665   0.81777
 Alpha virt. eigenvalues --    0.82059   0.82334   0.82454   0.82633   0.82898
 Alpha virt. eigenvalues --    0.83510   0.84471   0.84569   0.85474   0.85989
 Alpha virt. eigenvalues --    0.86441   0.86854   0.87177   0.87892   0.88004
 Alpha virt. eigenvalues --    0.88289   0.88745   0.89315   0.89688   0.90494
 Alpha virt. eigenvalues --    0.90580   0.90996   0.91653   0.92687   0.92801
 Alpha virt. eigenvalues --    0.93067   0.93985   0.94122   0.94196   0.94925
 Alpha virt. eigenvalues --    0.95089   0.95747   0.96213   0.97440   0.97682
 Alpha virt. eigenvalues --    0.97924   0.98480   0.98662   0.99120   0.99935
 Alpha virt. eigenvalues --    0.99986   1.00285   1.00610   1.01441   1.01818
 Alpha virt. eigenvalues --    1.02036   1.02237   1.02533   1.02787   1.03352
 Alpha virt. eigenvalues --    1.03816   1.04272   1.04422   1.04883   1.05545
 Alpha virt. eigenvalues --    1.05608   1.06192   1.06893   1.07358   1.07494
 Alpha virt. eigenvalues --    1.07662   1.08322   1.08601   1.08822   1.09112
 Alpha virt. eigenvalues --    1.09409   1.09662   1.10149   1.10564   1.10907
 Alpha virt. eigenvalues --    1.11590   1.11802   1.12305   1.13198   1.13344
 Alpha virt. eigenvalues --    1.14742   1.15390   1.15551   1.16261   1.16508
 Alpha virt. eigenvalues --    1.16890   1.17248   1.17513   1.18069   1.18599
 Alpha virt. eigenvalues --    1.18756   1.19379   1.19470   1.20312   1.20914
 Alpha virt. eigenvalues --    1.21238   1.22031   1.22454   1.22848   1.23011
 Alpha virt. eigenvalues --    1.23534   1.23959   1.24533   1.24643   1.24810
 Alpha virt. eigenvalues --    1.25308   1.26005   1.26392   1.26574   1.27001
 Alpha virt. eigenvalues --    1.27138   1.27538   1.27679   1.28248   1.28829
 Alpha virt. eigenvalues --    1.29171   1.29753   1.30110   1.30503   1.31400
 Alpha virt. eigenvalues --    1.31606   1.31633   1.31890   1.32142   1.32890
 Alpha virt. eigenvalues --    1.33122   1.33341   1.33720   1.34223   1.34489
 Alpha virt. eigenvalues --    1.35083   1.35566   1.35717   1.36349   1.36523
 Alpha virt. eigenvalues --    1.36778   1.36865   1.37498   1.37946   1.38437
 Alpha virt. eigenvalues --    1.38537   1.39772   1.40221   1.40746   1.41014
 Alpha virt. eigenvalues --    1.41175   1.41515   1.42238   1.42392   1.42734
 Alpha virt. eigenvalues --    1.43311   1.43757   1.44167   1.44340   1.44848
 Alpha virt. eigenvalues --    1.45244   1.45696   1.46091   1.46387   1.47080
 Alpha virt. eigenvalues --    1.47312   1.48084   1.48541   1.48755   1.49200
 Alpha virt. eigenvalues --    1.49587   1.49720   1.50087   1.50315   1.50414
 Alpha virt. eigenvalues --    1.50580   1.51038   1.51415   1.51611   1.51718
 Alpha virt. eigenvalues --    1.52041   1.52487   1.52961   1.53281   1.53595
 Alpha virt. eigenvalues --    1.53758   1.54501   1.54720   1.55133   1.55392
 Alpha virt. eigenvalues --    1.55566   1.56002   1.56243   1.56610   1.58107
 Alpha virt. eigenvalues --    1.58484   1.58559   1.58955   1.59133   1.59656
 Alpha virt. eigenvalues --    1.59702   1.59960   1.60371   1.60624   1.61008
 Alpha virt. eigenvalues --    1.61329   1.61963   1.62331   1.62540   1.62783
 Alpha virt. eigenvalues --    1.62919   1.63238   1.63999   1.64510   1.65079
 Alpha virt. eigenvalues --    1.65252   1.65423   1.65864   1.66269   1.66487
 Alpha virt. eigenvalues --    1.66828   1.67018   1.67224   1.67508   1.67622
 Alpha virt. eigenvalues --    1.67789   1.68127   1.68205   1.68395   1.68743
 Alpha virt. eigenvalues --    1.69384   1.69599   1.69890   1.69983   1.70080
 Alpha virt. eigenvalues --    1.70300   1.70523   1.71125   1.71269   1.71285
 Alpha virt. eigenvalues --    1.71792   1.72305   1.72527   1.72675   1.72839
 Alpha virt. eigenvalues --    1.72912   1.73038   1.73108   1.73349   1.73584
 Alpha virt. eigenvalues --    1.73716   1.74129   1.74191   1.74311   1.74487
 Alpha virt. eigenvalues --    1.74616   1.75196   1.75546   1.75680   1.76076
 Alpha virt. eigenvalues --    1.76295   1.76396   1.76740   1.76936   1.77124
 Alpha virt. eigenvalues --    1.77206   1.77249   1.77730   1.77908   1.78028
 Alpha virt. eigenvalues --    1.78155   1.78342   1.78566   1.78786   1.79036
 Alpha virt. eigenvalues --    1.79212   1.79386   1.79496   1.80115   1.80348
 Alpha virt. eigenvalues --    1.80510   1.80666   1.80898   1.81266   1.81395
 Alpha virt. eigenvalues --    1.81482   1.81793   1.81924   1.81989   1.82170
 Alpha virt. eigenvalues --    1.82546   1.82753   1.82796   1.83006   1.83404
 Alpha virt. eigenvalues --    1.83594   1.83770   1.83794   1.84070   1.84335
 Alpha virt. eigenvalues --    1.84857   1.85150   1.85566   1.85695   1.85867
 Alpha virt. eigenvalues --    1.86046   1.86127   1.86393   1.86673   1.86958
 Alpha virt. eigenvalues --    1.87230   1.87371   1.87512   1.88007   1.88082
 Alpha virt. eigenvalues --    1.88276   1.88348   1.88510   1.88590   1.89222
 Alpha virt. eigenvalues --    1.89433   1.89509   1.89667   1.90044   1.90132
 Alpha virt. eigenvalues --    1.90368   1.90504   1.91004   1.91161   1.91594
 Alpha virt. eigenvalues --    1.91753   1.91883   1.92314   1.92881   1.93141
 Alpha virt. eigenvalues --    1.93316   1.93711   1.93907   1.94196   1.94487
 Alpha virt. eigenvalues --    1.94655   1.95153   1.95188   1.95280   1.95493
 Alpha virt. eigenvalues --    1.95929   1.96196   1.96260   1.96621   1.96720
 Alpha virt. eigenvalues --    1.97379   1.97504   1.97950   1.97997   1.98170
 Alpha virt. eigenvalues --    1.99081   1.99733   1.99809   1.99834   2.00113
 Alpha virt. eigenvalues --    2.00292   2.00492   2.00777   2.00806   2.01179
 Alpha virt. eigenvalues --    2.01530   2.01887   2.02439   2.02512   2.03031
 Alpha virt. eigenvalues --    2.03348   2.03765   2.03920   2.04056   2.04762
 Alpha virt. eigenvalues --    2.05002   2.05498   2.05640   2.05881   2.06118
 Alpha virt. eigenvalues --    2.06353   2.06645   2.07300   2.07658   2.07711
 Alpha virt. eigenvalues --    2.08439   2.08587   2.08991   2.09267   2.09626
 Alpha virt. eigenvalues --    2.10006   2.10469   2.10743   2.11359   2.11448
 Alpha virt. eigenvalues --    2.11704   2.12287   2.12367   2.13502   2.13897
 Alpha virt. eigenvalues --    2.14103   2.14624   2.14821   2.14963   2.15081
 Alpha virt. eigenvalues --    2.16229   2.16236   2.16427   2.16629   2.16736
 Alpha virt. eigenvalues --    2.17337   2.17438   2.17569   2.17879   2.18274
 Alpha virt. eigenvalues --    2.18857   2.19798   2.20167   2.20525   2.20675
 Alpha virt. eigenvalues --    2.21408   2.21802   2.22384   2.22509   2.22619
 Alpha virt. eigenvalues --    2.23254   2.23411   2.23862   2.24240   2.24647
 Alpha virt. eigenvalues --    2.24685   2.24981   2.25207   2.25309   2.25808
 Alpha virt. eigenvalues --    2.26225   2.26530   2.27424   2.27615   2.27741
 Alpha virt. eigenvalues --    2.27921   2.28172   2.28223   2.28505   2.28965
 Alpha virt. eigenvalues --    2.29348   2.29866   2.30529   2.30546   2.30908
 Alpha virt. eigenvalues --    2.30993   2.31453   2.32337   2.32591   2.33419
 Alpha virt. eigenvalues --    2.34076   2.34235   2.34570   2.34813   2.35897
 Alpha virt. eigenvalues --    2.36478   2.37079   2.37129   2.37424   2.37520
 Alpha virt. eigenvalues --    2.38531   2.38804   2.39208   2.40013   2.40400
 Alpha virt. eigenvalues --    2.40489   2.40895   2.41000   2.41357   2.41496
 Alpha virt. eigenvalues --    2.41930   2.42077   2.42932   2.43132   2.43832
 Alpha virt. eigenvalues --    2.44421   2.44504   2.44823   2.45268   2.45580
 Alpha virt. eigenvalues --    2.46093   2.46325   2.46547   2.46988   2.47174
 Alpha virt. eigenvalues --    2.48397   2.48599   2.48806   2.48853   2.49431
 Alpha virt. eigenvalues --    2.50172   2.50811   2.51108   2.51867   2.52625
 Alpha virt. eigenvalues --    2.52814   2.53212   2.53488   2.53999   2.54305
 Alpha virt. eigenvalues --    2.54529   2.54703   2.55811   2.55934   2.56419
 Alpha virt. eigenvalues --    2.56829   2.57417   2.57736   2.57902   2.58072
 Alpha virt. eigenvalues --    2.58395   2.58687   2.59709   2.59975   2.60147
 Alpha virt. eigenvalues --    2.60425   2.61240   2.61592   2.61834   2.62007
 Alpha virt. eigenvalues --    2.62091   2.62558   2.63352   2.63837   2.64467
 Alpha virt. eigenvalues --    2.64684   2.65295   2.65575   2.65735   2.66013
 Alpha virt. eigenvalues --    2.66272   2.67033   2.67125   2.67558   2.67906
 Alpha virt. eigenvalues --    2.68426   2.68738   2.68942   2.69095   2.70267
 Alpha virt. eigenvalues --    2.70400   2.70761   2.71234   2.71695   2.72284
 Alpha virt. eigenvalues --    2.72596   2.72991   2.73237   2.73991   2.74835
 Alpha virt. eigenvalues --    2.75038   2.75093   2.76187   2.76666   2.76784
 Alpha virt. eigenvalues --    2.76955   2.77382   2.77863   2.78331   2.79183
 Alpha virt. eigenvalues --    2.79239   2.79692   2.80291   2.80495   2.80965
 Alpha virt. eigenvalues --    2.81701   2.81849   2.81905   2.82716   2.82937
 Alpha virt. eigenvalues --    2.83282   2.83955   2.85093   2.85173   2.85547
 Alpha virt. eigenvalues --    2.86039   2.86563   2.86654   2.87246   2.87390
 Alpha virt. eigenvalues --    2.88441   2.88490   2.89178   2.89298   2.89560
 Alpha virt. eigenvalues --    2.89662   2.90377   2.90574   2.90808   2.91369
 Alpha virt. eigenvalues --    2.91493   2.91759   2.92000   2.92142   2.92852
 Alpha virt. eigenvalues --    2.93751   2.94531   2.95171   2.95640   2.95855
 Alpha virt. eigenvalues --    2.96046   2.97195   2.97714   2.98200   2.98583
 Alpha virt. eigenvalues --    2.98754   2.99454   2.99849   2.99941   3.00354
 Alpha virt. eigenvalues --    3.00400   3.01344   3.01781   3.01948   3.02550
 Alpha virt. eigenvalues --    3.02930   3.03892   3.04796   3.05463   3.06332
 Alpha virt. eigenvalues --    3.06858   3.07716   3.08052   3.08904   3.10294
 Alpha virt. eigenvalues --    3.10936   3.11446   3.11702   3.11861   3.15155
 Alpha virt. eigenvalues --    3.16790   3.16939   3.18944   3.20682   3.21559
 Alpha virt. eigenvalues --    3.21673   3.22131   3.24341   3.25066   3.26096
 Alpha virt. eigenvalues --    3.26496   3.26902   3.29311   3.30938   3.32226
 Alpha virt. eigenvalues --    3.33688   3.36060   3.41390   3.44742   3.45214
 Alpha virt. eigenvalues --    3.46570   3.49778   3.51771   3.61559   3.64213
 Alpha virt. eigenvalues --    3.64830   3.66136   3.69037   3.72489   3.73514
          Condensed to atoms (all electrons):
 Mulliken charges:
               1
     1  C    0.121698
     2  C   -0.029367
     3  C   -0.142144
     4  C   -0.110198
     5  N   -0.165591
     6  C   -0.085092
     7  C    0.050928
     8  C   -0.066796
     9  C   -0.011350
    10  C    0.035869
    11  C    0.158934
    12  C   -0.149788
    13  C    0.153273
    14  O   -0.205409
    15  O   -0.263978
    16  N   -0.039126
    17  C    0.068448
    18  C   -0.079231
    19  C    0.130051
    20  C    0.135061
    21  C    0.007113
    22  C   -0.127580
    23  C   -0.050887
    24  N   -0.269954
    25  C    0.088483
    26  C   -0.129014
    27  C   -0.117942
    28  C    0.082288
    29  C   -0.013693
    30  C    0.207469
    31  C   -0.005461
    32  N   -0.053019
    33  C    0.033426
    34  C   -0.108197
    35  C   -0.041967
    36  C    0.050140
    37  C   -0.075810
    38  C    0.101333
    39  O   -0.050771
    40  C   -0.203802
    41  C    0.217814
    42  O   -0.251737
    43  O   -0.330372
    44  C    0.201539
    45  C    0.284522
    46  C   -0.129598
    47  C   -0.135092
    48  C    0.125659
    49  C    0.054740
    50  C   -0.080865
    51  C    0.003819
    52  C   -0.091910
    53  C   -0.061038
    54  C    0.049953
    55  C    0.075723
    56  C   -0.018427
    57  C   -0.035201
    58  C   -0.016485
    59  C    0.109790
    60  C   -0.001389
    61  C    0.057269
    62  C   -0.089877
    63  C    0.033616
    64  C   -0.004111
    65  H   -0.055456
    66  H    0.028344
    67  H    0.028845
    68  H    0.009189
    69  H    0.008954
    70  H    0.014491
    71  H    0.035718
    72  H    0.031199
    73  H    0.031929
    74  H   -0.046920
    75  H    0.052239
    76  H    0.046251
    77  H    0.045837
    78  H    0.042111
    79  H    0.062334
    80  H   -0.024596
    81  H    0.042299
    82  H    0.017608
    83  H    0.055018
    84  H    0.044627
    85  H    0.001456
    86  H   -0.049065
    87  H   -0.011180
    88  H    0.007697
    89  H    0.019471
    90  H    0.008985
    91  H    0.027277
    92  H    0.067999
    93  H    0.089571
    94  H    0.088991
    95  H    0.045324
    96  H    0.035005
    97  H    0.012843
    98  H    0.027183
    99  H   -0.022803
   100  H    0.017893
   101  H   -0.026517
   102  H    0.035950
   103  H    0.033811
   104  H    0.008254
   105  H    0.020361
   106  H    0.013691
   107  H    0.002208
   108  H    0.007207
   109  H    0.020827
   110  H    0.016830
   111  H    0.033390
   112  H    0.034110
   113  H    0.008270
   114  H   -0.007533
   115  H   -0.006140
   116  H   -0.021597
   117  H    0.015437
   118  H   -0.001563
   119  H   -0.009126
   120  H   -0.027095
   121  H    0.033584
   122  H    0.018243
   123  H    0.007008
   124  H   -0.022014
   125  H   -0.048531
   126  H   -0.002016
   127  H    0.015522
   128  H   -0.024522
   129  H   -0.071304
   130  H   -0.011782
   131  H   -0.000813
   132  H   -0.005851
   133  H    0.042930
   134  H    0.014433
   135  H   -0.002652
   136  H    0.015887
   137  H    0.112244
   138  H    0.145505
 Sum of Mulliken charges =   0.00000
 Mulliken charges with hydrogens summed into heavy atoms:
               1
     1  C    0.121698
     2  C   -0.084823
     3  C   -0.113800
     4  C   -0.081353
     5  N   -0.165591
     6  C   -0.085092
     7  C    0.060116
     8  C   -0.057842
     9  C   -0.011350
    10  C    0.117277
    11  C    0.143943
    12  C   -0.051298
    13  C    0.153273
    14  O   -0.205409
    15  O   -0.263978
    16  N    0.073117
    17  C    0.068448
    18  C   -0.079231
    19  C    0.130051
    20  C    0.135061
    21  C    0.157395
    22  C   -0.152175
    23  C    0.009020
    24  N   -0.269954
    25  C    0.088483
    26  C   -0.129014
    27  C   -0.117942
    28  C    0.082288
    29  C    0.087407
    30  C    0.147224
    31  C    0.030692
    32  N    0.092486
    33  C    0.033426
    34  C   -0.108197
    35  C   -0.041967
    36  C    0.050140
    37  C    0.109037
    38  C    0.101333
    39  O   -0.050771
    40  C   -0.114811
    41  C    0.217814
    42  O   -0.251737
    43  O   -0.330372
    44  C    0.294711
    45  C    0.288902
    46  C   -0.111705
    47  C   -0.135092
    48  C    0.168903
    49  C    0.083354
    50  C   -0.064966
    51  C    0.031853
    52  C   -0.075081
    53  C    0.014731
    54  C    0.036280
    55  C    0.069563
    56  C   -0.029116
    57  C   -0.062297
    58  C    0.042350
    59  C    0.039245
    60  C    0.012118
    61  C   -0.038558
    62  C   -0.101658
    63  C    0.069881
    64  C    0.023557
 Electronic spatial extent (au):  <R**2>=         180796.0038
 Charge=              0.0000 electrons
 Dipole moment (field-independent basis, Debye):
    X=              2.6345    Y=              4.1045    Z=              0.4225  Tot=              4.8955
 Quadrupole moment (field-independent basis, Debye-Ang):
   XX=           -334.5407   YY=           -380.7312   ZZ=           -397.9533
   XY=            -16.8552   XZ=              6.4681   YZ=             -2.2218
 Traceless Quadrupole moment (field-independent basis, Debye-Ang):
   XX=             36.5343   YY=             -9.6561   ZZ=            -26.8782
   XY=            -16.8552   XZ=              6.4681   YZ=             -2.2218
 Octapole moment (field-independent basis, Debye-Ang**2):
  XXX=           -334.2418  YYY=             94.5717  ZZZ=             12.3574  XYY=           -133.9949
  XXY=             67.8688  XXZ=           -137.4398  XZZ=             46.4383  YZZ=            -19.3979
  YYZ=             54.9839  XYZ=            -51.6622
 Hexadecapole moment (field-independent basis, Debye-Ang**3):
 XXXX=        -215991.2372 YYYY=         -17137.3655 ZZZZ=          -4038.9783 XXXY=            -36.0922
 XXXZ=           1313.2631 YYYX=           -828.3212 YYYZ=           -209.6421 ZZZX=             17.3419
 ZZZY=           -127.4196 XXYY=         -41415.2645 XXZZ=         -39959.9092 YYZZ=          -3484.1722
 XXYZ=           -169.8795 YYXZ=           -137.2466 ZZXY=             -4.3889
 N-N= 8.264400713714D+03 E-N=-2.286314016021D+04  KE= 2.700503121041D+03
 1\1\GINC-PEDRO-RYZENSSD\SP\RB3LYP TD-FC\SVP\C55H74N4O5\PADAWAN\04-Aug-
 2019\0\\# td=(NStates=1) B3LYP/SVP\\TD\\0,1\C,0,-5.0014978479,-1.81783
 80259,0.3735322291\C,0,-4.9688372027,2.867813233,1.4518715731\C,0,-9.5
 781777275,3.2198227815,-0.2755160195\C,0,-9.8346515197,-1.6029410975,-
 0.8812506785\N,0,-5.3086400263,0.5844400669,0.8314215792\C,0,-4.533021
 9183,-0.6000567267,0.822105654\C,0,-3.0727069572,-0.3376802027,1.15877
 08729\C,0,-3.1597409395,1.0648753798,1.7432634321\C,0,-4.5140706002,1.
 513161134,1.2944230393\C,0,-3.0183304015,1.2556830806,3.3258204446\C,0
 ,-2.1554376145,-0.5794279045,0.0468326289\C,0,-0.6323464468,-0.3663948
 561,0.3863610888\C,0,0.3827519366,-0.6683637093,-0.7897705347\O,0,-0.0
 200902414,-1.0271550821,-1.8376173732\O,0,1.6092811252,-0.3479715703,-
 0.4428167244\N,0,-7.3191565103,2.6889161634,0.5082303322\C,0,-6.267648
 3402,3.5439188102,1.0395448114\C,0,-6.5740305888,4.9210985494,1.038660
 3588\C,0,-7.8764467415,4.9823170672,0.5652830557\C,0,-8.2859095369,3.5
 942379175,0.2280129567\C,0,-5.7106215787,6.0618416993,1.484669733\C,0,
 -8.5681340961,6.1307670883,0.3792664279\C,0,-9.3231002082,6.4432440463
 ,-0.7528277616\N,0,-9.1807162722,0.7459418272,-0.5450269711\C,0,-9.946
 5385168,1.9114436431,-0.5076100302\C,0,-11.3657304395,1.5535589169,-0.
 9366574996\C,0,-11.4802519757,0.218869227,-1.0973146862\C,0,-10.127855
 0112,-0.1957495267,-0.7976530078\C,0,-12.5096594668,2.6246809697,-0.94
 61777081\C,0,-12.6955572952,-0.6388863681,-1.2949704567\C,0,-12.948985
 0292,-0.8809613605,-2.7477029416\N,0,-7.4091398716,-1.2931610013,-0.27
 18657151\C,0,-8.4925508426,-2.1008088077,-0.6665300154\C,0,-8.01944438
 34,-3.4613330155,-0.6826808354\C,0,-6.6583307422,-3.4752143497,-0.3333
 40958\C,0,-6.3023913425,-2.0588987085,-0.0291778416\C,0,-8.6717699346,
 -4.7848092304,-1.0057995744\C,0,-5.4801149567,-4.3651015453,-0.0678858
 43\O,0,-5.3522447147,-5.4883583659,-0.0805853244\C,0,-4.4010977384,-3.
 1835291145,0.4572647886\C,0,-3.7822720251,-3.709555049,1.6812746532\O,
 0,-4.0215272262,-3.3038583197,2.809329001\O,0,-2.9260612937,-4.7591208
 85,1.4853589638\C,0,-2.3108057844,-5.3329027364,2.6968818278\C,0,2.657
 5979284,-0.6695808557,-1.3171057364\C,0,4.0190051473,-0.3978502874,-0.
 5848405842\C,0,5.015913848,0.3474758025,-1.1135453111\C,0,4.9964688426
 ,1.2032310548,-2.2082679436\C,0,6.267158461,0.3512628655,-0.1476136756
 \C,0,7.5674279832,-0.1113473176,-0.8681036773\C,0,8.9076523663,-0.1044
 144265,-0.0119395415\C,0,10.0942503507,-0.6101953461,-0.7308004348\C,0
 ,9.9557416128,-2.1791917221,-0.8967189568\C,0,11.4094147917,-0.2005143
 661,0.1059700413\C,0,12.7865403282,-0.6710124184,-0.7023247556\C,0,13.
 9321318026,-0.2588831145,0.1638884443\C,0,15.4151104228,-0.4740982913,
 -0.3918927472\C,0,15.8415937312,-1.970255891,-0.5519739657\C,0,16.4272
 534696,0.2306475821,0.4493139537\C,0,17.8520300918,0.4217850962,-0.172
 6311645\C,0,18.7953904633,1.1815124801,0.7304038566\C,0,20.1967615778,
 1.2536331679,0.1733290604\C,0,20.3865193508,1.8572723033,-1.2490929871
 \C,0,21.0939119125,1.9678981286,1.2527970679\H,0,-4.1864563059,3.48830
 0062,1.8296378447\H,0,-10.508558709,3.8872659687,-0.2342747502\H,0,-10
 .6106553219,-2.4926964251,-0.9378332564\H,0,-2.7985421812,-1.054874722
 7,1.9777486506\H,0,-2.2870800225,1.6845286761,1.3300559178\H,0,-2.0224
 825063,0.7428606545,3.5743265367\H,0,-3.0456700589,2.282693319,3.72335
 25305\H,0,-3.7044200389,0.5154667312,3.826307807\H,0,-2.1420497134,-1.
 5558003131,-0.5525196992\H,0,-2.1498883282,0.0770438954,-0.6957462688\
 H,0,-0.4334591657,0.8782916828,0.563546716\H,0,-0.1284031796,-0.989620
 9207,1.2963371421\H,0,-4.7936341799,6.1722515933,0.7227250723\H,0,-6.3
 05885795,7.0860835231,1.2757468693\H,0,-5.2204401308,5.8930373477,2.55
 03791719\H,0,-8.407225732,6.9994298175,0.8852600799\H,0,-9.4740827602,
 5.9138715477,-1.7260841945\H,0,-10.0061653631,7.2425329808,-0.53365358
 83\H,0,-13.1946738294,2.8019893861,0.1816903559\H,0,-12.0092547738,3.5
 838523426,-1.5456738842\H,0,-13.3244734701,2.3761854542,-1.5816625217\
 H,0,-12.6788002532,-1.4264215689,-0.7234670978\H,0,-13.5713341579,-0.0
 512809734,-0.9435167105\H,0,-13.158221452,0.0037471878,-3.3477221165\H
 ,0,-11.8961445825,-1.1917967533,-3.2095499071\H,0,-13.7244591994,-1.59
 11582106,-2.9541929616\H,0,-9.9254090897,-4.5624355634,-0.8317954815\H
 ,0,-8.6943734162,-5.0107890249,-2.2770746057\H,0,-8.2456097357,-5.7337
 016372,-0.3575537109\H,0,-3.4994817996,-3.2590921994,-0.4695683054\H,0
 ,-1.8881592089,-6.3248175775,2.3796813022\H,0,-1.8119096374,-4.6183553
 194,3.3549799406\H,0,-3.1350665231,-5.6648115728,3.3475416298\H,0,2.78
 61225198,-1.7968773312,-1.5133825053\H,0,2.5081657111,-0.2654341242,-2
 .2273705043\H,0,4.2376365354,-1.0071130256,0.3762655296\H,0,5.59171100
 03,2.0278852975,-2.0507797978\H,0,5.6014067579,0.7467806406,-3.0873301
 346\H,0,4.0288930075,1.7172229091,-2.5006108862\H,0,6.3833663528,1.442
 590384,0.0483146404\H,0,6.150813126,-0.2999098806,0.8393916466\H,0,7.4
 368304679,-1.2057072953,-1.2453552951\H,0,7.651654708,0.5953815588,-1.
 8281976488\H,0,9.1783933267,0.9683856799,0.3212822765\H,0,8.4246755304
 ,-0.8491890704,0.9425070631\H,0,10.210043673,-0.3300304463,-1.86627120
 21\H,0,8.9522955458,-2.6050391971,-1.1885474025\H,0,10.8929443255,-2.5
 660682066,-1.5490255075\H,0,10.1556805882,-2.519053591,0.212442975\H,0
 ,11.30732603,0.8506138415,-0.0337947943\H,0,11.3998359471,-0.422457482
 2,1.1254124714\H,0,12.8162763382,-1.6786194331,-0.7554287559\H,0,12.83
 99521474,-0.0910091799,-1.7245339871\H,0,13.8908802429,0.8755372645,0.
 381941105\H,0,13.8346876958,-0.7994963774,1.138670713\H,0,15.488561200
 3,-0.12256105,-1.4197939927\H,0,15.0435499079,-2.6631388957,-1.1011194
 451\H,0,16.7776716407,-1.90123416,-1.1364694308\H,0,16.0550607849,-2.2
 576008927,0.5109903704\H,0,16.1417544486,1.2382403943,0.7532357826\H,0
 ,16.4359382506,-0.2185712338,1.3527486975\H,0,18.4396351852,-0.4758817
 987,-0.4308229501\H,0,17.9627908647,1.0791298013,-1.1750259351\H,0,18.
 398814571,2.3245288488,0.9571711068\H,0,18.6991321674,0.9488006896,1.6
 751546655\H,0,20.6532416566,0.2864366047,0.1742185781\H,0,20.036591015
 7,2.9254908192,-1.1978516876\H,0,21.3950667504,2.0734854182,-1.4748105
 877\H,0,19.7426592389,1.2114767694,-1.9892211036\H,0,20.9349487314,1.5
 184133093,2.2869197286\H,0,22.1323960968,1.7658566131,1.0208962467\H,0
 ,20.9326128907,3.0974829479,1.2415428922\H,0,-7.1994317763,1.727461619
 4,0.4855103971\H,0,-7.7644179902,-0.3269428703,-0.1786779954\\Version=
 ES64L-G09RevD.01\State=1-A\HF=-2733.0211163\RMSD=7.594e-09\PG=C01 [X(C
 55H74N4O5)]\\@


 BETTER TO HUNT IN FIELDS, FOR HEALTH UNBOUGHT
 THAN FEE THE DOCTOR FOR A NAUSEOUS DRAUGHT.
 THE WISE, FOR CURE, ON EXERCISE DEPEND;
 GOD NEVER MADE HIS WORK FOR MAN TO MEND.
     -- JOHN DRYDEN (1631-1700)
 Job cpu time:       0 days  5 hours 16 minutes 57.4 seconds.
 File lengths (MBytes):  RWF=   1953 Int=      0 D2E=      0 Chk=    148 Scr=      1
 Normal termination of Gaussian 09 at Sun Aug  4 04:48:13 2019.
