 Entering Gaussian System, Link 0=g16
 Input=Geometria-325-.com
 Output=Geometria-325-.log
 Initial command:
 /usr/local/g09/l1.exe "/home/padawan/israel-mol/pheophytin/spectra/abs/Gau-108062.inp" -scrdir="/home/padawan/israel-mol/pheophytin/spectra/abs/"
 Entering Link 1 = /usr/local/g09/l1.exe PID=    108064.
  
 Copyright (c) 1988,1990,1992,1993,1995,1998,2003,2009,2013,
            Gaussian, Inc.  All Rights Reserved.
  
 This is part of the Gaussian(R) 09 program.  It is based on
 the Gaussian(R) 03 system (copyright 2003, Gaussian, Inc.),
 the Gaussian(R) 98 system (copyright 1998, Gaussian, Inc.),
 the Gaussian(R) 94 system (copyright 1995, Gaussian, Inc.),
 the Gaussian 92(TM) system (copyright 1992, Gaussian, Inc.),
 the Gaussian 90(TM) system (copyright 1990, Gaussian, Inc.),
 the Gaussian 88(TM) system (copyright 1988, Gaussian, Inc.),
 the Gaussian 86(TM) system (copyright 1986, Carnegie Mellon
 University), and the Gaussian 82(TM) system (copyright 1983,
 Carnegie Mellon University). Gaussian is a federally registered
 trademark of Gaussian, Inc.
  
 This software contains proprietary and confidential information,
 including trade secrets, belonging to Gaussian, Inc.
  
 This software is provided under written license and may be
 used, copied, transmitted, or stored only in accord with that
 written license.
  
 The following legend is applicable only to US Government
 contracts under FAR:
  
                    RESTRICTED RIGHTS LEGEND
  
 Use, reproduction and disclosure by the US Government is
 subject to restrictions as set forth in subparagraphs (a)
 and (c) of the Commercial Computer Software - Restricted
 Rights clause in FAR 52.227-19.
  
 Gaussian, Inc.
 340 Quinnipiac St., Bldg. 40, Wallingford CT 06492
  
  
 ---------------------------------------------------------------
 Warning -- This program may not be used in any manner that
 competes with the business of Gaussian, Inc. or will provide
 assistance to any competitor of Gaussian, Inc.  The licensee
 of this program is prohibited from giving any competitor of
 Gaussian, Inc. access to this program.  By using this program,
 the user acknowledges that Gaussian, Inc. is engaged in the
 business of creating and licensing software in the field of
 computational chemistry and represents and warrants to the
 licensee that it is not a competitor of Gaussian, Inc. and that
 it will not use this program in any manner prohibited above.
 ---------------------------------------------------------------
  

 Cite this work as:
 Gaussian 09, Revision D.01,
 M. J. Frisch, G. W. Trucks, H. B. Schlegel, G. E. Scuseria, 
 M. A. Robb, J. R. Cheeseman, G. Scalmani, V. Barone, B. Mennucci, 
 G. A. Petersson, H. Nakatsuji, M. Caricato, X. Li, H. P. Hratchian, 
 A. F. Izmaylov, J. Bloino, G. Zheng, J. L. Sonnenberg, M. Hada, 
 M. Ehara, K. Toyota, R. Fukuda, J. Hasegawa, M. Ishida, T. Nakajima, 
 Y. Honda, O. Kitao, H. Nakai, T. Vreven, J. A. Montgomery, Jr., 
 J. E. Peralta, F. Ogliaro, M. Bearpark, J. J. Heyd, E. Brothers, 
 K. N. Kudin, V. N. Staroverov, T. Keith, R. Kobayashi, J. Normand, 
 K. Raghavachari, A. Rendell, J. C. Burant, S. S. Iyengar, J. Tomasi, 
 M. Cossi, N. Rega, J. M. Millam, M. Klene, J. E. Knox, J. B. Cross, 
 V. Bakken, C. Adamo, J. Jaramillo, R. Gomperts, R. E. Stratmann, 
 O. Yazyev, A. J. Austin, R. Cammi, C. Pomelli, J. W. Ochterski, 
 R. L. Martin, K. Morokuma, V. G. Zakrzewski, G. A. Voth, 
 P. Salvador, J. J. Dannenberg, S. Dapprich, A. D. Daniels, 
 O. Farkas, J. B. Foresman, J. V. Ortiz, J. Cioslowski, 
 and D. J. Fox, Gaussian, Inc., Wallingford CT, 2013.
 
 ******************************************
 Gaussian 09:  ES64L-G09RevD.01 24-Apr-2013
                 3-Aug-2019 
 ******************************************
 %nproc=3
 Will use up to    3 processors via shared memory.
 %Mem=2GB
 --------------------------
 # td=(NStates=1) B3LYP/SVP
 --------------------------
 1/38=1/1;
 2/12=2,17=6,18=5,40=1/2;
 3/5=18,7=101,11=9,16=1,25=1,30=1,74=-5/1,2,8,3;
 4//1;
 5/5=2,38=5/2;
 8/6=1,10=1,108=1/1;
 9/41=1,42=1,70=2/14;
 6/7=2,8=2,9=2,10=2/1;
 99/5=1,9=1/99;
 --
 TD
 --
 Symbolic Z-matrix:
 Charge =  0 Multiplicity = 1
 6                    -5.16512  -1.96848   0.49404 
 6                    -4.72232   2.78648   1.29791 
 6                    -9.24427   3.37821  -0.32157 
 6                    -9.84434  -1.46685  -0.81541 
 7                    -5.25604   0.46197   0.84181 
 6                    -4.56808  -0.67585   0.86018 
 6                    -3.04884  -0.54507   1.28383 
 6                    -3.00759   0.89697   1.88186 
 6                    -4.40634   1.46785   1.29729 
 6                    -3.14549   0.87528   3.47316 
 6                    -2.16554  -0.79066   0.15091 
 6                    -0.6642   -0.79142   0.59719 
 6                     0.36911  -1.14114  -0.51544 
 8                     0.04706  -1.51785  -1.55663 
 8                     1.67294  -0.91434  -0.09094 
 7                    -6.94341   2.7813    0.38525 
 6                    -5.88978   3.41128   0.9047 
 6                    -6.19749   4.80989   0.96004 
 6                    -7.53463   4.93887   0.39937 
 6                    -7.98195   3.63067   0.13209 
 6                    -5.31015   5.88051   1.32265 
 6                    -8.14767   6.22397   0.27662 
 6                    -8.94349   6.65552  -0.65175 
 7                    -9.25334   0.83197  -0.38395 
 6                    -9.92119   2.05306  -0.51082 
 6                    -11.28642   1.91635  -0.92523 
 6                    -11.432    0.6042   -1.064 
 6                    -10.20085  -0.04405  -0.78586 
 6                    -12.30278   3.06473  -1.09941 
 6                    -12.7122  -0.14334  -1.57211 
 6                    -12.64734  -0.42033  -3.1201 
 7                    -7.55153  -1.26512  -0.13576 
 6                    -8.66798  -2.07355  -0.53305 
 6                    -8.28851  -3.51451  -0.50654 
 6                    -6.80456  -3.43675  -0.29372 
 6                    -6.49862  -2.04327   0.03028 
 6                    -9.09762  -4.66216  -0.85524 
 6                    -5.67449  -4.33202   0.06781 
 8                    -5.50127  -5.53684  -0.15882 
 6                    -4.50082  -3.27376   0.50809 
 6                    -3.85813  -3.83953   1.77679 
 8                    -4.1065   -3.42952   2.97039 
 8                    -3.00166  -4.79183   1.50281 
 6                    -2.5057   -5.68606   2.56211 
 6                     2.65346  -1.09993  -1.1442 
 6                     3.97842  -0.70638  -0.58467 
 6                     4.9219    0.00986  -1.10328 
 6                     4.7689    0.71378  -2.47415 
 6                     6.37953   0.16933  -0.49425 
 6                     7.55615  -0.45626  -1.14086 
 6                     8.80422  -0.22055  -0.315 
 6                     10.15701  -0.71476  -1.00505 
 6                     10.02315  -2.19649  -1.20932 
 6                     11.33641  -0.25324  -0.11244 
 6                     12.71454  -0.35726  -0.81647 
 6                     13.84281   0.17652   0.04146 
 6                     15.28954  -0.10651  -0.41586 
 6                     15.52458  -1.62438  -0.63054 
 6                     16.27754   0.55289   0.50307 
 6                     17.64505   0.72877  -0.04431 
 6                     18.58147   1.57902   0.81325 
 6                     20.06166   1.6405    0.34302 
 6                     20.14864   2.43626  -1.04852 
 6                     21.01798   2.21297   1.38479 
 1                    -3.93939   3.5192    1.55574 
 1                    -9.8924    4.19132  -0.46463 
 1                    -10.44648  -2.25559  -1.08976 
 1                    -2.87422  -1.28458   2.0259 
 1                    -2.19423   1.51339   1.6865 
 1                    -2.21525   0.46663   4.02613 
 1                    -2.87176   1.83381   3.84787 
 1                    -3.98234   0.52426   3.90858 
 1                    -2.43166  -1.78405  -0.34622 
 1                    -1.89079   0.02288  -0.5808 
 1                    -0.37487   0.43594   0.71896 
 1                    -0.2735   -1.19228   1.50825 
 1                    -4.36087   5.87222   0.75674 
 1                    -5.62905   6.92361   1.13939 
 1                    -5.0387    5.81862   2.39184 
 1                    -7.7774    6.88344   1.09972 
 1                    -9.25121   6.07184  -1.64882 
 1                    -9.29273   7.8162   -0.68338 
 1                    -12.60472   3.66417  -0.17281 
 1                    -11.83715   3.75836  -2.06889 
 1                    -13.26859   2.71597  -1.79666 
 1                    -12.68443  -1.06596  -1.12384 
 1                    -13.51857   0.4915   -1.43929 
 1                    -12.41591   0.52495  -3.66644 
 1                    -11.71435  -1.16222  -3.35192 
 1                    -13.68105  -0.71681  -3.39019 
 1                    -9.70673  -4.94655   0.12363 
 1                    -9.80294  -4.43749  -1.75975 
 1                    -8.41026  -5.59981  -1.24691 
 1                    -3.76557  -3.62171  -0.14312 
 1                    -1.88014  -6.33411   1.85394 
 1                    -1.71265  -5.13124   3.28354 
 1                    -3.15013  -6.14848   3.16589 
 1                     2.50296  -2.17783  -1.41689 
 1                     2.20112  -0.44698  -1.92087 
 1                     4.04104  -1.21332   0.38043 
 1                     5.08806   1.8902   -2.24038 
 1                     5.47881   0.42763  -3.31131 
 1                     3.86775   0.64612  -3.08169 
 1                     6.55209   1.2858   -0.35359 
 1                     6.20493  -0.15872   0.47968 
 1                     7.50506  -1.68225  -1.06089 
 1                     7.70377  -0.07601  -2.09343 
 1                     8.76118   0.83752  -0.10335 
 1                     8.50407  -0.71347   0.63517 
 1                     10.10592  -0.01717  -1.84021 
 1                     8.83192  -2.36479  -1.60642 
 1                     11.07664  -2.44201  -1.8266 
 1                     9.89429  -2.65339  -0.36147 
 1                     11.14945   0.78666   0.11849 
 1                     11.24596  -0.78461   0.96503 
 1                     12.8749  -1.38656  -0.99215 
 1                     12.69696   0.13158  -1.89149 
 1                     13.89601   1.27748  -0.03163 
 1                     13.70412  -0.12361   1.15325 
 1                     15.33952   0.3606   -1.42518 
 1                     14.78108  -2.20032  -0.97466 
 1                     16.56867  -1.99604  -0.8141 
 1                     15.32515  -1.90656   0.37599 
 1                     15.92386   1.59866   0.53597 
 1                     16.28842   0.03752   1.43977 
 1                     18.25705  -0.36272  -0.19725 
 1                     17.79303   0.92907  -1.14969 
 1                     18.45885   2.4223    0.92376 
 1                     18.70935   1.11772   1.66844 
 1                     20.20526   0.58785   0.13157 
 1                     19.80455   3.46972  -0.97614 
 1                     21.22579   2.44048  -1.46303 
 1                     19.49279   1.92933  -1.9381 
 1                     21.03283   1.65102   2.3663 
 1                     21.88641   2.22115   1.0287 
 1                     20.72712   3.25223   1.76122 
 1                    -6.72845   1.84316   0.36129 
 1                    -7.779    -0.30835   0.11557 
 
 Stoichiometry    C55H74N4O5
 Framework group  C1[X(C55H74N4O5)]
 Deg. of freedom   408
 Full point group                 C1      NOp   1
 Largest Abelian subgroup         C1      NOp   1
 Largest concise Abelian subgroup C1      NOp   1
                         Standard orientation:                         
 ---------------------------------------------------------------------
 Center     Atomic      Atomic             Coordinates (Angstroms)
 Number     Number       Type             X           Y           Z
 ---------------------------------------------------------------------
      1          6           0       -5.165881   -1.974603    0.474916
      2          6           0       -4.721161    2.770543    1.333810
      3          6           0       -9.243640    3.382527   -0.276642
      4          6           0       -9.845518   -1.456266   -0.826516
      5          7           0       -5.255849    0.451669    0.850960
      6          6           0       -4.568245   -0.686512    0.855787
      7          6           0       -3.048782   -0.561154    1.280249
      8          6           0       -3.006784    0.873821    1.894981
      9          6           0       -4.405611    1.451909    1.317723
     10          6           0       -3.143988    0.833671    3.485981
     11          6           0       -2.166063   -0.793838    0.144152
     12          6           0       -0.664525   -0.800270    0.589717
     13          6           0        0.368174   -1.137366   -0.527374
     14          8           0        0.045532   -1.501844   -1.572725
     15          8           0        1.672265   -0.915936   -0.100851
     16          7           0       -6.942656    2.776693    0.422153
     17          6           0       -5.888589    3.400250    0.948422
     18          6           0       -6.195818    4.798224    1.020160
     19          6           0       -7.533165    4.934151    0.461623
     20          6           0       -7.981030    3.629290    0.179359
     21          6           0       -5.307964    5.864275    1.394795
     22          6           0       -8.145838    6.220783    0.354099
     23          6           0       -8.941931    6.663354   -0.568826
     24          7           0       -9.253573    0.837189   -0.368619
     25          6           0       -9.921071    2.059885   -0.480982
     26          6           0      -11.286537    1.928441   -0.896335
     27          6           0      -11.432604    0.618042   -1.050292
     28          6           0      -10.201548   -0.033797   -0.780262
     29          6           0      -12.302594    3.079106   -1.056700
     30          6           0      -12.713278   -0.123120   -1.566480
     31          6           0      -12.649205   -0.382112   -3.117617
     32          7           0       -7.552341   -1.263193   -0.145596
     33          6           0       -8.669227   -2.066586   -0.551751
     34          6           0       -8.290221   -3.507882   -0.542174
     35          6           0       -6.806145   -3.433083   -0.329126
     36          6           0       -6.499609   -2.043560    0.010911
     37          6           0       -9.099864   -4.651137   -0.903832
     38          6           0       -5.676217   -4.332858    0.021456
     39          8           0       -5.503488   -5.535022   -0.219246
     40          6           0       -4.501996   -3.280168    0.473485
     41          6           0       -3.858928   -3.860859    1.735236
     42          8           0       -4.106627   -3.464677    2.933625
     43          8           0       -3.002892   -4.810191    1.449813
     44          6           0       -2.506749   -5.716831    2.498418
     45          6           0        2.652254   -1.089589   -1.156636
     46          6           0        3.977596   -0.702996   -0.593166
     47          6           0        4.921082    0.018924   -1.103841
     48          6           0        4.767693    0.738785   -2.466366
     49          6           0        6.379032    0.170834   -0.493649
     50          6           0        7.555155   -0.447582   -1.148021
     51          6           0        8.803676   -0.221887   -0.320036
     52          6           0       10.155990   -0.708477   -1.016393
     53          6           0       10.021554   -2.187696   -1.237819
     54          6           0       11.335940   -0.257752   -0.119012
     55          6           0       12.713727   -0.354025   -0.824818
     56          6           0       13.842555    0.169381    0.038745
     57          6           0       15.288983   -0.108782   -0.422477
     58          6           0       15.523433   -1.624128   -0.654904
     59          6           0       16.277610    0.539571    0.503607
     60          6           0       17.644934    0.721359   -0.042304
     61          6           0       18.582015    1.561284    0.824663
     62          6           0       20.062014    1.627749    0.354508
     63          6           0       20.148632    2.439605   -1.027724
     64          6           0       21.018993    2.187760    1.402437
     65          1           0       -3.937875    3.499971    1.599794
     66          1           0       -9.891560    4.197452   -0.409944
     67          1           0      -10.448036   -2.241573   -1.109742
     68          1           0       -2.874069   -1.309295    2.013592
     69          1           0       -2.193314    1.492212    1.706439
     70          1           0       -2.213634    0.418327    4.033750
     71          1           0       -2.869776    1.787695    3.871697
     72          1           0       -3.980753    0.477885    3.917667
     73          1           0       -2.432730   -1.781298   -0.364377
     74          1           0       -1.891376    0.028064   -0.578180
     75          1           0       -0.374742    0.425493    0.725619
     76          1           0       -0.273548   -1.211826    1.495875
     77          1           0       -4.358938    5.862257    0.828395
     78          1           0       -5.626600    6.909532    1.223819
     79          1           0       -5.036057    5.789866    2.463071
     80          1           0       -7.774985    6.870520    1.184650
     81          1           0       -9.250285    6.091408   -1.572476
     82          1           0       -9.290806    7.824441   -0.586802
     83          1           0      -12.603930    3.667820   -0.123049
     84          1           0      -11.837168    3.783806   -2.018252
     85          1           0      -13.268829    2.738783   -1.757524
     86          1           0      -12.685612   -1.050898   -1.128979
     87          1           0      -13.519380    0.510393   -1.425922
     88          1           0      -12.417701    0.569376   -3.653037
     89          1           0      -11.716554   -1.121566   -3.358471
     90          1           0      -13.683133   -0.675103   -3.390667
     91          1           0       -9.708625   -4.946700    0.071944
     92          1           0       -9.805516   -4.415742   -1.805349
     93          1           0       -8.412981   -5.584393   -1.306685
     94          1           0       -3.767152   -3.620760   -0.182053
     95          1           0       -1.881721   -6.356806    1.782480
     96          1           0       -1.713200   -5.170692    3.225898
     97          1           0       -3.151064   -6.186034    3.097076
     98          1           0        2.501285   -2.164188   -1.441777
     99          1           0        2.199779   -0.427505   -1.925459
    100          1           0        4.040476   -1.221146    0.365943
    101          1           0        5.087348    1.912304   -2.219071
    102          1           0        5.477144    0.462156   -3.307113
    103          1           0        3.866251    0.678478   -3.074240
    104          1           0        6.552024    1.285537   -0.340092
    105          1           0        6.204757   -0.168462    0.476474
    106          1           0        7.503699   -1.674405   -1.082284
    107          1           0        7.702477   -0.056323   -2.096175
    108          1           0        8.761077    0.833663   -0.096079
    109          1           0        8.503789   -0.725724    0.624469
    110          1           0       10.104763   -0.001211   -1.843363
    111          1           0        8.830097   -2.350975   -1.636312
    112          1           0       11.074693   -2.426355   -1.858389
    113          1           0        9.892929   -2.654375   -0.395285
    114          1           0       11.149427    0.779450    0.124080
    115          1           0       11.245800   -0.801588    0.952246
    116          1           0       12.873670   -1.381263   -1.012532
    117          1           0       12.695823    0.147291   -1.894078
    118          1           0       13.896081    1.271096   -0.021560
    119          1           0       13.704264   -0.143610    1.147038
    120          1           0       15.338664    0.370015   -1.426330
    121          1           0       14.779592   -2.195790   -1.005357
    122          1           0       16.567318   -1.993968   -0.843238
    123          1           0       15.324356   -1.917923    0.348366
    124          1           0       15.924292    1.584999    0.548828
    125          1           0       16.288744    0.013346    1.434245
    126          1           0       18.256505   -0.368473   -0.208201
    127          1           0       17.792491    0.934459   -1.145352
    128          1           0       18.459722    2.403258    0.945021
    129          1           0       18.710129    1.090026    1.674376
    130          1           0       20.205173    0.577578    0.130776
    131          1           0       19.804915    3.472260   -0.943174
    132          1           0       21.225602    2.448299   -1.442638
    133          1           0       19.492227    1.943263   -1.922836
    134          1           0       21.034091    1.614425    2.377338
    135          1           0       21.887264    2.199799    1.046072
    136          1           0       20.728640    3.222662    1.791061
    137          1           0       -6.728020    1.838833    0.387190
    138          1           0       -7.779380   -0.309339    0.116947
 ---------------------------------------------------------------------
 Rotational constants (GHZ):      0.0630549      0.0061554      0.0057799
 Standard basis: SVP (5D, 7F)
 There are  1330 symmetry adapted cartesian basis functions of A   symmetry.
 There are  1266 symmetry adapted basis functions of A   symmetry.
  1266 basis functions,  2118 primitive gaussians,  1330 cartesian basis functions
   236 alpha electrons      236 beta electrons
       nuclear repulsion energy      8284.2478426957 Hartrees.
 NAtoms=  138 NActive=  138 NUniq=  138 SFac= 1.00D+00 NAtFMM=   60 NAOKFM=T Big=T
 Integral buffers will be    131072 words long.
 Regular integral format.
 Two-electron integral symmetry is turned on.
 One-electron integrals computed using PRISM.
 NBasis=  1266 RedAO= T EigKep=  2.90D-04  NBF=  1266
 NBsUse=  1266 1.00D-06 EigRej= -1.00D+00 NBFU=  1266
 ExpMin= 1.22D-01 ExpMax= 2.27D+03 ExpMxC= 3.41D+02 IAcc=1 IRadAn=         1 AccDes= 0.00D+00
 Harris functional with IExCor=  402 and IRadAn=       1 diagonalized for initial guess.
 HarFok:  IExCor=  402 AccDes= 0.00D+00 IRadAn=         1 IDoV= 1 UseB2=F ITyADJ=14
 ICtDFT=  3500011 ScaDFX=  1.000000  1.000000  1.000000  1.000000
 FoFCou: FMM=F IPFlag=           0 FMFlag=      100000 FMFlg1=        2001
         NFxFlg=           0 DoJE=T BraDBF=F KetDBF=T FulRan=T
         wScrn=  0.000000 ICntrl=     500 IOpCl=  0 I1Cent=   200000004 NGrid=           0
         NMat0=    1 NMatS0=      1 NMatT0=    0 NMatD0=    1 NMtDS0=    0 NMtDT0=    0
 Petite list used in FoFCou.
 Requested convergence on RMS density matrix=1.00D-08 within 128 cycles.
 Requested convergence on MAX density matrix=1.00D-06.
 Requested convergence on             energy=1.00D-06.
 No special actions if energy rises.
 Integral accuracy reduced to 1.0D-05 until final iterations.
 Initial convergence to 1.0D-05 achieved.  Increase integral accuracy.
 SCF Done:  E(RB3LYP) =  -2732.98305840     A.U. after   17 cycles
            NFock= 17  Conv=0.56D-08     -V/T= 2.0112
 DoSCS=F DFT=T ScalE2(SS,OS)=  1.000000  1.000000
 ExpMin= 1.22D-01 ExpMax= 2.27D+03 ExpMxC= 3.41D+02 IAcc=3 IRadAn=         5 AccDes= 0.00D+00
 HarFok:  IExCor=  205 AccDes= 0.00D+00 IRadAn=         5 IDoV=-2 UseB2=F ITyADJ=14
 ICtDFT= 12500011 ScaDFX=  1.000000  1.000000  1.000000  1.000000
 Range of M.O.s used for correlation:    65  1266
 NBasis=  1266 NAE=   236 NBE=   236 NFC=    64 NFV=     0
 NROrb=   1202 NOA=   172 NOB=   172 NVA=  1030 NVB=  1030

 **** Warning!!: The smallest alpha delta epsilon is  0.88302658D-01

 Would need an additional        965744300000 words for in-memory AO integral storage.
 Orbital symmetries:
       Occupied  (A) (A) (A) (A) (A) (A) (A) (A) (A) (A) (A) (A)
                 (A) (A) (A) (A) (A) (A) (A) (A) (A) (A) (A) (A)
                 (A) (A) (A) (A) (A) (A) (A) (A) (A) (A) (A) (A)
                 (A) (A) (A) (A) (A) (A) (A) (A) (A) (A) (A) (A)
                 (A) (A) (A) (A) (A) (A) (A) (A) (A) (A) (A) (A)
                 (A) (A) (A) (A) (A) (A) (A) (A) (A) (A) (A) (A)
                 (A) (A) (A) (A) (A) (A) (A) (A) (A) (A) (A) (A)
                 (A) (A) (A) (A) (A) (A) (A) (A) (A) (A) (A) (A)
                 (A) (A) (A) (A) (A) (A) (A) (A) (A) (A) (A) (A)
                 (A) (A) (A) (A) (A) (A) (A) (A) (A) (A) (A) (A)
                 (A) (A) (A) (A) (A) (A) (A) (A) (A) (A) (A) (A)
                 (A) (A) (A) (A) (A) (A) (A) (A) (A) (A) (A) (A)
                 (A) (A) (A) (A) (A) (A) (A) (A) (A) (A) (A) (A)
                 (A) (A) (A) (A) (A) (A) (A) (A) (A) (A) (A) (A)
                 (A) (A) (A) (A) (A) (A) (A) (A) (A) (A) (A) (A)
                 (A) (A) (A) (A) (A) (A) (A) (A) (A) (A) (A) (A)
                 (A) (A) (A) (A) (A) (A) (A) (A) (A) (A) (A) (A)
                 (A) (A) (A) (A) (A) (A) (A) (A) (A) (A) (A) (A)
                 (A) (A) (A) (A) (A) (A) (A) (A) (A) (A) (A) (A)
                 (A) (A) (A) (A) (A) (A) (A) (A)
       Virtual   (A) (A) (A) (A) (A) (A) (A) (A) (A) (A) (A) (A)
                 (A) (A) (A) (A) (A) (A) (A) (A) (A) (A) (A) (A)
                 (A) (A) (A) (A) (A) (A) (A) (A) (A) (A) (A) (A)
                 (A) (A) (A) (A) (A) (A) (A) (A) (A) (A) (A) (A)
                 (A) (A) (A) (A) (A) (A) (A) (A) (A) (A) (A) (A)
                 (A) (A) (A) (A) (A) (A) (A) (A) (A) (A) (A) (A)
                 (A) (A) (A) (A) (A) (A) (A) (A) (A) (A) (A) (A)
                 (A) (A) (A) (A) (A) (A) (A) (A) (A) (A) (A) (A)
                 (A) (A) (A) (A) (A) (A) (A) (A) (A) (A) (A) (A)
                 (A) (A) (A) (A) (A) (A) (A) (A) (A) (A) (A) (A)
                 (A) (A) (A) (A) (A) (A) (A) (A) (A) (A) (A) (A)
                 (A) (A) (A) (A) (A) (A) (A) (A) (A) (A) (A) (A)
                 (A) (A) (A) (A) (A) (A) (A) (A) (A) (A) (A) (A)
                 (A) (A) (A) (A) (A) (A) (A) (A) (A) (A) (A) (A)
                 (A) (A) (A) (A) (A) (A) (A) (A) (A) (A) (A) (A)
                 (A) (A) (A) (A) (A) (A) (A) (A) (A) (A) (A) (A)
                 (A) (A) (A) (A) (A) (A) (A) (A) (A) (A) (A) (A)
                 (A) (A) (A) (A) (A) (A) (A) (A) (A) (A) (A) (A)
                 (A) (A) (A) (A) (A) (A) (A) (A) (A) (A) (A) (A)
                 (A) (A) (A) (A) (A) (A) (A) (A) (A) (A) (A) (A)
                 (A) (A) (A) (A) (A) (A) (A) (A) (A) (A) (A) (A)
                 (A) (A) (A) (A) (A) (A) (A) (A) (A) (A) (A) (A)
                 (A) (A) (A) (A) (A) (A) (A) (A) (A) (A) (A) (A)
                 (A) (A) (A) (A) (A) (A) (A) (A) (A) (A) (A) (A)
                 (A) (A) (A) (A) (A) (A) (A) (A) (A) (A) (A) (A)
                 (A) (A) (A) (A) (A) (A) (A) (A) (A) (A) (A) (A)
                 (A) (A) (A) (A) (A) (A) (A) (A) (A) (A) (A) (A)
                 (A) (A) (A) (A) (A) (A) (A) (A) (A) (A) (A) (A)
                 (A) (A) (A) (A) (A) (A) (A) (A) (A) (A) (A) (A)
                 (A) (A) (A) (A) (A) (A) (A) (A) (A) (A) (A) (A)
                 (A) (A) (A) (A) (A) (A) (A) (A) (A) (A) (A) (A)
                 (A) (A) (A) (A) (A) (A) (A) (A) (A) (A) (A) (A)
                 (A) (A) (A) (A) (A) (A) (A) (A) (A) (A) (A) (A)
                 (A) (A) (A) (A) (A) (A) (A) (A) (A) (A) (A) (A)
                 (A) (A) (A) (A) (A) (A) (A) (A) (A) (A) (A) (A)
                 (A) (A) (A) (A) (A) (A) (A) (A) (A) (A) (A) (A)
                 (A) (A) (A) (A) (A) (A) (A) (A) (A) (A) (A) (A)
                 (A) (A) (A) (A) (A) (A) (A) (A) (A) (A) (A) (A)
                 (A) (A) (A) (A) (A) (A) (A) (A) (A) (A) (A) (A)
                 (A) (A) (A) (A) (A) (A) (A) (A) (A) (A) (A) (A)
                 (A) (A) (A) (A) (A) (A) (A) (A) (A) (A) (A) (A)
                 (A) (A) (A) (A) (A) (A) (A) (A) (A) (A) (A) (A)
                 (A) (A) (A) (A) (A) (A) (A) (A) (A) (A) (A) (A)
                 (A) (A) (A) (A) (A) (A) (A) (A) (A) (A) (A) (A)
                 (A) (A) (A) (A) (A) (A) (A) (A) (A) (A) (A) (A)
                 (A) (A) (A) (A) (A) (A) (A) (A) (A) (A) (A) (A)
                 (A) (A) (A) (A) (A) (A) (A) (A) (A) (A) (A) (A)
                 (A) (A) (A) (A) (A) (A) (A) (A) (A) (A) (A) (A)
                 (A) (A) (A) (A) (A) (A) (A) (A) (A) (A) (A) (A)
                 (A) (A) (A) (A) (A) (A) (A) (A) (A) (A) (A) (A)
                 (A) (A) (A) (A) (A) (A) (A) (A) (A) (A) (A) (A)
                 (A) (A) (A) (A) (A) (A) (A) (A) (A) (A) (A) (A)
                 (A) (A) (A) (A) (A) (A) (A) (A) (A) (A) (A) (A)
                 (A) (A) (A) (A) (A) (A) (A) (A) (A) (A) (A) (A)
                 (A) (A) (A) (A) (A) (A) (A) (A) (A) (A) (A) (A)
                 (A) (A) (A) (A) (A) (A) (A) (A) (A) (A) (A) (A)
                 (A) (A) (A) (A) (A) (A) (A) (A) (A) (A) (A) (A)
                 (A) (A) (A) (A) (A) (A) (A) (A) (A) (A) (A) (A)
                 (A) (A) (A) (A) (A) (A) (A) (A) (A) (A) (A) (A)
                 (A) (A) (A) (A) (A) (A) (A) (A) (A) (A) (A) (A)
                 (A) (A) (A) (A) (A) (A) (A) (A) (A) (A) (A) (A)
                 (A) (A) (A) (A) (A) (A) (A) (A) (A) (A) (A) (A)
                 (A) (A) (A) (A) (A) (A) (A) (A) (A) (A) (A) (A)
                 (A) (A) (A) (A) (A) (A) (A) (A) (A) (A) (A) (A)
                 (A) (A) (A) (A) (A) (A) (A) (A) (A) (A) (A) (A)
                 (A) (A) (A) (A) (A) (A) (A) (A) (A) (A) (A) (A)
                 (A) (A) (A) (A) (A) (A) (A) (A) (A) (A) (A) (A)
                 (A) (A) (A) (A) (A) (A) (A) (A) (A) (A) (A) (A)
                 (A) (A) (A) (A) (A) (A) (A) (A) (A) (A) (A) (A)
                 (A) (A) (A) (A) (A) (A) (A) (A) (A) (A) (A) (A)
                 (A) (A) (A) (A) (A) (A) (A) (A) (A) (A) (A) (A)
                 (A) (A) (A) (A) (A) (A) (A) (A) (A) (A) (A) (A)
                 (A) (A) (A) (A) (A) (A) (A) (A) (A) (A) (A) (A)
                 (A) (A) (A) (A) (A) (A) (A) (A) (A) (A) (A) (A)
                 (A) (A) (A) (A) (A) (A) (A) (A) (A) (A) (A) (A)
                 (A) (A) (A) (A) (A) (A) (A) (A) (A) (A) (A) (A)
                 (A) (A) (A) (A) (A) (A) (A) (A) (A) (A) (A) (A)
                 (A) (A) (A) (A) (A) (A) (A) (A) (A) (A) (A) (A)
                 (A) (A) (A) (A) (A) (A) (A) (A) (A) (A) (A) (A)
                 (A) (A) (A) (A) (A) (A) (A) (A) (A) (A) (A) (A)
                 (A) (A) (A) (A) (A) (A) (A) (A) (A) (A) (A) (A)
                 (A) (A) (A) (A) (A) (A) (A) (A) (A) (A) (A) (A)
                 (A) (A) (A) (A) (A) (A) (A) (A) (A) (A) (A) (A)
                 (A) (A) (A) (A) (A) (A) (A) (A) (A) (A) (A) (A)
                 (A) (A) (A) (A) (A) (A) (A) (A) (A) (A) (A) (A)
                 (A) (A) (A) (A) (A) (A) (A) (A) (A) (A)
     8 initial guesses have been made.
 Convergence on wavefunction:    0.001000000000000
 Iteration     1 Dimension     8 NMult     0 NNew      8
 CISAX will form     8 AO SS matrices at one time.
 Iteration     2 Dimension    12 NMult     8 NNew      4
 Iteration     3 Dimension    16 NMult    12 NNew      4
 Iteration     4 Dimension    20 NMult    16 NNew      4
 Iteration     5 Dimension    24 NMult    20 NNew      4
 Iteration     6 Dimension    28 NMult    24 NNew      4
 ***********************************************************************
 Excited states from <AA,BB:AA,BB> singles matrix:
 ***********************************************************************
 
 Ground to excited state transition densities written to RWF  633
 Ground to excited state transition electric dipole moments (Au):
       state          X           Y           Z        Dip. S.      Osc.
         1        -0.1559      1.5688      0.1297      2.5022      0.1247
 Ground to excited state transition velocity dipole moments (Au):
       state          X           Y           Z        Dip. S.      Osc.
         1         0.0107     -0.1136     -0.0095      0.0131      0.1170
 Ground to excited state transition magnetic dipole moments (Au):
       state          X           Y           Z
         1        -0.3848     -0.2786      2.9629
 Ground to excited state transition velocity quadrupole moments (Au):
       state          XX          YY          ZZ          XY          XZ          YZ
         1        -0.2722     -0.1349     -0.0319      1.4480      0.0814     -0.0661
 <0|del|b> * <b|rxdel|0> + <0|del|b> * <b|delr+rdel|0>
 Rotatory Strengths (R) in cgs (10**-40 erg-esu-cm/Gauss)
       state          XX          YY          ZZ    R(velocity)    E-M Angle
         1        -5.2859    -91.0916     89.9119     -2.1552       90.11
 1/2[<0|r|b>*<b|rxdel|0> + (<0|rxdel|b>*<b|r|0>)*]
 Rotatory Strengths (R) in cgs (10**-40 erg-esu-cm/Gauss)
       state          XX          YY          ZZ     R(length)
         1       -42.4165    309.1185   -271.7196     -1.6725
  1/2[<0|del|b>*<b|r|0> + (<0|r|b>*<b|del|0>)*] (Au)
       state          X           Y           Z        Dip. S.   Osc.(frdel)
         1        -0.0017     -0.1783     -0.0012      0.1812      0.1208

 Excitation energies and oscillator strengths:
 
 Excited State   1:      Singlet-A      2.0340 eV  609.55 nm  f=0.1247  <S**2>=0.000
     235 -> 237       -0.10149
     235 -> 238        0.34027
     236 -> 237        0.60277
 This state for optimization and/or second-order correction.
 Total Energy, E(TD-HF/TD-KS) =  -2732.90830892    
 Copying the excited state density for this state as the 1-particle RhoCI density.
 SavETr:  write IOETrn=   770 NScale= 10 NData=  16 NLR=1 NState=    1 LETran=      28.

 **********************************************************************

            Population analysis using the SCF density.

 **********************************************************************

 Orbital symmetries:
       Occupied  (A) (A) (A) (A) (A) (A) (A) (A) (A) (A) (A) (A)
                 (A) (A) (A) (A) (A) (A) (A) (A) (A) (A) (A) (A)
                 (A) (A) (A) (A) (A) (A) (A) (A) (A) (A) (A) (A)
                 (A) (A) (A) (A) (A) (A) (A) (A) (A) (A) (A) (A)
                 (A) (A) (A) (A) (A) (A) (A) (A) (A) (A) (A) (A)
                 (A) (A) (A) (A) (A) (A) (A) (A) (A) (A) (A) (A)
                 (A) (A) (A) (A) (A) (A) (A) (A) (A) (A) (A) (A)
                 (A) (A) (A) (A) (A) (A) (A) (A) (A) (A) (A) (A)
                 (A) (A) (A) (A) (A) (A) (A) (A) (A) (A) (A) (A)
                 (A) (A) (A) (A) (A) (A) (A) (A) (A) (A) (A) (A)
                 (A) (A) (A) (A) (A) (A) (A) (A) (A) (A) (A) (A)
                 (A) (A) (A) (A) (A) (A) (A) (A) (A) (A) (A) (A)
                 (A) (A) (A) (A) (A) (A) (A) (A) (A) (A) (A) (A)
                 (A) (A) (A) (A) (A) (A) (A) (A) (A) (A) (A) (A)
                 (A) (A) (A) (A) (A) (A) (A) (A) (A) (A) (A) (A)
                 (A) (A) (A) (A) (A) (A) (A) (A) (A) (A) (A) (A)
                 (A) (A) (A) (A) (A) (A) (A) (A) (A) (A) (A) (A)
                 (A) (A) (A) (A) (A) (A) (A) (A) (A) (A) (A) (A)
                 (A) (A) (A) (A) (A) (A) (A) (A) (A) (A) (A) (A)
                 (A) (A) (A) (A) (A) (A) (A) (A)
       Virtual   (A) (A) (A) (A) (A) (A) (A) (A) (A) (A) (A) (A)
                 (A) (A) (A) (A) (A) (A) (A) (A) (A) (A) (A) (A)
                 (A) (A) (A) (A) (A) (A) (A) (A) (A) (A) (A) (A)
                 (A) (A) (A) (A) (A) (A) (A) (A) (A) (A) (A) (A)
                 (A) (A) (A) (A) (A) (A) (A) (A) (A) (A) (A) (A)
                 (A) (A) (A) (A) (A) (A) (A) (A) (A) (A) (A) (A)
                 (A) (A) (A) (A) (A) (A) (A) (A) (A) (A) (A) (A)
                 (A) (A) (A) (A) (A) (A) (A) (A) (A) (A) (A) (A)
                 (A) (A) (A) (A) (A) (A) (A) (A) (A) (A) (A) (A)
                 (A) (A) (A) (A) (A) (A) (A) (A) (A) (A) (A) (A)
                 (A) (A) (A) (A) (A) (A) (A) (A) (A) (A) (A) (A)
                 (A) (A) (A) (A) (A) (A) (A) (A) (A) (A) (A) (A)
                 (A) (A) (A) (A) (A) (A) (A) (A) (A) (A) (A) (A)
                 (A) (A) (A) (A) (A) (A) (A) (A) (A) (A) (A) (A)
                 (A) (A) (A) (A) (A) (A) (A) (A) (A) (A) (A) (A)
                 (A) (A) (A) (A) (A) (A) (A) (A) (A) (A) (A) (A)
                 (A) (A) (A) (A) (A) (A) (A) (A) (A) (A) (A) (A)
                 (A) (A) (A) (A) (A) (A) (A) (A) (A) (A) (A) (A)
                 (A) (A) (A) (A) (A) (A) (A) (A) (A) (A) (A) (A)
                 (A) (A) (A) (A) (A) (A) (A) (A) (A) (A) (A) (A)
                 (A) (A) (A) (A) (A) (A) (A) (A) (A) (A) (A) (A)
                 (A) (A) (A) (A) (A) (A) (A) (A) (A) (A) (A) (A)
                 (A) (A) (A) (A) (A) (A) (A) (A) (A) (A) (A) (A)
                 (A) (A) (A) (A) (A) (A) (A) (A) (A) (A) (A) (A)
                 (A) (A) (A) (A) (A) (A) (A) (A) (A) (A) (A) (A)
                 (A) (A) (A) (A) (A) (A) (A) (A) (A) (A) (A) (A)
                 (A) (A) (A) (A) (A) (A) (A) (A) (A) (A) (A) (A)
                 (A) (A) (A) (A) (A) (A) (A) (A) (A) (A) (A) (A)
                 (A) (A) (A) (A) (A) (A) (A) (A) (A) (A) (A) (A)
                 (A) (A) (A) (A) (A) (A) (A) (A) (A) (A) (A) (A)
                 (A) (A) (A) (A) (A) (A) (A) (A) (A) (A) (A) (A)
                 (A) (A) (A) (A) (A) (A) (A) (A) (A) (A) (A) (A)
                 (A) (A) (A) (A) (A) (A) (A) (A) (A) (A) (A) (A)
                 (A) (A) (A) (A) (A) (A) (A) (A) (A) (A) (A) (A)
                 (A) (A) (A) (A) (A) (A) (A) (A) (A) (A) (A) (A)
                 (A) (A) (A) (A) (A) (A) (A) (A) (A) (A) (A) (A)
                 (A) (A) (A) (A) (A) (A) (A) (A) (A) (A) (A) (A)
                 (A) (A) (A) (A) (A) (A) (A) (A) (A) (A) (A) (A)
                 (A) (A) (A) (A) (A) (A) (A) (A) (A) (A) (A) (A)
                 (A) (A) (A) (A) (A) (A) (A) (A) (A) (A) (A) (A)
                 (A) (A) (A) (A) (A) (A) (A) (A) (A) (A) (A) (A)
                 (A) (A) (A) (A) (A) (A) (A) (A) (A) (A) (A) (A)
                 (A) (A) (A) (A) (A) (A) (A) (A) (A) (A) (A) (A)
                 (A) (A) (A) (A) (A) (A) (A) (A) (A) (A) (A) (A)
                 (A) (A) (A) (A) (A) (A) (A) (A) (A) (A) (A) (A)
                 (A) (A) (A) (A) (A) (A) (A) (A) (A) (A) (A) (A)
                 (A) (A) (A) (A) (A) (A) (A) (A) (A) (A) (A) (A)
                 (A) (A) (A) (A) (A) (A) (A) (A) (A) (A) (A) (A)
                 (A) (A) (A) (A) (A) (A) (A) (A) (A) (A) (A) (A)
                 (A) (A) (A) (A) (A) (A) (A) (A) (A) (A) (A) (A)
                 (A) (A) (A) (A) (A) (A) (A) (A) (A) (A) (A) (A)
                 (A) (A) (A) (A) (A) (A) (A) (A) (A) (A) (A) (A)
                 (A) (A) (A) (A) (A) (A) (A) (A) (A) (A) (A) (A)
                 (A) (A) (A) (A) (A) (A) (A) (A) (A) (A) (A) (A)
                 (A) (A) (A) (A) (A) (A) (A) (A) (A) (A) (A) (A)
                 (A) (A) (A) (A) (A) (A) (A) (A) (A) (A) (A) (A)
                 (A) (A) (A) (A) (A) (A) (A) (A) (A) (A) (A) (A)
                 (A) (A) (A) (A) (A) (A) (A) (A) (A) (A) (A) (A)
                 (A) (A) (A) (A) (A) (A) (A) (A) (A) (A) (A) (A)
                 (A) (A) (A) (A) (A) (A) (A) (A) (A) (A) (A) (A)
                 (A) (A) (A) (A) (A) (A) (A) (A) (A) (A) (A) (A)
                 (A) (A) (A) (A) (A) (A) (A) (A) (A) (A) (A) (A)
                 (A) (A) (A) (A) (A) (A) (A) (A) (A) (A) (A) (A)
                 (A) (A) (A) (A) (A) (A) (A) (A) (A) (A) (A) (A)
                 (A) (A) (A) (A) (A) (A) (A) (A) (A) (A) (A) (A)
                 (A) (A) (A) (A) (A) (A) (A) (A) (A) (A) (A) (A)
                 (A) (A) (A) (A) (A) (A) (A) (A) (A) (A) (A) (A)
                 (A) (A) (A) (A) (A) (A) (A) (A) (A) (A) (A) (A)
                 (A) (A) (A) (A) (A) (A) (A) (A) (A) (A) (A) (A)
                 (A) (A) (A) (A) (A) (A) (A) (A) (A) (A) (A) (A)
                 (A) (A) (A) (A) (A) (A) (A) (A) (A) (A) (A) (A)
                 (A) (A) (A) (A) (A) (A) (A) (A) (A) (A) (A) (A)
                 (A) (A) (A) (A) (A) (A) (A) (A) (A) (A) (A) (A)
                 (A) (A) (A) (A) (A) (A) (A) (A) (A) (A) (A) (A)
                 (A) (A) (A) (A) (A) (A) (A) (A) (A) (A) (A) (A)
                 (A) (A) (A) (A) (A) (A) (A) (A) (A) (A) (A) (A)
                 (A) (A) (A) (A) (A) (A) (A) (A) (A) (A) (A) (A)
                 (A) (A) (A) (A) (A) (A) (A) (A) (A) (A) (A) (A)
                 (A) (A) (A) (A) (A) (A) (A) (A) (A) (A) (A) (A)
                 (A) (A) (A) (A) (A) (A) (A) (A) (A) (A) (A) (A)
                 (A) (A) (A) (A) (A) (A) (A) (A) (A) (A) (A) (A)
                 (A) (A) (A) (A) (A) (A) (A) (A) (A) (A) (A) (A)
                 (A) (A) (A) (A) (A) (A) (A) (A) (A) (A) (A) (A)
                 (A) (A) (A) (A) (A) (A) (A) (A) (A) (A) (A) (A)
                 (A) (A) (A) (A) (A) (A) (A) (A) (A) (A) (A) (A)
                 (A) (A) (A) (A) (A) (A) (A) (A) (A) (A)
 The electronic state is 1-A.
 Alpha  occ. eigenvalues --  -19.18861 -19.16243 -19.12951 -19.12738 -19.10694
 Alpha  occ. eigenvalues --  -14.36406 -14.36250 -14.32814 -14.29906 -10.31390
 Alpha  occ. eigenvalues --  -10.30916 -10.28644 -10.25888 -10.24490 -10.24026
 Alpha  occ. eigenvalues --  -10.23819 -10.23668 -10.23578 -10.23313 -10.23275
 Alpha  occ. eigenvalues --  -10.23025 -10.22700 -10.22573 -10.21293 -10.21258
 Alpha  occ. eigenvalues --  -10.21101 -10.21001 -10.20963 -10.20916 -10.20602
 Alpha  occ. eigenvalues --  -10.20448 -10.20427 -10.20320 -10.20245 -10.20171
 Alpha  occ. eigenvalues --  -10.20106 -10.20070 -10.19877 -10.19863 -10.19658
 Alpha  occ. eigenvalues --  -10.19656 -10.19306 -10.19247 -10.19179 -10.19122
 Alpha  occ. eigenvalues --  -10.19114 -10.19099 -10.19018 -10.18969 -10.18813
 Alpha  occ. eigenvalues --  -10.18742 -10.18717 -10.18566 -10.18546 -10.18422
 Alpha  occ. eigenvalues --  -10.18140 -10.17980 -10.17896 -10.17850 -10.17748
 Alpha  occ. eigenvalues --  -10.17573 -10.17163 -10.16126 -10.14156  -1.09832
 Alpha  occ. eigenvalues --   -1.09244  -1.01868  -1.01498  -0.99809  -0.97631
 Alpha  occ. eigenvalues --   -0.96213  -0.93859  -0.93460  -0.84345  -0.83142
 Alpha  occ. eigenvalues --   -0.82922  -0.82479  -0.81416  -0.81156  -0.81041
 Alpha  occ. eigenvalues --   -0.80517  -0.80313  -0.79029  -0.78276  -0.77654
 Alpha  occ. eigenvalues --   -0.77193  -0.76481  -0.75703  -0.75131  -0.74549
 Alpha  occ. eigenvalues --   -0.73906  -0.73084  -0.72404  -0.71658  -0.71217
 Alpha  occ. eigenvalues --   -0.69904  -0.69249  -0.69156  -0.68627  -0.67432
 Alpha  occ. eigenvalues --   -0.67348  -0.66902  -0.66709  -0.65584  -0.65161
 Alpha  occ. eigenvalues --   -0.64191  -0.63557  -0.62835  -0.62401  -0.61724
 Alpha  occ. eigenvalues --   -0.60696  -0.59095  -0.58692  -0.58022  -0.57640
 Alpha  occ. eigenvalues --   -0.57197  -0.56803  -0.56302  -0.56008  -0.55486
 Alpha  occ. eigenvalues --   -0.55113  -0.54871  -0.54626  -0.53733  -0.52925
 Alpha  occ. eigenvalues --   -0.52664  -0.52012  -0.51194  -0.50856  -0.49675
 Alpha  occ. eigenvalues --   -0.49590  -0.49176  -0.48876  -0.48735  -0.48500
 Alpha  occ. eigenvalues --   -0.48276  -0.47531  -0.47415  -0.47346  -0.47126
 Alpha  occ. eigenvalues --   -0.46910  -0.46593  -0.46558  -0.46000  -0.45866
 Alpha  occ. eigenvalues --   -0.45447  -0.45366  -0.45288  -0.45163  -0.45023
 Alpha  occ. eigenvalues --   -0.44592  -0.44417  -0.44248  -0.44161  -0.43737
 Alpha  occ. eigenvalues --   -0.43625  -0.43604  -0.43213  -0.42843  -0.42605
 Alpha  occ. eigenvalues --   -0.42447  -0.42176  -0.41884  -0.41736  -0.41633
 Alpha  occ. eigenvalues --   -0.41547  -0.41229  -0.41162  -0.40883  -0.40415
 Alpha  occ. eigenvalues --   -0.40329  -0.39861  -0.39761  -0.39547  -0.39357
 Alpha  occ. eigenvalues --   -0.39123  -0.38982  -0.38884  -0.38676  -0.38505
 Alpha  occ. eigenvalues --   -0.38340  -0.38072  -0.37887  -0.37775  -0.37717
 Alpha  occ. eigenvalues --   -0.37466  -0.37083  -0.37055  -0.36962  -0.36604
 Alpha  occ. eigenvalues --   -0.36333  -0.35916  -0.35868  -0.35685  -0.35624
 Alpha  occ. eigenvalues --   -0.35421  -0.34965  -0.34887  -0.34748  -0.34699
 Alpha  occ. eigenvalues --   -0.34576  -0.34363  -0.34289  -0.34183  -0.33745
 Alpha  occ. eigenvalues --   -0.33418  -0.32880  -0.32712  -0.32629  -0.32392
 Alpha  occ. eigenvalues --   -0.32159  -0.32115  -0.31764  -0.31628  -0.31316
 Alpha  occ. eigenvalues --   -0.30976  -0.30391  -0.30045  -0.30027  -0.29566
 Alpha  occ. eigenvalues --   -0.29547  -0.29202  -0.28587  -0.28430  -0.28244
 Alpha  occ. eigenvalues --   -0.27590  -0.27291  -0.26482  -0.25909  -0.25802
 Alpha  occ. eigenvalues --   -0.25616  -0.24776  -0.23647  -0.23021  -0.19632
 Alpha  occ. eigenvalues --   -0.19133
 Alpha virt. eigenvalues --   -0.10302  -0.08294  -0.04435  -0.01514  -0.00419
 Alpha virt. eigenvalues --    0.00510   0.00726   0.01583   0.02387   0.02971
 Alpha virt. eigenvalues --    0.03348   0.04252   0.04408   0.04615   0.04851
 Alpha virt. eigenvalues --    0.05005   0.05328   0.05498   0.05761   0.05834
 Alpha virt. eigenvalues --    0.06310   0.06476   0.06562   0.06909   0.07032
 Alpha virt. eigenvalues --    0.07264   0.07705   0.07884   0.07926   0.08020
 Alpha virt. eigenvalues --    0.08090   0.08689   0.08876   0.09035   0.09170
 Alpha virt. eigenvalues --    0.09338   0.09585   0.09921   0.10139   0.10237
 Alpha virt. eigenvalues --    0.10300   0.10557   0.10657   0.10835   0.10881
 Alpha virt. eigenvalues --    0.11298   0.11322   0.11578   0.11619   0.11870
 Alpha virt. eigenvalues --    0.12040   0.12072   0.12371   0.12473   0.12582
 Alpha virt. eigenvalues --    0.12661   0.12697   0.12935   0.13047   0.13080
 Alpha virt. eigenvalues --    0.13573   0.13761   0.13914   0.13992   0.14135
 Alpha virt. eigenvalues --    0.14288   0.14369   0.14544   0.14683   0.14691
 Alpha virt. eigenvalues --    0.14890   0.15251   0.15405   0.15528   0.15810
 Alpha virt. eigenvalues --    0.16516   0.16561   0.16716   0.16727   0.17032
 Alpha virt. eigenvalues --    0.17204   0.17263   0.17653   0.17817   0.17933
 Alpha virt. eigenvalues --    0.18387   0.18489   0.18650   0.18706   0.18811
 Alpha virt. eigenvalues --    0.19120   0.19363   0.19648   0.19825   0.20285
 Alpha virt. eigenvalues --    0.20399   0.20458   0.20522   0.20707   0.20935
 Alpha virt. eigenvalues --    0.21079   0.21573   0.21747   0.22014   0.22164
 Alpha virt. eigenvalues --    0.22275   0.22510   0.22798   0.23025   0.23517
 Alpha virt. eigenvalues --    0.23684   0.23923   0.24015   0.24239   0.24649
 Alpha virt. eigenvalues --    0.24710   0.24799   0.24887   0.25532   0.25815
 Alpha virt. eigenvalues --    0.25961   0.26451   0.26591   0.27241   0.27285
 Alpha virt. eigenvalues --    0.27955   0.28378   0.28462   0.28574   0.29170
 Alpha virt. eigenvalues --    0.29362   0.29575   0.30627   0.31202   0.31484
 Alpha virt. eigenvalues --    0.31861   0.31953   0.32206   0.32487   0.33034
 Alpha virt. eigenvalues --    0.33354   0.33480   0.33745   0.34019   0.34487
 Alpha virt. eigenvalues --    0.34654   0.35045   0.36159   0.36505   0.36796
 Alpha virt. eigenvalues --    0.37340   0.37592   0.37735   0.38096   0.38209
 Alpha virt. eigenvalues --    0.38704   0.38797   0.39168   0.39405   0.39694
 Alpha virt. eigenvalues --    0.40285   0.40479   0.40543   0.40694   0.41029
 Alpha virt. eigenvalues --    0.41177   0.41620   0.41745   0.41775   0.42120
 Alpha virt. eigenvalues --    0.42253   0.42426   0.42709   0.42807   0.43247
 Alpha virt. eigenvalues --    0.43396   0.43648   0.43949   0.44143   0.44463
 Alpha virt. eigenvalues --    0.44748   0.44985   0.45005   0.45140   0.45637
 Alpha virt. eigenvalues --    0.45937   0.46252   0.46380   0.46524   0.46694
 Alpha virt. eigenvalues --    0.47014   0.47303   0.47521   0.47840   0.47991
 Alpha virt. eigenvalues --    0.48440   0.48650   0.48850   0.49047   0.49123
 Alpha virt. eigenvalues --    0.49311   0.49446   0.49611   0.49883   0.49953
 Alpha virt. eigenvalues --    0.50155   0.50287   0.50695   0.50757   0.51041
 Alpha virt. eigenvalues --    0.51215   0.51756   0.51878   0.52140   0.52482
 Alpha virt. eigenvalues --    0.52617   0.53118   0.53324   0.53840   0.53898
 Alpha virt. eigenvalues --    0.54082   0.54485   0.54857   0.54979   0.55300
 Alpha virt. eigenvalues --    0.55517   0.55639   0.55795   0.56075   0.56432
 Alpha virt. eigenvalues --    0.56487   0.56828   0.57396   0.57546   0.57740
 Alpha virt. eigenvalues --    0.57922   0.58041   0.58241   0.58408   0.58536
 Alpha virt. eigenvalues --    0.58731   0.58849   0.59082   0.59256   0.59435
 Alpha virt. eigenvalues --    0.59530   0.59795   0.59849   0.59939   0.60128
 Alpha virt. eigenvalues --    0.60174   0.60416   0.60519   0.60653   0.60905
 Alpha virt. eigenvalues --    0.61193   0.61372   0.61763   0.61909   0.62055
 Alpha virt. eigenvalues --    0.62078   0.62263   0.62370   0.62474   0.62587
 Alpha virt. eigenvalues --    0.62665   0.62791   0.62861   0.62902   0.63170
 Alpha virt. eigenvalues --    0.63384   0.63472   0.63717   0.63762   0.63924
 Alpha virt. eigenvalues --    0.64050   0.64247   0.64444   0.64522   0.64702
 Alpha virt. eigenvalues --    0.64876   0.64950   0.65065   0.65299   0.65373
 Alpha virt. eigenvalues --    0.65511   0.65718   0.66038   0.66115   0.66233
 Alpha virt. eigenvalues --    0.66259   0.66501   0.66728   0.66872   0.66942
 Alpha virt. eigenvalues --    0.67052   0.67237   0.67304   0.67444   0.67610
 Alpha virt. eigenvalues --    0.67763   0.67817   0.67964   0.68205   0.68411
 Alpha virt. eigenvalues --    0.68523   0.68752   0.68796   0.68995   0.69162
 Alpha virt. eigenvalues --    0.69270   0.69324   0.69457   0.69554   0.69709
 Alpha virt. eigenvalues --    0.69817   0.69915   0.70017   0.70223   0.70416
 Alpha virt. eigenvalues --    0.70661   0.70687   0.70892   0.71051   0.71368
 Alpha virt. eigenvalues --    0.71488   0.71531   0.71709   0.71854   0.71988
 Alpha virt. eigenvalues --    0.72162   0.72384   0.72567   0.73010   0.73158
 Alpha virt. eigenvalues --    0.73261   0.73516   0.73588   0.73863   0.73899
 Alpha virt. eigenvalues --    0.74110   0.74247   0.74363   0.74643   0.74989
 Alpha virt. eigenvalues --    0.75171   0.75284   0.75553   0.75654   0.75940
 Alpha virt. eigenvalues --    0.75970   0.76251   0.76403   0.76637   0.76877
 Alpha virt. eigenvalues --    0.76952   0.77325   0.77491   0.77589   0.77825
 Alpha virt. eigenvalues --    0.77973   0.78139   0.78414   0.79640   0.79744
 Alpha virt. eigenvalues --    0.79932   0.80127   0.81026   0.81244   0.81406
 Alpha virt. eigenvalues --    0.81610   0.81866   0.81956   0.82096   0.82177
 Alpha virt. eigenvalues --    0.82991   0.83342   0.83690   0.84302   0.84930
 Alpha virt. eigenvalues --    0.85330   0.85520   0.86100   0.86278   0.86390
 Alpha virt. eigenvalues --    0.87004   0.87275   0.87507   0.88925   0.89081
 Alpha virt. eigenvalues --    0.89455   0.89836   0.90105   0.90598   0.91154
 Alpha virt. eigenvalues --    0.91237   0.91756   0.91971   0.92717   0.92940
 Alpha virt. eigenvalues --    0.93252   0.94102   0.94597   0.95236   0.95476
 Alpha virt. eigenvalues --    0.96376   0.96924   0.97291   0.97807   0.97921
 Alpha virt. eigenvalues --    0.98182   0.98405   0.98981   0.99485   0.99601
 Alpha virt. eigenvalues --    1.00189   1.00651   1.01053   1.01163   1.01610
 Alpha virt. eigenvalues --    1.01982   1.03017   1.03194   1.03586   1.04280
 Alpha virt. eigenvalues --    1.04460   1.04802   1.05008   1.05205   1.06239
 Alpha virt. eigenvalues --    1.06485   1.06706   1.06874   1.07429   1.07848
 Alpha virt. eigenvalues --    1.08074   1.08521   1.09175   1.09742   1.10107
 Alpha virt. eigenvalues --    1.10802   1.10925   1.11728   1.11988   1.13021
 Alpha virt. eigenvalues --    1.13170   1.13318   1.14035   1.14215   1.15321
 Alpha virt. eigenvalues --    1.15408   1.15812   1.16266   1.16447   1.16792
 Alpha virt. eigenvalues --    1.17378   1.17521   1.17804   1.17980   1.18059
 Alpha virt. eigenvalues --    1.18724   1.19170   1.20031   1.20489   1.20716
 Alpha virt. eigenvalues --    1.21660   1.21789   1.22152   1.22859   1.23058
 Alpha virt. eigenvalues --    1.23217   1.23736   1.24177   1.24516   1.24840
 Alpha virt. eigenvalues --    1.25070   1.25466   1.25986   1.26356   1.26604
 Alpha virt. eigenvalues --    1.27524   1.28150   1.28419   1.28461   1.28899
 Alpha virt. eigenvalues --    1.29039   1.29298   1.29761   1.30356   1.30575
 Alpha virt. eigenvalues --    1.30734   1.31295   1.31619   1.31725   1.32592
 Alpha virt. eigenvalues --    1.33301   1.33436   1.33986   1.34563   1.34696
 Alpha virt. eigenvalues --    1.35151   1.35589   1.36030   1.36377   1.36899
 Alpha virt. eigenvalues --    1.37214   1.37341   1.37627   1.37808   1.38027
 Alpha virt. eigenvalues --    1.38896   1.39706   1.39781   1.40563   1.40879
 Alpha virt. eigenvalues --    1.41147   1.42008   1.42231   1.43185   1.43366
 Alpha virt. eigenvalues --    1.44171   1.44460   1.44789   1.45214   1.45676
 Alpha virt. eigenvalues --    1.46037   1.46525   1.46876   1.47027   1.47346
 Alpha virt. eigenvalues --    1.47460   1.47756   1.48791   1.48831   1.49001
 Alpha virt. eigenvalues --    1.49617   1.49858   1.50208   1.50465   1.50922
 Alpha virt. eigenvalues --    1.51164   1.51718   1.51855   1.52333   1.52610
 Alpha virt. eigenvalues --    1.52865   1.53353   1.53788   1.54260   1.54459
 Alpha virt. eigenvalues --    1.54776   1.54923   1.55060   1.55594   1.56088
 Alpha virt. eigenvalues --    1.56120   1.56332   1.56381   1.56842   1.58142
 Alpha virt. eigenvalues --    1.58755   1.59016   1.59317   1.59567   1.59938
 Alpha virt. eigenvalues --    1.60285   1.61080   1.61550   1.62325   1.62380
 Alpha virt. eigenvalues --    1.62816   1.63271   1.63602   1.64236   1.64480
 Alpha virt. eigenvalues --    1.64944   1.64988   1.65365   1.65654   1.65802
 Alpha virt. eigenvalues --    1.66164   1.66191   1.66419   1.66624   1.66639
 Alpha virt. eigenvalues --    1.67126   1.67501   1.67654   1.67767   1.68556
 Alpha virt. eigenvalues --    1.68633   1.68886   1.68989   1.69141   1.69231
 Alpha virt. eigenvalues --    1.69778   1.69872   1.69964   1.70524   1.70649
 Alpha virt. eigenvalues --    1.70772   1.70815   1.70994   1.71336   1.71599
 Alpha virt. eigenvalues --    1.72082   1.72236   1.72356   1.72921   1.73116
 Alpha virt. eigenvalues --    1.73245   1.73678   1.73876   1.73989   1.74372
 Alpha virt. eigenvalues --    1.74489   1.74631   1.74744   1.74859   1.75157
 Alpha virt. eigenvalues --    1.75558   1.75608   1.75812   1.76138   1.76265
 Alpha virt. eigenvalues --    1.76536   1.76630   1.76952   1.77107   1.77241
 Alpha virt. eigenvalues --    1.77705   1.77823   1.78030   1.78131   1.78302
 Alpha virt. eigenvalues --    1.78727   1.79057   1.79531   1.79974   1.80153
 Alpha virt. eigenvalues --    1.80568   1.80648   1.80812   1.81000   1.81083
 Alpha virt. eigenvalues --    1.81543   1.81761   1.82078   1.82254   1.82542
 Alpha virt. eigenvalues --    1.82619   1.83130   1.83267   1.83615   1.83634
 Alpha virt. eigenvalues --    1.83865   1.84259   1.84566   1.84717   1.84795
 Alpha virt. eigenvalues --    1.85048   1.85090   1.85293   1.85494   1.85731
 Alpha virt. eigenvalues --    1.85748   1.85922   1.86276   1.86383   1.86906
 Alpha virt. eigenvalues --    1.86941   1.87170   1.87733   1.87870   1.88094
 Alpha virt. eigenvalues --    1.88222   1.88476   1.88959   1.89098   1.89466
 Alpha virt. eigenvalues --    1.89549   1.90178   1.90334   1.90417   1.90519
 Alpha virt. eigenvalues --    1.90796   1.91543   1.91850   1.91908   1.92033
 Alpha virt. eigenvalues --    1.92280   1.92716   1.92990   1.93156   1.93319
 Alpha virt. eigenvalues --    1.93436   1.93915   1.94046   1.94295   1.94553
 Alpha virt. eigenvalues --    1.94717   1.94810   1.95204   1.95358   1.95722
 Alpha virt. eigenvalues --    1.96110   1.96188   1.96722   1.96831   1.96950
 Alpha virt. eigenvalues --    1.97010   1.97477   1.98136   1.98409   1.98455
 Alpha virt. eigenvalues --    1.98748   1.99304   1.99594   1.99679   1.99779
 Alpha virt. eigenvalues --    2.00021   2.00661   2.00866   2.01504   2.01661
 Alpha virt. eigenvalues --    2.02185   2.02461   2.02789   2.03071   2.03521
 Alpha virt. eigenvalues --    2.03914   2.03959   2.04546   2.05055   2.05255
 Alpha virt. eigenvalues --    2.05667   2.06046   2.06387   2.06611   2.06814
 Alpha virt. eigenvalues --    2.07142   2.07333   2.07622   2.07946   2.07987
 Alpha virt. eigenvalues --    2.08293   2.08579   2.08666   2.09674   2.09857
 Alpha virt. eigenvalues --    2.10028   2.10736   2.11073   2.11645   2.11975
 Alpha virt. eigenvalues --    2.12185   2.12346   2.13003   2.13391   2.13461
 Alpha virt. eigenvalues --    2.13683   2.13893   2.14355   2.14860   2.15133
 Alpha virt. eigenvalues --    2.15386   2.16127   2.16211   2.16871   2.17613
 Alpha virt. eigenvalues --    2.17759   2.18375   2.18663   2.18747   2.19106
 Alpha virt. eigenvalues --    2.19133   2.19505   2.19721   2.19836   2.20150
 Alpha virt. eigenvalues --    2.20600   2.21079   2.21195   2.21489   2.21709
 Alpha virt. eigenvalues --    2.22314   2.22439   2.22890   2.23164   2.24773
 Alpha virt. eigenvalues --    2.24835   2.25428   2.25870   2.26424   2.26712
 Alpha virt. eigenvalues --    2.27005   2.27281   2.27623   2.27838   2.28548
 Alpha virt. eigenvalues --    2.28706   2.29075   2.29335   2.29852   2.30038
 Alpha virt. eigenvalues --    2.31036   2.31248   2.31478   2.31874   2.32677
 Alpha virt. eigenvalues --    2.32970   2.33490   2.33922   2.34334   2.34462
 Alpha virt. eigenvalues --    2.34559   2.35022   2.35669   2.35986   2.36600
 Alpha virt. eigenvalues --    2.36803   2.37137   2.37395   2.37936   2.38150
 Alpha virt. eigenvalues --    2.38534   2.38884   2.39417   2.39927   2.40312
 Alpha virt. eigenvalues --    2.40618   2.40899   2.41029   2.41430   2.41913
 Alpha virt. eigenvalues --    2.42462   2.42833   2.42876   2.43076   2.43375
 Alpha virt. eigenvalues --    2.43582   2.43808   2.44368   2.44706   2.45052
 Alpha virt. eigenvalues --    2.45229   2.45871   2.46101   2.46371   2.47636
 Alpha virt. eigenvalues --    2.48489   2.48697   2.49371   2.49604   2.49729
 Alpha virt. eigenvalues --    2.50092   2.50453   2.51196   2.51327   2.51502
 Alpha virt. eigenvalues --    2.51726   2.51961   2.52638   2.52869   2.53370
 Alpha virt. eigenvalues --    2.53511   2.54188   2.54459   2.54664   2.55158
 Alpha virt. eigenvalues --    2.55481   2.55932   2.56113   2.56811   2.56935
 Alpha virt. eigenvalues --    2.58000   2.58116   2.58916   2.60382   2.60820
 Alpha virt. eigenvalues --    2.61000   2.61699   2.61924   2.62203   2.62348
 Alpha virt. eigenvalues --    2.62723   2.63096   2.63409   2.63734   2.64418
 Alpha virt. eigenvalues --    2.64532   2.65072   2.65221   2.65934   2.66225
 Alpha virt. eigenvalues --    2.66366   2.67065   2.67288   2.67663   2.68157
 Alpha virt. eigenvalues --    2.68316   2.68915   2.69093   2.69368   2.69446
 Alpha virt. eigenvalues --    2.70234   2.70284   2.70577   2.70777   2.72138
 Alpha virt. eigenvalues --    2.72163   2.72571   2.73575   2.74036   2.74873
 Alpha virt. eigenvalues --    2.75432   2.75528   2.75855   2.76329   2.76754
 Alpha virt. eigenvalues --    2.77454   2.77808   2.78213   2.79065   2.79299
 Alpha virt. eigenvalues --    2.80004   2.80302   2.80560   2.80748   2.80925
 Alpha virt. eigenvalues --    2.81189   2.81291   2.81744   2.81877   2.82526
 Alpha virt. eigenvalues --    2.82628   2.83003   2.83460   2.84184   2.84650
 Alpha virt. eigenvalues --    2.84872   2.85196   2.85586   2.86061   2.86210
 Alpha virt. eigenvalues --    2.86909   2.88295   2.88557   2.89615   2.90001
 Alpha virt. eigenvalues --    2.90275   2.90575   2.91398   2.91479   2.91573
 Alpha virt. eigenvalues --    2.92186   2.92839   2.94054   2.94163   2.94724
 Alpha virt. eigenvalues --    2.95370   2.95518   2.95726   2.95804   2.96693
 Alpha virt. eigenvalues --    2.97219   2.97722   2.98036   2.98810   2.99240
 Alpha virt. eigenvalues --    2.99664   3.00948   3.01454   3.01720   3.01811
 Alpha virt. eigenvalues --    3.02310   3.02579   3.02930   3.03232   3.03755
 Alpha virt. eigenvalues --    3.05003   3.05044   3.05301   3.05449   3.06964
 Alpha virt. eigenvalues --    3.07760   3.08623   3.08956   3.09565   3.09666
 Alpha virt. eigenvalues --    3.12473   3.12606   3.12727   3.13497   3.13985
 Alpha virt. eigenvalues --    3.14787   3.15338   3.16130   3.16718   3.17838
 Alpha virt. eigenvalues --    3.17841   3.18852   3.19083   3.20344   3.20861
 Alpha virt. eigenvalues --    3.21707   3.23224   3.23298   3.23605   3.25888
 Alpha virt. eigenvalues --    3.26066   3.29296   3.30674   3.31913   3.35938
 Alpha virt. eigenvalues --    3.37763   3.39295   3.41551   3.44711   3.48284
 Alpha virt. eigenvalues --    3.49909   3.56800   3.59373   3.61847   3.63410
 Alpha virt. eigenvalues --    3.65610   3.66757   3.70537   3.72620   3.75948
          Condensed to atoms (all electrons):
 Mulliken charges:
               1
     1  C    0.041393
     2  C   -0.049180
     3  C   -0.089483
     4  C    0.007392
     5  N   -0.187094
     6  C   -0.060065
     7  C    0.069529
     8  C   -0.021097
     9  C    0.033097
    10  C    0.093616
    11  C    0.067895
    12  C   -0.058599
    13  C    0.152606
    14  O   -0.169277
    15  O   -0.371510
    16  N    0.060206
    17  C   -0.002213
    18  C   -0.119964
    19  C    0.020119
    20  C    0.191000
    21  C    0.082425
    22  C   -0.027674
    23  C   -0.106013
    24  N   -0.245704
    25  C    0.014426
    26  C   -0.101412
    27  C   -0.114014
    28  C    0.090274
    29  C   -0.029866
    30  C    0.178781
    31  C   -0.048151
    32  N   -0.020865
    33  C   -0.007570
    34  C   -0.040142
    35  C   -0.081359
    36  C    0.102886
    37  C   -0.035891
    38  C    0.090385
    39  O   -0.195409
    40  C   -0.041903
    41  C    0.182399
    42  O   -0.307659
    43  O   -0.279330
    44  C    0.186933
    45  C    0.266635
    46  C   -0.084564
    47  C   -0.071682
    48  C   -0.005104
    49  C    0.084038
    50  C    0.061447
    51  C   -0.064494
    52  C   -0.025399
    53  C    0.068748
    54  C    0.003537
    55  C    0.076958
    56  C   -0.004808
    57  C   -0.093434
    58  C    0.106056
    59  C    0.144210
    60  C   -0.068252
    61  C    0.287557
    62  C   -0.129415
    63  C   -0.053346
    64  C    0.122688
    65  H   -0.031967
    66  H   -0.047513
    67  H   -0.087565
    68  H   -0.003499
    69  H   -0.034227
    70  H    0.004112
    71  H   -0.019022
    72  H    0.013142
    73  H    0.043503
    74  H    0.020339
    75  H    0.038200
    76  H    0.019516
    77  H    0.024097
    78  H    0.010034
    79  H    0.022198
    80  H    0.018829
    81  H    0.057799
    82  H    0.044177
    83  H    0.068822
    84  H    0.037863
    85  H    0.033738
    86  H   -0.020554
    87  H   -0.024461
    88  H    0.011853
    89  H    0.032242
    90  H    0.022915
    91  H    0.069095
    92  H    0.058887
    93  H    0.079723
    94  H    0.029055
    95  H    0.055003
    96  H    0.046295
    97  H    0.026983
    98  H    0.029031
    99  H    0.013334
   100  H   -0.012670
   101  H    0.028266
   102  H    0.027216
   103  H    0.011409
   104  H    0.000526
   105  H   -0.033825
   106  H    0.022872
   107  H   -0.021040
   108  H   -0.023194
   109  H   -0.014358
   110  H   -0.015279
   111  H    0.024702
   112  H    0.047174
   113  H   -0.043013
   114  H   -0.020151
   115  H    0.006522
   116  H   -0.024864
   117  H    0.007219
   118  H   -0.009611
   119  H    0.004682
   120  H   -0.019742
   121  H   -0.035054
   122  H    0.019429
   123  H   -0.045152
   124  H   -0.009112
   125  H   -0.010231
   126  H   -0.020649
   127  H   -0.005361
   128  H   -0.142267
   129  H   -0.058803
   130  H   -0.018266
   131  H    0.011908
   132  H    0.018775
   133  H    0.026178
   134  H    0.004364
   135  H   -0.050488
   136  H    0.005545
   137  H    0.086900
   138  H    0.142172
 Sum of Mulliken charges =   0.00000
 Mulliken charges with hydrogens summed into heavy atoms:
               1
     1  C    0.041393
     2  C   -0.081147
     3  C   -0.136996
     4  C   -0.080173
     5  N   -0.187094
     6  C   -0.060065
     7  C    0.066030
     8  C   -0.055324
     9  C    0.033097
    10  C    0.091848
    11  C    0.131737
    12  C   -0.000882
    13  C    0.152606
    14  O   -0.169277
    15  O   -0.371510
    16  N    0.147106
    17  C   -0.002213
    18  C   -0.119964
    19  C    0.020119
    20  C    0.191000
    21  C    0.138754
    22  C   -0.008846
    23  C   -0.004037
    24  N   -0.245704
    25  C    0.014426
    26  C   -0.101412
    27  C   -0.114014
    28  C    0.090274
    29  C    0.110558
    30  C    0.133767
    31  C    0.018859
    32  N    0.121307
    33  C   -0.007570
    34  C   -0.040142
    35  C   -0.081359
    36  C    0.102886
    37  C    0.171813
    38  C    0.090385
    39  O   -0.195409
    40  C   -0.012848
    41  C    0.182399
    42  O   -0.307659
    43  O   -0.279330
    44  C    0.315214
    45  C    0.309000
    46  C   -0.097234
    47  C   -0.071682
    48  C    0.061787
    49  C    0.050738
    50  C    0.063279
    51  C   -0.102046
    52  C   -0.040678
    53  C    0.097611
    54  C   -0.010091
    55  C    0.059313
    56  C   -0.009737
    57  C   -0.113176
    58  C    0.045279
    59  C    0.124867
    60  C   -0.094262
    61  C    0.086486
    62  C   -0.147681
    63  C    0.003515
    64  C    0.082109
 Electronic spatial extent (au):  <R**2>=         178555.0613
 Charge=              0.0000 electrons
 Dipole moment (field-independent basis, Debye):
    X=              1.9313    Y=              4.0925    Z=              0.6476  Tot=              4.5714
 Quadrupole moment (field-independent basis, Debye-Ang):
   XX=           -355.0979   YY=           -372.8980   ZZ=           -398.1470
   XY=            -14.3205   XZ=             16.9433   YZ=             -3.3395
 Traceless Quadrupole moment (field-independent basis, Debye-Ang):
   XX=             20.2830   YY=              2.4830   ZZ=            -22.7660
   XY=            -14.3205   XZ=             16.9433   YZ=             -3.3395
 Octapole moment (field-independent basis, Debye-Ang**2):
  XXX=           -417.1345  YYY=             71.3261  ZZZ=             13.4181  XYY=           -125.7378
  XXY=            147.9156  XXZ=            -46.0119  XZZ=             33.5759  YZZ=             -5.0627
  YYZ=             76.9709  XYZ=            -32.0158
 Hexadecapole moment (field-independent basis, Debye-Ang**3):
 XXXX=        -219523.2331 YYYY=         -17438.9899 ZZZZ=          -4294.4223 XXXY=           1273.2073
 XXXZ=           4115.9692 YYYX=           -836.3900 YYYZ=           -334.2506 ZZZX=             33.7039
 ZZZY=            -66.0511 XXYY=         -39968.8486 XXZZ=         -39225.3466 YYZZ=          -3630.4903
 XXYZ=            -42.8107 YYXZ=             19.0903 ZZXY=             28.2909
 N-N= 8.284247842696D+03 E-N=-2.290420435462D+04  KE= 2.702698014013D+03
 1\1\GINC-PEDRO-RYZENSSD\SP\RB3LYP TD-FC\SVP\C55H74N4O5\PADAWAN\03-Aug-
 2019\0\\# td=(NStates=1) B3LYP/SVP\\TD\\0,1\C,0,-5.1651242105,-1.96848
 30904,0.4940442803\C,0,-4.7223225513,2.7864750992,1.2979061765\C,0,-9.
 2442743371,3.3782086201,-0.321570625\C,0,-9.8443424887,-1.4668474881,-
 0.8154140948\N,0,-5.2560447668,0.4619678197,0.8418126183\C,0,-4.568075
 4236,-0.6758543064,0.8601794613\C,0,-3.048844571,-0.5450709418,1.28383
 33791\C,0,-3.007585724,0.8969685892,1.8818572915\C,0,-4.4063398271,1.4
 678466026,1.2972933263\C,0,-3.1454931178,0.8752750398,3.4731551781\C,0
 ,-2.1655386246,-0.7906590276,0.1509130369\C,0,-0.6641996322,-0.7914173
 583,0.5971921719\C,0,0.3691105725,-1.141140987,-0.5154431019\O,0,0.047
 0564732,-1.517854152,-1.5566292744\O,0,1.6729374908,-0.9143382069,-0.0
 909415369\N,0,-6.9434089355,2.7812954013,0.385248034\C,0,-5.8897805535
 ,3.4112755459,0.904701327\C,0,-6.197492935,4.8098874282,0.960042497\C,
 0,-7.5346325601,4.9388727228,0.399366464\C,0,-7.9819491408,3.630671560
 9,0.1320933647\C,0,-5.3101515317,5.8805135665,1.3226535314\C,0,-8.1476
 720499,6.2239664082,0.2766161629\C,0,-8.9434922474,6.6555152734,-0.651
 7476536\N,0,-9.253343535,0.83197043,-0.3839508635\C,0,-9.9211859815,2.
 0530578045,-0.5108203512\C,0,-11.2864225088,1.9163451955,-0.9252263565
 \C,0,-11.4319971502,0.6041977599,-1.0640013548\C,0,-10.2008523109,-0.0
 440543571,-0.7858618287\C,0,-12.3027787788,3.0647349751,-1.0994130316\
 C,0,-12.7121989594,-0.1433368132,-1.5721081705\C,0,-12.6473448652,-0.4
 203252969,-3.1201001813\N,0,-7.551534111,-1.265118197,-0.1357621047\C,
 0,-8.6679783853,-2.0735460814,-0.5330466671\C,0,-8.2885112901,-3.51450
 8333,-0.5065432216\C,0,-6.8045553646,-3.4367505034,-0.2937169956\C,0,-
 6.4986209655,-2.0432671453,0.030278104\C,0,-9.0976225199,-4.6621569652
 ,-0.8552445189\C,0,-5.6744943946,-4.3320182369,0.0678077264\O,0,-5.501
 2696172,-5.5368432144,-0.1588231482\C,0,-4.5008177104,-3.2737581374,0.
 5080898711\C,0,-3.8581296109,-3.8395280463,1.7767942051\O,0,-4.1064957
 231,-3.429520886,2.9703851066\O,0,-3.0016588535,-4.7918341563,1.502810
 709\C,0,-2.5056952733,-5.6860580519,2.5621083504\C,0,2.6534575144,-1.0
 99933891,-1.1441984456\C,0,3.9784210889,-0.7063811405,-0.5846705672\C,
 0,4.921904447,0.0098620411,-1.103284285\C,0,4.7688960853,0.7137821099,
 -2.4741545323\C,0,6.3795296982,0.1693346727,-0.494248339\C,0,7.5561468
 551,-0.4562618091,-1.140860953\C,0,8.8042220233,-0.2205460397,-0.31499
 98475\C,0,10.1570066264,-0.7147558022,-1.0050478596\C,0,10.0231483534,
 -2.1964934522,-1.2093202169\C,0,11.3364074909,-0.2532396387,-0.1124417
 999\C,0,12.7145431285,-0.3572610433,-0.8164661697\C,0,13.8428128707,0.
 1765204258,0.0414562011\C,0,15.2895378656,-0.1065115327,-0.4158551434\
 C,0,15.52458203,-1.6243813035,-0.6305418225\C,0,16.2775384981,0.552889
 8063,0.5030693292\C,0,17.6450493937,0.7287657943,-0.0443083322\C,0,18.
 5814690712,1.5790222311,0.8132521414\C,0,20.0616580674,1.6405018548,0.
 3430160291\C,0,20.1486355625,2.4362602021,-1.0485229301\C,0,21.0179843
 197,2.2129726361,1.3847902672\H,0,-3.9393915995,3.5192031523,1.5557404
 549\H,0,-9.8923970928,4.1913163737,-0.4646277855\H,0,-10.4464789043,-2
 .2555927148,-1.0897584489\H,0,-2.874219749,-1.284577693,2.025903466\H,
 0,-2.1942307376,1.5133915624,1.6865015624\H,0,-2.2152517832,0.46663303
 17,4.0261317172\H,0,-2.8717626682,1.8338084305,3.8478749827\H,0,-3.982
 3378307,0.5242576103,3.9085760338\H,0,-2.4316586743,-1.7840531384,-0.3
 462190691\H,0,-1.8907924186,0.0228784788,-0.5808047747\H,0,-0.37487330
 71,0.4359374473,0.7189622575\H,0,-0.2734976891,-1.1922811867,1.5082483
 332\H,0,-4.3608709036,5.8722215903,0.7567384736\H,0,-5.6290481112,6.92
 36072754,1.1393932339\H,0,-5.038701957,5.818619906,2.3918433183\H,0,-7
 .7774027497,6.8834382183,1.0997215261\H,0,-9.2512104729,6.0718373442,-
 1.6488164677\H,0,-9.29273402,7.8162003475,-0.6833785608\H,0,-12.604724
 8345,3.6641656038,-0.1728050936\H,0,-11.8371475631,3.7583597934,-2.068
 8862054\H,0,-13.2685878816,2.7159694326,-1.7966640218\H,0,-12.68443081
 63,-1.0659555223,-1.1238371348\H,0,-13.5185688814,0.491503305,-1.43928
 62874\H,0,-12.4159072206,0.524949308,-3.6664439887\H,0,-11.7143464026,
 -1.162223796,-3.3519241445\H,0,-13.681054859,-0.7168107759,-3.39018656
 1\H,0,-9.7067272215,-4.9465539752,0.123630061\H,0,-9.8029442733,-4.437
 4916952,-1.7597528735\H,0,-8.4102562003,-5.5998082478,-1.2469126468\H,
 0,-3.7655684082,-3.621708461,-0.1431156602\H,0,-1.8801384068,-6.334108
 5066,1.853938728\H,0,-1.7126497114,-5.1312366076,3.2835427969\H,0,-3.1
 501280292,-6.1484799396,3.1658934649\H,0,2.5029642039,-2.177825426,-1.
 4168928563\H,0,2.201115006,-0.446982279,-1.9208698542\H,0,4.0410368754
 ,-1.2133236467,0.3804259456\H,0,5.0880606353,1.8902015292,-2.240378757
 7\H,0,5.4788144986,0.4276287254,-3.3113125329\H,0,3.8677468929,0.64611
 57984,-3.081688994\H,0,6.5520932255,1.2858047055,-0.3535855497\H,0,6.2
 049285376,-0.1587157612,0.479675675\H,0,7.5050572906,-1.6822549501,-1.
 0608868483\H,0,7.7037699195,-0.07600558,-2.0934341724\H,0,8.7611816056
 ,0.8375225936,-0.1033501867\H,0,8.5040734701,-0.713465498,0.635166329\
 H,0,10.1059232609,-0.0171691602,-1.8402085959\H,0,8.8319235086,-2.3647
 851717,-1.6064191897\H,0,11.0766426954,-2.4420058004,-1.8266032652\H,0
 ,9.8942944495,-2.6533870243,-0.3614744167\H,0,11.1494502424,0.78665744
 58,0.1184904342\H,0,11.2459605596,-0.7846136979,0.9650264328\H,0,12.87
 49022008,-1.3865602272,-0.9921524282\H,0,12.696957848,0.1315830793,-1.
 8914906828\H,0,13.896010756,1.2774774585,-0.0316302521\H,0,13.70412463
 95,-0.1236087887,1.1532521711\H,0,15.3395162958,0.3605972658,-1.425184
 5318\H,0,14.7810836613,-2.2003226141,-0.9746567989\H,0,16.5686707406,-
 1.996043641,-0.8140971936\H,0,15.3251477936,-1.9065557882,0.3759868701
 \H,0,15.9238626595,1.5986564359,0.5359740564\H,0,16.2884234991,0.03752
 43757,1.4397673993\H,0,18.2570469264,-0.3627204825,-0.1972495928\H,0,1
 7.793033889,0.9290747958,-1.1496934018\H,0,18.4588505746,2.4222986258,
 0.9237577655\H,0,18.7093531895,1.1177175813,1.6684439944\H,0,20.205256
 8581,0.5878467457,0.1315743136\H,0,19.8045478114,3.4697152416,-0.97613
 95164\H,0,21.2257898227,2.4404821179,-1.4630294095\H,0,19.4927942524,1
 .9293285546,-1.9380959911\H,0,21.0328285194,1.6510165697,2.3662976664\
 H,0,21.8864114983,2.2211521426,1.0286970268\H,0,20.7271223416,3.252228
 4224,1.7612248604\H,0,-6.7284546786,1.8431631895,0.3612879749\H,0,-7.7
 789994483,-0.3083510111,0.1155714295\\Version=ES64L-G09RevD.01\State=1
 -A\HF=-2732.9830584\RMSD=5.558e-09\PG=C01 [X(C55H74N4O5)]\\@


 A BIRD IN THE HAND IS SAFER THAN ONE OVERHEAD.

                       -- NEWTON'S SEVENTH LAW
 Job cpu time:       0 days  4 hours 48 minutes  2.7 seconds.
 File lengths (MBytes):  RWF=   1953 Int=      0 D2E=      0 Chk=    148 Scr=      1
 Normal termination of Gaussian 09 at Sat Aug  3 09:46:53 2019.
