 Entering Gaussian System, Link 0=g16
 Input=Geometria-62-.com
 Output=Geometria-62-.log
 Initial command:
 /usr/local/g09/l1.exe "/home/padawan/israel-mol/pheophytin/spectra/abs/Gau-55396.inp" -scrdir="/home/padawan/israel-mol/pheophytin/spectra/abs/"
 Entering Link 1 = /usr/local/g09/l1.exe PID=     55398.
  
 Copyright (c) 1988,1990,1992,1993,1995,1998,2003,2009,2013,
            Gaussian, Inc.  All Rights Reserved.
  
 This is part of the Gaussian(R) 09 program.  It is based on
 the Gaussian(R) 03 system (copyright 2003, Gaussian, Inc.),
 the Gaussian(R) 98 system (copyright 1998, Gaussian, Inc.),
 the Gaussian(R) 94 system (copyright 1995, Gaussian, Inc.),
 the Gaussian 92(TM) system (copyright 1992, Gaussian, Inc.),
 the Gaussian 90(TM) system (copyright 1990, Gaussian, Inc.),
 the Gaussian 88(TM) system (copyright 1988, Gaussian, Inc.),
 the Gaussian 86(TM) system (copyright 1986, Carnegie Mellon
 University), and the Gaussian 82(TM) system (copyright 1983,
 Carnegie Mellon University). Gaussian is a federally registered
 trademark of Gaussian, Inc.
  
 This software contains proprietary and confidential information,
 including trade secrets, belonging to Gaussian, Inc.
  
 This software is provided under written license and may be
 used, copied, transmitted, or stored only in accord with that
 written license.
  
 The following legend is applicable only to US Government
 contracts under FAR:
  
                    RESTRICTED RIGHTS LEGEND
  
 Use, reproduction and disclosure by the US Government is
 subject to restrictions as set forth in subparagraphs (a)
 and (c) of the Commercial Computer Software - Restricted
 Rights clause in FAR 52.227-19.
  
 Gaussian, Inc.
 340 Quinnipiac St., Bldg. 40, Wallingford CT 06492
  
  
 ---------------------------------------------------------------
 Warning -- This program may not be used in any manner that
 competes with the business of Gaussian, Inc. or will provide
 assistance to any competitor of Gaussian, Inc.  The licensee
 of this program is prohibited from giving any competitor of
 Gaussian, Inc. access to this program.  By using this program,
 the user acknowledges that Gaussian, Inc. is engaged in the
 business of creating and licensing software in the field of
 computational chemistry and represents and warrants to the
 licensee that it is not a competitor of Gaussian, Inc. and that
 it will not use this program in any manner prohibited above.
 ---------------------------------------------------------------
  

 Cite this work as:
 Gaussian 09, Revision D.01,
 M. J. Frisch, G. W. Trucks, H. B. Schlegel, G. E. Scuseria, 
 M. A. Robb, J. R. Cheeseman, G. Scalmani, V. Barone, B. Mennucci, 
 G. A. Petersson, H. Nakatsuji, M. Caricato, X. Li, H. P. Hratchian, 
 A. F. Izmaylov, J. Bloino, G. Zheng, J. L. Sonnenberg, M. Hada, 
 M. Ehara, K. Toyota, R. Fukuda, J. Hasegawa, M. Ishida, T. Nakajima, 
 Y. Honda, O. Kitao, H. Nakai, T. Vreven, J. A. Montgomery, Jr., 
 J. E. Peralta, F. Ogliaro, M. Bearpark, J. J. Heyd, E. Brothers, 
 K. N. Kudin, V. N. Staroverov, T. Keith, R. Kobayashi, J. Normand, 
 K. Raghavachari, A. Rendell, J. C. Burant, S. S. Iyengar, J. Tomasi, 
 M. Cossi, N. Rega, J. M. Millam, M. Klene, J. E. Knox, J. B. Cross, 
 V. Bakken, C. Adamo, J. Jaramillo, R. Gomperts, R. E. Stratmann, 
 O. Yazyev, A. J. Austin, R. Cammi, C. Pomelli, J. W. Ochterski, 
 R. L. Martin, K. Morokuma, V. G. Zakrzewski, G. A. Voth, 
 P. Salvador, J. J. Dannenberg, S. Dapprich, A. D. Daniels, 
 O. Farkas, J. B. Foresman, J. V. Ortiz, J. Cioslowski, 
 and D. J. Fox, Gaussian, Inc., Wallingford CT, 2013.
 
 ******************************************
 Gaussian 09:  ES64L-G09RevD.01 24-Apr-2013
                26-Jul-2019 
 ******************************************
 %nproc=3
 Will use up to    3 processors via shared memory.
 %Mem=2GB
 --------------------------
 # td=(NStates=1) B3LYP/SVP
 --------------------------
 1/38=1/1;
 2/12=2,17=6,18=5,40=1/2;
 3/5=18,7=101,11=9,16=1,25=1,30=1,74=-5/1,2,8,3;
 4//1;
 5/5=2,38=5/2;
 8/6=1,10=1,108=1/1;
 9/41=1,42=1,70=2/14;
 6/7=2,8=2,9=2,10=2/1;
 99/5=1,9=1/99;
 --
 TD
 --
 Symbolic Z-matrix:
 Charge =  0 Multiplicity = 1
 6                    -5.1067   -2.00567   0.42165 
 6                    -4.64628   2.73657   1.25969 
 6                    -9.38959   3.3597   -0.15533 
 6                    -9.72961  -1.40149  -0.84642 
 7                    -5.1063    0.37666   0.78371 
 6                    -4.43919  -0.72054   0.74028 
 6                    -2.98698  -0.67109   1.21601 
 6                    -2.9548    0.84338   1.75822 
 6                    -4.33567   1.3591    1.27691 
 6                    -2.73602   1.02904   3.23412 
 6                    -2.0257   -0.89755   0.00762 
 6                    -0.61053  -0.75959   0.43939 
 6                     0.46007  -1.12734  -0.72301 
 8                     0.05867  -1.35489  -1.78944 
 8                     1.62851  -0.80113  -0.40832 
 7                    -7.05631   2.72827   0.51609 
 6                    -5.83022   3.35132   0.86624 
 6                    -6.14027   4.72431   0.88092 
 6                    -7.51769   4.95085   0.40393 
 6                    -8.01974   3.6533    0.22155 
 6                    -5.21713   5.71698   1.46514 
 6                    -8.19783   6.23584   0.42773 
 6                    -9.09746   6.62587  -0.56467 
 7                    -9.26197   0.87843  -0.53156 
 6                    -9.91492   2.1105   -0.43878 
 6                    -11.27786   1.95071  -0.87645 
 6                    -11.5144   0.48754  -0.96985 
 6                    -10.1681  -0.08508  -0.77794 
 6                    -12.29332   3.05594  -0.90418 
 6                    -12.73314  -0.17828  -1.49178 
 6                    -12.93577  -0.30968  -3.02157 
 7                    -7.48716  -1.2062   -0.3168 
 6                    -8.59607  -2.01437  -0.54899 
 6                    -8.22525  -3.42909  -0.42123 
 6                    -6.87664  -3.37698  -0.10206 
 6                    -6.4568   -2.07425  -0.02692 
 6                    -9.10138  -4.57756  -0.7862 
 6                    -5.77396  -4.27199   0.08637 
 8                    -5.71234  -5.48606  -0.1149 
 6                    -4.48877  -3.42726   0.35043 
 6                    -3.88842  -3.82745   1.67623 
 8                    -4.24865  -3.34596   2.72694 
 8                    -3.02152  -4.85488   1.43942 
 6                    -2.51247  -5.43265   2.61053 
 6                     2.62088  -1.14131  -1.36223 
 6                     3.97757  -0.78434  -0.68853 
 6                     4.88376   0.03558  -1.17942 
 6                     4.80725   0.76241  -2.4631 
 6                     6.29275   0.16414  -0.39888 
 6                     7.47945  -0.58038  -1.01632 
 6                     8.81367  -0.28847  -0.08453 
 6                     10.07771  -0.72436  -0.78228 
 6                     10.03248  -2.2543   -1.08769 
 6                     11.28758  -0.20298  -0.00494 
 6                     12.6629  -0.47952  -0.56128 
 6                     13.86628   0.16362   0.32173 
 6                     15.21013  -0.17929  -0.25293 
 6                     15.58662  -1.69225   0.01045 
 6                     16.39535   0.67721   0.50378 
 6                     17.73687   0.7569   -0.02013 
 6                     18.68275   1.68205   0.65246 
 6                     20.03591   1.72192   0.20326 
 6                     20.26995   2.04861  -1.27632 
 6                     20.79914   2.67916   1.07787 
 1                    -3.94817   3.39878   1.85863 
 1                    -10.03048   4.27187  -0.32655 
 1                    -10.56658  -2.14317  -0.86588 
 1                    -2.64582  -1.23871   1.97285 
 1                    -2.22266   1.35615   1.23812 
 1                    -1.91275   0.26831   3.54585 
 1                    -2.68229   2.10142   3.45682 
 1                    -3.80199   0.65995   3.68861 
 1                    -2.21639  -1.80816  -0.51263 
 1                    -2.2457    0.05275  -0.80786 
 1                    -0.42186   0.21918   0.77587 
 1                    -0.46095  -1.48391   1.3185 
 1                    -4.25566   5.98906   0.81618 
 1                    -5.74146   6.63694   1.49201 
 1                    -4.86729   5.33955   2.54635 
 1                    -7.84105   7.00228   1.0577 
 1                    -9.33877   6.06165  -1.33004 
 1                    -9.53812   7.71679  -0.57871 
 1                    -12.80194   3.45393   0.05406 
 1                    -11.84419   3.80691  -1.55394 
 1                    -13.09481   2.462    -1.69623 
 1                    -12.72408  -1.23334  -1.04629 
 1                    -13.5461   0.43513  -1.004 
 1                    -12.65605   0.5656   -3.4227 
 1                    -12.31429  -1.07256  -3.4505 
 1                    -13.94399  -0.77812  -3.3336 
 1                    -10.01739  -4.69185  -0.0263 
 1                    -9.20673  -4.41163  -1.79307 
 1                    -8.589    -5.51537  -0.75851 
 1                    -3.6805   -3.72778  -0.38103 
 1                    -1.89395  -6.30019   2.52076 
 1                    -1.87594  -4.66367   3.11365 
 1                    -3.34854  -6.09049   3.15832 
 1                     2.51281  -2.07496  -1.49902 
 1                     2.4033   -0.63077  -2.30255 
 1                     4.00676  -1.46372   0.13583 
 1                     4.93082   1.98665  -2.23914 
 1                     5.63533   0.04606  -3.09676 
 1                     3.86646   0.55273  -2.71467 
 1                     6.70235   1.15964  -0.40969 
 1                     6.24972  -0.43163   0.52324 
 1                     7.16407  -1.66462  -0.93943 
 1                     7.82096  -0.27595  -1.92879 
 1                     8.80078   0.67889   0.2223 
 1                     8.80541  -0.70597   0.8915 
 1                     10.10029  -0.2847   -1.84112 
 1                     9.10086  -2.58879  -1.64701 
 1                     11.00979  -2.69662  -1.59478 
 1                     9.90809  -2.76022   0.04551 
 1                     11.17873   0.83215   0.22417 
 1                     11.07025  -0.61586   1.27888 
 1                     12.80219  -1.54546  -0.92164 
 1                     12.79687  -0.23222  -1.40447 
 1                     13.6174   1.12925   0.40322 
 1                     13.75762  -0.30342   1.37881 
 1                     15.43112   0.0129   -1.3649 
 1                     14.92736  -2.40529  -0.77141 
 1                     16.69821  -1.92781  -0.25675 
 1                     15.73647  -2.01935   1.12387 
 1                     16.08816   1.76718   0.54968 
 1                     16.31017   0.2843    1.66905 
 1                     18.3105  -0.31957  -0.02567 
 1                     17.74917   1.00009  -1.10116 
 1                     18.42317   2.82208   0.65969 
 1                     18.46936   1.39847   1.74057 
 1                     20.57333   0.74308   0.13324 
 1                     19.66897   3.06811  -1.52182 
 1                     21.23886   2.04344  -1.47313 
 1                     19.47793   1.32669  -2.06594 
 1                     21.14136   2.17646   2.09268 
 1                     21.86432   2.92182   0.62904 
 1                     20.23079   3.55214   0.98623 
 1                    -7.19361   1.76375   0.46981 
 1                    -7.55884  -0.1066   -0.10491 
 
 Stoichiometry    C55H74N4O5
 Framework group  C1[X(C55H74N4O5)]
 Deg. of freedom   408
 Full point group                 C1      NOp   1
 Largest Abelian subgroup         C1      NOp   1
 Largest concise Abelian subgroup C1      NOp   1
                         Standard orientation:                         
 ---------------------------------------------------------------------
 Center     Atomic      Atomic             Coordinates (Angstroms)
 Number     Number       Type             X           Y           Z
 ---------------------------------------------------------------------
      1          6           0       -5.108132   -2.001575    0.420818
      2          6           0       -4.643476    2.738714    1.267502
      3          6           0       -9.387961    3.367852   -0.140889
      4          6           0       -9.732072   -1.391754   -0.840786
      5          7           0       -5.105669    0.380046    0.787482
      6          6           0       -4.439373   -0.717526    0.741168
      7          6           0       -2.986582   -0.670004    1.215330
      8          6           0       -2.952735    0.843398    1.760438
      9          6           0       -4.333799    1.360994    1.281703
     10          6           0       -2.732142    1.026049    3.236439
     11          6           0       -2.026847   -0.894787    0.005408
     12          6           0       -0.611089   -0.758644    0.435822
     13          6           0        0.457931   -1.124880   -0.728511
     14          8           0        0.055153   -1.350088   -1.794918
     15          8           0        1.626959   -0.800084   -0.414528
     16          7           0       -7.054355    2.733516    0.526644
     17          6           0       -5.827438    3.355040    0.876591
     18          6           0       -6.136512    4.728213    0.894288
     19          6           0       -7.514323    4.956631    0.419305
     20          6           0       -8.017482    3.659783    0.234997
     21          6           0       -5.212023    5.719111    1.479362
     22          6           0       -8.193541    6.242036    0.446372
     23          6           0       -9.094035    6.634610   -0.544243
     24          7           0       -9.262496    0.887225   -0.522053
     25          6           0       -9.914476    2.119572   -0.426151
     26          6           0      -11.278032    1.961565   -0.862568
     27          6           0      -11.515686    0.498740   -0.958527
     28          6           0      -10.169569   -0.075174   -0.769263
     29          6           0      -12.292754    3.067554   -0.887002
     30          6           0      -12.735489   -0.165224   -1.480346
     31          6           0      -12.939961   -0.293529   -3.010155
     32          7           0       -7.488880   -1.199039   -0.313359
     33          6           0       -8.598617   -2.005991   -0.545840
     34          6           0       -8.228636   -3.421210   -0.421246
     35          6           0       -6.879624   -3.370654   -0.103512
     36          6           0       -6.458790   -2.068358   -0.026334
     37          6           0       -9.105976   -4.568366   -0.787426
     38          6           0       -5.777351   -4.266786    0.081923
     39          8           0       -5.716799   -5.480502   -0.121763
     40          6           0       -4.491268   -3.423457    0.346149
     41          6           0       -3.889686   -3.826619    1.670486
     42          8           0       -4.248379   -3.346919    2.722533
     43          8           0       -3.023768   -4.854191    1.430698
     44          6           0       -2.513775   -5.434578    2.600105
     45          6           0        2.618004   -1.139105   -1.370225
     46          6           0        3.975706   -0.784376   -0.697390
     47          6           0        4.881902    0.035869   -1.187731
     48          6           0        4.804428    0.765226   -2.469917
     49          6           0        6.291872    0.161946   -0.408554
     50          6           0        7.477348   -0.582207   -1.028789
     51          6           0        8.812838   -0.293020   -0.097962
     52          6           0       10.075773   -0.728426   -0.797998
     53          6           0       10.029135   -2.257743   -1.106315
     54          6           0       11.286895   -0.209394   -0.021041
     55          6           0       12.661382   -0.485806   -0.579488
     56          6           0       13.866213    0.154796    0.303392
     57          6           0       15.209172   -0.187928   -0.273471
     58          6           0       15.584913   -1.701653   -0.013446
     59          6           0       16.395850    0.666289    0.483536
     60          6           0       17.736823    0.746062   -0.041749
     61          6           0       18.684113    1.669260    0.631538
     62          6           0       20.036782    1.709062    0.180874
     63          6           0       20.269360    2.038452   -1.298337
     64          6           0       20.801681    2.664080    1.056456
     65          1           0       -3.944221    3.399283    1.866921
     66          1           0      -10.028416    4.280801   -0.309612
     67          1           0      -10.569577   -2.132818   -0.860721
     68          1           0       -2.644949   -1.239322    1.970682
     69          1           0       -2.220838    1.356660    1.240485
     70          1           0       -1.909043    0.264152    3.545758
     71          1           0       -2.677416    2.097954    3.461145
     72          1           0       -3.797845    0.656818    3.691437
     73          1           0       -2.218755   -1.804253   -0.516378
     74          1           0       -2.247113    0.057241   -0.807978
     75          1           0       -0.421350    0.219343    0.773979
     76          1           0       -0.460998   -1.484762    1.313361
     77          1           0       -4.251105    5.991788    0.829837
     78          1           0       -5.735681    6.639381    1.508611
     79          1           0       -4.861212    5.339354    2.559441
     80          1           0       -7.835512    7.007012    1.077410
     81          1           0       -9.336612    6.072033   -1.310431
     82          1           0       -9.533955    7.725858   -0.555668
     83          1           0      -12.800009    3.464041    0.072588
     84          1           0      -11.843847    3.819469   -1.535823
     85          1           0      -13.095562    2.475700   -1.679281
     86          1           0      -12.726655   -1.221151   -1.036907
     87          1           0      -13.547466    0.447801   -0.990454
     88          1           0      -12.660090    0.582340   -3.409911
     89          1           0      -12.319493   -1.056007   -3.441273
     90          1           0      -13.948858   -0.760660   -3.321937
     91          1           0      -10.021191   -4.683492   -0.026708
     92          1           0       -9.212363   -4.400416   -1.793851
     93          1           0       -8.594216   -5.506582   -0.762141
     94          1           0       -3.684046   -3.723116   -0.386818
     95          1           0       -1.895964   -6.302363    2.507942
     96          1           0       -1.876138   -4.667010    3.103974
     97          1           0       -3.349676   -6.092901    3.147578
     98          1           0        2.509121   -2.072410   -1.508697
     99          1           0        2.399694   -0.626599   -2.309305
    100          1           0        4.005370   -1.465369    0.125624
    101          1           0        4.929107    1.988949   -2.243727
    102          1           0        5.631287    0.049534   -3.105905
    103          1           0        3.863203    0.556682   -2.720814
    104          1           0        6.702147    1.157179   -0.417910
    105          1           0        6.249485   -0.435584    0.512460
    106          1           0        7.161309   -1.666374   -0.953641
    107          1           0        7.818028   -0.276240   -1.941058
    108          1           0        8.800961    0.673753    0.210752
    109          1           0        8.805405   -0.712403    0.877267
    110          1           0       10.097452   -0.286734   -1.856014
    111          1           0        9.096646   -2.590506   -1.665220
    112          1           0       11.005554   -2.699759   -1.615379
    113          1           0        9.905686   -2.765767    0.026040
    114          1           0       11.179025    0.825372    0.210196
    115          1           0       11.070747   -0.624598    1.262225
    116          1           0       12.799529   -1.551136   -0.942062
    117          1           0       12.794560   -0.236968   -1.422352
    118          1           0       13.618103    1.120442    0.387032
    119          1           0       13.758442   -0.314208    1.359691
    120          1           0       15.429020    0.006261   -1.385319
    121          1           0       14.924266   -2.412729   -0.795927
    122          1           0       16.696039   -1.937463   -0.282376
    123          1           0       15.735809   -2.031009    1.099167
    124          1           0       16.089466    1.756381    0.531890
    125          1           0       16.311725    0.271182    1.648142
    126          1           0       18.309704   -0.330786   -0.050033
    127          1           0       17.748057    0.991337   -1.122323
    128          1           0       18.425329    2.809449    0.641274
    129          1           0       18.471770    1.383717    1.719346
    130          1           0       20.573452    0.729990    0.108349
    131          1           0       19.668813    3.058834   -1.541186
    132          1           0       21.238044    2.032995   -1.496269
    133          1           0       19.475943    1.318605   -2.088447
    134          1           0       21.144709    2.159182    2.069901
    135          1           0       21.866512    2.906875    0.606875
    136          1           0       20.233832    3.537627    0.967152
    137          1           0       -7.192377    1.769178    0.478654
    138          1           0       -7.559555   -0.099800   -0.099262
 ---------------------------------------------------------------------
 Rotational constants (GHZ):      0.0646086      0.0061524      0.0057772
 Standard basis: SVP (5D, 7F)
 There are  1330 symmetry adapted cartesian basis functions of A   symmetry.
 There are  1266 symmetry adapted basis functions of A   symmetry.
  1266 basis functions,  2118 primitive gaussians,  1330 cartesian basis functions
   236 alpha electrons      236 beta electrons
       nuclear repulsion energy      8303.7880328393 Hartrees.
 NAtoms=  138 NActive=  138 NUniq=  138 SFac= 1.00D+00 NAtFMM=   60 NAOKFM=T Big=T
 Integral buffers will be    131072 words long.
 Regular integral format.
 Two-electron integral symmetry is turned on.
 One-electron integrals computed using PRISM.
 NBasis=  1266 RedAO= T EigKep=  3.10D-04  NBF=  1266
 NBsUse=  1266 1.00D-06 EigRej= -1.00D+00 NBFU=  1266
 ExpMin= 1.22D-01 ExpMax= 2.27D+03 ExpMxC= 3.41D+02 IAcc=1 IRadAn=         1 AccDes= 0.00D+00
 Harris functional with IExCor=  402 and IRadAn=       1 diagonalized for initial guess.
 HarFok:  IExCor=  402 AccDes= 0.00D+00 IRadAn=         1 IDoV= 1 UseB2=F ITyADJ=14
 ICtDFT=  3500011 ScaDFX=  1.000000  1.000000  1.000000  1.000000
 FoFCou: FMM=F IPFlag=           0 FMFlag=      100000 FMFlg1=        2001
         NFxFlg=           0 DoJE=T BraDBF=F KetDBF=T FulRan=T
         wScrn=  0.000000 ICntrl=     500 IOpCl=  0 I1Cent=   200000004 NGrid=           0
         NMat0=    1 NMatS0=      1 NMatT0=    0 NMatD0=    1 NMtDS0=    0 NMtDT0=    0
 Petite list used in FoFCou.
 Requested convergence on RMS density matrix=1.00D-08 within 128 cycles.
 Requested convergence on MAX density matrix=1.00D-06.
 Requested convergence on             energy=1.00D-06.
 No special actions if energy rises.
 Integral accuracy reduced to 1.0D-05 until final iterations.
 Initial convergence to 1.0D-05 achieved.  Increase integral accuracy.
 SCF Done:  E(RB3LYP) =  -2732.94097645     A.U. after   17 cycles
            NFock= 17  Conv=0.63D-08     -V/T= 2.0113
 DoSCS=F DFT=T ScalE2(SS,OS)=  1.000000  1.000000
 ExpMin= 1.22D-01 ExpMax= 2.27D+03 ExpMxC= 3.41D+02 IAcc=3 IRadAn=         5 AccDes= 0.00D+00
 HarFok:  IExCor=  205 AccDes= 0.00D+00 IRadAn=         5 IDoV=-2 UseB2=F ITyADJ=14
 ICtDFT= 12500011 ScaDFX=  1.000000  1.000000  1.000000  1.000000
 Range of M.O.s used for correlation:    65  1266
 NBasis=  1266 NAE=   236 NBE=   236 NFC=    64 NFV=     0
 NROrb=   1202 NOA=   172 NOB=   172 NVA=  1030 NVB=  1030

 **** Warning!!: The smallest alpha delta epsilon is  0.88732029D-01

 Would need an additional        965744300000 words for in-memory AO integral storage.
 Orbital symmetries:
       Occupied  (A) (A) (A) (A) (A) (A) (A) (A) (A) (A) (A) (A)
                 (A) (A) (A) (A) (A) (A) (A) (A) (A) (A) (A) (A)
                 (A) (A) (A) (A) (A) (A) (A) (A) (A) (A) (A) (A)
                 (A) (A) (A) (A) (A) (A) (A) (A) (A) (A) (A) (A)
                 (A) (A) (A) (A) (A) (A) (A) (A) (A) (A) (A) (A)
                 (A) (A) (A) (A) (A) (A) (A) (A) (A) (A) (A) (A)
                 (A) (A) (A) (A) (A) (A) (A) (A) (A) (A) (A) (A)
                 (A) (A) (A) (A) (A) (A) (A) (A) (A) (A) (A) (A)
                 (A) (A) (A) (A) (A) (A) (A) (A) (A) (A) (A) (A)
                 (A) (A) (A) (A) (A) (A) (A) (A) (A) (A) (A) (A)
                 (A) (A) (A) (A) (A) (A) (A) (A) (A) (A) (A) (A)
                 (A) (A) (A) (A) (A) (A) (A) (A) (A) (A) (A) (A)
                 (A) (A) (A) (A) (A) (A) (A) (A) (A) (A) (A) (A)
                 (A) (A) (A) (A) (A) (A) (A) (A) (A) (A) (A) (A)
                 (A) (A) (A) (A) (A) (A) (A) (A) (A) (A) (A) (A)
                 (A) (A) (A) (A) (A) (A) (A) (A) (A) (A) (A) (A)
                 (A) (A) (A) (A) (A) (A) (A) (A) (A) (A) (A) (A)
                 (A) (A) (A) (A) (A) (A) (A) (A) (A) (A) (A) (A)
                 (A) (A) (A) (A) (A) (A) (A) (A) (A) (A) (A) (A)
                 (A) (A) (A) (A) (A) (A) (A) (A)
       Virtual   (A) (A) (A) (A) (A) (A) (A) (A) (A) (A) (A) (A)
                 (A) (A) (A) (A) (A) (A) (A) (A) (A) (A) (A) (A)
                 (A) (A) (A) (A) (A) (A) (A) (A) (A) (A) (A) (A)
                 (A) (A) (A) (A) (A) (A) (A) (A) (A) (A) (A) (A)
                 (A) (A) (A) (A) (A) (A) (A) (A) (A) (A) (A) (A)
                 (A) (A) (A) (A) (A) (A) (A) (A) (A) (A) (A) (A)
                 (A) (A) (A) (A) (A) (A) (A) (A) (A) (A) (A) (A)
                 (A) (A) (A) (A) (A) (A) (A) (A) (A) (A) (A) (A)
                 (A) (A) (A) (A) (A) (A) (A) (A) (A) (A) (A) (A)
                 (A) (A) (A) (A) (A) (A) (A) (A) (A) (A) (A) (A)
                 (A) (A) (A) (A) (A) (A) (A) (A) (A) (A) (A) (A)
                 (A) (A) (A) (A) (A) (A) (A) (A) (A) (A) (A) (A)
                 (A) (A) (A) (A) (A) (A) (A) (A) (A) (A) (A) (A)
                 (A) (A) (A) (A) (A) (A) (A) (A) (A) (A) (A) (A)
                 (A) (A) (A) (A) (A) (A) (A) (A) (A) (A) (A) (A)
                 (A) (A) (A) (A) (A) (A) (A) (A) (A) (A) (A) (A)
                 (A) (A) (A) (A) (A) (A) (A) (A) (A) (A) (A) (A)
                 (A) (A) (A) (A) (A) (A) (A) (A) (A) (A) (A) (A)
                 (A) (A) (A) (A) (A) (A) (A) (A) (A) (A) (A) (A)
                 (A) (A) (A) (A) (A) (A) (A) (A) (A) (A) (A) (A)
                 (A) (A) (A) (A) (A) (A) (A) (A) (A) (A) (A) (A)
                 (A) (A) (A) (A) (A) (A) (A) (A) (A) (A) (A) (A)
                 (A) (A) (A) (A) (A) (A) (A) (A) (A) (A) (A) (A)
                 (A) (A) (A) (A) (A) (A) (A) (A) (A) (A) (A) (A)
                 (A) (A) (A) (A) (A) (A) (A) (A) (A) (A) (A) (A)
                 (A) (A) (A) (A) (A) (A) (A) (A) (A) (A) (A) (A)
                 (A) (A) (A) (A) (A) (A) (A) (A) (A) (A) (A) (A)
                 (A) (A) (A) (A) (A) (A) (A) (A) (A) (A) (A) (A)
                 (A) (A) (A) (A) (A) (A) (A) (A) (A) (A) (A) (A)
                 (A) (A) (A) (A) (A) (A) (A) (A) (A) (A) (A) (A)
                 (A) (A) (A) (A) (A) (A) (A) (A) (A) (A) (A) (A)
                 (A) (A) (A) (A) (A) (A) (A) (A) (A) (A) (A) (A)
                 (A) (A) (A) (A) (A) (A) (A) (A) (A) (A) (A) (A)
                 (A) (A) (A) (A) (A) (A) (A) (A) (A) (A) (A) (A)
                 (A) (A) (A) (A) (A) (A) (A) (A) (A) (A) (A) (A)
                 (A) (A) (A) (A) (A) (A) (A) (A) (A) (A) (A) (A)
                 (A) (A) (A) (A) (A) (A) (A) (A) (A) (A) (A) (A)
                 (A) (A) (A) (A) (A) (A) (A) (A) (A) (A) (A) (A)
                 (A) (A) (A) (A) (A) (A) (A) (A) (A) (A) (A) (A)
                 (A) (A) (A) (A) (A) (A) (A) (A) (A) (A) (A) (A)
                 (A) (A) (A) (A) (A) (A) (A) (A) (A) (A) (A) (A)
                 (A) (A) (A) (A) (A) (A) (A) (A) (A) (A) (A) (A)
                 (A) (A) (A) (A) (A) (A) (A) (A) (A) (A) (A) (A)
                 (A) (A) (A) (A) (A) (A) (A) (A) (A) (A) (A) (A)
                 (A) (A) (A) (A) (A) (A) (A) (A) (A) (A) (A) (A)
                 (A) (A) (A) (A) (A) (A) (A) (A) (A) (A) (A) (A)
                 (A) (A) (A) (A) (A) (A) (A) (A) (A) (A) (A) (A)
                 (A) (A) (A) (A) (A) (A) (A) (A) (A) (A) (A) (A)
                 (A) (A) (A) (A) (A) (A) (A) (A) (A) (A) (A) (A)
                 (A) (A) (A) (A) (A) (A) (A) (A) (A) (A) (A) (A)
                 (A) (A) (A) (A) (A) (A) (A) (A) (A) (A) (A) (A)
                 (A) (A) (A) (A) (A) (A) (A) (A) (A) (A) (A) (A)
                 (A) (A) (A) (A) (A) (A) (A) (A) (A) (A) (A) (A)
                 (A) (A) (A) (A) (A) (A) (A) (A) (A) (A) (A) (A)
                 (A) (A) (A) (A) (A) (A) (A) (A) (A) (A) (A) (A)
                 (A) (A) (A) (A) (A) (A) (A) (A) (A) (A) (A) (A)
                 (A) (A) (A) (A) (A) (A) (A) (A) (A) (A) (A) (A)
                 (A) (A) (A) (A) (A) (A) (A) (A) (A) (A) (A) (A)
                 (A) (A) (A) (A) (A) (A) (A) (A) (A) (A) (A) (A)
                 (A) (A) (A) (A) (A) (A) (A) (A) (A) (A) (A) (A)
                 (A) (A) (A) (A) (A) (A) (A) (A) (A) (A) (A) (A)
                 (A) (A) (A) (A) (A) (A) (A) (A) (A) (A) (A) (A)
                 (A) (A) (A) (A) (A) (A) (A) (A) (A) (A) (A) (A)
                 (A) (A) (A) (A) (A) (A) (A) (A) (A) (A) (A) (A)
                 (A) (A) (A) (A) (A) (A) (A) (A) (A) (A) (A) (A)
                 (A) (A) (A) (A) (A) (A) (A) (A) (A) (A) (A) (A)
                 (A) (A) (A) (A) (A) (A) (A) (A) (A) (A) (A) (A)
                 (A) (A) (A) (A) (A) (A) (A) (A) (A) (A) (A) (A)
                 (A) (A) (A) (A) (A) (A) (A) (A) (A) (A) (A) (A)
                 (A) (A) (A) (A) (A) (A) (A) (A) (A) (A) (A) (A)
                 (A) (A) (A) (A) (A) (A) (A) (A) (A) (A) (A) (A)
                 (A) (A) (A) (A) (A) (A) (A) (A) (A) (A) (A) (A)
                 (A) (A) (A) (A) (A) (A) (A) (A) (A) (A) (A) (A)
                 (A) (A) (A) (A) (A) (A) (A) (A) (A) (A) (A) (A)
                 (A) (A) (A) (A) (A) (A) (A) (A) (A) (A) (A) (A)
                 (A) (A) (A) (A) (A) (A) (A) (A) (A) (A) (A) (A)
                 (A) (A) (A) (A) (A) (A) (A) (A) (A) (A) (A) (A)
                 (A) (A) (A) (A) (A) (A) (A) (A) (A) (A) (A) (A)
                 (A) (A) (A) (A) (A) (A) (A) (A) (A) (A) (A) (A)
                 (A) (A) (A) (A) (A) (A) (A) (A) (A) (A) (A) (A)
                 (A) (A) (A) (A) (A) (A) (A) (A) (A) (A) (A) (A)
                 (A) (A) (A) (A) (A) (A) (A) (A) (A) (A) (A) (A)
                 (A) (A) (A) (A) (A) (A) (A) (A) (A) (A) (A) (A)
                 (A) (A) (A) (A) (A) (A) (A) (A) (A) (A) (A) (A)
                 (A) (A) (A) (A) (A) (A) (A) (A) (A) (A) (A) (A)
                 (A) (A) (A) (A) (A) (A) (A) (A) (A) (A)
     8 initial guesses have been made.
 Convergence on wavefunction:    0.001000000000000
 Iteration     1 Dimension     8 NMult     0 NNew      8
 CISAX will form     8 AO SS matrices at one time.
 Iteration     2 Dimension    12 NMult     8 NNew      4
 Iteration     3 Dimension    16 NMult    12 NNew      4
 Iteration     4 Dimension    20 NMult    16 NNew      4
 Iteration     5 Dimension    24 NMult    20 NNew      4
 Iteration     6 Dimension    28 NMult    24 NNew      4
 ***********************************************************************
 Excited states from <AA,BB:AA,BB> singles matrix:
 ***********************************************************************
 
 Ground to excited state transition densities written to RWF  633
 Ground to excited state transition electric dipole moments (Au):
       state          X           Y           Z        Dip. S.      Osc.
         1        -0.1954     -1.3727     -0.1676      1.9505      0.0979
 Ground to excited state transition velocity dipole moments (Au):
       state          X           Y           Z        Dip. S.      Osc.
         1         0.0143      0.1014      0.0123      0.0106      0.0941
 Ground to excited state transition magnetic dipole moments (Au):
       state          X           Y           Z
         1         0.1869      0.2806     -2.1983
 Ground to excited state transition velocity quadrupole moments (Au):
       state          XX          YY          ZZ          XY          XZ          YZ
         1        -0.4552      0.3160      0.0351     -1.2749     -0.1230      0.0713
 <0|del|b> * <b|rxdel|0> + <0|del|b> * <b|delr+rdel|0>
 Rotatory Strengths (R) in cgs (10**-40 erg-esu-cm/Gauss)
       state          XX          YY          ZZ    R(velocity)    E-M Angle
         1        -8.5974    -36.0484     82.7466     12.7003       88.99
 1/2[<0|r|b>*<b|rxdel|0> + (<0|rxdel|b>*<b|r|0>)*]
 Rotatory Strengths (R) in cgs (10**-40 erg-esu-cm/Gauss)
       state          XX          YY          ZZ     R(length)
         1        25.8224    272.4197   -260.5372     12.5683
  1/2[<0|del|b>*<b|r|0> + (<0|r|b>*<b|del|0>)*] (Au)
       state          X           Y           Z        Dip. S.   Osc.(frdel)
         1        -0.0028     -0.1391     -0.0021      0.1440      0.0960

 Excitation energies and oscillator strengths:
 
 Excited State   1:      Singlet-A      2.0492 eV  605.03 nm  f=0.0979  <S**2>=0.000
     235 -> 237       -0.25285
     235 -> 238       -0.31776
     236 -> 237        0.54504
     236 -> 238       -0.17711
 This state for optimization and/or second-order correction.
 Total Energy, E(TD-HF/TD-KS) =  -2732.86566913    
 Copying the excited state density for this state as the 1-particle RhoCI density.
 SavETr:  write IOETrn=   770 NScale= 10 NData=  16 NLR=1 NState=    1 LETran=      28.

 **********************************************************************

            Population analysis using the SCF density.

 **********************************************************************

 Orbital symmetries:
       Occupied  (A) (A) (A) (A) (A) (A) (A) (A) (A) (A) (A) (A)
                 (A) (A) (A) (A) (A) (A) (A) (A) (A) (A) (A) (A)
                 (A) (A) (A) (A) (A) (A) (A) (A) (A) (A) (A) (A)
                 (A) (A) (A) (A) (A) (A) (A) (A) (A) (A) (A) (A)
                 (A) (A) (A) (A) (A) (A) (A) (A) (A) (A) (A) (A)
                 (A) (A) (A) (A) (A) (A) (A) (A) (A) (A) (A) (A)
                 (A) (A) (A) (A) (A) (A) (A) (A) (A) (A) (A) (A)
                 (A) (A) (A) (A) (A) (A) (A) (A) (A) (A) (A) (A)
                 (A) (A) (A) (A) (A) (A) (A) (A) (A) (A) (A) (A)
                 (A) (A) (A) (A) (A) (A) (A) (A) (A) (A) (A) (A)
                 (A) (A) (A) (A) (A) (A) (A) (A) (A) (A) (A) (A)
                 (A) (A) (A) (A) (A) (A) (A) (A) (A) (A) (A) (A)
                 (A) (A) (A) (A) (A) (A) (A) (A) (A) (A) (A) (A)
                 (A) (A) (A) (A) (A) (A) (A) (A) (A) (A) (A) (A)
                 (A) (A) (A) (A) (A) (A) (A) (A) (A) (A) (A) (A)
                 (A) (A) (A) (A) (A) (A) (A) (A) (A) (A) (A) (A)
                 (A) (A) (A) (A) (A) (A) (A) (A) (A) (A) (A) (A)
                 (A) (A) (A) (A) (A) (A) (A) (A) (A) (A) (A) (A)
                 (A) (A) (A) (A) (A) (A) (A) (A) (A) (A) (A) (A)
                 (A) (A) (A) (A) (A) (A) (A) (A)
       Virtual   (A) (A) (A) (A) (A) (A) (A) (A) (A) (A) (A) (A)
                 (A) (A) (A) (A) (A) (A) (A) (A) (A) (A) (A) (A)
                 (A) (A) (A) (A) (A) (A) (A) (A) (A) (A) (A) (A)
                 (A) (A) (A) (A) (A) (A) (A) (A) (A) (A) (A) (A)
                 (A) (A) (A) (A) (A) (A) (A) (A) (A) (A) (A) (A)
                 (A) (A) (A) (A) (A) (A) (A) (A) (A) (A) (A) (A)
                 (A) (A) (A) (A) (A) (A) (A) (A) (A) (A) (A) (A)
                 (A) (A) (A) (A) (A) (A) (A) (A) (A) (A) (A) (A)
                 (A) (A) (A) (A) (A) (A) (A) (A) (A) (A) (A) (A)
                 (A) (A) (A) (A) (A) (A) (A) (A) (A) (A) (A) (A)
                 (A) (A) (A) (A) (A) (A) (A) (A) (A) (A) (A) (A)
                 (A) (A) (A) (A) (A) (A) (A) (A) (A) (A) (A) (A)
                 (A) (A) (A) (A) (A) (A) (A) (A) (A) (A) (A) (A)
                 (A) (A) (A) (A) (A) (A) (A) (A) (A) (A) (A) (A)
                 (A) (A) (A) (A) (A) (A) (A) (A) (A) (A) (A) (A)
                 (A) (A) (A) (A) (A) (A) (A) (A) (A) (A) (A) (A)
                 (A) (A) (A) (A) (A) (A) (A) (A) (A) (A) (A) (A)
                 (A) (A) (A) (A) (A) (A) (A) (A) (A) (A) (A) (A)
                 (A) (A) (A) (A) (A) (A) (A) (A) (A) (A) (A) (A)
                 (A) (A) (A) (A) (A) (A) (A) (A) (A) (A) (A) (A)
                 (A) (A) (A) (A) (A) (A) (A) (A) (A) (A) (A) (A)
                 (A) (A) (A) (A) (A) (A) (A) (A) (A) (A) (A) (A)
                 (A) (A) (A) (A) (A) (A) (A) (A) (A) (A) (A) (A)
                 (A) (A) (A) (A) (A) (A) (A) (A) (A) (A) (A) (A)
                 (A) (A) (A) (A) (A) (A) (A) (A) (A) (A) (A) (A)
                 (A) (A) (A) (A) (A) (A) (A) (A) (A) (A) (A) (A)
                 (A) (A) (A) (A) (A) (A) (A) (A) (A) (A) (A) (A)
                 (A) (A) (A) (A) (A) (A) (A) (A) (A) (A) (A) (A)
                 (A) (A) (A) (A) (A) (A) (A) (A) (A) (A) (A) (A)
                 (A) (A) (A) (A) (A) (A) (A) (A) (A) (A) (A) (A)
                 (A) (A) (A) (A) (A) (A) (A) (A) (A) (A) (A) (A)
                 (A) (A) (A) (A) (A) (A) (A) (A) (A) (A) (A) (A)
                 (A) (A) (A) (A) (A) (A) (A) (A) (A) (A) (A) (A)
                 (A) (A) (A) (A) (A) (A) (A) (A) (A) (A) (A) (A)
                 (A) (A) (A) (A) (A) (A) (A) (A) (A) (A) (A) (A)
                 (A) (A) (A) (A) (A) (A) (A) (A) (A) (A) (A) (A)
                 (A) (A) (A) (A) (A) (A) (A) (A) (A) (A) (A) (A)
                 (A) (A) (A) (A) (A) (A) (A) (A) (A) (A) (A) (A)
                 (A) (A) (A) (A) (A) (A) (A) (A) (A) (A) (A) (A)
                 (A) (A) (A) (A) (A) (A) (A) (A) (A) (A) (A) (A)
                 (A) (A) (A) (A) (A) (A) (A) (A) (A) (A) (A) (A)
                 (A) (A) (A) (A) (A) (A) (A) (A) (A) (A) (A) (A)
                 (A) (A) (A) (A) (A) (A) (A) (A) (A) (A) (A) (A)
                 (A) (A) (A) (A) (A) (A) (A) (A) (A) (A) (A) (A)
                 (A) (A) (A) (A) (A) (A) (A) (A) (A) (A) (A) (A)
                 (A) (A) (A) (A) (A) (A) (A) (A) (A) (A) (A) (A)
                 (A) (A) (A) (A) (A) (A) (A) (A) (A) (A) (A) (A)
                 (A) (A) (A) (A) (A) (A) (A) (A) (A) (A) (A) (A)
                 (A) (A) (A) (A) (A) (A) (A) (A) (A) (A) (A) (A)
                 (A) (A) (A) (A) (A) (A) (A) (A) (A) (A) (A) (A)
                 (A) (A) (A) (A) (A) (A) (A) (A) (A) (A) (A) (A)
                 (A) (A) (A) (A) (A) (A) (A) (A) (A) (A) (A) (A)
                 (A) (A) (A) (A) (A) (A) (A) (A) (A) (A) (A) (A)
                 (A) (A) (A) (A) (A) (A) (A) (A) (A) (A) (A) (A)
                 (A) (A) (A) (A) (A) (A) (A) (A) (A) (A) (A) (A)
                 (A) (A) (A) (A) (A) (A) (A) (A) (A) (A) (A) (A)
                 (A) (A) (A) (A) (A) (A) (A) (A) (A) (A) (A) (A)
                 (A) (A) (A) (A) (A) (A) (A) (A) (A) (A) (A) (A)
                 (A) (A) (A) (A) (A) (A) (A) (A) (A) (A) (A) (A)
                 (A) (A) (A) (A) (A) (A) (A) (A) (A) (A) (A) (A)
                 (A) (A) (A) (A) (A) (A) (A) (A) (A) (A) (A) (A)
                 (A) (A) (A) (A) (A) (A) (A) (A) (A) (A) (A) (A)
                 (A) (A) (A) (A) (A) (A) (A) (A) (A) (A) (A) (A)
                 (A) (A) (A) (A) (A) (A) (A) (A) (A) (A) (A) (A)
                 (A) (A) (A) (A) (A) (A) (A) (A) (A) (A) (A) (A)
                 (A) (A) (A) (A) (A) (A) (A) (A) (A) (A) (A) (A)
                 (A) (A) (A) (A) (A) (A) (A) (A) (A) (A) (A) (A)
                 (A) (A) (A) (A) (A) (A) (A) (A) (A) (A) (A) (A)
                 (A) (A) (A) (A) (A) (A) (A) (A) (A) (A) (A) (A)
                 (A) (A) (A) (A) (A) (A) (A) (A) (A) (A) (A) (A)
                 (A) (A) (A) (A) (A) (A) (A) (A) (A) (A) (A) (A)
                 (A) (A) (A) (A) (A) (A) (A) (A) (A) (A) (A) (A)
                 (A) (A) (A) (A) (A) (A) (A) (A) (A) (A) (A) (A)
                 (A) (A) (A) (A) (A) (A) (A) (A) (A) (A) (A) (A)
                 (A) (A) (A) (A) (A) (A) (A) (A) (A) (A) (A) (A)
                 (A) (A) (A) (A) (A) (A) (A) (A) (A) (A) (A) (A)
                 (A) (A) (A) (A) (A) (A) (A) (A) (A) (A) (A) (A)
                 (A) (A) (A) (A) (A) (A) (A) (A) (A) (A) (A) (A)
                 (A) (A) (A) (A) (A) (A) (A) (A) (A) (A) (A) (A)
                 (A) (A) (A) (A) (A) (A) (A) (A) (A) (A) (A) (A)
                 (A) (A) (A) (A) (A) (A) (A) (A) (A) (A) (A) (A)
                 (A) (A) (A) (A) (A) (A) (A) (A) (A) (A) (A) (A)
                 (A) (A) (A) (A) (A) (A) (A) (A) (A) (A) (A) (A)
                 (A) (A) (A) (A) (A) (A) (A) (A) (A) (A) (A) (A)
                 (A) (A) (A) (A) (A) (A) (A) (A) (A) (A) (A) (A)
                 (A) (A) (A) (A) (A) (A) (A) (A) (A) (A)
 The electronic state is 1-A.
 Alpha  occ. eigenvalues --  -19.18826 -19.18581 -19.13006 -19.12294 -19.11669
 Alpha  occ. eigenvalues --  -14.36448 -14.36345 -14.32106 -14.29263 -10.31809
 Alpha  occ. eigenvalues --  -10.30654 -10.27833 -10.25246 -10.23975 -10.23372
 Alpha  occ. eigenvalues --  -10.23347 -10.23146 -10.22992 -10.22902 -10.22639
 Alpha  occ. eigenvalues --  -10.22131 -10.21387 -10.21387 -10.21166 -10.20859
 Alpha  occ. eigenvalues --  -10.20809 -10.20790 -10.20760 -10.20651 -10.20582
 Alpha  occ. eigenvalues --  -10.20535 -10.20410 -10.20402 -10.20358 -10.20255
 Alpha  occ. eigenvalues --  -10.20210 -10.20207 -10.19877 -10.19874 -10.19824
 Alpha  occ. eigenvalues --  -10.19772 -10.19714 -10.19685 -10.19668 -10.19564
 Alpha  occ. eigenvalues --  -10.19561 -10.19469 -10.19267 -10.19234 -10.19084
 Alpha  occ. eigenvalues --  -10.18977 -10.18970 -10.18957 -10.18915 -10.18860
 Alpha  occ. eigenvalues --  -10.18783 -10.18761 -10.18702 -10.18648 -10.18422
 Alpha  occ. eigenvalues --  -10.18349 -10.17646 -10.17572 -10.16927  -1.14158
 Alpha  occ. eigenvalues --   -1.09977  -1.03334  -1.02005  -1.01740  -0.97687
 Alpha  occ. eigenvalues --   -0.97147  -0.95878  -0.92130  -0.85034  -0.83323
 Alpha  occ. eigenvalues --   -0.83036  -0.81814  -0.81212  -0.81064  -0.80929
 Alpha  occ. eigenvalues --   -0.80199  -0.80021  -0.79290  -0.78276  -0.78029
 Alpha  occ. eigenvalues --   -0.77234  -0.76578  -0.76132  -0.75137  -0.74498
 Alpha  occ. eigenvalues --   -0.73938  -0.73519  -0.72462  -0.72227  -0.70707
 Alpha  occ. eigenvalues --   -0.70002  -0.68764  -0.68363  -0.67686  -0.67481
 Alpha  occ. eigenvalues --   -0.67036  -0.66607  -0.66361  -0.65869  -0.65544
 Alpha  occ. eigenvalues --   -0.64034  -0.62863  -0.62633  -0.62053  -0.61205
 Alpha  occ. eigenvalues --   -0.61034  -0.59300  -0.58856  -0.58317  -0.57929
 Alpha  occ. eigenvalues --   -0.57516  -0.57005  -0.56001  -0.55804  -0.55104
 Alpha  occ. eigenvalues --   -0.54936  -0.54633  -0.54441  -0.54315  -0.54013
 Alpha  occ. eigenvalues --   -0.52713  -0.52471  -0.51824  -0.51173  -0.50655
 Alpha  occ. eigenvalues --   -0.50143  -0.49725  -0.49427  -0.49321  -0.49162
 Alpha  occ. eigenvalues --   -0.48734  -0.48562  -0.48020  -0.47486  -0.47238
 Alpha  occ. eigenvalues --   -0.47148  -0.46990  -0.46524  -0.46116  -0.45918
 Alpha  occ. eigenvalues --   -0.45473  -0.45166  -0.45034  -0.44925  -0.44625
 Alpha  occ. eigenvalues --   -0.44425  -0.44240  -0.44137  -0.44072  -0.43710
 Alpha  occ. eigenvalues --   -0.43614  -0.43557  -0.43245  -0.42854  -0.42724
 Alpha  occ. eigenvalues --   -0.42368  -0.42206  -0.41908  -0.41822  -0.41633
 Alpha  occ. eigenvalues --   -0.41584  -0.41298  -0.41077  -0.40774  -0.40322
 Alpha  occ. eigenvalues --   -0.40172  -0.39872  -0.39642  -0.39575  -0.39198
 Alpha  occ. eigenvalues --   -0.38969  -0.38833  -0.38594  -0.38524  -0.38415
 Alpha  occ. eigenvalues --   -0.37954  -0.37944  -0.37750  -0.37627  -0.37544
 Alpha  occ. eigenvalues --   -0.37335  -0.37144  -0.37016  -0.36975  -0.36864
 Alpha  occ. eigenvalues --   -0.36583  -0.36350  -0.36216  -0.35782  -0.35703
 Alpha  occ. eigenvalues --   -0.35492  -0.35473  -0.35273  -0.35157  -0.35107
 Alpha  occ. eigenvalues --   -0.34668  -0.34230  -0.33942  -0.33897  -0.33599
 Alpha  occ. eigenvalues --   -0.33237  -0.33096  -0.33051  -0.32873  -0.32524
 Alpha  occ. eigenvalues --   -0.32445  -0.32099  -0.31819  -0.31470  -0.31353
 Alpha  occ. eigenvalues --   -0.31090  -0.30909  -0.30249  -0.30054  -0.29781
 Alpha  occ. eigenvalues --   -0.29398  -0.29070  -0.28216  -0.28167  -0.27978
 Alpha  occ. eigenvalues --   -0.27857  -0.27025  -0.26590  -0.26263  -0.25730
 Alpha  occ. eigenvalues --   -0.25525  -0.25020  -0.22790  -0.21179  -0.19425
 Alpha  occ. eigenvalues --   -0.19016
 Alpha virt. eigenvalues --   -0.10143  -0.08175  -0.04729  -0.02505  -0.00986
 Alpha virt. eigenvalues --    0.00207   0.00273   0.01942   0.02695   0.02955
 Alpha virt. eigenvalues --    0.03562   0.03603   0.03776   0.04147   0.04434
 Alpha virt. eigenvalues --    0.04441   0.04907   0.05012   0.05717   0.05839
 Alpha virt. eigenvalues --    0.05940   0.06023   0.06305   0.06491   0.06563
 Alpha virt. eigenvalues --    0.06860   0.07258   0.07641   0.08126   0.08153
 Alpha virt. eigenvalues --    0.08420   0.08433   0.08647   0.08801   0.08982
 Alpha virt. eigenvalues --    0.09134   0.09328   0.09393   0.09493   0.09605
 Alpha virt. eigenvalues --    0.09845   0.10066   0.10088   0.10349   0.10450
 Alpha virt. eigenvalues --    0.10627   0.10971   0.11051   0.11194   0.11397
 Alpha virt. eigenvalues --    0.11512   0.11660   0.11930   0.12067   0.12150
 Alpha virt. eigenvalues --    0.12637   0.12722   0.12900   0.13077   0.13117
 Alpha virt. eigenvalues --    0.13334   0.13420   0.13749   0.14071   0.14258
 Alpha virt. eigenvalues --    0.14335   0.14519   0.14697   0.14810   0.14882
 Alpha virt. eigenvalues --    0.15030   0.15134   0.15458   0.15670   0.15905
 Alpha virt. eigenvalues --    0.16302   0.16431   0.16751   0.16804   0.17126
 Alpha virt. eigenvalues --    0.17464   0.17596   0.17907   0.18155   0.18209
 Alpha virt. eigenvalues --    0.18282   0.18521   0.18743   0.18950   0.19191
 Alpha virt. eigenvalues --    0.19440   0.19754   0.19853   0.20086   0.20233
 Alpha virt. eigenvalues --    0.20849   0.20901   0.20948   0.21033   0.21209
 Alpha virt. eigenvalues --    0.21366   0.22091   0.22113   0.22215   0.22303
 Alpha virt. eigenvalues --    0.22407   0.22572   0.22898   0.23233   0.23297
 Alpha virt. eigenvalues --    0.23691   0.23921   0.23952   0.23968   0.24803
 Alpha virt. eigenvalues --    0.25091   0.25167   0.25496   0.25932   0.26215
 Alpha virt. eigenvalues --    0.26362   0.26619   0.26991   0.27246   0.27726
 Alpha virt. eigenvalues --    0.27821   0.28315   0.28746   0.28968   0.29400
 Alpha virt. eigenvalues --    0.29616   0.29710   0.30338   0.30417   0.30933
 Alpha virt. eigenvalues --    0.31169   0.32182   0.32461   0.32621   0.33427
 Alpha virt. eigenvalues --    0.34111   0.34176   0.34747   0.34891   0.34943
 Alpha virt. eigenvalues --    0.35927   0.36052   0.36389   0.36686   0.37208
 Alpha virt. eigenvalues --    0.37358   0.37808   0.38246   0.38362   0.38608
 Alpha virt. eigenvalues --    0.39030   0.39054   0.39517   0.39798   0.40205
 Alpha virt. eigenvalues --    0.40234   0.40438   0.40683   0.40897   0.40988
 Alpha virt. eigenvalues --    0.41317   0.41443   0.41512   0.41694   0.42200
 Alpha virt. eigenvalues --    0.42391   0.42636   0.42721   0.42928   0.43275
 Alpha virt. eigenvalues --    0.43346   0.43972   0.44184   0.44673   0.44829
 Alpha virt. eigenvalues --    0.44837   0.44976   0.45039   0.45292   0.45732
 Alpha virt. eigenvalues --    0.45773   0.46237   0.46316   0.46589   0.47257
 Alpha virt. eigenvalues --    0.47356   0.47485   0.47855   0.48021   0.48105
 Alpha virt. eigenvalues --    0.48205   0.48547   0.48931   0.49047   0.49174
 Alpha virt. eigenvalues --    0.49253   0.49970   0.50236   0.50318   0.50653
 Alpha virt. eigenvalues --    0.50750   0.50986   0.51057   0.51098   0.51539
 Alpha virt. eigenvalues --    0.51647   0.51815   0.51980   0.52284   0.52456
 Alpha virt. eigenvalues --    0.52644   0.52871   0.53041   0.53519   0.53875
 Alpha virt. eigenvalues --    0.54142   0.54337   0.54629   0.54723   0.55065
 Alpha virt. eigenvalues --    0.55381   0.55577   0.55859   0.56347   0.56620
 Alpha virt. eigenvalues --    0.56762   0.56857   0.57163   0.57255   0.57503
 Alpha virt. eigenvalues --    0.57705   0.57721   0.58170   0.58470   0.58514
 Alpha virt. eigenvalues --    0.58747   0.58822   0.59025   0.59138   0.59267
 Alpha virt. eigenvalues --    0.59392   0.59458   0.59509   0.59782   0.60046
 Alpha virt. eigenvalues --    0.60122   0.60510   0.60715   0.60821   0.60995
 Alpha virt. eigenvalues --    0.61049   0.61204   0.61369   0.61476   0.61555
 Alpha virt. eigenvalues --    0.61754   0.61799   0.62083   0.62136   0.62428
 Alpha virt. eigenvalues --    0.62513   0.62668   0.62810   0.62984   0.63145
 Alpha virt. eigenvalues --    0.63445   0.63512   0.63645   0.63744   0.63844
 Alpha virt. eigenvalues --    0.64053   0.64299   0.64303   0.64491   0.64553
 Alpha virt. eigenvalues --    0.64722   0.64985   0.65060   0.65209   0.65325
 Alpha virt. eigenvalues --    0.65532   0.65725   0.65759   0.65884   0.66023
 Alpha virt. eigenvalues --    0.66136   0.66302   0.66450   0.66522   0.66634
 Alpha virt. eigenvalues --    0.66668   0.67005   0.67202   0.67362   0.67412
 Alpha virt. eigenvalues --    0.67541   0.67625   0.67749   0.67925   0.67959
 Alpha virt. eigenvalues --    0.68236   0.68415   0.68592   0.68879   0.68961
 Alpha virt. eigenvalues --    0.69181   0.69280   0.69408   0.69476   0.69603
 Alpha virt. eigenvalues --    0.69749   0.69846   0.69994   0.70164   0.70230
 Alpha virt. eigenvalues --    0.70487   0.70538   0.70641   0.70774   0.71034
 Alpha virt. eigenvalues --    0.71541   0.71630   0.71722   0.72043   0.72238
 Alpha virt. eigenvalues --    0.72372   0.72418   0.72583   0.72738   0.72959
 Alpha virt. eigenvalues --    0.73085   0.73255   0.73397   0.73585   0.73600
 Alpha virt. eigenvalues --    0.73987   0.74161   0.74363   0.74466   0.74591
 Alpha virt. eigenvalues --    0.74604   0.75003   0.75188   0.75351   0.75597
 Alpha virt. eigenvalues --    0.75795   0.75829   0.75962   0.76396   0.76547
 Alpha virt. eigenvalues --    0.76670   0.76754   0.76828   0.77252   0.77572
 Alpha virt. eigenvalues --    0.77679   0.77804   0.78416   0.78597   0.78843
 Alpha virt. eigenvalues --    0.79042   0.79342   0.79483   0.79876   0.80517
 Alpha virt. eigenvalues --    0.80858   0.81077   0.81101   0.81736   0.81963
 Alpha virt. eigenvalues --    0.82028   0.82584   0.83262   0.83472   0.83531
 Alpha virt. eigenvalues --    0.83594   0.84011   0.84265   0.84924   0.85123
 Alpha virt. eigenvalues --    0.85631   0.86419   0.86493   0.87215   0.87660
 Alpha virt. eigenvalues --    0.88015   0.88917   0.88979   0.89468   0.89824
 Alpha virt. eigenvalues --    0.90002   0.90993   0.91453   0.91829   0.92276
 Alpha virt. eigenvalues --    0.92586   0.93308   0.94255   0.94542   0.94643
 Alpha virt. eigenvalues --    0.95158   0.95642   0.95921   0.96821   0.97347
 Alpha virt. eigenvalues --    0.97439   0.97916   0.98710   0.99037   0.99762
 Alpha virt. eigenvalues --    1.00334   1.00618   1.00724   1.01409   1.01704
 Alpha virt. eigenvalues --    1.02526   1.02625   1.03205   1.03514   1.03967
 Alpha virt. eigenvalues --    1.04147   1.04771   1.05228   1.05531   1.05680
 Alpha virt. eigenvalues --    1.06464   1.06731   1.07320   1.07766   1.08315
 Alpha virt. eigenvalues --    1.09012   1.09075   1.09264   1.09762   1.10362
 Alpha virt. eigenvalues --    1.10610   1.10926   1.11382   1.11511   1.11929
 Alpha virt. eigenvalues --    1.12153   1.12256   1.12548   1.13876   1.14275
 Alpha virt. eigenvalues --    1.14448   1.14614   1.15269   1.16062   1.16133
 Alpha virt. eigenvalues --    1.16592   1.17007   1.17390   1.18194   1.18472
 Alpha virt. eigenvalues --    1.18731   1.19081   1.19755   1.19763   1.20248
 Alpha virt. eigenvalues --    1.20961   1.21400   1.21718   1.22466   1.22986
 Alpha virt. eigenvalues --    1.23256   1.24102   1.24253   1.24839   1.25058
 Alpha virt. eigenvalues --    1.25247   1.25334   1.25879   1.26085   1.26210
 Alpha virt. eigenvalues --    1.26453   1.26687   1.27582   1.27869   1.28004
 Alpha virt. eigenvalues --    1.29114   1.29395   1.29992   1.30355   1.30634
 Alpha virt. eigenvalues --    1.31257   1.31582   1.31645   1.32921   1.33177
 Alpha virt. eigenvalues --    1.33211   1.33812   1.34196   1.34594   1.34931
 Alpha virt. eigenvalues --    1.35182   1.35253   1.35892   1.36591   1.37002
 Alpha virt. eigenvalues --    1.37326   1.37471   1.38197   1.38234   1.39011
 Alpha virt. eigenvalues --    1.39281   1.39508   1.39705   1.40591   1.41271
 Alpha virt. eigenvalues --    1.42162   1.42279   1.43007   1.43443   1.43646
 Alpha virt. eigenvalues --    1.43755   1.44590   1.44707   1.44900   1.44968
 Alpha virt. eigenvalues --    1.45194   1.45968   1.46162   1.47045   1.47388
 Alpha virt. eigenvalues --    1.47692   1.47879   1.48323   1.48617   1.48993
 Alpha virt. eigenvalues --    1.49391   1.49653   1.49816   1.49852   1.49949
 Alpha virt. eigenvalues --    1.50368   1.50867   1.51501   1.51933   1.52298
 Alpha virt. eigenvalues --    1.52892   1.53083   1.53740   1.53961   1.54027
 Alpha virt. eigenvalues --    1.54468   1.54883   1.55270   1.55877   1.56256
 Alpha virt. eigenvalues --    1.56605   1.56782   1.57307   1.57669   1.57975
 Alpha virt. eigenvalues --    1.59090   1.59236   1.59576   1.59849   1.60318
 Alpha virt. eigenvalues --    1.61392   1.62127   1.62422   1.62863   1.63155
 Alpha virt. eigenvalues --    1.63201   1.63455   1.63755   1.63829   1.64671
 Alpha virt. eigenvalues --    1.65064   1.65084   1.65270   1.65385   1.65569
 Alpha virt. eigenvalues --    1.65899   1.66197   1.66472   1.66699   1.67059
 Alpha virt. eigenvalues --    1.67190   1.67302   1.67501   1.67892   1.68126
 Alpha virt. eigenvalues --    1.68176   1.68642   1.68905   1.69318   1.69394
 Alpha virt. eigenvalues --    1.69757   1.69806   1.69926   1.70344   1.70538
 Alpha virt. eigenvalues --    1.70588   1.70779   1.70941   1.71155   1.71244
 Alpha virt. eigenvalues --    1.71441   1.71527   1.72302   1.72461   1.72808
 Alpha virt. eigenvalues --    1.73016   1.73070   1.73267   1.73544   1.73690
 Alpha virt. eigenvalues --    1.73812   1.74051   1.74287   1.74422   1.74560
 Alpha virt. eigenvalues --    1.74880   1.75167   1.75699   1.75756   1.75891
 Alpha virt. eigenvalues --    1.76192   1.76241   1.76492   1.76760   1.76995
 Alpha virt. eigenvalues --    1.77051   1.77291   1.77410   1.77654   1.78005
 Alpha virt. eigenvalues --    1.78159   1.78446   1.78472   1.78764   1.78853
 Alpha virt. eigenvalues --    1.79432   1.79667   1.79835   1.79975   1.80332
 Alpha virt. eigenvalues --    1.80484   1.80748   1.80877   1.81082   1.81627
 Alpha virt. eigenvalues --    1.81760   1.81776   1.82397   1.82457   1.82597
 Alpha virt. eigenvalues --    1.83047   1.83063   1.83331   1.83764   1.83974
 Alpha virt. eigenvalues --    1.84649   1.84807   1.84916   1.84986   1.85126
 Alpha virt. eigenvalues --    1.85335   1.85647   1.85670   1.86021   1.86666
 Alpha virt. eigenvalues --    1.86769   1.86847   1.87035   1.87203   1.87579
 Alpha virt. eigenvalues --    1.87736   1.88068   1.88354   1.88520   1.88632
 Alpha virt. eigenvalues --    1.88935   1.89209   1.89463   1.89823   1.89915
 Alpha virt. eigenvalues --    1.90147   1.90429   1.90648   1.91189   1.91471
 Alpha virt. eigenvalues --    1.91872   1.91889   1.92348   1.92496   1.92585
 Alpha virt. eigenvalues --    1.92891   1.93178   1.93621   1.93663   1.93783
 Alpha virt. eigenvalues --    1.93909   1.94648   1.94716   1.94902   1.94945
 Alpha virt. eigenvalues --    1.95224   1.95924   1.96290   1.96596   1.96864
 Alpha virt. eigenvalues --    1.97288   1.97530   1.97585   1.97967   1.98313
 Alpha virt. eigenvalues --    1.98558   1.98635   1.99050   1.99403   1.99789
 Alpha virt. eigenvalues --    1.99968   2.00606   2.00762   2.01138   2.01282
 Alpha virt. eigenvalues --    2.01679   2.01766   2.02054   2.02638   2.02977
 Alpha virt. eigenvalues --    2.03083   2.03405   2.03474   2.04045   2.04162
 Alpha virt. eigenvalues --    2.04785   2.05353   2.05598   2.05906   2.06092
 Alpha virt. eigenvalues --    2.06276   2.06498   2.06858   2.07120   2.07748
 Alpha virt. eigenvalues --    2.08056   2.08154   2.08410   2.09201   2.09238
 Alpha virt. eigenvalues --    2.09472   2.10283   2.10542   2.10765   2.11114
 Alpha virt. eigenvalues --    2.11428   2.11759   2.11958   2.12480   2.12613
 Alpha virt. eigenvalues --    2.13027   2.13588   2.13853   2.14395   2.14812
 Alpha virt. eigenvalues --    2.15205   2.15505   2.15653   2.16101   2.16230
 Alpha virt. eigenvalues --    2.16457   2.17022   2.17940   2.18185   2.18580
 Alpha virt. eigenvalues --    2.18872   2.19072   2.19181   2.19852   2.20013
 Alpha virt. eigenvalues --    2.20444   2.21035   2.21679   2.21828   2.22356
 Alpha virt. eigenvalues --    2.22554   2.22863   2.23048   2.23277   2.23565
 Alpha virt. eigenvalues --    2.23751   2.24144   2.24350   2.25043   2.25129
 Alpha virt. eigenvalues --    2.25687   2.26272   2.26332   2.26699   2.27089
 Alpha virt. eigenvalues --    2.27383   2.27416   2.27967   2.28376   2.28454
 Alpha virt. eigenvalues --    2.29837   2.30196   2.30304   2.30456   2.30990
 Alpha virt. eigenvalues --    2.31379   2.31437   2.31974   2.32246   2.32461
 Alpha virt. eigenvalues --    2.33087   2.33361   2.33819   2.33989   2.34197
 Alpha virt. eigenvalues --    2.34843   2.35113   2.35457   2.35938   2.36276
 Alpha virt. eigenvalues --    2.36498   2.37412   2.37617   2.37768   2.37916
 Alpha virt. eigenvalues --    2.38146   2.38838   2.39721   2.39988   2.40685
 Alpha virt. eigenvalues --    2.41122   2.41232   2.41426   2.41705   2.41943
 Alpha virt. eigenvalues --    2.42147   2.42849   2.43658   2.43778   2.44211
 Alpha virt. eigenvalues --    2.44818   2.45065   2.45370   2.45638   2.45780
 Alpha virt. eigenvalues --    2.45876   2.46495   2.46617   2.47241   2.47953
 Alpha virt. eigenvalues --    2.48915   2.49507   2.49559   2.49758   2.50362
 Alpha virt. eigenvalues --    2.51000   2.51383   2.51607   2.51893   2.52382
 Alpha virt. eigenvalues --    2.53299   2.54129   2.54511   2.54639   2.55117
 Alpha virt. eigenvalues --    2.55146   2.56259   2.56563   2.57119   2.57502
 Alpha virt. eigenvalues --    2.57788   2.58471   2.58744   2.59472   2.59731
 Alpha virt. eigenvalues --    2.59839   2.60447   2.60881   2.61014   2.61463
 Alpha virt. eigenvalues --    2.61743   2.62485   2.62716   2.63069   2.63366
 Alpha virt. eigenvalues --    2.63640   2.64609   2.65273   2.65465   2.65789
 Alpha virt. eigenvalues --    2.66241   2.66552   2.67317   2.67339   2.67570
 Alpha virt. eigenvalues --    2.67976   2.68100   2.69104   2.69144   2.69254
 Alpha virt. eigenvalues --    2.70227   2.70471   2.70833   2.71565   2.71773
 Alpha virt. eigenvalues --    2.72464   2.73421   2.73472   2.74147   2.74623
 Alpha virt. eigenvalues --    2.74814   2.75109   2.75370   2.76189   2.76686
 Alpha virt. eigenvalues --    2.77223   2.77496   2.77686   2.77815   2.78733
 Alpha virt. eigenvalues --    2.78890   2.79493   2.80073   2.80192   2.80595
 Alpha virt. eigenvalues --    2.81427   2.81766   2.82168   2.82364   2.82480
 Alpha virt. eigenvalues --    2.82734   2.83073   2.83506   2.84413   2.84578
 Alpha virt. eigenvalues --    2.84903   2.85477   2.86267   2.86861   2.87193
 Alpha virt. eigenvalues --    2.87341   2.87801   2.88201   2.88383   2.89480
 Alpha virt. eigenvalues --    2.89778   2.89977   2.90101   2.91051   2.91104
 Alpha virt. eigenvalues --    2.91229   2.91974   2.92555   2.92966   2.93382
 Alpha virt. eigenvalues --    2.94470   2.94660   2.94775   2.94856   2.95557
 Alpha virt. eigenvalues --    2.95735   2.96084   2.96251   2.97079   2.97906
 Alpha virt. eigenvalues --    2.98656   2.99185   2.99461   2.99945   3.00224
 Alpha virt. eigenvalues --    3.00965   3.01707   3.02043   3.02827   3.04075
 Alpha virt. eigenvalues --    3.05164   3.05703   3.06109   3.07205   3.07847
 Alpha virt. eigenvalues --    3.07890   3.08943   3.09364   3.10944   3.10996
 Alpha virt. eigenvalues --    3.11656   3.12381   3.13460   3.13755   3.14242
 Alpha virt. eigenvalues --    3.15242   3.15936   3.16316   3.16663   3.17692
 Alpha virt. eigenvalues --    3.18618   3.19320   3.20020   3.20081   3.20679
 Alpha virt. eigenvalues --    3.21075   3.21692   3.22704   3.23065   3.24807
 Alpha virt. eigenvalues --    3.25527   3.29255   3.33175   3.35656   3.36009
 Alpha virt. eigenvalues --    3.36663   3.41417   3.44496   3.46862   3.50451
 Alpha virt. eigenvalues --    3.50685   3.53967   3.54987   3.55873   3.61086
 Alpha virt. eigenvalues --    3.63159   3.65478   3.67181   3.69919   3.77718
          Condensed to atoms (all electrons):
 Mulliken charges:
               1
     1  C   -0.024087
     2  C   -0.074390
     3  C   -0.115241
     4  C   -0.076356
     5  N   -0.092533
     6  C   -0.034291
     7  C   -0.000625
     8  C   -0.010599
     9  C   -0.055165
    10  C    0.034959
    11  C    0.004017
    12  C    0.025473
    13  C    0.109177
    14  O   -0.200422
    15  O   -0.227825
    16  N   -0.051864
    17  C    0.143873
    18  C   -0.154895
    19  C    0.036797
    20  C    0.075356
    21  C    0.057363
    22  C   -0.034263
    23  C   -0.018739
    24  N   -0.278490
    25  C    0.146284
    26  C   -0.183284
    27  C   -0.092282
    28  C    0.057965
    29  C    0.034059
    30  C    0.018551
    31  C    0.083760
    32  N   -0.128325
    33  C    0.060456
    34  C   -0.149178
    35  C    0.041841
    36  C    0.120775
    37  C    0.150584
    38  C    0.045946
    39  O   -0.184527
    40  C   -0.039795
    41  C    0.203851
    42  O   -0.211607
    43  O   -0.290943
    44  C    0.161270
    45  C    0.324647
    46  C   -0.073500
    47  C   -0.150376
    48  C    0.107909
    49  C    0.097897
    50  C    0.007006
    51  C    0.076654
    52  C   -0.067728
    53  C   -0.054058
    54  C    0.006388
    55  C    0.175331
    56  C    0.117257
    57  C   -0.078175
    58  C   -0.054927
    59  C   -0.035689
    60  C    0.053470
    61  C    0.005112
    62  C   -0.072473
    63  C   -0.022776
    64  C    0.037514
    65  H   -0.005589
    66  H   -0.004971
    67  H   -0.025486
    68  H   -0.044229
    69  H   -0.028914
    70  H    0.038992
    71  H    0.022698
    72  H    0.034063
    73  H    0.011011
    74  H    0.022933
    75  H    0.011091
    76  H    0.009808
    77  H    0.038557
    78  H   -0.011106
    79  H    0.048603
    80  H   -0.009022
    81  H   -0.010602
    82  H    0.041803
    83  H    0.066964
    84  H    0.021974
    85  H    0.026460
    86  H    0.004374
    87  H    0.018157
    88  H   -0.012491
    89  H   -0.009999
    90  H    0.019011
    91  H    0.058050
    92  H    0.015391
    93  H    0.011223
    94  H    0.063692
    95  H    0.011178
    96  H    0.036959
    97  H    0.043467
    98  H   -0.058653
    99  H    0.017061
   100  H   -0.021380
   101  H    0.061236
   102  H    0.070302
   103  H   -0.042910
   104  H   -0.011627
   105  H    0.004153
   106  H    0.014871
   107  H   -0.017543
   108  H   -0.051825
   109  H   -0.032103
   110  H   -0.003025
   111  H    0.031566
   112  H    0.038072
   113  H    0.013661
   114  H   -0.016624
   115  H   -0.014527
   116  H   -0.028354
   117  H   -0.128367
   118  H   -0.038444
   119  H    0.012114
   120  H    0.007890
   121  H    0.038886
   122  H    0.009514
   123  H    0.025591
   124  H   -0.004677
   125  H    0.007153
   126  H    0.001758
   127  H   -0.013881
   128  H   -0.009639
   129  H   -0.001898
   130  H   -0.014008
   131  H    0.003381
   132  H   -0.005007
   133  H    0.026289
   134  H    0.035692
   135  H   -0.001046
   136  H   -0.006047
   137  H    0.096724
   138  H    0.209507
 Sum of Mulliken charges =   0.00000
 Mulliken charges with hydrogens summed into heavy atoms:
               1
     1  C   -0.024087
     2  C   -0.079979
     3  C   -0.120212
     4  C   -0.101842
     5  N   -0.092533
     6  C   -0.034291
     7  C   -0.044854
     8  C   -0.039513
     9  C   -0.055165
    10  C    0.130712
    11  C    0.037961
    12  C    0.046372
    13  C    0.109177
    14  O   -0.200422
    15  O   -0.227825
    16  N    0.044860
    17  C    0.143873
    18  C   -0.154895
    19  C    0.036797
    20  C    0.075356
    21  C    0.133417
    22  C   -0.043285
    23  C    0.012462
    24  N   -0.278490
    25  C    0.146284
    26  C   -0.183284
    27  C   -0.092282
    28  C    0.057965
    29  C    0.149458
    30  C    0.041082
    31  C    0.080281
    32  N    0.081182
    33  C    0.060456
    34  C   -0.149178
    35  C    0.041841
    36  C    0.120775
    37  C    0.235249
    38  C    0.045946
    39  O   -0.184527
    40  C    0.023898
    41  C    0.203851
    42  O   -0.211607
    43  O   -0.290943
    44  C    0.252874
    45  C    0.283055
    46  C   -0.094880
    47  C   -0.150376
    48  C    0.196537
    49  C    0.090423
    50  C    0.004335
    51  C   -0.007275
    52  C   -0.070753
    53  C    0.029240
    54  C   -0.024763
    55  C    0.018610
    56  C    0.090928
    57  C   -0.070286
    58  C    0.019064
    59  C   -0.033213
    60  C    0.041347
    61  C   -0.006425
    62  C   -0.086481
    63  C    0.001886
    64  C    0.066114
 Electronic spatial extent (au):  <R**2>=         178512.4041
 Charge=              0.0000 electrons
 Dipole moment (field-independent basis, Debye):
    X=              4.3963    Y=              2.6592    Z=              0.3735  Tot=              5.1515
 Quadrupole moment (field-independent basis, Debye-Ang):
   XX=           -361.7265   YY=           -380.6193   ZZ=           -398.8803
   XY=            -10.6989   XZ=             -0.9753   YZ=             -1.2496
 Traceless Quadrupole moment (field-independent basis, Debye-Ang):
   XX=             18.6822   YY=             -0.2106   ZZ=            -18.4716
   XY=            -10.6989   XZ=             -0.9753   YZ=             -1.2496
 Octapole moment (field-independent basis, Debye-Ang**2):
  XXX=             29.9526  YYY=             68.3018  ZZZ=             -4.2921  XYY=           -140.5333
  XXY=             67.5893  XXZ=           -182.7186  XZZ=              6.2297  YZZ=            -36.7125
  YYZ=             60.6802  XYZ=            -30.5499
 Hexadecapole moment (field-independent basis, Debye-Ang**3):
 XXXX=        -218826.0546 YYYY=         -17508.7383 ZZZZ=          -4088.2134 XXXY=            719.1192
 XXXZ=            613.4567 YYYX=           -974.2459 YYYZ=           -328.9312 ZZZX=             77.3607
 ZZZY=            -42.0523 XXYY=         -41077.1895 XXZZ=         -39675.0178 YYZZ=          -3546.5611
 XXYZ=            167.3039 YYXZ=           -102.0251 ZZXY=             -6.0569
 N-N= 8.303788032839D+03 E-N=-2.294258903033D+04  KE= 2.702450367547D+03
 1\1\GINC-PEDRO-RYZENSSD\SP\RB3LYP TD-FC\SVP\C55H74N4O5\PADAWAN\26-Jul-
 2019\0\\# td=(NStates=1) B3LYP/SVP\\TD\\0,1\C,0,-5.1066983679,-2.00566
 68088,0.4216470406\C,0,-4.6462849475,2.7365701087,1.2596923551\C,0,-9.
 3895888686,3.3596967689,-0.1553340013\C,0,-9.7296110156,-1.4014909525,
 -0.8464171951\N,0,-5.1062997923,0.3766592888,0.7837068077\C,0,-4.43919
 25354,-0.7205387749,0.7402774711\C,0,-2.9869783843,-0.6710935441,1.216
 0065965\C,0,-2.9548004454,0.8433832306,1.7582249283\C,0,-4.3356727604,
 1.3590957275,1.2769112881\C,0,-2.7360221707,1.0290404163,3.2341212747\
 C,0,-2.0257046412,-0.8975497167,0.0076187075\C,0,-0.6105342656,-0.7595
 94176,0.4393863913\C,0,0.4600696684,-1.1273396069,-0.723013859\O,0,0.0
 586676344,-1.3548878554,-1.7894425558\O,0,1.6285130484,-0.8011268858,-
 0.408323275\N,0,-7.0563102256,2.7282700988,0.5160911183\C,0,-5.8302245
 979,3.3513195503,0.8662374806\C,0,-6.1402672124,4.7243088704,0.8809245
 853\C,0,-7.5176908659,4.9508539209,0.4039269201\C,0,-8.0197429202,3.65
 33038241,0.2215523106\C,0,-5.2171322297,5.7169772128,1.4651377798\C,0,
 -8.1978270654,6.2358375954,0.4277312744\C,0,-9.097457644,6.6258723091,
 -0.5646689457\N,0,-9.261974398,0.8784250755,-0.531555624\C,0,-9.914915
 3544,2.1105035491,-0.4387831475\C,0,-11.2778616527,1.9507086319,-0.876
 451479\C,0,-11.51439539,0.4875360937,-0.9698519399\C,0,-10.1680990356,
 -0.0850784595,-0.7779410366\C,0,-12.2933178327,3.055944096,-0.90418350
 87\C,0,-12.7331410536,-0.1782803075,-1.4917801377\C,0,-12.9357737081,-
 0.3096842328,-3.0215703283\N,0,-7.4871576734,-1.2062023054,-0.31680020
 85\C,0,-8.5960711946,-2.0143701638,-0.5489882612\C,0,-8.2252549645,-3.
 4290897912,-0.4212346908\C,0,-6.8766425734,-3.3769845268,-0.1020578297
 \C,0,-6.4567967831,-2.0742502436,-0.0269176156\C,0,-9.1013828959,-4.57
 75585054,-0.7861976142\C,0,-5.7739643416,-4.2719922343,0.0863695826\O,
 0,-5.7123407243,-5.4860581359,-0.1148987558\C,0,-4.4887665053,-3.42726
 34879,0.3504341055\C,0,-3.8884226402,-3.8274468382,1.6762341491\O,0,-4
 .2486499385,-3.3459625302,2.7269407622\O,0,-3.0215208397,-4.8548804609
 ,1.4394243703\C,0,-2.5124659504,-5.4326527114,2.6105331929\C,0,2.62088
 4257,-1.1413080284,-1.3622302488\C,0,3.9775710039,-0.7843389363,-0.688
 5309532\C,0,4.8837606327,0.0355846134,-1.1794218988\C,0,4.8072499207,0
 .7624069724,-2.4631034271\C,0,6.2927510203,0.1641441536,-0.3988788021\
 C,0,7.4794491853,-0.5803842213,-1.0163184987\C,0,8.8136729684,-0.28847
 28324,-0.0845268002\C,0,10.0777086966,-0.7243567623,-0.7822755824\C,0,
 10.0324792865,-2.2542992328,-1.0876880537\C,0,11.2875826085,-0.2029846
 132,-0.0049410498\C,0,12.662897964,-0.4795232695,-0.5612806512\C,0,13.
 8662752169,0.1636191357,0.3217342289\C,0,15.2101299248,-0.1792888104,-
 0.2529288508\C,0,15.5866182336,-1.6922480902,0.0104522769\C,0,16.39535
 02793,0.6772122385,0.5037794002\C,0,17.7368685757,0.7568986076,-0.0201
 25914\C,0,18.6827491992,1.6820525342,0.6524560618\C,0,20.0359054921,1.
 7219199966,0.2032620537\C,0,20.2699476937,2.0486114372,-1.2763157094\C
 ,0,20.7991424355,2.6791592547,1.0778695752\H,0,-3.9481724775,3.3987811
 101,1.858630744\H,0,-10.0304809012,4.2718744295,-0.3265539781\H,0,-10.
 5665809145,-2.1431714726,-0.8658760607\H,0,-2.6458169087,-1.2387131065
 ,1.9728481605\H,0,-2.2226635809,1.3561458378,1.2381167239\H,0,-1.91275
 15332,0.2683131997,3.5458536894\H,0,-2.6822937213,2.1014151912,3.45681
 58768\H,0,-3.8019897959,0.6599511796,3.6886140376\H,0,-2.2163871471,-1
 .8081555487,-0.5126257098\H,0,-2.2456979092,0.0527514661,-0.8078574799
 \H,0,-0.4218580056,0.2191757712,0.7758679481\H,0,-0.4609464339,-1.4839
 103496,1.3184993583\H,0,-4.2556603825,5.9890632744,0.8161844182\H,0,-5
 .7414593523,6.6369386086,1.4920084954\H,0,-4.8672948163,5.3395519992,2
 .5463487689\H,0,-7.8410491143,7.0022801025,1.0576973236\H,0,-9.3387692
 288,6.0616463251,-1.3300445906\H,0,-9.5381185585,7.7167904065,-0.57870
 80937\H,0,-12.8019445565,3.4539345807,0.0540575927\H,0,-11.8441882671,
 3.8069146489,-1.5539447113\H,0,-13.0948105039,2.4620040361,-1.69623397
 88\H,0,-12.7240847817,-1.2333422609,-1.04628938\H,0,-13.5461016347,0.4
 351276675,-1.0040027591\H,0,-12.656051235,0.5656033734,-3.4226996143\H
 ,0,-12.3142863966,-1.0725648301,-3.4505040025\H,0,-13.9439911526,-0.77
 81169065,-3.3336009024\H,0,-10.0173882876,-4.6918485047,-0.0263049325\
 H,0,-9.2067346524,-4.4116291089,-1.7930662048\H,0,-8.5890040751,-5.515
 369804,-0.7585138069\H,0,-3.6804999014,-3.7277790681,-0.3810294515\H,0
 ,-1.893949788,-6.3001851142,2.5207554096\H,0,-1.87593604,-4.6636698509
 ,3.1136458072\H,0,-3.3485378702,-6.090494141,3.1583227079\H,0,2.512805
 188,-2.074955139,-1.4990210691\H,0,2.403295224,-0.6307706579,-2.302548
 022\H,0,4.006763448,-1.4637186862,0.1358314861\H,0,4.9308249117,1.9866
 511741,-2.2391386337\H,0,5.6353301502,0.0460605686,-3.0967610777\H,0,3
 .8664567639,0.5527264594,-2.7146722923\H,0,6.702348251,1.1596420892,-0
 .4096911602\H,0,6.249723017,-0.4316330529,0.5232400314\H,0,7.164073192
 2,-1.6646231869,-0.9394347031\H,0,7.8209616387,-0.275945574,-1.9287877
 078\H,0,8.800775565,0.67888673,0.2223023785\H,0,8.8054136042,-0.705974
 749,0.8915019626\H,0,10.1002926979,-0.2846959129,-1.8411186869\H,0,9.1
 008604022,-2.588787572,-1.6470132491\H,0,11.0097860097,-2.6966212619,-
 1.5947800829\H,0,9.9080858287,-2.7602177074,0.0455062813\H,0,11.178733
 1707,0.8321519953,0.2241710023\H,0,11.0702529888,-0.6158568222,1.27887
 7818\H,0,12.8021949301,-1.5454561168,-0.9216353765\H,0,12.796867839,-0
 .2322233013,-1.4044719809\H,0,13.6174028952,1.1292526361,0.4032232332\
 H,0,13.757619989,-0.3034167695,1.3788147274\H,0,15.4311154557,0.012902
 4963,-1.3648985032\H,0,14.9273582887,-2.4052931111,-0.7714064738\H,0,1
 6.6982136949,-1.9278068173,-0.256751459\H,0,15.7364689257,-2.019347067
 3,1.1238716586\H,0,16.0881590891,1.7671832886,0.5496754265\H,0,16.3101
 656734,0.2842990532,1.6690503276\H,0,18.3105022719,-0.3195661671,-0.02
 5672435\H,0,17.7491695026,1.0000918975,-1.1011585484\H,0,18.4231670062
 ,2.8220786038,0.6596913588\H,0,18.4693591901,1.3984656561,1.7405712071
 \H,0,20.5733336658,0.7430822692,0.1332444806\H,0,19.668974254,3.068105
 0806,-1.5218240848\H,0,21.2388611298,2.0434424139,-1.4731304196\H,0,19
 .4779327663,1.3266882905,-2.0659387754\H,0,21.1413593724,2.1764591139,
 2.0926803046\H,0,21.8643192891,2.9218222096,0.6290370608\H,0,20.230792
 7087,3.5521384134,0.9862273606\H,0,-7.1936111942,1.7637452477,0.469808
 827\H,0,-7.5588374321,-0.1066008361,-0.1049106187\\Version=ES64L-G09Re
 vD.01\State=1-A\HF=-2732.9409765\RMSD=6.273e-09\PG=C01 [X(C55H74N4O5)]
 \\@


 THEREFORE SHALL EVIL COME UPON THEE...
 THOU SHALT NOT KNOW FROM WHENCE IT RISETH...
 AND MISCHIEF SHALL FALL UPON THEE...
 THOU SHALT NOT BE ABLE TO PUT IT OFF...
 AND DESOLATION SHALL COME UPON THEE SUDDENLY...
 WHICH THOU SHALT NOT KNOW...

                                         ISAIAH 47.11
 Job cpu time:       0 days  4 hours 55 minutes 49.9 seconds.
 File lengths (MBytes):  RWF=   1953 Int=      0 D2E=      0 Chk=    148 Scr=      1
 Normal termination of Gaussian 09 at Fri Jul 26 08:26:36 2019.
