 Entering Gaussian System, Link 0=g16
 Input=Geometria-100-.com
 Output=Geometria-100-.log
 Initial command:
 /usr/local/g09/l1.exe "/home/padawan/israel-mol/pheophytin/spectra/abs/Gau-65164.inp" -scrdir="/home/padawan/israel-mol/pheophytin/spectra/abs/"
 Entering Link 1 = /usr/local/g09/l1.exe PID=     65166.
  
 Copyright (c) 1988,1990,1992,1993,1995,1998,2003,2009,2013,
            Gaussian, Inc.  All Rights Reserved.
  
 This is part of the Gaussian(R) 09 program.  It is based on
 the Gaussian(R) 03 system (copyright 2003, Gaussian, Inc.),
 the Gaussian(R) 98 system (copyright 1998, Gaussian, Inc.),
 the Gaussian(R) 94 system (copyright 1995, Gaussian, Inc.),
 the Gaussian 92(TM) system (copyright 1992, Gaussian, Inc.),
 the Gaussian 90(TM) system (copyright 1990, Gaussian, Inc.),
 the Gaussian 88(TM) system (copyright 1988, Gaussian, Inc.),
 the Gaussian 86(TM) system (copyright 1986, Carnegie Mellon
 University), and the Gaussian 82(TM) system (copyright 1983,
 Carnegie Mellon University). Gaussian is a federally registered
 trademark of Gaussian, Inc.
  
 This software contains proprietary and confidential information,
 including trade secrets, belonging to Gaussian, Inc.
  
 This software is provided under written license and may be
 used, copied, transmitted, or stored only in accord with that
 written license.
  
 The following legend is applicable only to US Government
 contracts under FAR:
  
                    RESTRICTED RIGHTS LEGEND
  
 Use, reproduction and disclosure by the US Government is
 subject to restrictions as set forth in subparagraphs (a)
 and (c) of the Commercial Computer Software - Restricted
 Rights clause in FAR 52.227-19.
  
 Gaussian, Inc.
 340 Quinnipiac St., Bldg. 40, Wallingford CT 06492
  
  
 ---------------------------------------------------------------
 Warning -- This program may not be used in any manner that
 competes with the business of Gaussian, Inc. or will provide
 assistance to any competitor of Gaussian, Inc.  The licensee
 of this program is prohibited from giving any competitor of
 Gaussian, Inc. access to this program.  By using this program,
 the user acknowledges that Gaussian, Inc. is engaged in the
 business of creating and licensing software in the field of
 computational chemistry and represents and warrants to the
 licensee that it is not a competitor of Gaussian, Inc. and that
 it will not use this program in any manner prohibited above.
 ---------------------------------------------------------------
  

 Cite this work as:
 Gaussian 09, Revision D.01,
 M. J. Frisch, G. W. Trucks, H. B. Schlegel, G. E. Scuseria, 
 M. A. Robb, J. R. Cheeseman, G. Scalmani, V. Barone, B. Mennucci, 
 G. A. Petersson, H. Nakatsuji, M. Caricato, X. Li, H. P. Hratchian, 
 A. F. Izmaylov, J. Bloino, G. Zheng, J. L. Sonnenberg, M. Hada, 
 M. Ehara, K. Toyota, R. Fukuda, J. Hasegawa, M. Ishida, T. Nakajima, 
 Y. Honda, O. Kitao, H. Nakai, T. Vreven, J. A. Montgomery, Jr., 
 J. E. Peralta, F. Ogliaro, M. Bearpark, J. J. Heyd, E. Brothers, 
 K. N. Kudin, V. N. Staroverov, T. Keith, R. Kobayashi, J. Normand, 
 K. Raghavachari, A. Rendell, J. C. Burant, S. S. Iyengar, J. Tomasi, 
 M. Cossi, N. Rega, J. M. Millam, M. Klene, J. E. Knox, J. B. Cross, 
 V. Bakken, C. Adamo, J. Jaramillo, R. Gomperts, R. E. Stratmann, 
 O. Yazyev, A. J. Austin, R. Cammi, C. Pomelli, J. W. Ochterski, 
 R. L. Martin, K. Morokuma, V. G. Zakrzewski, G. A. Voth, 
 P. Salvador, J. J. Dannenberg, S. Dapprich, A. D. Daniels, 
 O. Farkas, J. B. Foresman, J. V. Ortiz, J. Cioslowski, 
 and D. J. Fox, Gaussian, Inc., Wallingford CT, 2013.
 
 ******************************************
 Gaussian 09:  ES64L-G09RevD.01 24-Apr-2013
                27-Jul-2019 
 ******************************************
 %nproc=3
 Will use up to    3 processors via shared memory.
 %Mem=2GB
 --------------------------
 # td=(NStates=1) B3LYP/SVP
 --------------------------
 1/38=1/1;
 2/12=2,17=6,18=5,40=1/2;
 3/5=18,7=101,11=9,16=1,25=1,30=1,74=-5/1,2,8,3;
 4//1;
 5/5=2,38=5/2;
 8/6=1,10=1,108=1/1;
 9/41=1,42=1,70=2/14;
 6/7=2,8=2,9=2,10=2/1;
 99/5=1,9=1/99;
 --
 TD
 --
 Symbolic Z-matrix:
 Charge =  0 Multiplicity = 1
 6                    -4.9828   -1.84617   0.38163 
 6                    -4.79333   2.80736   1.45153 
 6                    -9.41228   3.37983  -0.06289 
 6                    -9.80085  -1.583    -0.86807 
 7                    -5.16929   0.44737   0.74313 
 6                    -4.47115  -0.69763   0.72775 
 6                    -3.02195  -0.50679   1.18188 
 6                    -3.05399   0.88117   1.87833 
 6                    -4.39776   1.38781   1.30769 
 6                    -3.0859    0.78802   3.4859 
 6                    -2.09011  -0.7046    0.03342 
 6                    -0.5733   -0.76447   0.41365 
 6                     0.39973  -1.09265  -0.71278 
 8                     0.13285  -1.62662  -1.77598 
 8                     1.62857  -0.76488  -0.46221 
 7                    -7.09347   2.81266   0.45167 
 6                    -5.99315   3.3075    1.15226 
 6                    -6.28863   4.76929   1.09789 
 6                    -7.56366   4.93813   0.65374 
 6                    -8.06841   3.63795   0.16721 
 6                    -5.27532   5.81121   1.54666 
 6                    -8.21165   6.23892   0.38615 
 6                    -9.03881   6.62101  -0.61631 
 7                    -9.23911   0.8391   -0.42217 
 6                    -9.92157   2.03871  -0.40924 
 6                    -11.34558   1.82395  -0.92407 
 6                    -11.42878   0.48248  -1.11098 
 6                    -10.11112  -0.124    -0.82967 
 6                    -12.27162   2.85686  -0.94196 
 6                    -12.62262  -0.25222  -1.66341 
 6                    -12.49364  -0.52919  -3.19849 
 7                    -7.45818  -1.19913  -0.15625 
 6                    -8.56801  -2.019    -0.58474 
 6                    -8.112    -3.43812  -0.68001 
 6                    -6.7454   -3.44282  -0.21439 
 6                    -6.35483  -2.02813  -0.03879 
 6                    -8.88495  -4.67981  -1.02465 
 6                    -5.63728  -4.22314  -0.03698 
 8                    -5.51134  -5.48884  -0.03808 
 6                    -4.47124  -3.34854   0.46067 
 6                    -3.70935  -3.77404   1.71184 
 8                    -3.86579  -3.25951   2.82111 
 8                    -3.04045  -4.86322   1.44698 
 6                    -2.48621  -5.42327   2.61363 
 6                     2.71639  -1.17097  -1.31031 
 6                     3.96821  -0.52662  -0.73296 
 6                     4.99435   0.17719  -1.3682 
 6                     4.96102   0.74691  -2.78739 
 6                     6.17079   0.53447  -0.52225 
 6                     7.36023  -0.09349  -1.04376 
 6                     8.57949   0.11079  -0.21153 
 6                     9.89133  -0.71061  -0.52376 
 6                     9.85203  -2.2797   -0.32157 
 6                     11.13489  -0.04156   0.13217 
 6                     12.55298  -0.60556  -0.41164 
 6                     13.72897   0.14443   0.26559 
 6                     15.11449  -0.2601   -0.31432 
 6                     15.43932  -1.72642  -0.10412 
 6                     16.08926   0.65114   0.49556 
 6                     17.48295   0.75464  -0.06817 
 6                     18.66036   1.74646   0.53926 
 6                     20.10578   1.37284   0.07803 
 6                     20.34724   1.63879  -1.37412 
 6                     21.09919   2.1438    0.88742 
 1                    -3.99828   3.42332   1.97575 
 1                    -10.23173   4.06156  -0.21992 
 1                    -10.5407  -2.35636  -1.31774 
 1                    -2.78148  -1.18102   2.02922 
 1                    -2.29639   1.64111   1.4267 
 1                    -2.18049   0.2704    4.05147 
 1                    -3.13069   1.66295   3.99547 
 1                    -3.89161   0.17992   3.86718 
 1                    -2.1408   -1.68461  -0.27653 
 1                    -2.10721   0.19134  -0.74073 
 1                    -0.14166   0.13906   0.98302 
 1                    -0.54009  -1.65966   1.15905 
 1                    -4.48966   5.81628   0.80236 
 1                    -5.90963   6.71669   1.52097 
 1                    -4.68393   5.53611   2.46064 
 1                    -7.95313   7.05344   1.11516 
 1                    -9.48618   5.86086  -1.4319 
 1                    -9.48223   7.63967  -0.76654 
 1                    -12.80215   3.14832   0.14004 
 1                    -11.80675   3.88572  -1.23491 
 1                    -13.21174   2.51987  -1.82225 
 1                    -12.5672  -1.08789  -1.23698 
 1                    -13.47349   0.33172  -1.74313 
 1                    -12.6135   0.3977   -3.71431 
 1                    -11.36398  -0.82358  -3.51012 
 1                    -13.20637  -1.22298  -3.59723 
 1                    -9.73333  -4.93496  -0.38115 
 1                    -9.1837   -4.59653  -1.93871 
 1                    -8.10293  -5.36324  -1.17761 
 1                    -3.78901  -3.53661  -0.35033 
 1                    -1.75372  -6.4051    2.25051 
 1                    -1.7988   -4.82361   3.31554 
 1                    -3.19481  -5.91299   3.39671 
 1                     2.68042  -2.15896  -1.32266 
 1                     2.48678  -0.7288   -2.28324 
 1                     4.13461  -0.74895   0.61207 
 1                     5.15811   1.78341  -3.00117 
 1                     5.86973   0.1179   -3.21828 
 1                     4.07128   0.55135  -3.50042 
 1                     6.21754   1.7265   -0.56122 
 1                     6.14421   0.38355   0.46902 
 1                     7.08939  -1.17225  -1.05458 
 1                     7.68757  -0.01469  -2.05602 
 1                     8.61013   1.10928  -0.11173 
 1                     8.40694  -0.21421   0.92357 
 1                     10.00163  -0.43854  -1.54627 
 1                     9.09713  -2.675    -0.97234 
 1                     10.84172  -2.94252  -0.53722 
 1                     9.34128  -2.5726    0.86959 
 1                     11.19805   1.11075  -0.0942 
 1                     10.93922  -0.18848   1.44175 
 1                     12.73015  -1.66416  -0.1398 
 1                     12.69742  -0.49723  -1.59952 
 1                     13.56217   1.26322   0.33558 
 1                     13.75586   0.04346   1.4453 
 1                     15.24742   0.20037  -1.31109 
 1                     14.88174  -2.3211   -0.78104 
 1                     16.58387  -1.86661  -0.53728 
 1                     15.43649  -2.12701   0.91478 
 1                     15.69993   1.92468   0.21059 
 1                     16.21682   0.53422   1.61872 
 1                     18.0677  -0.34196  -0.23689 
 1                     17.53591   0.96255  -1.16001 
 1                     18.50725   2.77371   0.24081 
 1                     18.61451   1.6913    1.64417 
 1                     20.51195   0.29731   0.29732 
 1                     19.98387   2.65636  -1.54341 
 1                     21.34038   1.68819  -1.67967 
 1                     19.69453   1.19455  -2.22958 
 1                     21.22626   1.97706   1.86116 
 1                     22.21537   1.80489   0.58563 
 1                     21.12996   3.29335   0.91398 
 1                    -7.39178   1.71826   0.54451 
 1                    -7.64183  -0.29587   0.06304 
 
 Stoichiometry    C55H74N4O5
 Framework group  C1[X(C55H74N4O5)]
 Deg. of freedom   408
 Full point group                 C1      NOp   1
 Largest Abelian subgroup         C1      NOp   1
 Largest concise Abelian subgroup C1      NOp   1
                         Standard orientation:                         
 ---------------------------------------------------------------------
 Center     Atomic      Atomic             Coordinates (Angstroms)
 Number     Number       Type             X           Y           Z
 ---------------------------------------------------------------------
      1          6           0       -4.979495   -1.851002    0.388060
      2          6           0       -4.798707    2.806856    1.440479
      3          6           0       -9.419268    3.364693   -0.074499
      4          6           0       -9.798467   -1.601857   -0.860971
      5          7           0       -5.170317    0.443506    0.741042
      6          6           0       -4.469960   -0.700180    0.729700
      7          6           0       -3.020987   -0.504831    1.182624
      8          6           0       -3.055488    0.885655    1.873882
      9          6           0       -4.400428    1.387549    1.301818
     10          6           0       -3.086676    0.798457    3.481800
     11          6           0       -2.089148   -0.705131    0.034592
     12          6           0       -0.572097   -0.760639    0.414527
     13          6           0        0.401195   -1.091133   -0.711007
     14          8           0        0.134988   -1.629593   -1.772109
     15          8           0        1.629480   -0.760051   -0.462081
     16          7           0       -7.099191    2.803953    0.441396
     17          6           0       -5.999597    3.303541    1.139745
     18          6           0       -6.297934    4.764550    1.080009
     19          6           0       -7.573432    4.929252    0.635672
     20          6           0       -8.075821    3.626283    0.154176
     21          6           0       -5.286495    5.810099    1.524531
     22          6           0       -8.224039    6.227767    0.363435
     23          6           0       -9.052278    6.604501   -0.640166
     24          7           0       -9.241286    0.822980   -0.424331
     25          6           0       -9.926063    2.021298   -0.415651
     26          6           0      -11.349828    1.801851   -0.929183
     27          6           0      -11.430484    0.459531   -1.111045
     28          6           0      -10.111561   -0.143332   -0.827919
     29          6           0      -12.277875    2.832896   -0.950621
     30          6           0      -12.623083   -0.279539   -1.660316
     31          6           0      -12.494079   -0.561998   -3.194394
     32          7           0       -7.456315   -1.210784   -0.151397
     33          6           0       -8.564688   -2.034403   -0.576436
     34          6           0       -8.105960   -3.452982   -0.666551
     35          6           0       -6.739194   -3.453288   -0.201383
     36          6           0       -6.351310   -2.037190   -0.031209
     37          6           0       -8.876611   -4.697448   -1.006281
     38          6           0       -5.629502   -4.230783   -0.021437
     39          8           0       -5.501105   -5.496233   -0.017844
     40          6           0       -4.465001   -3.352065    0.472537
     41          6           0       -3.701867   -3.771407    1.725032
     42          8           0       -3.858932   -3.253038    2.832425
     43          8           0       -3.030940   -4.860270    1.464016
     44          6           0       -2.475224   -5.414875    2.632572
     45          6           0        2.717803   -1.167197   -1.309024
     46          6           0        3.968559   -0.518266   -0.734517
     47          6           0        4.993119    0.185154   -1.372741
     48          6           0        4.958202    0.749491   -2.794036
     49          6           0        6.169143    0.547881   -0.528536
     50          6           0        7.359624   -0.079713   -1.048100
     51          6           0        8.578766    0.130037   -0.217055
     52          6           0        9.892095   -0.689970   -0.526659
     53          6           0        9.855910   -2.258372   -0.318590
     54          6           0       11.134570   -0.016062    0.126341
     55          6           0       12.553570   -0.579337   -0.415839
     56          6           0       13.728332    0.175455    0.258173
     57          6           0       15.114440   -0.228547   -0.320697
     58          6           0       15.442190   -1.693441   -0.105119
     59          6           0       16.087709    0.687603    0.485439
     60          6           0       17.481010    0.791697   -0.079150
     61          6           0       18.656689    1.788066    0.524169
     62          6           0       20.102683    1.415524    0.063840
     63          6           0       20.343133    1.676513   -1.389372
     64          6           0       21.094865    2.191434    0.870002
     65          1           0       -4.004677    3.426321    1.962120
     66          1           0      -10.240092    4.044244   -0.233796
     67          1           0      -10.536964   -2.378332   -1.307493
     68          1           0       -2.778924   -1.175418    2.032399
     69          1           0       -2.299517    1.645376    1.419152
     70          1           0       -2.180074    0.284722    4.049000
     71          1           0       -3.132995    1.675204    3.988112
     72          1           0       -3.891077    0.190232    3.865632
     73          1           0       -2.138038   -1.686393   -0.271676
     74          1           0       -2.108250    0.187867   -0.742900
     75          1           0       -0.142022    0.145854    0.980360
     76          1           0       -0.536904   -1.652961    1.163258
     77          1           0       -4.501101    5.813908    0.779956
     78          1           0       -5.922569    6.714244    1.495677
     79          1           0       -4.694265    5.539574    2.439336
     80          1           0       -7.966859    7.045506    1.089310
     81          1           0       -9.498446    5.840433   -1.452755
     82          1           0       -9.497726    7.621731   -0.794047
     83          1           0      -12.808617    3.127371    0.130456
     84          1           0      -11.815111    3.861551   -1.247582
     85          1           0      -13.217640    2.490787   -1.829322
     86          1           0      -12.565897   -1.113499   -1.230783
     87          1           0      -13.475116    0.302442   -1.741928
     88          1           0      -12.615908    0.362714   -3.713637
     89          1           0      -11.363955   -0.855363   -3.505309
     90          1           0      -13.205592   -1.258662   -3.590292
     91          1           0       -9.724277   -4.951838   -0.361540
     92          1           0       -9.175829   -4.618167   -1.920543
     93          1           0       -8.093310   -5.379932   -1.156945
     94          1           0       -3.782674   -3.541848   -0.337979
     95          1           0       -1.740943   -6.396628    2.272872
     96          1           0       -1.788740   -4.811255    3.331991
     97          1           0       -3.182609   -5.903031    3.417714
     98          1           0        2.683746   -2.155297   -1.317674
     99          1           0        2.487009   -0.729116   -2.283524
    100          1           0        4.135837   -0.735233    0.611273
    101          1           0        5.153210    1.785570   -3.011768
    102          1           0        5.867996    0.120641   -3.222888
    103          1           0        4.068607    0.549540   -3.506030
    104          1           0        6.213567    1.739843   -0.571976
    105          1           0        6.143192    0.400617    0.463306
    106          1           0        7.090875   -1.159038   -1.054787
    107          1           0        7.686473   -0.004070   -2.060759
    108          1           0        8.607498    1.128954   -0.121003
    109          1           0        8.407232   -0.191040    0.919306
    110          1           0       10.001527   -0.421520   -1.550217
    111          1           0        9.101560   -2.657563   -0.967613
    112          1           0       10.846811   -2.920067   -0.532100
    113          1           0        9.346127   -2.547802    0.873832
    114          1           0       11.195414    1.135512   -0.104363
    115          1           0       10.939626   -0.158466    1.436529
    116          1           0       12.732887   -1.636569   -0.140103
    117          1           0       12.697403   -0.475176   -1.604171
    118          1           0       13.559380    1.294172    0.324032
    119          1           0       13.755812    0.078952    1.438246
    120          1           0       15.246139    0.228446   -1.319226
    121          1           0       14.885540   -2.291734   -0.779617
    122          1           0       16.586864   -1.833029   -0.538143
    123          1           0       15.440474   -2.090218    0.915273
    124          1           0       15.695812    1.959310    0.195843
    125          1           0       16.215868    0.575139    1.608981
    126          1           0       18.067827   -0.304387   -0.243970
    127          1           0       17.533196    0.995622   -1.171782
    128          1           0       18.501483    2.813898    0.221925
    129          1           0       18.611323    1.736957    1.629290
    130          1           0       20.511009    0.341615    0.287014
    131          1           0       19.977732    2.692739   -1.562344
    132          1           0       21.336079    1.726693   -1.695450
    133          1           0       19.691010    1.227805   -2.242941
    134          1           0       21.222580    2.028589    1.844312
    135          1           0       22.211602    1.853569    0.569102
    136          1           0       21.123412    3.341140    0.892251
    137          1           0       -7.395342    1.709333    0.538423
    138          1           0       -7.641636   -0.307066    0.064576
 ---------------------------------------------------------------------
 Rotational constants (GHZ):      0.0642573      0.0061960      0.0058294
 Standard basis: SVP (5D, 7F)
 There are  1330 symmetry adapted cartesian basis functions of A   symmetry.
 There are  1266 symmetry adapted basis functions of A   symmetry.
  1266 basis functions,  2118 primitive gaussians,  1330 cartesian basis functions
   236 alpha electrons      236 beta electrons
       nuclear repulsion energy      8291.4524810038 Hartrees.
 NAtoms=  138 NActive=  138 NUniq=  138 SFac= 1.00D+00 NAtFMM=   60 NAOKFM=T Big=T
 Integral buffers will be    131072 words long.
 Regular integral format.
 Two-electron integral symmetry is turned on.
 One-electron integrals computed using PRISM.
 NBasis=  1266 RedAO= T EigKep=  3.19D-04  NBF=  1266
 NBsUse=  1266 1.00D-06 EigRej= -1.00D+00 NBFU=  1266
 ExpMin= 1.22D-01 ExpMax= 2.27D+03 ExpMxC= 3.41D+02 IAcc=1 IRadAn=         1 AccDes= 0.00D+00
 Harris functional with IExCor=  402 and IRadAn=       1 diagonalized for initial guess.
 HarFok:  IExCor=  402 AccDes= 0.00D+00 IRadAn=         1 IDoV= 1 UseB2=F ITyADJ=14
 ICtDFT=  3500011 ScaDFX=  1.000000  1.000000  1.000000  1.000000
 FoFCou: FMM=F IPFlag=           0 FMFlag=      100000 FMFlg1=        2001
         NFxFlg=           0 DoJE=T BraDBF=F KetDBF=T FulRan=T
         wScrn=  0.000000 ICntrl=     500 IOpCl=  0 I1Cent=   200000004 NGrid=           0
         NMat0=    1 NMatS0=      1 NMatT0=    0 NMatD0=    1 NMtDS0=    0 NMtDT0=    0
 Petite list used in FoFCou.
 Requested convergence on RMS density matrix=1.00D-08 within 128 cycles.
 Requested convergence on MAX density matrix=1.00D-06.
 Requested convergence on             energy=1.00D-06.
 No special actions if energy rises.
 Integral accuracy reduced to 1.0D-05 until final iterations.
 Initial convergence to 1.0D-05 achieved.  Increase integral accuracy.
 SCF Done:  E(RB3LYP) =  -2732.95214936     A.U. after   17 cycles
            NFock= 17  Conv=0.34D-08     -V/T= 2.0119
 DoSCS=F DFT=T ScalE2(SS,OS)=  1.000000  1.000000
 ExpMin= 1.22D-01 ExpMax= 2.27D+03 ExpMxC= 3.41D+02 IAcc=3 IRadAn=         5 AccDes= 0.00D+00
 HarFok:  IExCor=  205 AccDes= 0.00D+00 IRadAn=         5 IDoV=-2 UseB2=F ITyADJ=14
 ICtDFT= 12500011 ScaDFX=  1.000000  1.000000  1.000000  1.000000
 Range of M.O.s used for correlation:    65  1266
 NBasis=  1266 NAE=   236 NBE=   236 NFC=    64 NFV=     0
 NROrb=   1202 NOA=   172 NOB=   172 NVA=  1030 NVB=  1030

 **** Warning!!: The smallest alpha delta epsilon is  0.82005822D-01

 Would need an additional        965744300000 words for in-memory AO integral storage.
 Orbital symmetries:
       Occupied  (A) (A) (A) (A) (A) (A) (A) (A) (A) (A) (A) (A)
                 (A) (A) (A) (A) (A) (A) (A) (A) (A) (A) (A) (A)
                 (A) (A) (A) (A) (A) (A) (A) (A) (A) (A) (A) (A)
                 (A) (A) (A) (A) (A) (A) (A) (A) (A) (A) (A) (A)
                 (A) (A) (A) (A) (A) (A) (A) (A) (A) (A) (A) (A)
                 (A) (A) (A) (A) (A) (A) (A) (A) (A) (A) (A) (A)
                 (A) (A) (A) (A) (A) (A) (A) (A) (A) (A) (A) (A)
                 (A) (A) (A) (A) (A) (A) (A) (A) (A) (A) (A) (A)
                 (A) (A) (A) (A) (A) (A) (A) (A) (A) (A) (A) (A)
                 (A) (A) (A) (A) (A) (A) (A) (A) (A) (A) (A) (A)
                 (A) (A) (A) (A) (A) (A) (A) (A) (A) (A) (A) (A)
                 (A) (A) (A) (A) (A) (A) (A) (A) (A) (A) (A) (A)
                 (A) (A) (A) (A) (A) (A) (A) (A) (A) (A) (A) (A)
                 (A) (A) (A) (A) (A) (A) (A) (A) (A) (A) (A) (A)
                 (A) (A) (A) (A) (A) (A) (A) (A) (A) (A) (A) (A)
                 (A) (A) (A) (A) (A) (A) (A) (A) (A) (A) (A) (A)
                 (A) (A) (A) (A) (A) (A) (A) (A) (A) (A) (A) (A)
                 (A) (A) (A) (A) (A) (A) (A) (A) (A) (A) (A) (A)
                 (A) (A) (A) (A) (A) (A) (A) (A) (A) (A) (A) (A)
                 (A) (A) (A) (A) (A) (A) (A) (A)
       Virtual   (A) (A) (A) (A) (A) (A) (A) (A) (A) (A) (A) (A)
                 (A) (A) (A) (A) (A) (A) (A) (A) (A) (A) (A) (A)
                 (A) (A) (A) (A) (A) (A) (A) (A) (A) (A) (A) (A)
                 (A) (A) (A) (A) (A) (A) (A) (A) (A) (A) (A) (A)
                 (A) (A) (A) (A) (A) (A) (A) (A) (A) (A) (A) (A)
                 (A) (A) (A) (A) (A) (A) (A) (A) (A) (A) (A) (A)
                 (A) (A) (A) (A) (A) (A) (A) (A) (A) (A) (A) (A)
                 (A) (A) (A) (A) (A) (A) (A) (A) (A) (A) (A) (A)
                 (A) (A) (A) (A) (A) (A) (A) (A) (A) (A) (A) (A)
                 (A) (A) (A) (A) (A) (A) (A) (A) (A) (A) (A) (A)
                 (A) (A) (A) (A) (A) (A) (A) (A) (A) (A) (A) (A)
                 (A) (A) (A) (A) (A) (A) (A) (A) (A) (A) (A) (A)
                 (A) (A) (A) (A) (A) (A) (A) (A) (A) (A) (A) (A)
                 (A) (A) (A) (A) (A) (A) (A) (A) (A) (A) (A) (A)
                 (A) (A) (A) (A) (A) (A) (A) (A) (A) (A) (A) (A)
                 (A) (A) (A) (A) (A) (A) (A) (A) (A) (A) (A) (A)
                 (A) (A) (A) (A) (A) (A) (A) (A) (A) (A) (A) (A)
                 (A) (A) (A) (A) (A) (A) (A) (A) (A) (A) (A) (A)
                 (A) (A) (A) (A) (A) (A) (A) (A) (A) (A) (A) (A)
                 (A) (A) (A) (A) (A) (A) (A) (A) (A) (A) (A) (A)
                 (A) (A) (A) (A) (A) (A) (A) (A) (A) (A) (A) (A)
                 (A) (A) (A) (A) (A) (A) (A) (A) (A) (A) (A) (A)
                 (A) (A) (A) (A) (A) (A) (A) (A) (A) (A) (A) (A)
                 (A) (A) (A) (A) (A) (A) (A) (A) (A) (A) (A) (A)
                 (A) (A) (A) (A) (A) (A) (A) (A) (A) (A) (A) (A)
                 (A) (A) (A) (A) (A) (A) (A) (A) (A) (A) (A) (A)
                 (A) (A) (A) (A) (A) (A) (A) (A) (A) (A) (A) (A)
                 (A) (A) (A) (A) (A) (A) (A) (A) (A) (A) (A) (A)
                 (A) (A) (A) (A) (A) (A) (A) (A) (A) (A) (A) (A)
                 (A) (A) (A) (A) (A) (A) (A) (A) (A) (A) (A) (A)
                 (A) (A) (A) (A) (A) (A) (A) (A) (A) (A) (A) (A)
                 (A) (A) (A) (A) (A) (A) (A) (A) (A) (A) (A) (A)
                 (A) (A) (A) (A) (A) (A) (A) (A) (A) (A) (A) (A)
                 (A) (A) (A) (A) (A) (A) (A) (A) (A) (A) (A) (A)
                 (A) (A) (A) (A) (A) (A) (A) (A) (A) (A) (A) (A)
                 (A) (A) (A) (A) (A) (A) (A) (A) (A) (A) (A) (A)
                 (A) (A) (A) (A) (A) (A) (A) (A) (A) (A) (A) (A)
                 (A) (A) (A) (A) (A) (A) (A) (A) (A) (A) (A) (A)
                 (A) (A) (A) (A) (A) (A) (A) (A) (A) (A) (A) (A)
                 (A) (A) (A) (A) (A) (A) (A) (A) (A) (A) (A) (A)
                 (A) (A) (A) (A) (A) (A) (A) (A) (A) (A) (A) (A)
                 (A) (A) (A) (A) (A) (A) (A) (A) (A) (A) (A) (A)
                 (A) (A) (A) (A) (A) (A) (A) (A) (A) (A) (A) (A)
                 (A) (A) (A) (A) (A) (A) (A) (A) (A) (A) (A) (A)
                 (A) (A) (A) (A) (A) (A) (A) (A) (A) (A) (A) (A)
                 (A) (A) (A) (A) (A) (A) (A) (A) (A) (A) (A) (A)
                 (A) (A) (A) (A) (A) (A) (A) (A) (A) (A) (A) (A)
                 (A) (A) (A) (A) (A) (A) (A) (A) (A) (A) (A) (A)
                 (A) (A) (A) (A) (A) (A) (A) (A) (A) (A) (A) (A)
                 (A) (A) (A) (A) (A) (A) (A) (A) (A) (A) (A) (A)
                 (A) (A) (A) (A) (A) (A) (A) (A) (A) (A) (A) (A)
                 (A) (A) (A) (A) (A) (A) (A) (A) (A) (A) (A) (A)
                 (A) (A) (A) (A) (A) (A) (A) (A) (A) (A) (A) (A)
                 (A) (A) (A) (A) (A) (A) (A) (A) (A) (A) (A) (A)
                 (A) (A) (A) (A) (A) (A) (A) (A) (A) (A) (A) (A)
                 (A) (A) (A) (A) (A) (A) (A) (A) (A) (A) (A) (A)
                 (A) (A) (A) (A) (A) (A) (A) (A) (A) (A) (A) (A)
                 (A) (A) (A) (A) (A) (A) (A) (A) (A) (A) (A) (A)
                 (A) (A) (A) (A) (A) (A) (A) (A) (A) (A) (A) (A)
                 (A) (A) (A) (A) (A) (A) (A) (A) (A) (A) (A) (A)
                 (A) (A) (A) (A) (A) (A) (A) (A) (A) (A) (A) (A)
                 (A) (A) (A) (A) (A) (A) (A) (A) (A) (A) (A) (A)
                 (A) (A) (A) (A) (A) (A) (A) (A) (A) (A) (A) (A)
                 (A) (A) (A) (A) (A) (A) (A) (A) (A) (A) (A) (A)
                 (A) (A) (A) (A) (A) (A) (A) (A) (A) (A) (A) (A)
                 (A) (A) (A) (A) (A) (A) (A) (A) (A) (A) (A) (A)
                 (A) (A) (A) (A) (A) (A) (A) (A) (A) (A) (A) (A)
                 (A) (A) (A) (A) (A) (A) (A) (A) (A) (A) (A) (A)
                 (A) (A) (A) (A) (A) (A) (A) (A) (A) (A) (A) (A)
                 (A) (A) (A) (A) (A) (A) (A) (A) (A) (A) (A) (A)
                 (A) (A) (A) (A) (A) (A) (A) (A) (A) (A) (A) (A)
                 (A) (A) (A) (A) (A) (A) (A) (A) (A) (A) (A) (A)
                 (A) (A) (A) (A) (A) (A) (A) (A) (A) (A) (A) (A)
                 (A) (A) (A) (A) (A) (A) (A) (A) (A) (A) (A) (A)
                 (A) (A) (A) (A) (A) (A) (A) (A) (A) (A) (A) (A)
                 (A) (A) (A) (A) (A) (A) (A) (A) (A) (A) (A) (A)
                 (A) (A) (A) (A) (A) (A) (A) (A) (A) (A) (A) (A)
                 (A) (A) (A) (A) (A) (A) (A) (A) (A) (A) (A) (A)
                 (A) (A) (A) (A) (A) (A) (A) (A) (A) (A) (A) (A)
                 (A) (A) (A) (A) (A) (A) (A) (A) (A) (A) (A) (A)
                 (A) (A) (A) (A) (A) (A) (A) (A) (A) (A) (A) (A)
                 (A) (A) (A) (A) (A) (A) (A) (A) (A) (A) (A) (A)
                 (A) (A) (A) (A) (A) (A) (A) (A) (A) (A) (A) (A)
                 (A) (A) (A) (A) (A) (A) (A) (A) (A) (A) (A) (A)
                 (A) (A) (A) (A) (A) (A) (A) (A) (A) (A) (A) (A)
                 (A) (A) (A) (A) (A) (A) (A) (A) (A) (A)
     8 initial guesses have been made.
 Convergence on wavefunction:    0.001000000000000
 Iteration     1 Dimension     8 NMult     0 NNew      8
 CISAX will form     8 AO SS matrices at one time.
 Iteration     2 Dimension    12 NMult     8 NNew      4
 Iteration     3 Dimension    16 NMult    12 NNew      4
 Iteration     4 Dimension    20 NMult    16 NNew      4
 Iteration     5 Dimension    24 NMult    20 NNew      4
 Iteration     6 Dimension    28 NMult    24 NNew      4
 ***********************************************************************
 Excited states from <AA,BB:AA,BB> singles matrix:
 ***********************************************************************
 
 Ground to excited state transition densities written to RWF  633
 Ground to excited state transition electric dipole moments (Au):
       state          X           Y           Z        Dip. S.      Osc.
         1        -0.3061     -1.9097     -0.3133      3.8389      0.1905
 Ground to excited state transition velocity dipole moments (Au):
       state          X           Y           Z        Dip. S.      Osc.
         1         0.0217      0.1375      0.0230      0.0199      0.1783
 Ground to excited state transition magnetic dipole moments (Au):
       state          X           Y           Z
         1         0.3785      0.4930     -3.2678
 Ground to excited state transition velocity quadrupole moments (Au):
       state          XX          YY          ZZ          XY          XZ          YZ
         1        -0.5040      0.0468      0.0610     -1.8184     -0.2420      0.0410
 <0|del|b> * <b|rxdel|0> + <0|del|b> * <b|delr+rdel|0>
 Rotatory Strengths (R) in cgs (10**-40 erg-esu-cm/Gauss)
       state          XX          YY          ZZ    R(velocity)    E-M Angle
         1       -76.0080   -115.2289    198.7233      2.4955       89.90
 1/2[<0|r|b>*<b|rxdel|0> + (<0|rxdel|b>*<b|r|0>)*]
 Rotatory Strengths (R) in cgs (10**-40 erg-esu-cm/Gauss)
       state          XX          YY          ZZ     R(length)
         1        81.9172    665.7682   -724.0698      7.8719
  1/2[<0|del|b>*<b|r|0> + (<0|r|b>*<b|del|0>)*] (Au)
       state          X           Y           Z        Dip. S.   Osc.(frdel)
         1        -0.0066     -0.2625     -0.0072      0.2764      0.1843

 Excitation energies and oscillator strengths:
 
 Excited State   1:      Singlet-A      2.0251 eV  612.25 nm  f=0.1905  <S**2>=0.000
     235 -> 238       -0.23841
     236 -> 237        0.63087
     236 -> 238       -0.17755
 This state for optimization and/or second-order correction.
 Total Energy, E(TD-HF/TD-KS) =  -2732.87772975    
 Copying the excited state density for this state as the 1-particle RhoCI density.
 SavETr:  write IOETrn=   770 NScale= 10 NData=  16 NLR=1 NState=    1 LETran=      28.

 **********************************************************************

            Population analysis using the SCF density.

 **********************************************************************

 Orbital symmetries:
       Occupied  (A) (A) (A) (A) (A) (A) (A) (A) (A) (A) (A) (A)
                 (A) (A) (A) (A) (A) (A) (A) (A) (A) (A) (A) (A)
                 (A) (A) (A) (A) (A) (A) (A) (A) (A) (A) (A) (A)
                 (A) (A) (A) (A) (A) (A) (A) (A) (A) (A) (A) (A)
                 (A) (A) (A) (A) (A) (A) (A) (A) (A) (A) (A) (A)
                 (A) (A) (A) (A) (A) (A) (A) (A) (A) (A) (A) (A)
                 (A) (A) (A) (A) (A) (A) (A) (A) (A) (A) (A) (A)
                 (A) (A) (A) (A) (A) (A) (A) (A) (A) (A) (A) (A)
                 (A) (A) (A) (A) (A) (A) (A) (A) (A) (A) (A) (A)
                 (A) (A) (A) (A) (A) (A) (A) (A) (A) (A) (A) (A)
                 (A) (A) (A) (A) (A) (A) (A) (A) (A) (A) (A) (A)
                 (A) (A) (A) (A) (A) (A) (A) (A) (A) (A) (A) (A)
                 (A) (A) (A) (A) (A) (A) (A) (A) (A) (A) (A) (A)
                 (A) (A) (A) (A) (A) (A) (A) (A) (A) (A) (A) (A)
                 (A) (A) (A) (A) (A) (A) (A) (A) (A) (A) (A) (A)
                 (A) (A) (A) (A) (A) (A) (A) (A) (A) (A) (A) (A)
                 (A) (A) (A) (A) (A) (A) (A) (A) (A) (A) (A) (A)
                 (A) (A) (A) (A) (A) (A) (A) (A) (A) (A) (A) (A)
                 (A) (A) (A) (A) (A) (A) (A) (A) (A) (A) (A) (A)
                 (A) (A) (A) (A) (A) (A) (A) (A)
       Virtual   (A) (A) (A) (A) (A) (A) (A) (A) (A) (A) (A) (A)
                 (A) (A) (A) (A) (A) (A) (A) (A) (A) (A) (A) (A)
                 (A) (A) (A) (A) (A) (A) (A) (A) (A) (A) (A) (A)
                 (A) (A) (A) (A) (A) (A) (A) (A) (A) (A) (A) (A)
                 (A) (A) (A) (A) (A) (A) (A) (A) (A) (A) (A) (A)
                 (A) (A) (A) (A) (A) (A) (A) (A) (A) (A) (A) (A)
                 (A) (A) (A) (A) (A) (A) (A) (A) (A) (A) (A) (A)
                 (A) (A) (A) (A) (A) (A) (A) (A) (A) (A) (A) (A)
                 (A) (A) (A) (A) (A) (A) (A) (A) (A) (A) (A) (A)
                 (A) (A) (A) (A) (A) (A) (A) (A) (A) (A) (A) (A)
                 (A) (A) (A) (A) (A) (A) (A) (A) (A) (A) (A) (A)
                 (A) (A) (A) (A) (A) (A) (A) (A) (A) (A) (A) (A)
                 (A) (A) (A) (A) (A) (A) (A) (A) (A) (A) (A) (A)
                 (A) (A) (A) (A) (A) (A) (A) (A) (A) (A) (A) (A)
                 (A) (A) (A) (A) (A) (A) (A) (A) (A) (A) (A) (A)
                 (A) (A) (A) (A) (A) (A) (A) (A) (A) (A) (A) (A)
                 (A) (A) (A) (A) (A) (A) (A) (A) (A) (A) (A) (A)
                 (A) (A) (A) (A) (A) (A) (A) (A) (A) (A) (A) (A)
                 (A) (A) (A) (A) (A) (A) (A) (A) (A) (A) (A) (A)
                 (A) (A) (A) (A) (A) (A) (A) (A) (A) (A) (A) (A)
                 (A) (A) (A) (A) (A) (A) (A) (A) (A) (A) (A) (A)
                 (A) (A) (A) (A) (A) (A) (A) (A) (A) (A) (A) (A)
                 (A) (A) (A) (A) (A) (A) (A) (A) (A) (A) (A) (A)
                 (A) (A) (A) (A) (A) (A) (A) (A) (A) (A) (A) (A)
                 (A) (A) (A) (A) (A) (A) (A) (A) (A) (A) (A) (A)
                 (A) (A) (A) (A) (A) (A) (A) (A) (A) (A) (A) (A)
                 (A) (A) (A) (A) (A) (A) (A) (A) (A) (A) (A) (A)
                 (A) (A) (A) (A) (A) (A) (A) (A) (A) (A) (A) (A)
                 (A) (A) (A) (A) (A) (A) (A) (A) (A) (A) (A) (A)
                 (A) (A) (A) (A) (A) (A) (A) (A) (A) (A) (A) (A)
                 (A) (A) (A) (A) (A) (A) (A) (A) (A) (A) (A) (A)
                 (A) (A) (A) (A) (A) (A) (A) (A) (A) (A) (A) (A)
                 (A) (A) (A) (A) (A) (A) (A) (A) (A) (A) (A) (A)
                 (A) (A) (A) (A) (A) (A) (A) (A) (A) (A) (A) (A)
                 (A) (A) (A) (A) (A) (A) (A) (A) (A) (A) (A) (A)
                 (A) (A) (A) (A) (A) (A) (A) (A) (A) (A) (A) (A)
                 (A) (A) (A) (A) (A) (A) (A) (A) (A) (A) (A) (A)
                 (A) (A) (A) (A) (A) (A) (A) (A) (A) (A) (A) (A)
                 (A) (A) (A) (A) (A) (A) (A) (A) (A) (A) (A) (A)
                 (A) (A) (A) (A) (A) (A) (A) (A) (A) (A) (A) (A)
                 (A) (A) (A) (A) (A) (A) (A) (A) (A) (A) (A) (A)
                 (A) (A) (A) (A) (A) (A) (A) (A) (A) (A) (A) (A)
                 (A) (A) (A) (A) (A) (A) (A) (A) (A) (A) (A) (A)
                 (A) (A) (A) (A) (A) (A) (A) (A) (A) (A) (A) (A)
                 (A) (A) (A) (A) (A) (A) (A) (A) (A) (A) (A) (A)
                 (A) (A) (A) (A) (A) (A) (A) (A) (A) (A) (A) (A)
                 (A) (A) (A) (A) (A) (A) (A) (A) (A) (A) (A) (A)
                 (A) (A) (A) (A) (A) (A) (A) (A) (A) (A) (A) (A)
                 (A) (A) (A) (A) (A) (A) (A) (A) (A) (A) (A) (A)
                 (A) (A) (A) (A) (A) (A) (A) (A) (A) (A) (A) (A)
                 (A) (A) (A) (A) (A) (A) (A) (A) (A) (A) (A) (A)
                 (A) (A) (A) (A) (A) (A) (A) (A) (A) (A) (A) (A)
                 (A) (A) (A) (A) (A) (A) (A) (A) (A) (A) (A) (A)
                 (A) (A) (A) (A) (A) (A) (A) (A) (A) (A) (A) (A)
                 (A) (A) (A) (A) (A) (A) (A) (A) (A) (A) (A) (A)
                 (A) (A) (A) (A) (A) (A) (A) (A) (A) (A) (A) (A)
                 (A) (A) (A) (A) (A) (A) (A) (A) (A) (A) (A) (A)
                 (A) (A) (A) (A) (A) (A) (A) (A) (A) (A) (A) (A)
                 (A) (A) (A) (A) (A) (A) (A) (A) (A) (A) (A) (A)
                 (A) (A) (A) (A) (A) (A) (A) (A) (A) (A) (A) (A)
                 (A) (A) (A) (A) (A) (A) (A) (A) (A) (A) (A) (A)
                 (A) (A) (A) (A) (A) (A) (A) (A) (A) (A) (A) (A)
                 (A) (A) (A) (A) (A) (A) (A) (A) (A) (A) (A) (A)
                 (A) (A) (A) (A) (A) (A) (A) (A) (A) (A) (A) (A)
                 (A) (A) (A) (A) (A) (A) (A) (A) (A) (A) (A) (A)
                 (A) (A) (A) (A) (A) (A) (A) (A) (A) (A) (A) (A)
                 (A) (A) (A) (A) (A) (A) (A) (A) (A) (A) (A) (A)
                 (A) (A) (A) (A) (A) (A) (A) (A) (A) (A) (A) (A)
                 (A) (A) (A) (A) (A) (A) (A) (A) (A) (A) (A) (A)
                 (A) (A) (A) (A) (A) (A) (A) (A) (A) (A) (A) (A)
                 (A) (A) (A) (A) (A) (A) (A) (A) (A) (A) (A) (A)
                 (A) (A) (A) (A) (A) (A) (A) (A) (A) (A) (A) (A)
                 (A) (A) (A) (A) (A) (A) (A) (A) (A) (A) (A) (A)
                 (A) (A) (A) (A) (A) (A) (A) (A) (A) (A) (A) (A)
                 (A) (A) (A) (A) (A) (A) (A) (A) (A) (A) (A) (A)
                 (A) (A) (A) (A) (A) (A) (A) (A) (A) (A) (A) (A)
                 (A) (A) (A) (A) (A) (A) (A) (A) (A) (A) (A) (A)
                 (A) (A) (A) (A) (A) (A) (A) (A) (A) (A) (A) (A)
                 (A) (A) (A) (A) (A) (A) (A) (A) (A) (A) (A) (A)
                 (A) (A) (A) (A) (A) (A) (A) (A) (A) (A) (A) (A)
                 (A) (A) (A) (A) (A) (A) (A) (A) (A) (A) (A) (A)
                 (A) (A) (A) (A) (A) (A) (A) (A) (A) (A) (A) (A)
                 (A) (A) (A) (A) (A) (A) (A) (A) (A) (A) (A) (A)
                 (A) (A) (A) (A) (A) (A) (A) (A) (A) (A) (A) (A)
                 (A) (A) (A) (A) (A) (A) (A) (A) (A) (A) (A) (A)
                 (A) (A) (A) (A) (A) (A) (A) (A) (A) (A)
 The electronic state is 1-A.
 Alpha  occ. eigenvalues --  -19.20361 -19.16928 -19.12724 -19.10694 -19.10647
 Alpha  occ. eigenvalues --  -14.37614 -14.37347 -14.32583 -14.30649 -10.32365
 Alpha  occ. eigenvalues --  -10.30758 -10.26896 -10.26805 -10.24962 -10.24556
 Alpha  occ. eigenvalues --  -10.24127 -10.24087 -10.23840 -10.23704 -10.22746
 Alpha  occ. eigenvalues --  -10.22261 -10.22099 -10.22053 -10.22034 -10.21945
 Alpha  occ. eigenvalues --  -10.21859 -10.21616 -10.21571 -10.21466 -10.21311
 Alpha  occ. eigenvalues --  -10.21269 -10.21264 -10.21191 -10.21167 -10.20850
 Alpha  occ. eigenvalues --  -10.20747 -10.20599 -10.20475 -10.20342 -10.20304
 Alpha  occ. eigenvalues --  -10.20225 -10.20144 -10.19995 -10.19958 -10.19937
 Alpha  occ. eigenvalues --  -10.19884 -10.19816 -10.19811 -10.19459 -10.19441
 Alpha  occ. eigenvalues --  -10.19428 -10.19019 -10.19008 -10.18951 -10.18837
 Alpha  occ. eigenvalues --  -10.18281 -10.18239 -10.18169 -10.18011 -10.17976
 Alpha  occ. eigenvalues --  -10.17785 -10.17719 -10.17237 -10.17071  -1.12560
 Alpha  occ. eigenvalues --   -1.10482  -1.00751  -0.99046  -0.98981  -0.98947
 Alpha  occ. eigenvalues --   -0.96843  -0.95400  -0.92538  -0.84812  -0.83871
 Alpha  occ. eigenvalues --   -0.81829  -0.81443  -0.81270  -0.81171  -0.80568
 Alpha  occ. eigenvalues --   -0.80342  -0.80153  -0.79790  -0.78874  -0.77896
 Alpha  occ. eigenvalues --   -0.77048  -0.76223  -0.75694  -0.74672  -0.74518
 Alpha  occ. eigenvalues --   -0.74187  -0.73881  -0.73378  -0.71217  -0.70781
 Alpha  occ. eigenvalues --   -0.70319  -0.69617  -0.68816  -0.68362  -0.68040
 Alpha  occ. eigenvalues --   -0.66986  -0.66752  -0.66509  -0.65901  -0.65275
 Alpha  occ. eigenvalues --   -0.64402  -0.63242  -0.62676  -0.61878  -0.61577
 Alpha  occ. eigenvalues --   -0.60787  -0.59365  -0.59108  -0.58185  -0.57475
 Alpha  occ. eigenvalues --   -0.56756  -0.56694  -0.56027  -0.55916  -0.55451
 Alpha  occ. eigenvalues --   -0.55256  -0.54855  -0.54541  -0.53353  -0.53136
 Alpha  occ. eigenvalues --   -0.52738  -0.52124  -0.51399  -0.50875  -0.50837
 Alpha  occ. eigenvalues --   -0.50656  -0.49647  -0.49452  -0.48949  -0.48736
 Alpha  occ. eigenvalues --   -0.48477  -0.48044  -0.47575  -0.47315  -0.46736
 Alpha  occ. eigenvalues --   -0.46555  -0.46468  -0.46366  -0.46212  -0.46090
 Alpha  occ. eigenvalues --   -0.45733  -0.45359  -0.45103  -0.44955  -0.44800
 Alpha  occ. eigenvalues --   -0.44125  -0.44017  -0.43887  -0.43669  -0.43570
 Alpha  occ. eigenvalues --   -0.43448  -0.43300  -0.43004  -0.42654  -0.42595
 Alpha  occ. eigenvalues --   -0.42532  -0.41875  -0.41509  -0.41366  -0.41222
 Alpha  occ. eigenvalues --   -0.41181  -0.40777  -0.40728  -0.40642  -0.40486
 Alpha  occ. eigenvalues --   -0.40183  -0.40088  -0.39877  -0.39497  -0.39221
 Alpha  occ. eigenvalues --   -0.39076  -0.38900  -0.38715  -0.38435  -0.38252
 Alpha  occ. eigenvalues --   -0.38014  -0.37774  -0.37524  -0.37127  -0.36986
 Alpha  occ. eigenvalues --   -0.36853  -0.36780  -0.36655  -0.36462  -0.36297
 Alpha  occ. eigenvalues --   -0.36118  -0.36036  -0.35911  -0.35616  -0.35333
 Alpha  occ. eigenvalues --   -0.35176  -0.35045  -0.34983  -0.34738  -0.34717
 Alpha  occ. eigenvalues --   -0.34319  -0.34247  -0.34028  -0.33979  -0.33694
 Alpha  occ. eigenvalues --   -0.33196  -0.33048  -0.32878  -0.32659  -0.32577
 Alpha  occ. eigenvalues --   -0.32409  -0.32314  -0.32102  -0.31559  -0.31195
 Alpha  occ. eigenvalues --   -0.31083  -0.30898  -0.30710  -0.30288  -0.29934
 Alpha  occ. eigenvalues --   -0.29723  -0.28856  -0.28843  -0.28177  -0.27797
 Alpha  occ. eigenvalues --   -0.27625  -0.26704  -0.26578  -0.26242  -0.25993
 Alpha  occ. eigenvalues --   -0.24541  -0.24340  -0.24237  -0.22483  -0.20945
 Alpha  occ. eigenvalues --   -0.18382
 Alpha virt. eigenvalues --   -0.10181  -0.08373  -0.05138  -0.01989  -0.01150
 Alpha virt. eigenvalues --   -0.01014  -0.00067   0.00908   0.02347   0.03312
 Alpha virt. eigenvalues --    0.03389   0.03790   0.03852   0.04339   0.04488
 Alpha virt. eigenvalues --    0.04543   0.04755   0.04940   0.05357   0.05572
 Alpha virt. eigenvalues --    0.05719   0.05768   0.06140   0.06196   0.06501
 Alpha virt. eigenvalues --    0.06688   0.06703   0.07065   0.07298   0.07628
 Alpha virt. eigenvalues --    0.07908   0.08027   0.08391   0.08700   0.08720
 Alpha virt. eigenvalues --    0.08858   0.09055   0.09134   0.09367   0.09489
 Alpha virt. eigenvalues --    0.09732   0.09822   0.10060   0.10225   0.10400
 Alpha virt. eigenvalues --    0.10693   0.10837   0.10948   0.11059   0.11456
 Alpha virt. eigenvalues --    0.11600   0.11718   0.12083   0.12185   0.12242
 Alpha virt. eigenvalues --    0.12376   0.12434   0.12529   0.12845   0.13020
 Alpha virt. eigenvalues --    0.13184   0.13382   0.13444   0.13516   0.13734
 Alpha virt. eigenvalues --    0.13761   0.14102   0.14231   0.14385   0.14642
 Alpha virt. eigenvalues --    0.14728   0.14879   0.14954   0.15028   0.15374
 Alpha virt. eigenvalues --    0.15700   0.15914   0.15969   0.16066   0.16337
 Alpha virt. eigenvalues --    0.16716   0.16753   0.17006   0.17070   0.17190
 Alpha virt. eigenvalues --    0.17427   0.17864   0.18153   0.18183   0.18275
 Alpha virt. eigenvalues --    0.18895   0.19159   0.19223   0.19455   0.19671
 Alpha virt. eigenvalues --    0.19824   0.20241   0.20318   0.20480   0.20637
 Alpha virt. eigenvalues --    0.20714   0.21031   0.21117   0.21510   0.21830
 Alpha virt. eigenvalues --    0.22366   0.22459   0.22652   0.22842   0.23008
 Alpha virt. eigenvalues --    0.23698   0.23817   0.24252   0.24322   0.24587
 Alpha virt. eigenvalues --    0.24931   0.25363   0.25573   0.25662   0.25846
 Alpha virt. eigenvalues --    0.25996   0.26257   0.26677   0.26732   0.27310
 Alpha virt. eigenvalues --    0.27599   0.28150   0.28761   0.29161   0.29266
 Alpha virt. eigenvalues --    0.29571   0.29720   0.29844   0.30696   0.30917
 Alpha virt. eigenvalues --    0.31140   0.31276   0.31626   0.32387   0.32708
 Alpha virt. eigenvalues --    0.32850   0.33356   0.34156   0.34280   0.34805
 Alpha virt. eigenvalues --    0.35601   0.35711   0.36202   0.36467   0.36725
 Alpha virt. eigenvalues --    0.37015   0.37124   0.37338   0.37909   0.38307
 Alpha virt. eigenvalues --    0.38811   0.38909   0.39358   0.39439   0.39627
 Alpha virt. eigenvalues --    0.39940   0.40086   0.40385   0.40566   0.40809
 Alpha virt. eigenvalues --    0.40927   0.41067   0.41163   0.41401   0.41458
 Alpha virt. eigenvalues --    0.41646   0.41893   0.42247   0.42563   0.42770
 Alpha virt. eigenvalues --    0.42901   0.42915   0.43408   0.43565   0.43884
 Alpha virt. eigenvalues --    0.44080   0.44106   0.44440   0.44537   0.44724
 Alpha virt. eigenvalues --    0.45061   0.45724   0.45739   0.45926   0.46025
 Alpha virt. eigenvalues --    0.46280   0.46659   0.46750   0.47391   0.47534
 Alpha virt. eigenvalues --    0.47673   0.47700   0.48253   0.48314   0.48785
 Alpha virt. eigenvalues --    0.48876   0.49258   0.49377   0.49518   0.49988
 Alpha virt. eigenvalues --    0.50377   0.50609   0.50802   0.51021   0.51253
 Alpha virt. eigenvalues --    0.51338   0.51567   0.51626   0.52285   0.52319
 Alpha virt. eigenvalues --    0.52793   0.53155   0.53509   0.53772   0.53971
 Alpha virt. eigenvalues --    0.54172   0.54294   0.54508   0.54637   0.55309
 Alpha virt. eigenvalues --    0.55508   0.55853   0.55960   0.55990   0.56258
 Alpha virt. eigenvalues --    0.56388   0.56608   0.56826   0.57037   0.57409
 Alpha virt. eigenvalues --    0.57773   0.57847   0.58111   0.58189   0.58313
 Alpha virt. eigenvalues --    0.58410   0.58444   0.58510   0.58763   0.58832
 Alpha virt. eigenvalues --    0.58953   0.59099   0.59539   0.59570   0.59890
 Alpha virt. eigenvalues --    0.59974   0.60047   0.60205   0.60295   0.60441
 Alpha virt. eigenvalues --    0.60663   0.60725   0.60909   0.61031   0.61404
 Alpha virt. eigenvalues --    0.61456   0.61698   0.61852   0.61940   0.62025
 Alpha virt. eigenvalues --    0.62100   0.62321   0.62506   0.62800   0.62987
 Alpha virt. eigenvalues --    0.63231   0.63334   0.63488   0.63529   0.63772
 Alpha virt. eigenvalues --    0.63996   0.64066   0.64154   0.64298   0.64478
 Alpha virt. eigenvalues --    0.64581   0.64728   0.64880   0.64991   0.65067
 Alpha virt. eigenvalues --    0.65135   0.65335   0.65457   0.65681   0.65725
 Alpha virt. eigenvalues --    0.65825   0.65895   0.65996   0.66118   0.66361
 Alpha virt. eigenvalues --    0.66472   0.66670   0.66858   0.66887   0.66974
 Alpha virt. eigenvalues --    0.67057   0.67279   0.67392   0.67583   0.67648
 Alpha virt. eigenvalues --    0.67785   0.68042   0.68131   0.68239   0.68406
 Alpha virt. eigenvalues --    0.68521   0.68708   0.68828   0.68880   0.69002
 Alpha virt. eigenvalues --    0.69256   0.69392   0.69493   0.69915   0.69970
 Alpha virt. eigenvalues --    0.69982   0.70055   0.70215   0.70330   0.70505
 Alpha virt. eigenvalues --    0.70655   0.70858   0.70913   0.70974   0.71021
 Alpha virt. eigenvalues --    0.71197   0.71249   0.71580   0.71667   0.72128
 Alpha virt. eigenvalues --    0.72260   0.72531   0.72638   0.72746   0.72871
 Alpha virt. eigenvalues --    0.72916   0.73266   0.73432   0.73613   0.73687
 Alpha virt. eigenvalues --    0.73901   0.74174   0.74417   0.74987   0.75126
 Alpha virt. eigenvalues --    0.75285   0.75631   0.75714   0.76168   0.76231
 Alpha virt. eigenvalues --    0.76298   0.76872   0.77033   0.77342   0.77660
 Alpha virt. eigenvalues --    0.77956   0.78015   0.78469   0.78577   0.78812
 Alpha virt. eigenvalues --    0.78949   0.79097   0.79281   0.79887   0.80322
 Alpha virt. eigenvalues --    0.80522   0.80998   0.81238   0.81302   0.81828
 Alpha virt. eigenvalues --    0.82184   0.82595   0.82839   0.83014   0.83144
 Alpha virt. eigenvalues --    0.83278   0.83958   0.84291   0.85079   0.85236
 Alpha virt. eigenvalues --    0.85480   0.86282   0.86739   0.86757   0.87857
 Alpha virt. eigenvalues --    0.88119   0.88535   0.88826   0.89316   0.89646
 Alpha virt. eigenvalues --    0.90164   0.90714   0.91092   0.91464   0.92295
 Alpha virt. eigenvalues --    0.92685   0.92968   0.93177   0.93515   0.93600
 Alpha virt. eigenvalues --    0.94830   0.95322   0.95603   0.96053   0.96819
 Alpha virt. eigenvalues --    0.97302   0.97531   0.97755   0.98206   0.98866
 Alpha virt. eigenvalues --    0.98979   0.99771   1.00054   1.00705   1.01329
 Alpha virt. eigenvalues --    1.01776   1.02053   1.02382   1.02669   1.02949
 Alpha virt. eigenvalues --    1.03228   1.03786   1.04644   1.05005   1.05052
 Alpha virt. eigenvalues --    1.05256   1.05510   1.05878   1.06522   1.06773
 Alpha virt. eigenvalues --    1.07172   1.07915   1.08512   1.08899   1.09112
 Alpha virt. eigenvalues --    1.09133   1.09939   1.10596   1.11265   1.12009
 Alpha virt. eigenvalues --    1.12121   1.12245   1.12865   1.12921   1.13314
 Alpha virt. eigenvalues --    1.13712   1.14014   1.14191   1.14856   1.15215
 Alpha virt. eigenvalues --    1.15670   1.16050   1.16569   1.17056   1.17385
 Alpha virt. eigenvalues --    1.18588   1.19435   1.19525   1.20068   1.20510
 Alpha virt. eigenvalues --    1.20818   1.21333   1.21803   1.21908   1.22097
 Alpha virt. eigenvalues --    1.23318   1.23611   1.23670   1.24205   1.24251
 Alpha virt. eigenvalues --    1.24389   1.25083   1.25450   1.25748   1.25895
 Alpha virt. eigenvalues --    1.26292   1.26377   1.26916   1.27134   1.27635
 Alpha virt. eigenvalues --    1.27783   1.28594   1.28909   1.29378   1.29581
 Alpha virt. eigenvalues --    1.30116   1.30322   1.30636   1.30788   1.31151
 Alpha virt. eigenvalues --    1.32348   1.32585   1.32983   1.33249   1.33376
 Alpha virt. eigenvalues --    1.33971   1.34046   1.34289   1.35217   1.35643
 Alpha virt. eigenvalues --    1.36191   1.36343   1.36391   1.37242   1.38076
 Alpha virt. eigenvalues --    1.38631   1.38768   1.39527   1.40316   1.40924
 Alpha virt. eigenvalues --    1.41090   1.41641   1.41695   1.41891   1.42283
 Alpha virt. eigenvalues --    1.42782   1.43167   1.45077   1.45585   1.45818
 Alpha virt. eigenvalues --    1.46728   1.47275   1.47333   1.48120   1.48281
 Alpha virt. eigenvalues --    1.48480   1.49045   1.49235   1.49578   1.49778
 Alpha virt. eigenvalues --    1.50001   1.50158   1.50334   1.51020   1.51174
 Alpha virt. eigenvalues --    1.51361   1.52002   1.52710   1.52885   1.53065
 Alpha virt. eigenvalues --    1.53200   1.53290   1.53473   1.53578   1.53802
 Alpha virt. eigenvalues --    1.54366   1.54613   1.55308   1.55704   1.56003
 Alpha virt. eigenvalues --    1.56604   1.56940   1.57132   1.57512   1.58027
 Alpha virt. eigenvalues --    1.58331   1.58493   1.58954   1.59048   1.59070
 Alpha virt. eigenvalues --    1.59204   1.59209   1.59615   1.59944   1.60100
 Alpha virt. eigenvalues --    1.60174   1.60566   1.60705   1.61609   1.62361
 Alpha virt. eigenvalues --    1.63056   1.63226   1.63489   1.64146   1.64920
 Alpha virt. eigenvalues --    1.64999   1.65562   1.65776   1.65853   1.66116
 Alpha virt. eigenvalues --    1.66299   1.66624   1.66807   1.66959   1.67369
 Alpha virt. eigenvalues --    1.68016   1.68147   1.68519   1.68954   1.68995
 Alpha virt. eigenvalues --    1.69736   1.69875   1.69965   1.70030   1.70318
 Alpha virt. eigenvalues --    1.70476   1.71046   1.71159   1.71417   1.71596
 Alpha virt. eigenvalues --    1.71925   1.71959   1.72152   1.72198   1.72601
 Alpha virt. eigenvalues --    1.72776   1.73012   1.73125   1.73401   1.73686
 Alpha virt. eigenvalues --    1.73720   1.73981   1.74210   1.74481   1.74787
 Alpha virt. eigenvalues --    1.74885   1.75122   1.75227   1.75385   1.75843
 Alpha virt. eigenvalues --    1.75947   1.76163   1.76328   1.76601   1.76768
 Alpha virt. eigenvalues --    1.76989   1.77253   1.77256   1.77788   1.78021
 Alpha virt. eigenvalues --    1.78087   1.78262   1.78588   1.78755   1.78991
 Alpha virt. eigenvalues --    1.79089   1.79272   1.79477   1.79567   1.79751
 Alpha virt. eigenvalues --    1.80042   1.80200   1.80677   1.80723   1.80943
 Alpha virt. eigenvalues --    1.81124   1.81256   1.81744   1.81994   1.82067
 Alpha virt. eigenvalues --    1.82097   1.82397   1.82558   1.82764   1.83163
 Alpha virt. eigenvalues --    1.83337   1.83651   1.83828   1.84003   1.84246
 Alpha virt. eigenvalues --    1.84394   1.84554   1.84802   1.84924   1.85107
 Alpha virt. eigenvalues --    1.85399   1.85536   1.85740   1.86156   1.86292
 Alpha virt. eigenvalues --    1.86442   1.87096   1.87345   1.87447   1.87570
 Alpha virt. eigenvalues --    1.88127   1.88393   1.88615   1.88675   1.88864
 Alpha virt. eigenvalues --    1.89125   1.89520   1.89885   1.90354   1.90590
 Alpha virt. eigenvalues --    1.90637   1.90892   1.91069   1.91501   1.91605
 Alpha virt. eigenvalues --    1.91714   1.92113   1.92483   1.92924   1.93389
 Alpha virt. eigenvalues --    1.93477   1.93776   1.93875   1.94019   1.94228
 Alpha virt. eigenvalues --    1.94287   1.94749   1.95204   1.95374   1.95540
 Alpha virt. eigenvalues --    1.95836   1.96093   1.96338   1.96809   1.96882
 Alpha virt. eigenvalues --    1.97260   1.97390   1.97718   1.97921   1.98039
 Alpha virt. eigenvalues --    1.98587   1.98741   1.99231   1.99316   1.99520
 Alpha virt. eigenvalues --    1.99714   2.00273   2.00728   2.01118   2.01319
 Alpha virt. eigenvalues --    2.01617   2.02186   2.02298   2.02713   2.03137
 Alpha virt. eigenvalues --    2.04110   2.04255   2.04398   2.04544   2.04947
 Alpha virt. eigenvalues --    2.05095   2.05375   2.06364   2.06824   2.06928
 Alpha virt. eigenvalues --    2.07176   2.07474   2.07862   2.08048   2.08176
 Alpha virt. eigenvalues --    2.08527   2.08769   2.09236   2.09648   2.09884
 Alpha virt. eigenvalues --    2.10181   2.10534   2.10813   2.11235   2.12221
 Alpha virt. eigenvalues --    2.12586   2.12982   2.13119   2.13181   2.13310
 Alpha virt. eigenvalues --    2.13405   2.14570   2.14805   2.15071   2.15364
 Alpha virt. eigenvalues --    2.15587   2.16130   2.16691   2.17056   2.17139
 Alpha virt. eigenvalues --    2.17710   2.17918   2.18586   2.18988   2.19188
 Alpha virt. eigenvalues --    2.19648   2.19949   2.20470   2.20621   2.21548
 Alpha virt. eigenvalues --    2.21730   2.22039   2.22088   2.22515   2.23038
 Alpha virt. eigenvalues --    2.23230   2.23634   2.24480   2.24671   2.25323
 Alpha virt. eigenvalues --    2.25758   2.26101   2.26571   2.26618   2.27059
 Alpha virt. eigenvalues --    2.27417   2.27500   2.28149   2.28461   2.28856
 Alpha virt. eigenvalues --    2.29271   2.29595   2.30107   2.30569   2.30874
 Alpha virt. eigenvalues --    2.31013   2.31203   2.31569   2.31953   2.32584
 Alpha virt. eigenvalues --    2.32905   2.33143   2.34050   2.34269   2.34697
 Alpha virt. eigenvalues --    2.34819   2.35403   2.35598   2.36058   2.36915
 Alpha virt. eigenvalues --    2.37137   2.37201   2.37684   2.38164   2.38421
 Alpha virt. eigenvalues --    2.38483   2.38766   2.39187   2.39318   2.39515
 Alpha virt. eigenvalues --    2.39895   2.40119   2.40841   2.41536   2.41668
 Alpha virt. eigenvalues --    2.42387   2.42725   2.42975   2.43514   2.43761
 Alpha virt. eigenvalues --    2.44030   2.44449   2.44691   2.44820   2.45021
 Alpha virt. eigenvalues --    2.45137   2.45270   2.46028   2.46108   2.46609
 Alpha virt. eigenvalues --    2.47369   2.47644   2.48096   2.48285   2.48338
 Alpha virt. eigenvalues --    2.49114   2.49210   2.50238   2.50851   2.50917
 Alpha virt. eigenvalues --    2.51065   2.52056   2.52350   2.53123   2.53512
 Alpha virt. eigenvalues --    2.54131   2.54639   2.54905   2.55126   2.55260
 Alpha virt. eigenvalues --    2.55561   2.55652   2.56381   2.56629   2.57046
 Alpha virt. eigenvalues --    2.57552   2.57777   2.58398   2.58656   2.58979
 Alpha virt. eigenvalues --    2.59345   2.59748   2.59935   2.61080   2.61513
 Alpha virt. eigenvalues --    2.61755   2.62178   2.63167   2.63264   2.63273
 Alpha virt. eigenvalues --    2.63832   2.64076   2.64503   2.64906   2.65093
 Alpha virt. eigenvalues --    2.65718   2.66232   2.66765   2.67121   2.67359
 Alpha virt. eigenvalues --    2.67658   2.68900   2.69047   2.69548   2.71562
 Alpha virt. eigenvalues --    2.71844   2.72424   2.72741   2.72982   2.73170
 Alpha virt. eigenvalues --    2.73310   2.73529   2.73951   2.74356   2.74706
 Alpha virt. eigenvalues --    2.75199   2.75358   2.75748   2.75996   2.76245
 Alpha virt. eigenvalues --    2.77553   2.78478   2.78621   2.79380   2.79890
 Alpha virt. eigenvalues --    2.80175   2.80601   2.80990   2.81236   2.81906
 Alpha virt. eigenvalues --    2.82234   2.82651   2.82725   2.84134   2.84821
 Alpha virt. eigenvalues --    2.84974   2.85091   2.85260   2.86226   2.86558
 Alpha virt. eigenvalues --    2.87259   2.87599   2.87821   2.87989   2.88696
 Alpha virt. eigenvalues --    2.89251   2.89911   2.90040   2.90281   2.90361
 Alpha virt. eigenvalues --    2.92282   2.92398   2.92505   2.92563   2.93504
 Alpha virt. eigenvalues --    2.94077   2.94510   2.95018   2.95684   2.96042
 Alpha virt. eigenvalues --    2.96065   2.96317   2.97201   2.97570   2.98081
 Alpha virt. eigenvalues --    2.98459   2.98869   2.99505   2.99618   2.99744
 Alpha virt. eigenvalues --    2.99914   3.00426   3.01257   3.01273   3.02313
 Alpha virt. eigenvalues --    3.02570   3.02843   3.03286   3.03647   3.03939
 Alpha virt. eigenvalues --    3.05066   3.06720   3.07343   3.07662   3.07775
 Alpha virt. eigenvalues --    3.09266   3.09797   3.11077   3.11152   3.11696
 Alpha virt. eigenvalues --    3.12136   3.12285   3.13765   3.14155   3.14724
 Alpha virt. eigenvalues --    3.14749   3.15853   3.17644   3.19414   3.20234
 Alpha virt. eigenvalues --    3.21674   3.21900   3.22698   3.22969   3.24015
 Alpha virt. eigenvalues --    3.25071   3.25324   3.26446   3.30731   3.33885
 Alpha virt. eigenvalues --    3.37363   3.39718   3.41027   3.43367   3.44625
 Alpha virt. eigenvalues --    3.47065   3.47857   3.49182   3.51408   3.62479
 Alpha virt. eigenvalues --    3.63281   3.64851   3.67231   3.67729   3.67976
          Condensed to atoms (all electrons):
 Mulliken charges:
               1
     1  C    0.099055
     2  C   -0.096171
     3  C   -0.024384
     4  C   -0.107119
     5  N   -0.134999
     6  C   -0.133224
     7  C   -0.030890
     8  C   -0.055318
     9  C   -0.059571
    10  C    0.079400
    11  C    0.133579
    12  C   -0.057215
    13  C    0.149457
    14  O   -0.261851
    15  O   -0.287091
    16  N   -0.094844
    17  C    0.181194
    18  C   -0.175809
    19  C   -0.000492
    20  C    0.108373
    21  C    0.140308
    22  C   -0.047854
    23  C   -0.093874
    24  N   -0.264255
    25  C   -0.019870
    26  C   -0.044082
    27  C   -0.145550
    28  C    0.037012
    29  C   -0.084573
    30  C    0.269117
    31  C   -0.044302
    32  N   -0.022062
    33  C    0.115759
    34  C   -0.185203
    35  C    0.042258
    36  C    0.053276
    37  C    0.269269
    38  C   -0.000903
    39  O   -0.243550
    40  C    0.049811
    41  C    0.191241
    42  O   -0.252184
    43  O   -0.204200
    44  C    0.083296
    45  C    0.375885
    46  C   -0.174335
    47  C   -0.112158
    48  C    0.015851
    49  C    0.146653
    50  C    0.032674
    51  C    0.023854
    52  C    0.014123
    53  C   -0.035418
    54  C   -0.073174
    55  C    0.034545
    56  C   -0.030225
    57  C   -0.029852
    58  C    0.046812
    59  C   -0.038387
    60  C   -0.048266
    61  C    0.066667
    62  C   -0.085048
    63  C    0.062221
    64  C    0.017170
    65  H   -0.001957
    66  H   -0.031629
    67  H    0.025658
    68  H    0.015593
    69  H    0.014792
    70  H    0.023255
    71  H   -0.017021
    72  H    0.024047
    73  H   -0.011018
    74  H    0.033212
    75  H    0.036083
    76  H    0.036539
    77  H    0.017530
    78  H    0.020315
    79  H    0.030029
    80  H    0.019435
    81  H    0.047316
    82  H    0.036833
    83  H    0.054841
    84  H    0.041351
    85  H    0.034713
    86  H   -0.069248
    87  H   -0.024344
    88  H   -0.004857
    89  H    0.019231
    90  H    0.012629
    91  H    0.043758
    92  H   -0.048423
    93  H    0.004322
    94  H    0.038415
    95  H    0.047054
    96  H    0.047364
    97  H    0.053223
    98  H   -0.017399
    99  H    0.011278
   100  H    0.032198
   101  H    0.031178
   102  H    0.035725
   103  H    0.032307
   104  H    0.001560
   105  H   -0.047531
   106  H   -0.016673
   107  H   -0.014210
   108  H   -0.045661
   109  H   -0.012665
   110  H   -0.026240
   111  H    0.010221
   112  H    0.052309
   113  H    0.023852
   114  H    0.018500
   115  H    0.017123
   116  H    0.013452
   117  H    0.017013
   118  H   -0.014276
   119  H   -0.006363
   120  H    0.000950
   121  H    0.007395
   122  H    0.016377
   123  H    0.024747
   124  H    0.006065
   125  H    0.020689
   126  H   -0.002339
   127  H   -0.013837
   128  H   -0.001299
   129  H   -0.003691
   130  H    0.010720
   131  H   -0.026553
   132  H   -0.012120
   133  H    0.015330
   134  H   -0.035333
   135  H   -0.001664
   136  H    0.003332
   137  H    0.211472
   138  H    0.074466
 Sum of Mulliken charges =   0.00000
 Mulliken charges with hydrogens summed into heavy atoms:
               1
     1  C    0.099055
     2  C   -0.098128
     3  C   -0.056013
     4  C   -0.081461
     5  N   -0.134999
     6  C   -0.133224
     7  C   -0.015297
     8  C   -0.040526
     9  C   -0.059571
    10  C    0.109681
    11  C    0.155773
    12  C    0.015408
    13  C    0.149457
    14  O   -0.261851
    15  O   -0.287091
    16  N    0.116628
    17  C    0.181194
    18  C   -0.175809
    19  C   -0.000492
    20  C    0.108373
    21  C    0.208182
    22  C   -0.028420
    23  C   -0.009725
    24  N   -0.264255
    25  C   -0.019870
    26  C   -0.044082
    27  C   -0.145550
    28  C    0.037012
    29  C    0.046332
    30  C    0.175526
    31  C   -0.017299
    32  N    0.052404
    33  C    0.115759
    34  C   -0.185203
    35  C    0.042258
    36  C    0.053276
    37  C    0.268925
    38  C   -0.000903
    39  O   -0.243550
    40  C    0.088227
    41  C    0.191241
    42  O   -0.252184
    43  O   -0.204200
    44  C    0.230937
    45  C    0.369764
    46  C   -0.142137
    47  C   -0.112158
    48  C    0.115060
    49  C    0.100682
    50  C    0.001791
    51  C   -0.034471
    52  C   -0.012118
    53  C    0.050963
    54  C   -0.037552
    55  C    0.065009
    56  C   -0.050864
    57  C   -0.028902
    58  C    0.095331
    59  C   -0.011633
    60  C   -0.064442
    61  C    0.061677
    62  C   -0.074328
    63  C    0.038879
    64  C   -0.016495
 Electronic spatial extent (au):  <R**2>=         177279.2709
 Charge=              0.0000 electrons
 Dipole moment (field-independent basis, Debye):
    X=              2.5982    Y=              4.2696    Z=              0.7101  Tot=              5.0482
 Quadrupole moment (field-independent basis, Debye-Ang):
   XX=           -361.5882   YY=           -389.6519   ZZ=           -391.7971
   XY=            -20.9832   XZ=              0.4854   YZ=             -0.6161
 Traceless Quadrupole moment (field-independent basis, Debye-Ang):
   XX=             19.4242   YY=             -8.6395   ZZ=            -10.7847
   XY=            -20.9832   XZ=              0.4854   YZ=             -0.6161
 Octapole moment (field-independent basis, Debye-Ang**2):
  XXX=           -506.4671  YYY=            121.4665  ZZZ=             17.0025  XYY=            -70.6696
  XXY=              2.3053  XXZ=           -185.0587  XZZ=             36.9463  YZZ=            -25.4606
  YYZ=             50.3067  XYZ=            -47.9454
 Hexadecapole moment (field-independent basis, Debye-Ang**3):
 XXXX=        -224001.9912 YYYY=         -17809.5972 ZZZZ=          -4278.0090 XXXY=           -163.1606
 XXXZ=           2365.9974 YYYX=          -1206.2157 YYYZ=           -208.8503 ZZZX=           -123.7364
 ZZZY=           -101.9999 XXYY=         -40318.4110 XXZZ=         -38627.5914 YYZZ=          -3544.3186
 XXYZ=            311.7429 YYXZ=              8.8148 ZZXY=            176.7689
 N-N= 8.291452481004D+03 E-N=-2.291645535499D+04  KE= 2.700782307303D+03
 1\1\GINC-PEDRO-RYZENSSD\SP\RB3LYP TD-FC\SVP\C55H74N4O5\PADAWAN\27-Jul-
 2019\0\\# td=(NStates=1) B3LYP/SVP\\TD\\0,1\C,0,-4.9827959777,-1.84617
 08592,0.3816330392\C,0,-4.793329652,2.8073571874,1.4515315391\C,0,-9.4
 122811378,3.3798287821,-0.0628947574\C,0,-9.8008481393,-1.5829991033,-
 0.8680693603\N,0,-5.1692860909,0.4473663595,0.7431327503\C,0,-4.471145
 7307,-0.6976264836,0.727746218\C,0,-3.0219518817,-0.5067871134,1.18188
 31841\C,0,-3.0539903644,0.881167009,1.8783269385\C,0,-4.397758969,1.38
 78085988,1.3076943664\C,0,-3.0858971582,0.7880163139,3.4858964522\C,0,
 -2.0901110818,-0.7046004217,0.0334212877\C,0,-0.5733005423,-0.76447466
 41,0.4136538181\C,0,0.3997336348,-1.0926461375,-0.7127828359\O,0,0.132
 8450521,-1.6266150281,-1.7759812096\O,0,1.6285730544,-0.7648832614,-0.
 4622086636\N,0,-7.093473942,2.8126585377,0.4516746767\C,0,-5.993150890
 5,3.3074951678,1.1522560825\C,0,-6.2886320489,4.7692933688,1.097886281
 4\C,0,-7.5636554623,4.9381326488,0.6537419016\C,0,-8.0684077867,3.6379
 522889,0.1672068761\C,0,-5.2753180483,5.8112066358,1.5466559316\C,0,-8
 .2116484475,6.2389179034,0.386147116\C,0,-9.0388117794,6.6210118231,-0
 .6163141102\N,0,-9.2391121118,0.8391011431,-0.4221746859\C,0,-9.921566
 0195,2.0387063693,-0.4092401932\C,0,-11.3455784243,1.8239459556,-0.924
 0662405\C,0,-11.4287768282,0.4824755877,-1.1109760523\C,0,-10.11112333
 8,-0.1240023519,-0.8296662091\C,0,-12.2716156625,2.856864188,-0.941957
 286\C,0,-12.6226200015,-0.2522177013,-1.6634073004\C,0,-12.4936394946,
 -0.529186183,-3.1984880201\N,0,-7.4581847761,-1.1991315984,-0.15625415
 39\C,0,-8.5680083883,-2.0190006269,-0.5847418366\C,0,-8.1120036394,-3.
 4381206943,-0.6800105684\C,0,-6.745399449,-3.4428211104,-0.2143890628\
 C,0,-6.3548265861,-2.0281256312,-0.0387888027\C,0,-8.8849512527,-4.679
 8087304,-1.0246514595\C,0,-5.6372806733,-4.2231373488,-0.0369827527\O,
 0,-5.5113406243,-5.4888384139,-0.038081074\C,0,-4.4712447531,-3.348535
 6152,0.4606651286\C,0,-3.7093547334,-3.7740414976,1.7118377095\O,0,-3.
 8657916527,-3.2595138853,2.8211101791\O,0,-3.0404527329,-4.863221295,1
 .4469751254\C,0,-2.4862133251,-5.4232717733,2.613633503\C,0,2.71639380
 8,-1.1709709947,-1.3103050563\C,0,3.9682100678,-0.5266231647,-0.732955
 3956\C,0,4.9943516918,0.1771887738,-1.3682007767\C,0,4.9610152972,0.74
 69054222,-2.7873858554\C,0,6.1707888241,0.5344711863,-0.5222511393\C,0
 ,7.3602272631,-0.0934855315,-1.043761243\C,0,8.5794895501,0.1107870936
 ,-0.2115295005\C,0,9.8913300587,-0.7106053871,-0.5237597308\C,0,9.8520
 312417,-2.2797017731,-0.321571442\C,0,11.1348873389,-0.0415584705,0.13
 21726616\C,0,12.5529769719,-0.6055558728,-0.4116356867\C,0,13.72897148
 65,0.1444272165,0.2655886144\C,0,15.1144903608,-0.2600968912,-0.314324
 9904\C,0,15.4393235042,-1.7264215076,-0.1041191802\C,0,16.0892596703,0
 .6511396313,0.4955585782\C,0,17.4829531841,0.7546383815,-0.0681707185\
 C,0,18.66035696,1.7464589748,0.5392647427\C,0,20.1057824798,1.37283508
 81,0.0780295305\C,0,20.3472354224,1.6387904551,-1.3741154893\C,0,21.09
 91924405,2.1437957184,0.8874205303\H,0,-3.998277488,3.4233235644,1.975
 7524561\H,0,-10.2317310262,4.0615633984,-0.219923315\H,0,-10.540698326
 2,-2.3563627918,-1.3177412472\H,0,-2.781480475,-1.1810173369,2.0292237
 981\H,0,-2.2963909536,1.6411143346,1.4266955818\H,0,-2.1804883068,0.27
 04034087,4.0514742514\H,0,-3.1306885608,1.6629513448,3.9954697422\H,0,
 -3.8916087578,0.1799231768,3.8671818944\H,0,-2.1407995884,-1.684613194
 4,-0.2765321004\H,0,-2.1072140608,0.1913353245,-0.7407307673\H,0,-0.14
 16599858,0.1390577594,0.9830186632\H,0,-0.5400943487,-1.6596579244,1.1
 590534137\H,0,-4.4896637829,5.8162759957,0.8023630361\H,0,-5.909626169
 ,6.7166865834,1.5209713917\H,0,-4.6839264794,5.5361116552,2.460640198\
 H,0,-7.9531303224,7.053435218,1.1151630702\H,0,-9.4861839703,5.8608562
 461,-1.4319047766\H,0,-9.4822329699,7.6396726948,-0.7665368766\H,0,-12
 .8021545775,3.1483240196,0.1400361905\H,0,-11.8067545238,3.8857225297,
 -1.2349128081\H,0,-13.211742197,2.5198698227,-1.8222465801\H,0,-12.567
 1990931,-1.0878877155,-1.2369784489\H,0,-13.4734943739,0.3317173264,-1
 .7431266715\H,0,-12.6134969796,0.3976965828,-3.7143087752\H,0,-11.3639
 813661,-0.8235799316,-3.5101199641\H,0,-13.2063673902,-1.2229813929,-3
 .597227265\H,0,-9.7333298818,-4.9349628161,-0.381150417\H,0,-9.1837023
 491,-4.5965275988,-1.9387107693\H,0,-8.1029254672,-5.3632445915,-1.177
 6057161\H,0,-3.7890107525,-3.5366099512,-0.3503263812\H,0,-1.753715764
 6,-6.4050956053,2.2505083849\H,0,-1.7987983262,-4.8236058445,3.3155359
 962\H,0,-3.1948124976,-5.9129863902,3.3967065463\H,0,2.6804219497,-2.1
 589635399,-1.3226634333\H,0,2.4867835729,-0.7288004608,-2.2832360908\H
 ,0,4.1346062323,-0.748947209,0.6120691099\H,0,5.15810764,1.7834108501,
 -3.0011748373\H,0,5.8697335906,0.1178977523,-3.2182832299\H,0,4.071277
 2459,0.5513463214,-3.5004208672\H,0,6.2175397702,1.7264987749,-0.56121
 63127\H,0,6.1442124659,0.3835484652,0.4690246099\H,0,7.0893857235,-1.1
 7225395,-1.0545762172\H,0,7.6875682993,-0.0146894483,-2.056020431\H,0,
 8.6101265,1.1092797693,-0.1117310248\H,0,8.4069437572,-0.2142055721,0.
 9235651689\H,0,10.0016328319,-0.4385412974,-1.5462692019\H,0,9.0971300
 292,-2.6749961928,-0.9723357814\H,0,10.841719203,-2.9425158514,-0.5372
 243273\H,0,9.341279148,-2.5725989455,0.8695886896\H,0,11.1980451019,1.
 1107498551,-0.0942008349\H,0,10.9392198855,-0.1884840849,1.4417541056\
 H,0,12.7301477254,-1.664157987,-0.1397971927\H,0,12.697417894,-0.49722
 9802,-1.5995214858\H,0,13.5621673716,1.2632160324,0.3355764685\H,0,13.
 755859813,0.043457918,1.445301376\H,0,15.2474170859,0.2003712432,-1.31
 10931226\H,0,14.8817437273,-2.3211046923,-0.7810374369\H,0,16.58387226
 07,-1.8666106977,-0.5372795119\H,0,15.4364889277,-2.1270078334,0.91478
 07495\H,0,15.6999302662,1.9246790382,0.2105915182\H,0,16.2168163384,0.
 5342240457,1.6187152941\H,0,18.0676979915,-0.3419584063,-0.2368935572\
 H,0,17.5359081764,0.9625481431,-1.1600144339\H,0,18.507245414,2.773713
 7673,0.2408094706\H,0,18.6145137056,1.69130494,1.6441715672\H,0,20.511
 9475272,0.2973076918,0.2973208883\H,0,19.9838657432,2.6563639065,-1.54
 3406243\H,0,21.3403812818,1.6881868884,-1.6796710737\H,0,19.6945344264
 ,1.1945450762,-2.229575139\H,0,21.2262578623,1.9770591739,1.8611571523
 \H,0,22.2153743946,1.8048905165,0.5856327204\H,0,21.1299626257,3.29335
 25349,0.9139801359\H,0,-7.3917810112,1.7182606993,0.5445062967\H,0,-7.
 641825731,-0.295869763,0.063036176\\Version=ES64L-G09RevD.01\State=1-A
 \HF=-2732.9521494\RMSD=3.381e-09\PG=C01 [X(C55H74N4O5)]\\@


 A MAN IS EXACTLY AS GREAT AS THE TIDE SURGING
 BENEATH HIM.      - BISMARCK
 Job cpu time:       0 days  5 hours 34 minutes 26.6 seconds.
 File lengths (MBytes):  RWF=   1953 Int=      0 D2E=      0 Chk=    148 Scr=      1
 Normal termination of Gaussian 09 at Sat Jul 27 23:41:04 2019.
