 Entering Gaussian System, Link 0=g16
 Input=Geometria-92-.com
 Output=Geometria-92-.log
 Initial command:
 /usr/local/g09/l1.exe "/home/padawan/israel-mol/pheophytin/spectra/abs/Gau-61920.inp" -scrdir="/home/padawan/israel-mol/pheophytin/spectra/abs/"
 Entering Link 1 = /usr/local/g09/l1.exe PID=     61922.
  
 Copyright (c) 1988,1990,1992,1993,1995,1998,2003,2009,2013,
            Gaussian, Inc.  All Rights Reserved.
  
 This is part of the Gaussian(R) 09 program.  It is based on
 the Gaussian(R) 03 system (copyright 2003, Gaussian, Inc.),
 the Gaussian(R) 98 system (copyright 1998, Gaussian, Inc.),
 the Gaussian(R) 94 system (copyright 1995, Gaussian, Inc.),
 the Gaussian 92(TM) system (copyright 1992, Gaussian, Inc.),
 the Gaussian 90(TM) system (copyright 1990, Gaussian, Inc.),
 the Gaussian 88(TM) system (copyright 1988, Gaussian, Inc.),
 the Gaussian 86(TM) system (copyright 1986, Carnegie Mellon
 University), and the Gaussian 82(TM) system (copyright 1983,
 Carnegie Mellon University). Gaussian is a federally registered
 trademark of Gaussian, Inc.
  
 This software contains proprietary and confidential information,
 including trade secrets, belonging to Gaussian, Inc.
  
 This software is provided under written license and may be
 used, copied, transmitted, or stored only in accord with that
 written license.
  
 The following legend is applicable only to US Government
 contracts under FAR:
  
                    RESTRICTED RIGHTS LEGEND
  
 Use, reproduction and disclosure by the US Government is
 subject to restrictions as set forth in subparagraphs (a)
 and (c) of the Commercial Computer Software - Restricted
 Rights clause in FAR 52.227-19.
  
 Gaussian, Inc.
 340 Quinnipiac St., Bldg. 40, Wallingford CT 06492
  
  
 ---------------------------------------------------------------
 Warning -- This program may not be used in any manner that
 competes with the business of Gaussian, Inc. or will provide
 assistance to any competitor of Gaussian, Inc.  The licensee
 of this program is prohibited from giving any competitor of
 Gaussian, Inc. access to this program.  By using this program,
 the user acknowledges that Gaussian, Inc. is engaged in the
 business of creating and licensing software in the field of
 computational chemistry and represents and warrants to the
 licensee that it is not a competitor of Gaussian, Inc. and that
 it will not use this program in any manner prohibited above.
 ---------------------------------------------------------------
  

 Cite this work as:
 Gaussian 09, Revision D.01,
 M. J. Frisch, G. W. Trucks, H. B. Schlegel, G. E. Scuseria, 
 M. A. Robb, J. R. Cheeseman, G. Scalmani, V. Barone, B. Mennucci, 
 G. A. Petersson, H. Nakatsuji, M. Caricato, X. Li, H. P. Hratchian, 
 A. F. Izmaylov, J. Bloino, G. Zheng, J. L. Sonnenberg, M. Hada, 
 M. Ehara, K. Toyota, R. Fukuda, J. Hasegawa, M. Ishida, T. Nakajima, 
 Y. Honda, O. Kitao, H. Nakai, T. Vreven, J. A. Montgomery, Jr., 
 J. E. Peralta, F. Ogliaro, M. Bearpark, J. J. Heyd, E. Brothers, 
 K. N. Kudin, V. N. Staroverov, T. Keith, R. Kobayashi, J. Normand, 
 K. Raghavachari, A. Rendell, J. C. Burant, S. S. Iyengar, J. Tomasi, 
 M. Cossi, N. Rega, J. M. Millam, M. Klene, J. E. Knox, J. B. Cross, 
 V. Bakken, C. Adamo, J. Jaramillo, R. Gomperts, R. E. Stratmann, 
 O. Yazyev, A. J. Austin, R. Cammi, C. Pomelli, J. W. Ochterski, 
 R. L. Martin, K. Morokuma, V. G. Zakrzewski, G. A. Voth, 
 P. Salvador, J. J. Dannenberg, S. Dapprich, A. D. Daniels, 
 O. Farkas, J. B. Foresman, J. V. Ortiz, J. Cioslowski, 
 and D. J. Fox, Gaussian, Inc., Wallingford CT, 2013.
 
 ******************************************
 Gaussian 09:  ES64L-G09RevD.01 24-Apr-2013
                27-Jul-2019 
 ******************************************
 %nproc=3
 Will use up to    3 processors via shared memory.
 %Mem=2GB
 --------------------------
 # td=(NStates=1) B3LYP/SVP
 --------------------------
 1/38=1/1;
 2/12=2,17=6,18=5,40=1/2;
 3/5=18,7=101,11=9,16=1,25=1,30=1,74=-5/1,2,8,3;
 4//1;
 5/5=2,38=5/2;
 8/6=1,10=1,108=1/1;
 9/41=1,42=1,70=2/14;
 6/7=2,8=2,9=2,10=2/1;
 99/5=1,9=1/99;
 --
 TD
 --
 Symbolic Z-matrix:
 Charge =  0 Multiplicity = 1
 6                    -5.24473  -1.93678   0.46444 
 6                    -4.58821   2.67961   1.46499 
 6                    -9.21163   3.35976  -0.14283 
 6                    -9.8085   -1.36416  -1.05291 
 7                    -5.15796   0.37757   0.81615 
 6                    -4.6038   -0.80109   0.83642 
 6                    -3.08143  -0.73287   1.23467 
 6                    -3.0674    0.81894   1.74408 
 6                    -4.24316   1.3711    1.3281 
 6                    -2.67528   0.90576   3.25166 
 6                    -2.03379  -1.07723   0.18611 
 6                    -0.58206  -1.01195   0.66875 
 6                     0.40327  -1.34486  -0.45821 
 8                     0.12116  -1.74601  -1.5952 
 8                     1.66968  -0.97224  -0.10376 
 7                    -6.95555   2.7337    0.69975 
 6                    -5.88141   3.34304   1.16491 
 6                    -6.06677   4.68154   1.16639 
 6                    -7.33561   4.89868   0.59891 
 6                    -7.92208   3.71527   0.27346 
 6                    -5.05699   5.75591   1.4839 
 6                    -7.96714   6.28547   0.50918 
 6                    -8.83835   6.59707  -0.53061 
 7                    -9.20491   0.86396  -0.32908 
 6                    -9.73143   2.0639   -0.64598 
 6                    -11.21294   2.05186  -1.06489 
 6                    -11.40535   0.73106  -1.32338 
 6                    -10.16529  -0.02047  -0.91826 
 6                    -12.09203   3.20485  -1.38698 
 6                    -12.62849   0.03105  -2.02558 
 6                    -12.39833  -0.12521  -3.60273 
 7                    -7.50757  -1.26681  -0.25169 
 6                    -8.61155  -1.95961  -0.57597 
 6                    -8.27871  -3.41103  -0.63403 
 6                    -6.93984  -3.37821  -0.3829 
 6                    -6.4912   -2.1046   -0.10421 
 6                    -9.17798  -4.58401  -1.07679 
 6                    -5.81652  -4.34854  -0.04253 
 8                    -5.85603  -5.48417  -0.03949 
 6                    -4.63471  -3.41113   0.4591 
 6                    -4.18059  -3.89326   1.81742 
 8                    -4.76057  -3.5015    2.8927 
 8                    -3.27878  -4.71734   1.82082 
 6                    -2.96847  -5.60026   2.98295 
 6                     2.67475  -1.2221   -1.04987 
 6                     4.00988  -0.67502  -0.43123 
 6                     4.98739   0.02365  -0.99662 
 6                     4.88046   0.53015  -2.36585 
 6                     6.39654   0.21754  -0.29451 
 6                     7.51406  -0.59883  -0.86672 
 6                     8.81486  -0.32964  -0.07847 
 6                     10.06624  -0.92158  -0.69213 
 6                     10.08731  -2.40104  -0.50854 
 6                     11.3328  -0.2894   -0.03542 
 6                     12.67387  -0.46613  -0.72172 
 6                     13.80109   0.15084   0.16796 
 6                     15.17962   0.03992  -0.46531 
 6                     15.55797  -1.48774  -0.51293 
 6                     16.21458   0.8221    0.291 
 6                     17.63638   0.79535  -0.33286 
 6                     18.48575   1.92965   0.39985 
 6                     20.05183   1.87103  -0.05083 
 6                     20.11466   2.77467  -1.41178 
 6                     20.9056   2.49924   0.88251 
 1                    -3.83562   3.3765    1.89561 
 1                    -9.81883   4.36723  -0.05806 
 1                    -10.52655  -2.03879  -1.56003 
 1                    -2.88802  -1.27491   2.21452 
 1                    -2.32908   1.49143   1.2225 
 1                    -1.74309   0.44463   3.52604 
 1                    -2.79534   2.00093   3.67581 
 1                    -3.21937   0.27116   4.16091 
 1                    -2.44125  -2.02572  -0.15736 
 1                    -2.23835  -0.38432  -0.76526 
 1                    -0.3307    0.09008   0.96557 
 1                    -0.56262  -1.66807   1.50599 
 1                    -4.12673   5.6789    0.79452 
 1                    -5.25565   6.83872   1.46838 
 1                    -4.6591    5.55733   2.61674 
 1                    -7.83416   6.82458   1.33386 
 1                    -8.76664   5.93824  -1.34352 
 1                    -9.33664   7.61323  -0.48682 
 1                    -12.48956   3.81745  -0.6149 
 1                    -11.65982   3.80039  -2.35842 
 1                    -13.11718   2.89749  -1.72197 
 1                    -12.5516  -1.10955  -1.72527 
 1                    -13.60089   0.32033  -1.74707 
 1                    -12.14996   0.83517  -4.09843 
 1                    -11.62043  -0.71714  -3.88245 
 1                    -13.38519  -0.48312  -3.94411 
 1                    -9.97313  -4.61508  -0.40473 
 1                    -9.54101  -4.47441  -2.24988 
 1                    -8.54539  -5.564    -0.74694 
 1                    -3.86545  -3.83039  -0.35874 
 1                    -2.24737  -6.57737   2.56938 
 1                    -2.10109  -5.09809   3.62436 
 1                    -3.83072  -5.99815   3.33607 
 1                     2.78298  -2.30891  -1.36151 
 1                     2.24856  -0.41617  -1.93186 
 1                     3.93396  -0.92066   0.70066 
 1                     5.46777   1.68458  -2.24949 
 1                     5.41467   0.01464  -3.27103 
 1                     3.98635   0.42154  -2.71221 
 1                     6.50303   1.28346  -0.19205 
 1                     6.37444  -0.16873   0.5837 
 1                     7.23224  -1.68065  -1.00199 
 1                     7.76902  -0.1041   -1.82201 
 1                     9.04008   0.99137  -0.07195 
 1                     8.62948  -0.42655   0.96245 
 1                     10.18671  -0.70729  -1.80032 
 1                     9.15674  -2.8976   -0.92521 
 1                     10.93966  -2.87232  -1.09721 
 1                     10.27676  -2.78151   0.59202 
 1                     11.08356   0.99989   0.12133 
 1                     11.29582  -0.68997   1.06363 
 1                     12.769   -1.59083  -0.98803 
 1                     12.70513  -0.25153  -1.86922 
 1                     13.35603   1.07516   0.34002 
 1                     13.93897  -0.40957   1.18511 
 1                     15.15128   0.32607  -1.44471 
 1                     14.83245  -2.2245   -0.81542 
 1                     16.4296  -1.62605  -1.12297 
 1                     15.77103  -1.73031   0.50003 
 1                     16.04872   2.12508   0.28233 
 1                     16.24158   0.46765   1.40764 
 1                     18.14866  -0.28098  -0.24112 
 1                     17.60599   1.05507  -1.53932 
 1                     17.61739   2.88106   0.33747 
 1                     18.50338   1.56328   1.55328 
 1                     20.24746   0.86976  -0.22953 
 1                     19.79698   3.70887  -1.29465 
 1                     21.25234   2.80356  -1.5224 
 1                     19.57838   2.10116  -2.1754 
 1                     21.07997   2.0788    1.97277 
 1                     21.89425   2.59795   0.44263 
 1                     20.68685   3.53991   1.22104 
 1                    -6.83958   1.69181   0.66557 
 1                    -7.70189  -0.25964   0.07792 
 
 Stoichiometry    C55H74N4O5
 Framework group  C1[X(C55H74N4O5)]
 Deg. of freedom   408
 Full point group                 C1      NOp   1
 Largest Abelian subgroup         C1      NOp   1
 Largest concise Abelian subgroup C1      NOp   1
                         Standard orientation:                         
 ---------------------------------------------------------------------
 Center     Atomic      Atomic             Coordinates (Angstroms)
 Number     Number       Type             X           Y           Z
 ---------------------------------------------------------------------
      1          6           0       -5.259673   -1.912699    0.423440
      2          6           0       -4.571908    2.677987    1.516967
      3          6           0       -9.188942    3.422573   -0.080629
      4          6           0       -9.817890   -1.277841   -1.085807
      5          7           0       -5.157095    0.393465    0.821594
      6          6           0       -4.611185   -0.789208    0.818652
      7          6           0       -3.088754   -0.739645    1.219425
      8          6           0       -3.064385    0.801497    1.759892
      9          6           0       -4.235870    1.370098    1.354117
     10          6           0       -2.673096    0.855306    3.269227
     11          6           0       -2.042544   -1.070217    0.165012
     12          6           0       -0.590859   -1.024791    0.650043
     13          6           0        0.393199   -1.341910   -0.482569
     14          8           0        0.109378   -1.718181   -1.627615
     15          8           0        1.661834   -0.985346   -0.119693
     16          7           0       -6.938086    2.763973    0.751046
     17          6           0       -5.860163    3.356328    1.229209
     18          6           0       -6.036181    4.695798    1.257406
     19          6           0       -7.302938    4.933144    0.693364
     20          6           0       -7.897341    3.760634    0.343756
     21          6           0       -5.019228    5.756489    1.597228
     22          6           0       -7.924693    6.325842    0.630975
     23          6           0       -8.792717    6.664323   -0.403052
     24          7           0       -9.199457    0.931032   -0.316916
     25          6           0       -9.717289    2.140738   -0.610106
     26          6           0      -11.198446    2.147467   -1.030369
     27          6           0      -11.399830    0.833499   -1.315466
     28          6           0      -10.165424    0.065335   -0.924504
     29          6           0      -12.069166    3.312808   -1.329968
     30          6           0      -12.627153    0.156291   -2.032570
     31          6           0      -12.396590    0.030101   -3.612346
     32          7           0       -7.517100   -1.212683   -0.280937
     33          6           0       -8.625581   -1.891105   -0.619947
     34          6           0       -8.302818   -3.343354   -0.706849
     35          6           0       -6.963990   -3.324952   -0.454026
     36          6           0       -6.506741   -2.060357   -0.149469
     37          6           0       -9.209830   -4.500898   -1.173789
     38          6           0       -5.847791   -4.309744   -0.132296
     39          8           0       -5.895222   -5.444900   -0.152077
     40          6           0       -4.659949   -3.390878    0.389011
     41          6           0       -4.210495   -3.903329    1.737742
     42          8           0       -4.788748   -3.529168    2.820197
     43          8           0       -3.314455   -4.733592    1.725338
     44          6           0       -3.011422   -5.641801    2.869763
     45          6           0        2.666037   -1.223190   -1.069808
     46          6           0        4.004368   -0.697986   -0.439229
     47          6           0        4.987263    0.005033   -0.989700
     48          6           0        4.885166    0.539638   -2.348576
     49          6           0        6.397064    0.174933   -0.282694
     50          6           0        7.509405   -0.637585   -0.870272
     51          6           0        8.811303   -0.393370   -0.075718
     52          6           0       10.059099   -0.981617   -0.700121
     53          6           0       10.069679   -2.464581   -0.546246
     54          6           0       11.329414   -0.371621   -0.029838
     55          6           0       12.669872   -0.543922   -0.718453
     56          6           0       13.800523    0.047175    0.184338
     57          6           0       15.178845   -0.060652   -0.449913
     58          6           0       15.546570   -1.589659   -0.527875
     59          6           0       16.218523    0.698932    0.322778
     60          6           0       17.640690    0.674765   -0.300337
     61          6           0       18.497258    1.788163    0.455675
     62          6           0       20.063316    1.727651    0.005174
     63          6           0       20.133747    2.657951   -1.337312
     64          6           0       20.920567    2.331018    0.951628
     65          1           0       -3.814886    3.360811    1.962097
     66          1           0       -9.789177    4.432369    0.023857
     67          1           0      -10.540145   -1.937126   -1.606943
     68          1           0       -2.900065   -1.302571    2.188360
     69          1           0       -2.320899    1.479134    1.252502
     70          1           0       -1.744416    0.382257    3.535051
     71          1           0       -2.785914    1.942556    3.715167
     72          1           0       -3.222469    0.206417    4.165115
     73          1           0       -2.456290   -2.008751   -0.197750
     74          1           0       -2.241363   -0.356950   -0.772426
     75          1           0       -0.332096    0.069280    0.969121
     76          1           0       -0.576788   -1.697695    1.473962
     77          1           0       -4.088874    5.686821    0.907197
     78          1           0       -5.210318    6.840753    1.603277
     79          1           0       -4.623817    5.532446    2.726172
     80          1           0       -7.788732    6.847355    1.466421
     81          1           0       -8.724833    6.021454   -1.228963
     82          1           0       -9.283943    7.682861   -0.339285
     83          1           0      -12.463151    3.912563   -0.546070
     84          1           0      -11.631891    3.924685   -2.288904
     85          1           0      -13.096122    3.019408   -1.671884
     86          1           0      -12.558505   -0.990615   -1.755142
     87          1           0      -13.597772    0.446715   -1.749092
     88          1           0      -12.141055    0.998468   -4.088470
     89          1           0      -11.622571   -0.561528   -3.903258
     90          1           0      -13.385594   -0.313978   -3.961643
     91          1           0      -10.005819   -4.539884   -0.503138
     92          1           0       -9.570969   -4.365244   -2.344741
     93          1           0       -8.584405   -5.491714   -0.863166
     94          1           0       -3.892853   -3.799014   -0.436457
     95          1           0       -2.296758   -6.615441    2.437251
     96          1           0       -2.141166   -5.158684    3.521821
     97          1           0       -3.876757   -6.040660    3.214129
     98          1           0        2.766981   -2.304262   -1.403107
     99          1           0        2.246319   -0.396769   -1.935793
    100          1           0        3.925653   -0.965755    0.687435
    101          1           0        5.480407    1.687362   -2.208592
    102          1           0        5.416627    0.038661   -3.263481
    103          1           0        3.990651    0.444255   -2.697768
    104          1           0        6.510888    1.237817   -0.158778
    105          1           0        6.371429   -0.228711    0.587563
    106          1           0        7.220170   -1.714485   -1.027452
    107          1           0        7.768712   -0.125587   -1.815228
    108          1           0        9.045724    0.925631   -0.042507
    109          1           0        8.624255   -0.509845    0.962892
    110          1           0       10.182118   -0.745987   -1.803697
    111          1           0        9.136055   -2.946155   -0.973551
    112          1           0       10.919273   -2.929902   -1.143565
    113          1           0       10.255422   -2.868367    0.546611
    114          1           0       11.089033    0.915978    0.152557
    115          1           0       11.288594   -0.793893    1.060921
    116          1           0       12.757408   -1.663689   -1.007209
    117          1           0       12.703718   -0.306560   -1.861391
    118          1           0       13.361757    0.970947    0.374550
    119          1           0       13.933522   -0.534475    1.190144
    120          1           0       15.153433    0.245281   -1.423392
    121          1           0       14.816219   -2.315107   -0.845678
    122          1           0       16.417795   -1.721795   -1.139860
    123          1           0       15.756977   -1.853988    0.480184
    124          1           0       16.061759    2.002955    0.340125
    125          1           0       16.241985    0.321971    1.432107
    126          1           0       18.145358   -0.406750   -0.229808
    127          1           0       17.613256    0.958839   -1.501371
    128          1           0       17.635614    2.746691    0.411696
    129          1           0       18.511239    1.398616    1.601536
    130          1           0       20.252129    0.728824   -0.193424
    131          1           0       19.822477    3.591807   -1.201717
    132          1           0       21.271706    2.681090   -1.446405
    133          1           0       19.593507    2.003656   -2.114729
    134          1           0       21.090964    1.887578    2.033369
    135          1           0       21.910298    2.431615    0.514616
    136          1           0       20.708757    3.366188    1.310798
    137          1           0       -6.829351    1.722190    0.696056
    138          1           0       -7.704703   -0.210992    0.068663
 ---------------------------------------------------------------------
 Rotational constants (GHZ):      0.0618623      0.0061813      0.0058055
 Standard basis: SVP (5D, 7F)
 There are  1330 symmetry adapted cartesian basis functions of A   symmetry.
 There are  1266 symmetry adapted basis functions of A   symmetry.
  1266 basis functions,  2118 primitive gaussians,  1330 cartesian basis functions
   236 alpha electrons      236 beta electrons
       nuclear repulsion energy      8284.7956833608 Hartrees.
 NAtoms=  138 NActive=  138 NUniq=  138 SFac= 1.00D+00 NAtFMM=   60 NAOKFM=T Big=T
 Integral buffers will be    131072 words long.
 Regular integral format.
 Two-electron integral symmetry is turned on.
 One-electron integrals computed using PRISM.
 NBasis=  1266 RedAO= T EigKep=  2.97D-04  NBF=  1266
 NBsUse=  1266 1.00D-06 EigRej= -1.00D+00 NBFU=  1266
 ExpMin= 1.22D-01 ExpMax= 2.27D+03 ExpMxC= 3.41D+02 IAcc=1 IRadAn=         1 AccDes= 0.00D+00
 Harris functional with IExCor=  402 and IRadAn=       1 diagonalized for initial guess.
 HarFok:  IExCor=  402 AccDes= 0.00D+00 IRadAn=         1 IDoV= 1 UseB2=F ITyADJ=14
 ICtDFT=  3500011 ScaDFX=  1.000000  1.000000  1.000000  1.000000
 FoFCou: FMM=F IPFlag=           0 FMFlag=      100000 FMFlg1=        2001
         NFxFlg=           0 DoJE=T BraDBF=F KetDBF=T FulRan=T
         wScrn=  0.000000 ICntrl=     500 IOpCl=  0 I1Cent=   200000004 NGrid=           0
         NMat0=    1 NMatS0=      1 NMatT0=    0 NMatD0=    1 NMtDS0=    0 NMtDT0=    0
 Petite list used in FoFCou.
 Requested convergence on RMS density matrix=1.00D-08 within 128 cycles.
 Requested convergence on MAX density matrix=1.00D-06.
 Requested convergence on             energy=1.00D-06.
 No special actions if energy rises.
 Integral accuracy reduced to 1.0D-05 until final iterations.
 Initial convergence to 1.0D-05 achieved.  Increase integral accuracy.
 SCF Done:  E(RB3LYP) =  -2732.93178915     A.U. after   18 cycles
            NFock= 18  Conv=0.24D-08     -V/T= 2.0119
 DoSCS=F DFT=T ScalE2(SS,OS)=  1.000000  1.000000
 ExpMin= 1.22D-01 ExpMax= 2.27D+03 ExpMxC= 3.41D+02 IAcc=3 IRadAn=         5 AccDes= 0.00D+00
 HarFok:  IExCor=  205 AccDes= 0.00D+00 IRadAn=         5 IDoV=-2 UseB2=F ITyADJ=14
 ICtDFT= 12500011 ScaDFX=  1.000000  1.000000  1.000000  1.000000
 Range of M.O.s used for correlation:    65  1266
 NBasis=  1266 NAE=   236 NBE=   236 NFC=    64 NFV=     0
 NROrb=   1202 NOA=   172 NOB=   172 NVA=  1030 NVB=  1030

 **** Warning!!: The smallest alpha delta epsilon is  0.77809077D-01

 Would need an additional        965744300000 words for in-memory AO integral storage.
 Orbital symmetries:
       Occupied  (A) (A) (A) (A) (A) (A) (A) (A) (A) (A) (A) (A)
                 (A) (A) (A) (A) (A) (A) (A) (A) (A) (A) (A) (A)
                 (A) (A) (A) (A) (A) (A) (A) (A) (A) (A) (A) (A)
                 (A) (A) (A) (A) (A) (A) (A) (A) (A) (A) (A) (A)
                 (A) (A) (A) (A) (A) (A) (A) (A) (A) (A) (A) (A)
                 (A) (A) (A) (A) (A) (A) (A) (A) (A) (A) (A) (A)
                 (A) (A) (A) (A) (A) (A) (A) (A) (A) (A) (A) (A)
                 (A) (A) (A) (A) (A) (A) (A) (A) (A) (A) (A) (A)
                 (A) (A) (A) (A) (A) (A) (A) (A) (A) (A) (A) (A)
                 (A) (A) (A) (A) (A) (A) (A) (A) (A) (A) (A) (A)
                 (A) (A) (A) (A) (A) (A) (A) (A) (A) (A) (A) (A)
                 (A) (A) (A) (A) (A) (A) (A) (A) (A) (A) (A) (A)
                 (A) (A) (A) (A) (A) (A) (A) (A) (A) (A) (A) (A)
                 (A) (A) (A) (A) (A) (A) (A) (A) (A) (A) (A) (A)
                 (A) (A) (A) (A) (A) (A) (A) (A) (A) (A) (A) (A)
                 (A) (A) (A) (A) (A) (A) (A) (A) (A) (A) (A) (A)
                 (A) (A) (A) (A) (A) (A) (A) (A) (A) (A) (A) (A)
                 (A) (A) (A) (A) (A) (A) (A) (A) (A) (A) (A) (A)
                 (A) (A) (A) (A) (A) (A) (A) (A) (A) (A) (A) (A)
                 (A) (A) (A) (A) (A) (A) (A) (A)
       Virtual   (A) (A) (A) (A) (A) (A) (A) (A) (A) (A) (A) (A)
                 (A) (A) (A) (A) (A) (A) (A) (A) (A) (A) (A) (A)
                 (A) (A) (A) (A) (A) (A) (A) (A) (A) (A) (A) (A)
                 (A) (A) (A) (A) (A) (A) (A) (A) (A) (A) (A) (A)
                 (A) (A) (A) (A) (A) (A) (A) (A) (A) (A) (A) (A)
                 (A) (A) (A) (A) (A) (A) (A) (A) (A) (A) (A) (A)
                 (A) (A) (A) (A) (A) (A) (A) (A) (A) (A) (A) (A)
                 (A) (A) (A) (A) (A) (A) (A) (A) (A) (A) (A) (A)
                 (A) (A) (A) (A) (A) (A) (A) (A) (A) (A) (A) (A)
                 (A) (A) (A) (A) (A) (A) (A) (A) (A) (A) (A) (A)
                 (A) (A) (A) (A) (A) (A) (A) (A) (A) (A) (A) (A)
                 (A) (A) (A) (A) (A) (A) (A) (A) (A) (A) (A) (A)
                 (A) (A) (A) (A) (A) (A) (A) (A) (A) (A) (A) (A)
                 (A) (A) (A) (A) (A) (A) (A) (A) (A) (A) (A) (A)
                 (A) (A) (A) (A) (A) (A) (A) (A) (A) (A) (A) (A)
                 (A) (A) (A) (A) (A) (A) (A) (A) (A) (A) (A) (A)
                 (A) (A) (A) (A) (A) (A) (A) (A) (A) (A) (A) (A)
                 (A) (A) (A) (A) (A) (A) (A) (A) (A) (A) (A) (A)
                 (A) (A) (A) (A) (A) (A) (A) (A) (A) (A) (A) (A)
                 (A) (A) (A) (A) (A) (A) (A) (A) (A) (A) (A) (A)
                 (A) (A) (A) (A) (A) (A) (A) (A) (A) (A) (A) (A)
                 (A) (A) (A) (A) (A) (A) (A) (A) (A) (A) (A) (A)
                 (A) (A) (A) (A) (A) (A) (A) (A) (A) (A) (A) (A)
                 (A) (A) (A) (A) (A) (A) (A) (A) (A) (A) (A) (A)
                 (A) (A) (A) (A) (A) (A) (A) (A) (A) (A) (A) (A)
                 (A) (A) (A) (A) (A) (A) (A) (A) (A) (A) (A) (A)
                 (A) (A) (A) (A) (A) (A) (A) (A) (A) (A) (A) (A)
                 (A) (A) (A) (A) (A) (A) (A) (A) (A) (A) (A) (A)
                 (A) (A) (A) (A) (A) (A) (A) (A) (A) (A) (A) (A)
                 (A) (A) (A) (A) (A) (A) (A) (A) (A) (A) (A) (A)
                 (A) (A) (A) (A) (A) (A) (A) (A) (A) (A) (A) (A)
                 (A) (A) (A) (A) (A) (A) (A) (A) (A) (A) (A) (A)
                 (A) (A) (A) (A) (A) (A) (A) (A) (A) (A) (A) (A)
                 (A) (A) (A) (A) (A) (A) (A) (A) (A) (A) (A) (A)
                 (A) (A) (A) (A) (A) (A) (A) (A) (A) (A) (A) (A)
                 (A) (A) (A) (A) (A) (A) (A) (A) (A) (A) (A) (A)
                 (A) (A) (A) (A) (A) (A) (A) (A) (A) (A) (A) (A)
                 (A) (A) (A) (A) (A) (A) (A) (A) (A) (A) (A) (A)
                 (A) (A) (A) (A) (A) (A) (A) (A) (A) (A) (A) (A)
                 (A) (A) (A) (A) (A) (A) (A) (A) (A) (A) (A) (A)
                 (A) (A) (A) (A) (A) (A) (A) (A) (A) (A) (A) (A)
                 (A) (A) (A) (A) (A) (A) (A) (A) (A) (A) (A) (A)
                 (A) (A) (A) (A) (A) (A) (A) (A) (A) (A) (A) (A)
                 (A) (A) (A) (A) (A) (A) (A) (A) (A) (A) (A) (A)
                 (A) (A) (A) (A) (A) (A) (A) (A) (A) (A) (A) (A)
                 (A) (A) (A) (A) (A) (A) (A) (A) (A) (A) (A) (A)
                 (A) (A) (A) (A) (A) (A) (A) (A) (A) (A) (A) (A)
                 (A) (A) (A) (A) (A) (A) (A) (A) (A) (A) (A) (A)
                 (A) (A) (A) (A) (A) (A) (A) (A) (A) (A) (A) (A)
                 (A) (A) (A) (A) (A) (A) (A) (A) (A) (A) (A) (A)
                 (A) (A) (A) (A) (A) (A) (A) (A) (A) (A) (A) (A)
                 (A) (A) (A) (A) (A) (A) (A) (A) (A) (A) (A) (A)
                 (A) (A) (A) (A) (A) (A) (A) (A) (A) (A) (A) (A)
                 (A) (A) (A) (A) (A) (A) (A) (A) (A) (A) (A) (A)
                 (A) (A) (A) (A) (A) (A) (A) (A) (A) (A) (A) (A)
                 (A) (A) (A) (A) (A) (A) (A) (A) (A) (A) (A) (A)
                 (A) (A) (A) (A) (A) (A) (A) (A) (A) (A) (A) (A)
                 (A) (A) (A) (A) (A) (A) (A) (A) (A) (A) (A) (A)
                 (A) (A) (A) (A) (A) (A) (A) (A) (A) (A) (A) (A)
                 (A) (A) (A) (A) (A) (A) (A) (A) (A) (A) (A) (A)
                 (A) (A) (A) (A) (A) (A) (A) (A) (A) (A) (A) (A)
                 (A) (A) (A) (A) (A) (A) (A) (A) (A) (A) (A) (A)
                 (A) (A) (A) (A) (A) (A) (A) (A) (A) (A) (A) (A)
                 (A) (A) (A) (A) (A) (A) (A) (A) (A) (A) (A) (A)
                 (A) (A) (A) (A) (A) (A) (A) (A) (A) (A) (A) (A)
                 (A) (A) (A) (A) (A) (A) (A) (A) (A) (A) (A) (A)
                 (A) (A) (A) (A) (A) (A) (A) (A) (A) (A) (A) (A)
                 (A) (A) (A) (A) (A) (A) (A) (A) (A) (A) (A) (A)
                 (A) (A) (A) (A) (A) (A) (A) (A) (A) (A) (A) (A)
                 (A) (A) (A) (A) (A) (A) (A) (A) (A) (A) (A) (A)
                 (A) (A) (A) (A) (A) (A) (A) (A) (A) (A) (A) (A)
                 (A) (A) (A) (A) (A) (A) (A) (A) (A) (A) (A) (A)
                 (A) (A) (A) (A) (A) (A) (A) (A) (A) (A) (A) (A)
                 (A) (A) (A) (A) (A) (A) (A) (A) (A) (A) (A) (A)
                 (A) (A) (A) (A) (A) (A) (A) (A) (A) (A) (A) (A)
                 (A) (A) (A) (A) (A) (A) (A) (A) (A) (A) (A) (A)
                 (A) (A) (A) (A) (A) (A) (A) (A) (A) (A) (A) (A)
                 (A) (A) (A) (A) (A) (A) (A) (A) (A) (A) (A) (A)
                 (A) (A) (A) (A) (A) (A) (A) (A) (A) (A) (A) (A)
                 (A) (A) (A) (A) (A) (A) (A) (A) (A) (A) (A) (A)
                 (A) (A) (A) (A) (A) (A) (A) (A) (A) (A) (A) (A)
                 (A) (A) (A) (A) (A) (A) (A) (A) (A) (A) (A) (A)
                 (A) (A) (A) (A) (A) (A) (A) (A) (A) (A) (A) (A)
                 (A) (A) (A) (A) (A) (A) (A) (A) (A) (A) (A) (A)
                 (A) (A) (A) (A) (A) (A) (A) (A) (A) (A) (A) (A)
                 (A) (A) (A) (A) (A) (A) (A) (A) (A) (A)
     8 initial guesses have been made.
 Convergence on wavefunction:    0.001000000000000
 Iteration     1 Dimension     8 NMult     0 NNew      8
 CISAX will form     8 AO SS matrices at one time.
 Iteration     2 Dimension    12 NMult     8 NNew      4
 Iteration     3 Dimension    16 NMult    12 NNew      4
 Iteration     4 Dimension    20 NMult    16 NNew      4
 Iteration     5 Dimension    24 NMult    20 NNew      4
