 Entering Gaussian System, Link 0=g16
 Input=Geometria-376-.com
 Output=Geometria-376-.log
 Initial command:
 /usr/local/g09/l1.exe "/home/padawan/israel-mol/pheophytin/spectra/abs/Gau-111824.inp" -scrdir="/home/padawan/israel-mol/pheophytin/spectra/abs/"
 Entering Link 1 = /usr/local/g09/l1.exe PID=    111826.
  
 Copyright (c) 1988,1990,1992,1993,1995,1998,2003,2009,2013,
            Gaussian, Inc.  All Rights Reserved.
  
 This is part of the Gaussian(R) 09 program.  It is based on
 the Gaussian(R) 03 system (copyright 2003, Gaussian, Inc.),
 the Gaussian(R) 98 system (copyright 1998, Gaussian, Inc.),
 the Gaussian(R) 94 system (copyright 1995, Gaussian, Inc.),
 the Gaussian 92(TM) system (copyright 1992, Gaussian, Inc.),
 the Gaussian 90(TM) system (copyright 1990, Gaussian, Inc.),
 the Gaussian 88(TM) system (copyright 1988, Gaussian, Inc.),
 the Gaussian 86(TM) system (copyright 1986, Carnegie Mellon
 University), and the Gaussian 82(TM) system (copyright 1983,
 Carnegie Mellon University). Gaussian is a federally registered
 trademark of Gaussian, Inc.
  
 This software contains proprietary and confidential information,
 including trade secrets, belonging to Gaussian, Inc.
  
 This software is provided under written license and may be
 used, copied, transmitted, or stored only in accord with that
 written license.
  
 The following legend is applicable only to US Government
 contracts under FAR:
  
                    RESTRICTED RIGHTS LEGEND
  
 Use, reproduction and disclosure by the US Government is
 subject to restrictions as set forth in subparagraphs (a)
 and (c) of the Commercial Computer Software - Restricted
 Rights clause in FAR 52.227-19.
  
 Gaussian, Inc.
 340 Quinnipiac St., Bldg. 40, Wallingford CT 06492
  
  
 ---------------------------------------------------------------
 Warning -- This program may not be used in any manner that
 competes with the business of Gaussian, Inc. or will provide
 assistance to any competitor of Gaussian, Inc.  The licensee
 of this program is prohibited from giving any competitor of
 Gaussian, Inc. access to this program.  By using this program,
 the user acknowledges that Gaussian, Inc. is engaged in the
 business of creating and licensing software in the field of
 computational chemistry and represents and warrants to the
 licensee that it is not a competitor of Gaussian, Inc. and that
 it will not use this program in any manner prohibited above.
 ---------------------------------------------------------------
  

 Cite this work as:
 Gaussian 09, Revision D.01,
 M. J. Frisch, G. W. Trucks, H. B. Schlegel, G. E. Scuseria, 
 M. A. Robb, J. R. Cheeseman, G. Scalmani, V. Barone, B. Mennucci, 
 G. A. Petersson, H. Nakatsuji, M. Caricato, X. Li, H. P. Hratchian, 
 A. F. Izmaylov, J. Bloino, G. Zheng, J. L. Sonnenberg, M. Hada, 
 M. Ehara, K. Toyota, R. Fukuda, J. Hasegawa, M. Ishida, T. Nakajima, 
 Y. Honda, O. Kitao, H. Nakai, T. Vreven, J. A. Montgomery, Jr., 
 J. E. Peralta, F. Ogliaro, M. Bearpark, J. J. Heyd, E. Brothers, 
 K. N. Kudin, V. N. Staroverov, T. Keith, R. Kobayashi, J. Normand, 
 K. Raghavachari, A. Rendell, J. C. Burant, S. S. Iyengar, J. Tomasi, 
 M. Cossi, N. Rega, J. M. Millam, M. Klene, J. E. Knox, J. B. Cross, 
 V. Bakken, C. Adamo, J. Jaramillo, R. Gomperts, R. E. Stratmann, 
 O. Yazyev, A. J. Austin, R. Cammi, C. Pomelli, J. W. Ochterski, 
 R. L. Martin, K. Morokuma, V. G. Zakrzewski, G. A. Voth, 
 P. Salvador, J. J. Dannenberg, S. Dapprich, A. D. Daniels, 
 O. Farkas, J. B. Foresman, J. V. Ortiz, J. Cioslowski, 
 and D. J. Fox, Gaussian, Inc., Wallingford CT, 2013.
 
 ******************************************
 Gaussian 09:  ES64L-G09RevD.01 24-Apr-2013
                 3-Aug-2019 
 ******************************************
 %nproc=3
 Will use up to    3 processors via shared memory.
 %Mem=2GB
 --------------------------
 # td=(NStates=1) B3LYP/SVP
 --------------------------
 1/38=1/1;
 2/12=2,17=6,18=5,40=1/2;
 3/5=18,7=101,11=9,16=1,25=1,30=1,74=-5/1,2,8,3;
 4//1;
 5/5=2,38=5/2;
 8/6=1,10=1,108=1/1;
 9/41=1,42=1,70=2/14;
 6/7=2,8=2,9=2,10=2/1;
 99/5=1,9=1/99;
 --
 TD
 --
 Symbolic Z-matrix:
 Charge =  0 Multiplicity = 1
 6                    -5.12179  -2.00788   0.37818 
 6                    -4.73883   2.74513   1.44394 
 6                    -9.381     3.41982  -0.23278 
 6                    -9.75318  -1.36736  -0.988 
 7                    -5.24676   0.37779   1.00672 
 6                    -4.55212  -0.74616   0.8197 
 6                    -3.0941   -0.64025   1.33333 
 6                    -3.15043   0.80303   1.92262 
 6                    -4.41488   1.4009    1.38526 
 6                    -2.98081   0.86294   3.37505 
 6                    -2.09108  -0.74415   0.18374 
 6                    -0.55476  -0.79194   0.69211 
 6                     0.39457  -1.20256  -0.42892 
 8                     0.05667  -1.67596  -1.52308 
 8                     1.68617  -0.98933  -0.09835 
 7                    -7.10906   2.85649   0.57248 
 6                    -5.959     3.4474    1.11488 
 6                    -6.25457   4.75844   1.13989 
 6                    -7.57836   4.9362    0.67598 
 6                    -8.10048   3.67491   0.25842 
 6                    -5.2893    5.81043   1.69507 
 6                    -8.18362   6.2827    0.59148 
 6                    -8.97183   6.76113  -0.35099 
 7                    -9.25968   0.98914  -0.395 
 6                    -9.94964   2.15617  -0.62543 
 6                    -11.37313   1.98621  -1.09483 
 6                    -11.40039   0.61668  -1.36088 
 6                    -10.00586   0.02795  -0.86806 
 6                    -12.22519   3.02701  -1.23766 
 6                    -12.54314  -0.21817  -1.825 
 6                    -12.48169  -0.55265  -3.4111 
 7                    -7.47149  -1.28326  -0.17199 
 6                    -8.55769  -2.09141  -0.71224 
 6                    -8.13347  -3.37207  -0.76255 
 6                    -6.73375  -3.41337  -0.39747 
 6                    -6.45044  -2.14538  -0.0334 
 6                    -8.95292  -4.51559  -1.23266 
 6                    -5.69666  -4.31112  -0.06837 
 8                    -5.51776  -5.48675  -0.19385 
 6                    -4.46327  -3.38573   0.45418 
 6                    -3.82813  -3.78388   1.71094 
 8                    -4.00649  -3.28673   2.79723 
 8                    -3.10549  -4.94057   1.47788 
 6                    -2.53505  -5.44178   2.6552 
 6                     2.67708  -1.21869  -1.12402 
 6                     4.02965  -0.71276  -0.58256 
 6                     4.91618   0.0401   -1.30283 
 6                     4.78219   0.38709  -2.80711 
 6                     6.26683   0.54802  -0.61479 
 6                     7.49934  -0.38241  -1.12312 
 6                     8.72822  -0.06969  -0.18717 
 6                     10.0638  -0.82532  -0.57761 
 6                     9.99481  -2.40618  -0.4056 
 6                     11.23634  -0.27891   0.23034 
 6                     12.66451  -0.66078  -0.32044 
 6                     13.80031   0.06812   0.35855 
 6                     15.14507  -0.29591  -0.07396 
 6                     15.66263  -1.80637   0.21161 
 6                     16.31852   0.714     0.42982 
 6                     17.67521   0.663    -0.31146 
 6                     18.60923   1.78632   0.37891 
 6                     19.97103   1.71162  -0.15348 
 6                     20.01524   2.00424  -1.66167 
 6                     20.82175   2.82863   0.57053 
 1                    -3.90742   3.61238   1.72084 
 1                    -9.94581   4.34806  -0.33961 
 1                    -10.62205  -1.94384  -1.42153 
 1                    -2.95074  -1.28581   2.30048 
 1                    -2.27342   1.49287   1.66657 
 1                    -2.1401    0.51553   3.78908 
 1                    -3.07704   1.84067   3.86409 
 1                    -3.73007   0.02248   3.96424 
 1                    -2.12547  -1.75567  -0.37791 
 1                    -2.06607   0.14231  -0.71511 
 1                    -0.14099   0.20458   1.00212 
 1                    -0.18684  -1.48019   1.57039 
 1                    -4.45528   6.03522   0.85933 
 1                    -5.74526   6.8826    1.91889 
 1                    -4.75472   5.50742   2.71112 
 1                    -7.96354   7.04762   1.32172 
 1                    -9.13237   6.09807  -1.35796 
 1                    -9.23025   7.90045  -0.42052 
 1                    -12.00119   3.68221  -0.26358 
 1                    -11.96053   3.6608   -2.27332 
 1                    -13.32909   2.46016  -1.2352 
 1                    -12.5185  -1.15335  -1.43082 
 1                    -13.53459   0.26443  -1.74606 
 1                    -11.99303   0.41645  -3.87088 
 1                    -11.57436  -1.18902  -3.60279 
 1                    -13.60339  -0.6528   -3.97352 
 1                    -10.07253  -4.56915  -0.75441 
 1                    -9.09195  -4.43361  -2.50508 
 1                    -8.67299  -5.35885  -0.98197 
 1                    -3.76661  -3.45399  -0.32552 
 1                    -1.93163  -6.50886   2.45113 
 1                    -2.02536  -4.79816   3.28106 
 1                    -3.23888  -5.77287   3.39671 
 1                     2.66021  -2.15187  -1.48264 
 1                     2.23597  -0.43402  -1.80412 
 1                     4.02521  -0.86787   0.49983 
 1                     5.2098    1.42381  -3.10736 
 1                     5.17532  -0.4063   -3.57678 
 1                     3.81555   0.49402  -3.23669 
 1                     6.5423    1.75735  -0.80077 
 1                     6.13062   0.4471    0.3741 
 1                     6.9442   -1.45488  -0.95806 
 1                     7.72244  -0.2805   -2.17664 
 1                     9.11673   1.08686  -0.32506 
 1                     8.62603  -0.13917   0.85439 
 1                     10.28221  -0.67665  -1.78231 
 1                     9.19763  -2.96147  -0.92127 
 1                     10.9784  -2.93101  -0.59873 
 1                     9.90574  -2.78668   0.58631 
 1                     10.88067   0.93603   0.21975 
 1                     11.19725  -0.46368   1.32572 
 1                     13.00862  -1.82602  -0.37442 
 1                     12.84521  -0.30528  -1.37426 
 1                     13.44098   1.10059   0.4454 
 1                     13.84948  -0.07784   1.55724 
 1                     15.10337  -0.18979  -1.21995 
 1                     15.11062  -2.59576  -0.53184 
 1                     16.7013  -1.95452  -0.22646 
 1                     15.34836  -2.12756   1.31464 
 1                     15.91585   1.70913   0.26419 
 1                     16.43406   0.63081   1.64487 
 1                     18.11531  -0.30675  -0.18907 
 1                     17.69049   0.78346  -1.33347 
 1                     18.29327   2.83451   0.07944 
 1                     18.57182   1.70598   1.50904 
 1                     20.36665   0.76405   0.08443 
 1                     19.89794   3.24203  -1.84948 
 1                     21.0158   1.94929  -2.21865 
 1                     19.22816   1.35126  -2.21065 
 1                     20.89953   2.84731   1.70843 
 1                     21.90179   2.98788   0.31356 
 1                     20.43918   3.96755   0.23983 
 1                    -7.05635   1.85188   0.30441 
 1                    -7.60453  -0.30323   0.0476 
 
 Stoichiometry    C55H74N4O5
 Framework group  C1[X(C55H74N4O5)]
 Deg. of freedom   408
 Full point group                 C1      NOp   1
 Largest Abelian subgroup         C1      NOp   1
 Largest concise Abelian subgroup C1      NOp   1
                         Standard orientation:                         
 ---------------------------------------------------------------------
 Center     Atomic      Atomic             Coordinates (Angstroms)
 Number     Number       Type             X           Y           Z
 ---------------------------------------------------------------------
      1          6           0       -5.120693   -2.010015    0.397890
      2          6           0       -4.741811    2.752094    1.423726
      3          6           0       -9.384705    3.408641   -0.258170
      4          6           0       -9.752760   -1.385027   -0.973193
      5          7           0       -5.247704    0.380727    1.006414
      6          6           0       -4.552095   -0.744144    0.828757
      7          6           0       -3.094121   -0.632655    1.341351
      8          6           0       -3.151666    0.815465    1.918528
      9          6           0       -4.416685    1.407703    1.376290
     10          6           0       -2.981974    0.887703    3.370383
     11          6           0       -2.091109   -0.745315    0.192579
     12          6           0       -0.554702   -0.787490    0.701196
     13          6           0        0.394895   -1.206663   -0.416444
     14          8           0        0.057312   -1.689518   -1.506557
     15          8           0        1.686331   -0.989537   -0.087790
     16          7           0       -7.112203    2.854071    0.551576
     17          6           0       -5.962617    3.450511    1.088903
     18          6           0       -6.259334    4.761458    1.102945
     19          6           0       -7.583317    4.934164    0.637686
     20          6           0       -8.104371    3.668954    0.230755
     21          6           0       -5.294941    5.818905    1.649198
     22          6           0       -8.189762    6.279378    0.541948
     23          6           0       -8.978469    6.749193   -0.404423
     24          7           0       -9.261276    0.976787   -0.400017
     25          6           0       -9.952272    2.141242   -0.640160
     26          6           0      -11.375654    1.966110   -1.107990
     27          6           0      -11.401740    0.594371   -1.362544
     28          6           0      -10.006652    0.011019   -0.864931
     29          6           0      -12.228638    3.004929   -1.259457
     30          6           0      -12.543795   -0.245344   -1.819546
     31          6           0      -12.482181   -0.593050   -3.402787
     32          7           0       -7.471069   -1.292093   -0.158120
     33          6           0       -8.556607   -2.105693   -0.691485
     34          6           0       -8.131268   -3.386364   -0.731089
     35          6           0       -6.731485   -3.423371   -0.365802
     36          6           0       -6.449253   -2.152125   -0.012402
     37          6           0       -8.949758   -4.534500   -1.191524
     38          6           0       -5.693579   -4.317420   -0.029280
     39          8           0       -5.513665   -5.493906   -0.144916
     40          6           0       -4.460964   -3.386605    0.485381
     41          6           0       -3.825362   -3.773651    1.745370
     42          8           0       -4.004066   -3.267562    2.827470
     43          8           0       -3.101732   -4.931618    1.521951
     44          6           0       -2.530753   -5.422445    2.703379
     45          6           0        2.677356   -1.226621   -1.111585
     46          6           0        4.029524   -0.714991   -0.574513
     47          6           0        4.915342    0.032576   -1.301155
     48          6           0        4.780915    0.366829   -2.808273
     49          6           0        6.265599    0.547436   -0.617517
     50          6           0        7.498883   -0.386151   -1.118140
     51          6           0        8.727571   -0.064516   -0.184955
     52          6           0       10.063772   -0.822219   -0.569166
     53          6           0        9.996180   -2.401649   -0.383906
     54          6           0       11.235901   -0.268034    0.234065
     55          6           0       12.664360   -0.653257   -0.313623
     56          6           0       13.799578    0.082305    0.359123
     57          6           0       15.144625   -0.284162   -0.070442
     58          6           0       15.663524   -1.791720    0.227738
     59          6           0       16.317231    0.730960    0.424749
     60          6           0       17.673903    0.674937   -0.316198
     61          6           0       18.606996    1.804827    0.364638
     62          6           0       19.968813    1.726854   -0.167234
     63          6           0       20.012644    2.006855   -1.677829
     64          6           0       20.818621    2.850644    0.547311
     65          1           0       -3.911132    3.622364    1.693266
     66          1           0       -9.950342    4.335458   -0.372721
     67          1           0      -10.621155   -1.965885   -1.401796
     68          1           0       -2.950112   -1.269955    2.313869
     69          1           0       -2.275281    1.503902    1.656621
     70          1           0       -2.140932    0.544507    3.787237
     71          1           0       -3.079026    1.869410    3.851218
     72          1           0       -3.730454    0.051551    3.966673
     73          1           0       -2.124657   -1.761534   -0.360566
     74          1           0       -2.066950    0.133604   -0.713669
     75          1           0       -0.141781    0.211958    1.002802
     76          1           0       -0.186106   -1.468032    1.585185
     77          1           0       -4.461189    6.037411    0.811524
     78          1           0       -5.751821    6.892521    1.864063
     79          1           0       -4.760014    5.524894    2.667698
     80          1           0       -7.970297    7.050588    1.265735
     81          1           0       -9.138517    6.077577   -1.405784
     82          1           0       -9.237896    7.887666   -0.483484
     83          1           0      -12.005133    3.668465   -0.290932
     84          1           0      -11.964619    3.630244   -2.300418
     85          1           0      -13.332043    2.437156   -1.252145
     86          1           0      -12.518305   -1.177164   -1.417536
     87          1           0      -13.535659    0.237038   -1.744558
     88          1           0      -11.994416    0.372585   -3.870726
     89          1           0      -11.574315   -1.230209   -3.589218
     90          1           0      -13.603839   -0.698900   -3.964251
     91          1           0      -10.069286   -4.585023   -0.712735
     92          1           0       -9.088972   -4.463312   -2.464569
     93          1           0       -8.669073   -5.375385   -0.933792
     94          1           0       -3.764304   -3.460793   -0.293791
     95          1           0       -1.926421   -6.490662    2.508208
     96          1           0       -2.021577   -4.773154    3.323779
     97          1           0       -3.234229   -5.747921    3.447702
     98          1           0        2.661274   -2.162796   -1.462370
     99          1           0        2.235501   -0.448072   -1.798201
    100          1           0        4.025310   -0.861022    0.509138
    101          1           0        5.207597    1.401374   -3.117241
    102          1           0        5.174682   -0.432646   -3.571301
    103          1           0        3.814150    0.469308   -3.238652
    104          1           0        6.539997    1.755404   -0.813655
    105          1           0        6.129563    0.454694    0.372192
    106          1           0        6.944697   -1.457683   -0.944040
    107          1           0        7.721806   -0.292874   -2.172501
    108          1           0        9.115049    1.091175   -0.332577
    109          1           0        8.625520   -0.125347    0.857156
    110          1           0       10.281954   -0.683462   -1.775097
    111          1           0        9.199448   -2.961941   -0.894830
    112          1           0       10.980220   -2.927219   -0.572719
    113          1           0        9.907526   -2.773893    0.611168
    114          1           0       10.879172    0.946467    0.213320
    115          1           0       11.197063   -0.443647    1.330960
    116          1           0       13.009483   -1.818610   -0.357867
    117          1           0       12.844664   -0.306446   -1.370405
    118          1           0       13.439348    1.115152    0.437346
    119          1           0       13.848977   -0.053561    1.558994
    120          1           0       15.102735   -0.187688   -1.217280
    121          1           0       15.112144   -2.587801   -0.509022
    122          1           0       16.702295   -1.942628   -0.209170
    123          1           0       15.349633   -2.103924    1.333449
    124          1           0       15.913675    1.724315    0.250813
    125          1           0       16.432942    0.658069    1.640439
    126          1           0       18.114863   -0.293371   -0.185726
    127          1           0       17.688993    0.786839   -1.339190
    128          1           0       18.290095    2.850189    0.056424
    129          1           0       18.569749    1.733925    1.495405
    130          1           0       20.365287    0.781664    0.078580
    131          1           0       19.894238    3.242929   -1.875992
    132          1           0       21.013201    1.948119   -2.234420
    133          1           0       19.226085    1.348610   -2.221242
    134          1           0       20.896471    2.878924    1.685010
    135          1           0       21.898498    3.008674    0.288913
    136          1           0       20.435025    3.986412    0.207112
    137          1           0       -7.058637    1.847297    0.291938
    138          1           0       -7.604955   -0.310374    0.053258
 ---------------------------------------------------------------------
 Rotational constants (GHZ):      0.0618822      0.0061873      0.0058116
 Standard basis: SVP (5D, 7F)
 There are  1330 symmetry adapted cartesian basis functions of A   symmetry.
 There are  1266 symmetry adapted basis functions of A   symmetry.
  1266 basis functions,  2118 primitive gaussians,  1330 cartesian basis functions
   236 alpha electrons      236 beta electrons
       nuclear repulsion energy      8270.3323879844 Hartrees.
 NAtoms=  138 NActive=  138 NUniq=  138 SFac= 1.00D+00 NAtFMM=   60 NAOKFM=T Big=T
 Integral buffers will be    131072 words long.
 Regular integral format.
 Two-electron integral symmetry is turned on.
 One-electron integrals computed using PRISM.
 NBasis=  1266 RedAO= T EigKep=  2.49D-04  NBF=  1266
 NBsUse=  1266 1.00D-06 EigRej= -1.00D+00 NBFU=  1266
 ExpMin= 1.22D-01 ExpMax= 2.27D+03 ExpMxC= 3.41D+02 IAcc=1 IRadAn=         1 AccDes= 0.00D+00
 Harris functional with IExCor=  402 and IRadAn=       1 diagonalized for initial guess.
 HarFok:  IExCor=  402 AccDes= 0.00D+00 IRadAn=         1 IDoV= 1 UseB2=F ITyADJ=14
 ICtDFT=  3500011 ScaDFX=  1.000000  1.000000  1.000000  1.000000
 FoFCou: FMM=F IPFlag=           0 FMFlag=      100000 FMFlg1=        2001
         NFxFlg=           0 DoJE=T BraDBF=F KetDBF=T FulRan=T
         wScrn=  0.000000 ICntrl=     500 IOpCl=  0 I1Cent=   200000004 NGrid=           0
         NMat0=    1 NMatS0=      1 NMatT0=    0 NMatD0=    1 NMtDS0=    0 NMtDT0=    0
 Petite list used in FoFCou.
 Requested convergence on RMS density matrix=1.00D-08 within 128 cycles.
 Requested convergence on MAX density matrix=1.00D-06.
 Requested convergence on             energy=1.00D-06.
 No special actions if energy rises.
 Integral accuracy reduced to 1.0D-05 until final iterations.
 Initial convergence to 1.0D-05 achieved.  Increase integral accuracy.
 SCF Done:  E(RB3LYP) =  -2732.99017675     A.U. after   17 cycles
            NFock= 17  Conv=0.39D-08     -V/T= 2.0123
 DoSCS=F DFT=T ScalE2(SS,OS)=  1.000000  1.000000
 ExpMin= 1.22D-01 ExpMax= 2.27D+03 ExpMxC= 3.41D+02 IAcc=3 IRadAn=         5 AccDes= 0.00D+00
 HarFok:  IExCor=  205 AccDes= 0.00D+00 IRadAn=         5 IDoV=-2 UseB2=F ITyADJ=14
 ICtDFT= 12500011 ScaDFX=  1.000000  1.000000  1.000000  1.000000
 Range of M.O.s used for correlation:    65  1266
 NBasis=  1266 NAE=   236 NBE=   236 NFC=    64 NFV=     0
 NROrb=   1202 NOA=   172 NOB=   172 NVA=  1030 NVB=  1030

 **** Warning!!: The smallest alpha delta epsilon is  0.79473501D-01

 Would need an additional        965744300000 words for in-memory AO integral storage.
 Orbital symmetries:
       Occupied  (A) (A) (A) (A) (A) (A) (A) (A) (A) (A) (A) (A)
                 (A) (A) (A) (A) (A) (A) (A) (A) (A) (A) (A) (A)
                 (A) (A) (A) (A) (A) (A) (A) (A) (A) (A) (A) (A)
                 (A) (A) (A) (A) (A) (A) (A) (A) (A) (A) (A) (A)
                 (A) (A) (A) (A) (A) (A) (A) (A) (A) (A) (A) (A)
                 (A) (A) (A) (A) (A) (A) (A) (A) (A) (A) (A) (A)
                 (A) (A) (A) (A) (A) (A) (A) (A) (A) (A) (A) (A)
                 (A) (A) (A) (A) (A) (A) (A) (A) (A) (A) (A) (A)
                 (A) (A) (A) (A) (A) (A) (A) (A) (A) (A) (A) (A)
                 (A) (A) (A) (A) (A) (A) (A) (A) (A) (A) (A) (A)
                 (A) (A) (A) (A) (A) (A) (A) (A) (A) (A) (A) (A)
                 (A) (A) (A) (A) (A) (A) (A) (A) (A) (A) (A) (A)
                 (A) (A) (A) (A) (A) (A) (A) (A) (A) (A) (A) (A)
                 (A) (A) (A) (A) (A) (A) (A) (A) (A) (A) (A) (A)
                 (A) (A) (A) (A) (A) (A) (A) (A) (A) (A) (A) (A)
                 (A) (A) (A) (A) (A) (A) (A) (A) (A) (A) (A) (A)
                 (A) (A) (A) (A) (A) (A) (A) (A) (A) (A) (A) (A)
                 (A) (A) (A) (A) (A) (A) (A) (A) (A) (A) (A) (A)
                 (A) (A) (A) (A) (A) (A) (A) (A) (A) (A) (A) (A)
                 (A) (A) (A) (A) (A) (A) (A) (A)
       Virtual   (A) (A) (A) (A) (A) (A) (A) (A) (A) (A) (A) (A)
                 (A) (A) (A) (A) (A) (A) (A) (A) (A) (A) (A) (A)
                 (A) (A) (A) (A) (A) (A) (A) (A) (A) (A) (A) (A)
                 (A) (A) (A) (A) (A) (A) (A) (A) (A) (A) (A) (A)
                 (A) (A) (A) (A) (A) (A) (A) (A) (A) (A) (A) (A)
                 (A) (A) (A) (A) (A) (A) (A) (A) (A) (A) (A) (A)
                 (A) (A) (A) (A) (A) (A) (A) (A) (A) (A) (A) (A)
                 (A) (A) (A) (A) (A) (A) (A) (A) (A) (A) (A) (A)
                 (A) (A) (A) (A) (A) (A) (A) (A) (A) (A) (A) (A)
                 (A) (A) (A) (A) (A) (A) (A) (A) (A) (A) (A) (A)
                 (A) (A) (A) (A) (A) (A) (A) (A) (A) (A) (A) (A)
                 (A) (A) (A) (A) (A) (A) (A) (A) (A) (A) (A) (A)
                 (A) (A) (A) (A) (A) (A) (A) (A) (A) (A) (A) (A)
                 (A) (A) (A) (A) (A) (A) (A) (A) (A) (A) (A) (A)
                 (A) (A) (A) (A) (A) (A) (A) (A) (A) (A) (A) (A)
                 (A) (A) (A) (A) (A) (A) (A) (A) (A) (A) (A) (A)
                 (A) (A) (A) (A) (A) (A) (A) (A) (A) (A) (A) (A)
                 (A) (A) (A) (A) (A) (A) (A) (A) (A) (A) (A) (A)
                 (A) (A) (A) (A) (A) (A) (A) (A) (A) (A) (A) (A)
                 (A) (A) (A) (A) (A) (A) (A) (A) (A) (A) (A) (A)
                 (A) (A) (A) (A) (A) (A) (A) (A) (A) (A) (A) (A)
                 (A) (A) (A) (A) (A) (A) (A) (A) (A) (A) (A) (A)
                 (A) (A) (A) (A) (A) (A) (A) (A) (A) (A) (A) (A)
                 (A) (A) (A) (A) (A) (A) (A) (A) (A) (A) (A) (A)
                 (A) (A) (A) (A) (A) (A) (A) (A) (A) (A) (A) (A)
                 (A) (A) (A) (A) (A) (A) (A) (A) (A) (A) (A) (A)
                 (A) (A) (A) (A) (A) (A) (A) (A) (A) (A) (A) (A)
                 (A) (A) (A) (A) (A) (A) (A) (A) (A) (A) (A) (A)
                 (A) (A) (A) (A) (A) (A) (A) (A) (A) (A) (A) (A)
                 (A) (A) (A) (A) (A) (A) (A) (A) (A) (A) (A) (A)
                 (A) (A) (A) (A) (A) (A) (A) (A) (A) (A) (A) (A)
                 (A) (A) (A) (A) (A) (A) (A) (A) (A) (A) (A) (A)
                 (A) (A) (A) (A) (A) (A) (A) (A) (A) (A) (A) (A)
                 (A) (A) (A) (A) (A) (A) (A) (A) (A) (A) (A) (A)
                 (A) (A) (A) (A) (A) (A) (A) (A) (A) (A) (A) (A)
                 (A) (A) (A) (A) (A) (A) (A) (A) (A) (A) (A) (A)
                 (A) (A) (A) (A) (A) (A) (A) (A) (A) (A) (A) (A)
                 (A) (A) (A) (A) (A) (A) (A) (A) (A) (A) (A) (A)
                 (A) (A) (A) (A) (A) (A) (A) (A) (A) (A) (A) (A)
                 (A) (A) (A) (A) (A) (A) (A) (A) (A) (A) (A) (A)
                 (A) (A) (A) (A) (A) (A) (A) (A) (A) (A) (A) (A)
                 (A) (A) (A) (A) (A) (A) (A) (A) (A) (A) (A) (A)
                 (A) (A) (A) (A) (A) (A) (A) (A) (A) (A) (A) (A)
                 (A) (A) (A) (A) (A) (A) (A) (A) (A) (A) (A) (A)
                 (A) (A) (A) (A) (A) (A) (A) (A) (A) (A) (A) (A)
                 (A) (A) (A) (A) (A) (A) (A) (A) (A) (A) (A) (A)
                 (A) (A) (A) (A) (A) (A) (A) (A) (A) (A) (A) (A)
                 (A) (A) (A) (A) (A) (A) (A) (A) (A) (A) (A) (A)
                 (A) (A) (A) (A) (A) (A) (A) (A) (A) (A) (A) (A)
                 (A) (A) (A) (A) (A) (A) (A) (A) (A) (A) (A) (A)
                 (A) (A) (A) (A) (A) (A) (A) (A) (A) (A) (A) (A)
                 (A) (A) (A) (A) (A) (A) (A) (A) (A) (A) (A) (A)
                 (A) (A) (A) (A) (A) (A) (A) (A) (A) (A) (A) (A)
                 (A) (A) (A) (A) (A) (A) (A) (A) (A) (A) (A) (A)
                 (A) (A) (A) (A) (A) (A) (A) (A) (A) (A) (A) (A)
                 (A) (A) (A) (A) (A) (A) (A) (A) (A) (A) (A) (A)
                 (A) (A) (A) (A) (A) (A) (A) (A) (A) (A) (A) (A)
                 (A) (A) (A) (A) (A) (A) (A) (A) (A) (A) (A) (A)
                 (A) (A) (A) (A) (A) (A) (A) (A) (A) (A) (A) (A)
                 (A) (A) (A) (A) (A) (A) (A) (A) (A) (A) (A) (A)
                 (A) (A) (A) (A) (A) (A) (A) (A) (A) (A) (A) (A)
                 (A) (A) (A) (A) (A) (A) (A) (A) (A) (A) (A) (A)
                 (A) (A) (A) (A) (A) (A) (A) (A) (A) (A) (A) (A)
                 (A) (A) (A) (A) (A) (A) (A) (A) (A) (A) (A) (A)
                 (A) (A) (A) (A) (A) (A) (A) (A) (A) (A) (A) (A)
                 (A) (A) (A) (A) (A) (A) (A) (A) (A) (A) (A) (A)
                 (A) (A) (A) (A) (A) (A) (A) (A) (A) (A) (A) (A)
                 (A) (A) (A) (A) (A) (A) (A) (A) (A) (A) (A) (A)
                 (A) (A) (A) (A) (A) (A) (A) (A) (A) (A) (A) (A)
                 (A) (A) (A) (A) (A) (A) (A) (A) (A) (A) (A) (A)
                 (A) (A) (A) (A) (A) (A) (A) (A) (A) (A) (A) (A)
                 (A) (A) (A) (A) (A) (A) (A) (A) (A) (A) (A) (A)
                 (A) (A) (A) (A) (A) (A) (A) (A) (A) (A) (A) (A)
                 (A) (A) (A) (A) (A) (A) (A) (A) (A) (A) (A) (A)
                 (A) (A) (A) (A) (A) (A) (A) (A) (A) (A) (A) (A)
                 (A) (A) (A) (A) (A) (A) (A) (A) (A) (A) (A) (A)
                 (A) (A) (A) (A) (A) (A) (A) (A) (A) (A) (A) (A)
                 (A) (A) (A) (A) (A) (A) (A) (A) (A) (A) (A) (A)
                 (A) (A) (A) (A) (A) (A) (A) (A) (A) (A) (A) (A)
                 (A) (A) (A) (A) (A) (A) (A) (A) (A) (A) (A) (A)
                 (A) (A) (A) (A) (A) (A) (A) (A) (A) (A) (A) (A)
                 (A) (A) (A) (A) (A) (A) (A) (A) (A) (A) (A) (A)
                 (A) (A) (A) (A) (A) (A) (A) (A) (A) (A) (A) (A)
                 (A) (A) (A) (A) (A) (A) (A) (A) (A) (A) (A) (A)
                 (A) (A) (A) (A) (A) (A) (A) (A) (A) (A) (A) (A)
                 (A) (A) (A) (A) (A) (A) (A) (A) (A) (A)
     8 initial guesses have been made.
 Convergence on wavefunction:    0.001000000000000
 Iteration     1 Dimension     8 NMult     0 NNew      8
 CISAX will form     8 AO SS matrices at one time.
 New state      1 was old state      2
 Iteration     2 Dimension    12 NMult     8 NNew      4
 Iteration     3 Dimension    16 NMult    12 NNew      4
 Iteration     4 Dimension    20 NMult    16 NNew      4
 Iteration     5 Dimension    24 NMult    20 NNew      4
 Iteration     6 Dimension    28 NMult    24 NNew      4
 ***********************************************************************
 Excited states from <AA,BB:AA,BB> singles matrix:
 ***********************************************************************
 
 Ground to excited state transition densities written to RWF  633
 Ground to excited state transition electric dipole moments (Au):
       state          X           Y           Z        Dip. S.      Osc.
         1        -0.3841      2.0411      0.1342      4.3315      0.2101
 Ground to excited state transition velocity dipole moments (Au):
       state          X           Y           Z        Dip. S.      Osc.
         1         0.0268     -0.1454     -0.0103      0.0220      0.2011
 Ground to excited state transition magnetic dipole moments (Au):
       state          X           Y           Z
         1        -0.0797     -0.2021      2.4821
 Ground to excited state transition velocity quadrupole moments (Au):
       state          XX          YY          ZZ          XY          XZ          YZ
         1        -0.6325     -0.3494     -0.0224      1.9439      0.1036     -0.0603
 <0|del|b> * <b|rxdel|0> + <0|del|b> * <b|delr+rdel|0>
 Rotatory Strengths (R) in cgs (10**-40 erg-esu-cm/Gauss)
       state          XX          YY          ZZ    R(velocity)    E-M Angle
         1        -4.9456    -45.0563     67.0945      5.6975       89.73
 1/2[<0|r|b>*<b|rxdel|0> + (<0|rxdel|b>*<b|r|0>)*]
 Rotatory Strengths (R) in cgs (10**-40 erg-esu-cm/Gauss)
       state          XX          YY          ZZ     R(length)
         1       -21.6425    291.7407   -235.5996     11.4996
  1/2[<0|del|b>*<b|r|0> + (<0|r|b>*<b|del|0>)*] (Au)
       state          X           Y           Z        Dip. S.   Osc.(frdel)
         1        -0.0103     -0.2967     -0.0014      0.3084      0.2056

 Excitation energies and oscillator strengths:
 
 Excited State   1:      Singlet-A      1.9803 eV  626.09 nm  f=0.2101  <S**2>=0.000
     235 -> 237       -0.39548
     235 -> 238        0.21241
     236 -> 237        0.50397
     236 -> 238        0.20817
 This state for optimization and/or second-order correction.
 Total Energy, E(TD-HF/TD-KS) =  -2732.91740260    
 Copying the excited state density for this state as the 1-particle RhoCI density.
 SavETr:  write IOETrn=   770 NScale= 10 NData=  16 NLR=1 NState=    1 LETran=      28.

 **********************************************************************

            Population analysis using the SCF density.

 **********************************************************************

 Orbital symmetries:
       Occupied  (A) (A) (A) (A) (A) (A) (A) (A) (A) (A) (A) (A)
                 (A) (A) (A) (A) (A) (A) (A) (A) (A) (A) (A) (A)
                 (A) (A) (A) (A) (A) (A) (A) (A) (A) (A) (A) (A)
                 (A) (A) (A) (A) (A) (A) (A) (A) (A) (A) (A) (A)
                 (A) (A) (A) (A) (A) (A) (A) (A) (A) (A) (A) (A)
                 (A) (A) (A) (A) (A) (A) (A) (A) (A) (A) (A) (A)
                 (A) (A) (A) (A) (A) (A) (A) (A) (A) (A) (A) (A)
                 (A) (A) (A) (A) (A) (A) (A) (A) (A) (A) (A) (A)
                 (A) (A) (A) (A) (A) (A) (A) (A) (A) (A) (A) (A)
                 (A) (A) (A) (A) (A) (A) (A) (A) (A) (A) (A) (A)
                 (A) (A) (A) (A) (A) (A) (A) (A) (A) (A) (A) (A)
                 (A) (A) (A) (A) (A) (A) (A) (A) (A) (A) (A) (A)
                 (A) (A) (A) (A) (A) (A) (A) (A) (A) (A) (A) (A)
                 (A) (A) (A) (A) (A) (A) (A) (A) (A) (A) (A) (A)
                 (A) (A) (A) (A) (A) (A) (A) (A) (A) (A) (A) (A)
                 (A) (A) (A) (A) (A) (A) (A) (A) (A) (A) (A) (A)
                 (A) (A) (A) (A) (A) (A) (A) (A) (A) (A) (A) (A)
                 (A) (A) (A) (A) (A) (A) (A) (A) (A) (A) (A) (A)
                 (A) (A) (A) (A) (A) (A) (A) (A) (A) (A) (A) (A)
                 (A) (A) (A) (A) (A) (A) (A) (A)
       Virtual   (A) (A) (A) (A) (A) (A) (A) (A) (A) (A) (A) (A)
                 (A) (A) (A) (A) (A) (A) (A) (A) (A) (A) (A) (A)
                 (A) (A) (A) (A) (A) (A) (A) (A) (A) (A) (A) (A)
                 (A) (A) (A) (A) (A) (A) (A) (A) (A) (A) (A) (A)
                 (A) (A) (A) (A) (A) (A) (A) (A) (A) (A) (A) (A)
                 (A) (A) (A) (A) (A) (A) (A) (A) (A) (A) (A) (A)
                 (A) (A) (A) (A) (A) (A) (A) (A) (A) (A) (A) (A)
                 (A) (A) (A) (A) (A) (A) (A) (A) (A) (A) (A) (A)
                 (A) (A) (A) (A) (A) (A) (A) (A) (A) (A) (A) (A)
                 (A) (A) (A) (A) (A) (A) (A) (A) (A) (A) (A) (A)
                 (A) (A) (A) (A) (A) (A) (A) (A) (A) (A) (A) (A)
                 (A) (A) (A) (A) (A) (A) (A) (A) (A) (A) (A) (A)
                 (A) (A) (A) (A) (A) (A) (A) (A) (A) (A) (A) (A)
                 (A) (A) (A) (A) (A) (A) (A) (A) (A) (A) (A) (A)
                 (A) (A) (A) (A) (A) (A) (A) (A) (A) (A) (A) (A)
                 (A) (A) (A) (A) (A) (A) (A) (A) (A) (A) (A) (A)
                 (A) (A) (A) (A) (A) (A) (A) (A) (A) (A) (A) (A)
                 (A) (A) (A) (A) (A) (A) (A) (A) (A) (A) (A) (A)
                 (A) (A) (A) (A) (A) (A) (A) (A) (A) (A) (A) (A)
                 (A) (A) (A) (A) (A) (A) (A) (A) (A) (A) (A) (A)
                 (A) (A) (A) (A) (A) (A) (A) (A) (A) (A) (A) (A)
                 (A) (A) (A) (A) (A) (A) (A) (A) (A) (A) (A) (A)
                 (A) (A) (A) (A) (A) (A) (A) (A) (A) (A) (A) (A)
                 (A) (A) (A) (A) (A) (A) (A) (A) (A) (A) (A) (A)
                 (A) (A) (A) (A) (A) (A) (A) (A) (A) (A) (A) (A)
                 (A) (A) (A) (A) (A) (A) (A) (A) (A) (A) (A) (A)
                 (A) (A) (A) (A) (A) (A) (A) (A) (A) (A) (A) (A)
                 (A) (A) (A) (A) (A) (A) (A) (A) (A) (A) (A) (A)
                 (A) (A) (A) (A) (A) (A) (A) (A) (A) (A) (A) (A)
                 (A) (A) (A) (A) (A) (A) (A) (A) (A) (A) (A) (A)
                 (A) (A) (A) (A) (A) (A) (A) (A) (A) (A) (A) (A)
                 (A) (A) (A) (A) (A) (A) (A) (A) (A) (A) (A) (A)
                 (A) (A) (A) (A) (A) (A) (A) (A) (A) (A) (A) (A)
                 (A) (A) (A) (A) (A) (A) (A) (A) (A) (A) (A) (A)
                 (A) (A) (A) (A) (A) (A) (A) (A) (A) (A) (A) (A)
                 (A) (A) (A) (A) (A) (A) (A) (A) (A) (A) (A) (A)
                 (A) (A) (A) (A) (A) (A) (A) (A) (A) (A) (A) (A)
                 (A) (A) (A) (A) (A) (A) (A) (A) (A) (A) (A) (A)
                 (A) (A) (A) (A) (A) (A) (A) (A) (A) (A) (A) (A)
                 (A) (A) (A) (A) (A) (A) (A) (A) (A) (A) (A) (A)
                 (A) (A) (A) (A) (A) (A) (A) (A) (A) (A) (A) (A)
                 (A) (A) (A) (A) (A) (A) (A) (A) (A) (A) (A) (A)
                 (A) (A) (A) (A) (A) (A) (A) (A) (A) (A) (A) (A)
                 (A) (A) (A) (A) (A) (A) (A) (A) (A) (A) (A) (A)
                 (A) (A) (A) (A) (A) (A) (A) (A) (A) (A) (A) (A)
                 (A) (A) (A) (A) (A) (A) (A) (A) (A) (A) (A) (A)
                 (A) (A) (A) (A) (A) (A) (A) (A) (A) (A) (A) (A)
                 (A) (A) (A) (A) (A) (A) (A) (A) (A) (A) (A) (A)
                 (A) (A) (A) (A) (A) (A) (A) (A) (A) (A) (A) (A)
                 (A) (A) (A) (A) (A) (A) (A) (A) (A) (A) (A) (A)
                 (A) (A) (A) (A) (A) (A) (A) (A) (A) (A) (A) (A)
                 (A) (A) (A) (A) (A) (A) (A) (A) (A) (A) (A) (A)
                 (A) (A) (A) (A) (A) (A) (A) (A) (A) (A) (A) (A)
                 (A) (A) (A) (A) (A) (A) (A) (A) (A) (A) (A) (A)
                 (A) (A) (A) (A) (A) (A) (A) (A) (A) (A) (A) (A)
                 (A) (A) (A) (A) (A) (A) (A) (A) (A) (A) (A) (A)
                 (A) (A) (A) (A) (A) (A) (A) (A) (A) (A) (A) (A)
                 (A) (A) (A) (A) (A) (A) (A) (A) (A) (A) (A) (A)
                 (A) (A) (A) (A) (A) (A) (A) (A) (A) (A) (A) (A)
                 (A) (A) (A) (A) (A) (A) (A) (A) (A) (A) (A) (A)
                 (A) (A) (A) (A) (A) (A) (A) (A) (A) (A) (A) (A)
                 (A) (A) (A) (A) (A) (A) (A) (A) (A) (A) (A) (A)
                 (A) (A) (A) (A) (A) (A) (A) (A) (A) (A) (A) (A)
                 (A) (A) (A) (A) (A) (A) (A) (A) (A) (A) (A) (A)
                 (A) (A) (A) (A) (A) (A) (A) (A) (A) (A) (A) (A)
                 (A) (A) (A) (A) (A) (A) (A) (A) (A) (A) (A) (A)
                 (A) (A) (A) (A) (A) (A) (A) (A) (A) (A) (A) (A)
                 (A) (A) (A) (A) (A) (A) (A) (A) (A) (A) (A) (A)
                 (A) (A) (A) (A) (A) (A) (A) (A) (A) (A) (A) (A)
                 (A) (A) (A) (A) (A) (A) (A) (A) (A) (A) (A) (A)
                 (A) (A) (A) (A) (A) (A) (A) (A) (A) (A) (A) (A)
                 (A) (A) (A) (A) (A) (A) (A) (A) (A) (A) (A) (A)
                 (A) (A) (A) (A) (A) (A) (A) (A) (A) (A) (A) (A)
                 (A) (A) (A) (A) (A) (A) (A) (A) (A) (A) (A) (A)
                 (A) (A) (A) (A) (A) (A) (A) (A) (A) (A) (A) (A)
                 (A) (A) (A) (A) (A) (A) (A) (A) (A) (A) (A) (A)
                 (A) (A) (A) (A) (A) (A) (A) (A) (A) (A) (A) (A)
                 (A) (A) (A) (A) (A) (A) (A) (A) (A) (A) (A) (A)
                 (A) (A) (A) (A) (A) (A) (A) (A) (A) (A) (A) (A)
                 (A) (A) (A) (A) (A) (A) (A) (A) (A) (A) (A) (A)
                 (A) (A) (A) (A) (A) (A) (A) (A) (A) (A) (A) (A)
                 (A) (A) (A) (A) (A) (A) (A) (A) (A) (A) (A) (A)
                 (A) (A) (A) (A) (A) (A) (A) (A) (A) (A) (A) (A)
                 (A) (A) (A) (A) (A) (A) (A) (A) (A) (A) (A) (A)
                 (A) (A) (A) (A) (A) (A) (A) (A) (A) (A) (A) (A)
                 (A) (A) (A) (A) (A) (A) (A) (A) (A) (A)
 The electronic state is 1-A.
 Alpha  occ. eigenvalues --  -19.17988 -19.17488 -19.13090 -19.12427 -19.11929
 Alpha  occ. eigenvalues --  -14.36582 -14.36570 -14.32645 -14.31264 -10.31695
 Alpha  occ. eigenvalues --  -10.31401 -10.28062 -10.24313 -10.23857 -10.23673
 Alpha  occ. eigenvalues --  -10.23620 -10.23555 -10.23461 -10.23259 -10.23068
 Alpha  occ. eigenvalues --  -10.22969 -10.22745 -10.22447 -10.22364 -10.21990
 Alpha  occ. eigenvalues --  -10.21814 -10.21784 -10.21630 -10.21542 -10.21383
 Alpha  occ. eigenvalues --  -10.20885 -10.20830 -10.20816 -10.20788 -10.20697
 Alpha  occ. eigenvalues --  -10.20642 -10.20583 -10.20517 -10.20514 -10.20408
 Alpha  occ. eigenvalues --  -10.20389 -10.20298 -10.20283 -10.20244 -10.20227
 Alpha  occ. eigenvalues --  -10.20140 -10.19998 -10.19986 -10.19940 -10.19907
 Alpha  occ. eigenvalues --  -10.19885 -10.19805 -10.19753 -10.19404 -10.19329
 Alpha  occ. eigenvalues --  -10.19306 -10.19181 -10.19163 -10.18974 -10.18577
 Alpha  occ. eigenvalues --  -10.18452 -10.18292 -10.17786 -10.17459  -1.09436
 Alpha  occ. eigenvalues --   -1.08826  -1.03888  -1.01326  -0.99236  -0.99131
 Alpha  occ. eigenvalues --   -0.98378  -0.94717  -0.94459  -0.85525  -0.81667
 Alpha  occ. eigenvalues --   -0.81517  -0.81401  -0.81301  -0.81017  -0.80839
 Alpha  occ. eigenvalues --   -0.80600  -0.80259  -0.79017  -0.78889  -0.77582
 Alpha  occ. eigenvalues --   -0.76623  -0.76407  -0.75268  -0.74991  -0.74164
 Alpha  occ. eigenvalues --   -0.73740  -0.72803  -0.72075  -0.70703  -0.70296
 Alpha  occ. eigenvalues --   -0.69589  -0.68615  -0.68543  -0.67686  -0.67595
 Alpha  occ. eigenvalues --   -0.67052  -0.66440  -0.65782  -0.65211  -0.64872
 Alpha  occ. eigenvalues --   -0.64388  -0.63166  -0.62351  -0.61609  -0.61132
 Alpha  occ. eigenvalues --   -0.60992  -0.59236  -0.58954  -0.58171  -0.57649
 Alpha  occ. eigenvalues --   -0.57154  -0.56401  -0.55827  -0.55491  -0.55277
 Alpha  occ. eigenvalues --   -0.55151  -0.55008  -0.53868  -0.53353  -0.53123
 Alpha  occ. eigenvalues --   -0.53067  -0.52537  -0.51721  -0.51078  -0.50536
 Alpha  occ. eigenvalues --   -0.50357  -0.50182  -0.48765  -0.48614  -0.48127
 Alpha  occ. eigenvalues --   -0.47514  -0.47510  -0.47017  -0.46562  -0.46441
 Alpha  occ. eigenvalues --   -0.46359  -0.46214  -0.45687  -0.45536  -0.45398
 Alpha  occ. eigenvalues --   -0.45265  -0.45139  -0.45060  -0.44890  -0.44544
 Alpha  occ. eigenvalues --   -0.44454  -0.44127  -0.43946  -0.43748  -0.43614
 Alpha  occ. eigenvalues --   -0.43506  -0.43160  -0.42815  -0.42214  -0.41949
 Alpha  occ. eigenvalues --   -0.41721  -0.41586  -0.41466  -0.41379  -0.41264
 Alpha  occ. eigenvalues --   -0.41150  -0.40518  -0.40445  -0.39866  -0.39694
 Alpha  occ. eigenvalues --   -0.39663  -0.39437  -0.39435  -0.39205  -0.39113
 Alpha  occ. eigenvalues --   -0.38979  -0.38752  -0.38585  -0.38557  -0.38348
 Alpha  occ. eigenvalues --   -0.38146  -0.37941  -0.37836  -0.37563  -0.37209
 Alpha  occ. eigenvalues --   -0.37121  -0.36768  -0.36707  -0.36620  -0.36315
 Alpha  occ. eigenvalues --   -0.36238  -0.36123  -0.35886  -0.35710  -0.35648
 Alpha  occ. eigenvalues --   -0.35495  -0.35368  -0.34907  -0.34672  -0.34604
 Alpha  occ. eigenvalues --   -0.34443  -0.34318  -0.34167  -0.34008  -0.33737
 Alpha  occ. eigenvalues --   -0.33493  -0.32963  -0.32612  -0.32425  -0.32380
 Alpha  occ. eigenvalues --   -0.31958  -0.31881  -0.31843  -0.31410  -0.31214
 Alpha  occ. eigenvalues --   -0.31172  -0.30896  -0.30359  -0.30226  -0.30091
 Alpha  occ. eigenvalues --   -0.29963  -0.29152  -0.29084  -0.28577  -0.27956
 Alpha  occ. eigenvalues --   -0.27425  -0.27375  -0.26805  -0.26436  -0.26250
 Alpha  occ. eigenvalues --   -0.25101  -0.25051  -0.24015  -0.23124  -0.20087
 Alpha  occ. eigenvalues --   -0.19546
 Alpha virt. eigenvalues --   -0.11599  -0.07815  -0.04261  -0.01340  -0.00945
 Alpha virt. eigenvalues --   -0.00843   0.00077   0.00336   0.01754   0.02795
 Alpha virt. eigenvalues --    0.03570   0.03630   0.04075   0.04179   0.04369
 Alpha virt. eigenvalues --    0.04584   0.04872   0.05069   0.05231   0.05590
 Alpha virt. eigenvalues --    0.05600   0.05688   0.06170   0.06425   0.06888
 Alpha virt. eigenvalues --    0.07117   0.07243   0.07340   0.07515   0.07676
 Alpha virt. eigenvalues --    0.07809   0.07856   0.08178   0.08281   0.08364
 Alpha virt. eigenvalues --    0.08590   0.08957   0.08990   0.09248   0.09445
 Alpha virt. eigenvalues --    0.09899   0.09970   0.10106   0.10134   0.10429
 Alpha virt. eigenvalues --    0.10588   0.10676   0.10893   0.11037   0.11267
 Alpha virt. eigenvalues --    0.11353   0.11440   0.11472   0.11618   0.11936
 Alpha virt. eigenvalues --    0.12058   0.12243   0.12319   0.12401   0.12477
 Alpha virt. eigenvalues --    0.12829   0.12963   0.13165   0.13341   0.13567
 Alpha virt. eigenvalues --    0.13697   0.13758   0.13927   0.14047   0.14132
 Alpha virt. eigenvalues --    0.14653   0.14725   0.14928   0.15022   0.15368
 Alpha virt. eigenvalues --    0.15468   0.15810   0.15970   0.16017   0.16370
 Alpha virt. eigenvalues --    0.16611   0.16821   0.16943   0.17061   0.17098
 Alpha virt. eigenvalues --    0.17428   0.17492   0.17921   0.18149   0.18497
 Alpha virt. eigenvalues --    0.18640   0.18770   0.18899   0.19539   0.19706
 Alpha virt. eigenvalues --    0.19726   0.20078   0.20262   0.20438   0.20606
 Alpha virt. eigenvalues --    0.20764   0.21200   0.21425   0.21523   0.21580
 Alpha virt. eigenvalues --    0.21808   0.22082   0.22298   0.22508   0.22766
 Alpha virt. eigenvalues --    0.23061   0.23205   0.23427   0.23670   0.23978
 Alpha virt. eigenvalues --    0.24313   0.24384   0.24532   0.24831   0.25123
 Alpha virt. eigenvalues --    0.25503   0.26251   0.26434   0.26631   0.26978
 Alpha virt. eigenvalues --    0.27269   0.27851   0.28578   0.28864   0.29119
 Alpha virt. eigenvalues --    0.29149   0.29557   0.29958   0.30695   0.31257
 Alpha virt. eigenvalues --    0.31399   0.31722   0.32126   0.32677   0.32791
 Alpha virt. eigenvalues --    0.33073   0.33344   0.33758   0.34223   0.34825
 Alpha virt. eigenvalues --    0.34998   0.35515   0.35814   0.36383   0.36637
 Alpha virt. eigenvalues --    0.36962   0.37404   0.37862   0.38045   0.38204
 Alpha virt. eigenvalues --    0.38523   0.38842   0.39003   0.39036   0.39669
 Alpha virt. eigenvalues --    0.39811   0.39901   0.40189   0.40346   0.40501
 Alpha virt. eigenvalues --    0.41148   0.41256   0.41669   0.41748   0.41839
 Alpha virt. eigenvalues --    0.42098   0.42281   0.42462   0.42547   0.42691
 Alpha virt. eigenvalues --    0.43031   0.43143   0.43291   0.43591   0.43801
 Alpha virt. eigenvalues --    0.43930   0.44042   0.44645   0.44903   0.45410
 Alpha virt. eigenvalues --    0.45555   0.45627   0.45980   0.46105   0.46442
 Alpha virt. eigenvalues --    0.46623   0.46894   0.47077   0.47366   0.47431
 Alpha virt. eigenvalues --    0.47639   0.47724   0.47912   0.48412   0.48548
 Alpha virt. eigenvalues --    0.48963   0.49101   0.49167   0.49239   0.49596
 Alpha virt. eigenvalues --    0.49745   0.50331   0.50407   0.50862   0.51016
 Alpha virt. eigenvalues --    0.51392   0.51480   0.51739   0.51930   0.52448
 Alpha virt. eigenvalues --    0.52755   0.52832   0.53284   0.53366   0.53424
 Alpha virt. eigenvalues --    0.53859   0.54473   0.54511   0.54595   0.55004
 Alpha virt. eigenvalues --    0.55098   0.55314   0.55438   0.55521   0.55746
 Alpha virt. eigenvalues --    0.55988   0.56175   0.56250   0.56460   0.56830
 Alpha virt. eigenvalues --    0.56934   0.57261   0.57359   0.57554   0.57623
 Alpha virt. eigenvalues --    0.57941   0.58205   0.58382   0.58488   0.58708
 Alpha virt. eigenvalues --    0.58795   0.58851   0.59012   0.59160   0.59372
 Alpha virt. eigenvalues --    0.59712   0.59766   0.60096   0.60281   0.60333
 Alpha virt. eigenvalues --    0.60440   0.60553   0.60684   0.60838   0.61031
 Alpha virt. eigenvalues --    0.61257   0.61422   0.61558   0.61718   0.61866
 Alpha virt. eigenvalues --    0.62140   0.62457   0.62623   0.62690   0.62738
 Alpha virt. eigenvalues --    0.62809   0.63091   0.63188   0.63327   0.63437
 Alpha virt. eigenvalues --    0.63564   0.63726   0.63975   0.64054   0.64078
 Alpha virt. eigenvalues --    0.64206   0.64339   0.64541   0.64640   0.64772
 Alpha virt. eigenvalues --    0.64958   0.65030   0.65196   0.65246   0.65435
 Alpha virt. eigenvalues --    0.65446   0.65574   0.65679   0.65769   0.65970
 Alpha virt. eigenvalues --    0.66024   0.66300   0.66430   0.66493   0.66912
 Alpha virt. eigenvalues --    0.66983   0.67153   0.67343   0.67419   0.67475
 Alpha virt. eigenvalues --    0.67713   0.67919   0.67995   0.68194   0.68221
 Alpha virt. eigenvalues --    0.68292   0.68468   0.68515   0.68717   0.68859
 Alpha virt. eigenvalues --    0.68914   0.69053   0.69187   0.69327   0.69470
 Alpha virt. eigenvalues --    0.69621   0.69721   0.69918   0.69962   0.70283
 Alpha virt. eigenvalues --    0.70436   0.70548   0.70689   0.70992   0.71054
 Alpha virt. eigenvalues --    0.71367   0.71403   0.71547   0.71682   0.71819
 Alpha virt. eigenvalues --    0.71953   0.72201   0.72447   0.72766   0.72934
 Alpha virt. eigenvalues --    0.73048   0.73216   0.73281   0.73600   0.73642
 Alpha virt. eigenvalues --    0.73927   0.74148   0.74347   0.74455   0.74728
 Alpha virt. eigenvalues --    0.74969   0.75058   0.75591   0.75887   0.75953
 Alpha virt. eigenvalues --    0.76091   0.76259   0.76397   0.76572   0.76778
 Alpha virt. eigenvalues --    0.77021   0.77436   0.77915   0.78153   0.78283
 Alpha virt. eigenvalues --    0.78855   0.79177   0.79509   0.79603   0.79947
 Alpha virt. eigenvalues --    0.80022   0.80353   0.80619   0.81278   0.81389
 Alpha virt. eigenvalues --    0.81836   0.81987   0.82576   0.82812   0.83085
 Alpha virt. eigenvalues --    0.83561   0.84330   0.84557   0.85256   0.85556
 Alpha virt. eigenvalues --    0.86746   0.86988   0.87586   0.87863   0.88412
 Alpha virt. eigenvalues --    0.88589   0.88661   0.89317   0.90115   0.91392
 Alpha virt. eigenvalues --    0.91966   0.92216   0.92406   0.92520   0.93066
 Alpha virt. eigenvalues --    0.93647   0.93921   0.94188   0.94456   0.95213
 Alpha virt. eigenvalues --    0.95980   0.96304   0.96416   0.96535   0.96647
 Alpha virt. eigenvalues --    0.97203   0.97621   0.98219   0.98664   0.98937
 Alpha virt. eigenvalues --    1.00310   1.00697   1.00806   1.01042   1.01252
 Alpha virt. eigenvalues --    1.01406   1.01819   1.02404   1.03056   1.03199
 Alpha virt. eigenvalues --    1.03552   1.04074   1.04393   1.04657   1.04815
 Alpha virt. eigenvalues --    1.05992   1.06525   1.06833   1.07219   1.07558
 Alpha virt. eigenvalues --    1.08119   1.08188   1.08486   1.08901   1.09396
 Alpha virt. eigenvalues --    1.09954   1.10023   1.10373   1.10873   1.11318
 Alpha virt. eigenvalues --    1.11702   1.12170   1.12783   1.13049   1.13992
 Alpha virt. eigenvalues --    1.14040   1.14425   1.14893   1.15160   1.15913
 Alpha virt. eigenvalues --    1.16485   1.17067   1.17540   1.18152   1.18602
 Alpha virt. eigenvalues --    1.18930   1.19155   1.19176   1.20176   1.20362
 Alpha virt. eigenvalues --    1.20984   1.21031   1.21828   1.22041   1.22491
 Alpha virt. eigenvalues --    1.22661   1.23370   1.23712   1.23898   1.23990
 Alpha virt. eigenvalues --    1.24506   1.24799   1.25023   1.25411   1.25490
 Alpha virt. eigenvalues --    1.26254   1.27097   1.27569   1.28029   1.28127
 Alpha virt. eigenvalues --    1.28299   1.28824   1.29243   1.29716   1.29974
 Alpha virt. eigenvalues --    1.30040   1.30335   1.30695   1.31383   1.31902
 Alpha virt. eigenvalues --    1.32250   1.32792   1.33171   1.33336   1.33973
 Alpha virt. eigenvalues --    1.34271   1.34545   1.34615   1.34939   1.35022
 Alpha virt. eigenvalues --    1.35472   1.35772   1.36851   1.36974   1.37097
 Alpha virt. eigenvalues --    1.37581   1.38292   1.38517   1.39343   1.40113
 Alpha virt. eigenvalues --    1.40356   1.41491   1.41748   1.42371   1.42641
 Alpha virt. eigenvalues --    1.42850   1.43768   1.44020   1.44438   1.45441
 Alpha virt. eigenvalues --    1.45988   1.46144   1.46578   1.46980   1.47049
 Alpha virt. eigenvalues --    1.47217   1.47354   1.47805   1.47931   1.48467
 Alpha virt. eigenvalues --    1.48711   1.48945   1.49033   1.49469   1.50089
 Alpha virt. eigenvalues --    1.50376   1.50794   1.51085   1.51618   1.51736
 Alpha virt. eigenvalues --    1.52419   1.52857   1.52935   1.53440   1.53624
 Alpha virt. eigenvalues --    1.53845   1.54010   1.54049   1.54440   1.54684
 Alpha virt. eigenvalues --    1.54711   1.55271   1.56065   1.56162   1.57240
 Alpha virt. eigenvalues --    1.57797   1.58308   1.58543   1.58716   1.59148
 Alpha virt. eigenvalues --    1.59223   1.59698   1.60088   1.60591   1.60746
 Alpha virt. eigenvalues --    1.61191   1.61515   1.61850   1.62119   1.62345
 Alpha virt. eigenvalues --    1.62648   1.62907   1.63051   1.63417   1.63779
 Alpha virt. eigenvalues --    1.63969   1.64238   1.64437   1.64995   1.65263
 Alpha virt. eigenvalues --    1.65712   1.66305   1.66668   1.67243   1.67393
 Alpha virt. eigenvalues --    1.67582   1.67804   1.67885   1.68086   1.68260
 Alpha virt. eigenvalues --    1.68549   1.68787   1.69038   1.69466   1.69982
 Alpha virt. eigenvalues --    1.70047   1.70154   1.70272   1.70321   1.70655
 Alpha virt. eigenvalues --    1.70953   1.71006   1.71191   1.71366   1.71481
 Alpha virt. eigenvalues --    1.71644   1.72037   1.72134   1.72330   1.72612
 Alpha virt. eigenvalues --    1.72741   1.73009   1.73179   1.73328   1.73639
 Alpha virt. eigenvalues --    1.73700   1.74222   1.74429   1.74763   1.75135
 Alpha virt. eigenvalues --    1.75209   1.75479   1.75703   1.75920   1.76145
 Alpha virt. eigenvalues --    1.76385   1.76616   1.77025   1.77327   1.77660
 Alpha virt. eigenvalues --    1.77860   1.78148   1.78257   1.78279   1.78493
 Alpha virt. eigenvalues --    1.78666   1.78820   1.79042   1.79270   1.79529
 Alpha virt. eigenvalues --    1.79859   1.80079   1.80268   1.80622   1.80820
 Alpha virt. eigenvalues --    1.80871   1.81006   1.81037   1.81219   1.81702
 Alpha virt. eigenvalues --    1.81775   1.81894   1.82037   1.82195   1.82342
 Alpha virt. eigenvalues --    1.82625   1.82750   1.82945   1.83043   1.83445
 Alpha virt. eigenvalues --    1.83565   1.84187   1.84257   1.84572   1.84983
 Alpha virt. eigenvalues --    1.85009   1.85471   1.85564   1.85678   1.85997
 Alpha virt. eigenvalues --    1.86145   1.86291   1.86621   1.86831   1.87173
 Alpha virt. eigenvalues --    1.87190   1.87496   1.87810   1.88011   1.88127
 Alpha virt. eigenvalues --    1.88445   1.88661   1.88955   1.89371   1.89687
 Alpha virt. eigenvalues --    1.89734   1.90104   1.90281   1.90391   1.90984
 Alpha virt. eigenvalues --    1.91175   1.91454   1.91611   1.92232   1.92279
 Alpha virt. eigenvalues --    1.92431   1.92646   1.92850   1.93107   1.93213
 Alpha virt. eigenvalues --    1.93596   1.93711   1.93987   1.94230   1.94351
 Alpha virt. eigenvalues --    1.94370   1.94716   1.95181   1.95206   1.95738
 Alpha virt. eigenvalues --    1.96224   1.96436   1.96860   1.97486   1.97664
 Alpha virt. eigenvalues --    1.98008   1.98855   1.98918   1.99238   1.99294
 Alpha virt. eigenvalues --    1.99714   2.00127   2.00356   2.00605   2.00725
 Alpha virt. eigenvalues --    2.01499   2.01602   2.02060   2.02585   2.02745
 Alpha virt. eigenvalues --    2.03052   2.03228   2.03510   2.03518   2.04018
 Alpha virt. eigenvalues --    2.04096   2.04572   2.04710   2.04840   2.05422
 Alpha virt. eigenvalues --    2.05927   2.06067   2.06547   2.06983   2.07489
 Alpha virt. eigenvalues --    2.07551   2.07998   2.08410   2.08758   2.08900
 Alpha virt. eigenvalues --    2.09424   2.09596   2.10058   2.10367   2.10560
 Alpha virt. eigenvalues --    2.11090   2.11308   2.11877   2.12086   2.12684
 Alpha virt. eigenvalues --    2.13098   2.14094   2.14472   2.14679   2.14720
 Alpha virt. eigenvalues --    2.14999   2.15227   2.15641   2.15915   2.16525
 Alpha virt. eigenvalues --    2.16637   2.17056   2.17232   2.17692   2.18181
 Alpha virt. eigenvalues --    2.18419   2.19455   2.19752   2.20030   2.20621
 Alpha virt. eigenvalues --    2.20926   2.21099   2.21346   2.21498   2.21964
 Alpha virt. eigenvalues --    2.22477   2.22790   2.23036   2.23665   2.24053
 Alpha virt. eigenvalues --    2.24686   2.24730   2.24964   2.25360   2.25550
 Alpha virt. eigenvalues --    2.26554   2.27219   2.27320   2.27709   2.28058
 Alpha virt. eigenvalues --    2.28765   2.29239   2.29519   2.30069   2.30382
 Alpha virt. eigenvalues --    2.30554   2.30945   2.31372   2.31869   2.32218
 Alpha virt. eigenvalues --    2.32377   2.32569   2.32629   2.33572   2.33763
 Alpha virt. eigenvalues --    2.33900   2.34092   2.34462   2.34787   2.34941
 Alpha virt. eigenvalues --    2.35236   2.35326   2.35742   2.36537   2.36867
 Alpha virt. eigenvalues --    2.37055   2.37396   2.37788   2.38597   2.39036
 Alpha virt. eigenvalues --    2.39375   2.39529   2.39876   2.40412   2.40590
 Alpha virt. eigenvalues --    2.41130   2.41409   2.41749   2.41915   2.42216
 Alpha virt. eigenvalues --    2.42535   2.43178   2.43555   2.43625   2.43941
 Alpha virt. eigenvalues --    2.44298   2.44481   2.44673   2.44800   2.45300
 Alpha virt. eigenvalues --    2.45748   2.46239   2.46547   2.47384   2.47778
 Alpha virt. eigenvalues --    2.48449   2.48980   2.49144   2.49610   2.50121
 Alpha virt. eigenvalues --    2.50265   2.50312   2.50758   2.50943   2.51256
 Alpha virt. eigenvalues --    2.51562   2.52054   2.52835   2.53408   2.53598
 Alpha virt. eigenvalues --    2.54034   2.54234   2.54556   2.55388   2.55565
 Alpha virt. eigenvalues --    2.55709   2.57150   2.57436   2.57765   2.58612
 Alpha virt. eigenvalues --    2.58850   2.58895   2.59925   2.60133   2.61011
 Alpha virt. eigenvalues --    2.61496   2.61826   2.61840   2.62999   2.64017
 Alpha virt. eigenvalues --    2.64225   2.64436   2.64520   2.65081   2.65395
 Alpha virt. eigenvalues --    2.65472   2.65817   2.66301   2.66849   2.67631
 Alpha virt. eigenvalues --    2.68771   2.69177   2.69270   2.69815   2.70045
 Alpha virt. eigenvalues --    2.70230   2.70543   2.70866   2.71952   2.72332
 Alpha virt. eigenvalues --    2.72557   2.72829   2.73574   2.74375   2.74810
 Alpha virt. eigenvalues --    2.75041   2.75059   2.75669   2.75746   2.76694
 Alpha virt. eigenvalues --    2.76948   2.77184   2.77464   2.78099   2.78461
 Alpha virt. eigenvalues --    2.78836   2.79351   2.79609   2.80052   2.80547
 Alpha virt. eigenvalues --    2.80596   2.80830   2.81286   2.81404   2.81666
 Alpha virt. eigenvalues --    2.82608   2.82911   2.83059   2.83233   2.83721
 Alpha virt. eigenvalues --    2.83809   2.83822   2.84376   2.84496   2.85201
 Alpha virt. eigenvalues --    2.85258   2.86056   2.86673   2.86922   2.87095
 Alpha virt. eigenvalues --    2.87678   2.87994   2.88603   2.89196   2.89289
 Alpha virt. eigenvalues --    2.89788   2.89942   2.90583   2.90896   2.91807
 Alpha virt. eigenvalues --    2.92184   2.92805   2.93083   2.94197   2.95697
 Alpha virt. eigenvalues --    2.96082   2.96942   2.97078   2.97917   2.98344
 Alpha virt. eigenvalues --    2.99054   2.99577   2.99885   3.01662   3.01755
 Alpha virt. eigenvalues --    3.02317   3.02742   3.03292   3.03534   3.04746
 Alpha virt. eigenvalues --    3.04783   3.06659   3.06961   3.07353   3.08002
 Alpha virt. eigenvalues --    3.08327   3.08534   3.08785   3.09063   3.09168
 Alpha virt. eigenvalues --    3.10235   3.12519   3.12849   3.13892   3.14113
 Alpha virt. eigenvalues --    3.14238   3.16184   3.16788   3.17627   3.18740
 Alpha virt. eigenvalues --    3.19087   3.19290   3.20193   3.20339   3.22199
 Alpha virt. eigenvalues --    3.22364   3.24000   3.25135   3.30984   3.33313
 Alpha virt. eigenvalues --    3.40288   3.40806   3.41407   3.43061   3.43795
 Alpha virt. eigenvalues --    3.46893   3.49154   3.51781   3.58801   3.60603
 Alpha virt. eigenvalues --    3.62181   3.63965   3.65364   3.67235   3.70426
          Condensed to atoms (all electrons):
 Mulliken charges:
               1
     1  C   -0.038826
     2  C   -0.080306
     3  C   -0.083346
     4  C   -0.114875
     5  N   -0.164899
     6  C   -0.067207
     7  C   -0.039199
     8  C   -0.034135
     9  C    0.066549
    10  C    0.051896
    11  C   -0.002865
    12  C   -0.016257
    13  C    0.168146
    14  O   -0.271034
    15  O   -0.338351
    16  N   -0.050268
    17  C    0.030853
    18  C   -0.075422
    19  C    0.034659
    20  C    0.059885
    21  C   -0.026581
    22  C   -0.037233
    23  C   -0.110445
    24  N   -0.179190
    25  C    0.057855
    26  C   -0.052764
    27  C   -0.119575
    28  C    0.056760
    29  C   -0.060475
    30  C    0.121855
    31  C   -0.102960
    32  N   -0.079028
    33  C    0.134821
    34  C   -0.118678
    35  C   -0.006811
    36  C    0.113491
    37  C    0.122043
    38  C    0.029450
    39  O   -0.133711
    40  C    0.023908
    41  C    0.202812
    42  O   -0.220986
    43  O   -0.290740
    44  C    0.206978
    45  C    0.305160
    46  C   -0.100553
    47  C   -0.110672
    48  C    0.022658
    49  C    0.070657
    50  C   -0.002189
    51  C    0.023095
    52  C   -0.089187
    53  C    0.031159
    54  C   -0.011927
    55  C    0.015992
    56  C    0.008818
    57  C   -0.060246
    58  C   -0.041718
    59  C    0.004340
    60  C    0.084298
    61  C   -0.009841
    62  C   -0.000550
    63  C   -0.061387
    64  C   -0.051782
    65  H    0.024648
    66  H   -0.024218
    67  H   -0.004212
    68  H    0.067351
    69  H   -0.004531
    70  H   -0.023420
    71  H    0.007384
    72  H    0.016885
    73  H    0.052288
    74  H    0.055495
    75  H    0.030424
    76  H    0.051714
    77  H    0.048133
    78  H    0.033871
    79  H    0.054105
    80  H   -0.001694
    81  H    0.046025
    82  H    0.044800
    83  H    0.061390
    84  H    0.069123
    85  H    0.048155
    86  H   -0.015130
    87  H    0.002652
    88  H    0.012576
    89  H    0.022888
    90  H    0.057862
    91  H    0.028584
    92  H    0.059011
    93  H   -0.053316
    94  H    0.035590
    95  H    0.046984
    96  H   -0.006933
    97  H   -0.004204
    98  H    0.007019
    99  H    0.027952
   100  H    0.009585
   101  H    0.027976
   102  H    0.039578
   103  H   -0.005615
   104  H    0.023909
   105  H   -0.032434
   106  H    0.034011
   107  H    0.014891
   108  H    0.012397
   109  H   -0.011019
   110  H    0.014985
   111  H    0.007277
   112  H    0.000462
   113  H   -0.022974
   114  H    0.004483
   115  H    0.008048
   116  H    0.028675
   117  H   -0.001985
   118  H   -0.012285
   119  H   -0.023422
   120  H   -0.012976
   121  H    0.013865
   122  H    0.028655
   123  H    0.042527
   124  H   -0.011286
   125  H    0.013734
   126  H   -0.019029
   127  H   -0.025115
   128  H   -0.001207
   129  H    0.009046
   130  H   -0.012913
   131  H    0.019357
   132  H    0.021000
   133  H    0.032786
   134  H    0.016043
   135  H    0.005078
   136  H    0.010786
   137  H    0.147969
   138  H    0.137962
 Sum of Mulliken charges =   0.00000
 Mulliken charges with hydrogens summed into heavy atoms:
               1
     1  C   -0.038826
     2  C   -0.055658
     3  C   -0.107565
     4  C   -0.119087
     5  N   -0.164899
     6  C   -0.067207
     7  C    0.028152
     8  C   -0.038665
     9  C    0.066549
    10  C    0.052746
    11  C    0.104917
    12  C    0.065881
    13  C    0.168146
    14  O   -0.271034
    15  O   -0.338351
    16  N    0.097701
    17  C    0.030853
    18  C   -0.075422
    19  C    0.034659
    20  C    0.059885
    21  C    0.109528
    22  C   -0.038927
    23  C   -0.019620
    24  N   -0.179190
    25  C    0.057855
    26  C   -0.052764
    27  C   -0.119575
    28  C    0.056760
    29  C    0.118192
    30  C    0.109377
    31  C   -0.009634
    32  N    0.058934
    33  C    0.134821
    34  C   -0.118678
    35  C   -0.006811
    36  C    0.113491
    37  C    0.156322
    38  C    0.029450
    39  O   -0.133711
    40  C    0.059498
    41  C    0.202812
    42  O   -0.220986
    43  O   -0.290740
    44  C    0.242824
    45  C    0.340131
    46  C   -0.090967
    47  C   -0.110672
    48  C    0.084597
    49  C    0.062132
    50  C    0.046712
    51  C    0.024473
    52  C   -0.074203
    53  C    0.015924
    54  C    0.000605
    55  C    0.042682
    56  C   -0.026888
    57  C   -0.073222
    58  C    0.043329
    59  C    0.006788
    60  C    0.040154
    61  C   -0.002001
    62  C   -0.013463
    63  C    0.011756
    64  C   -0.019874
 Electronic spatial extent (au):  <R**2>=         177845.3361
 Charge=              0.0000 electrons
 Dipole moment (field-independent basis, Debye):
    X=              1.5346    Y=              4.4686    Z=              0.0785  Tot=              4.7255
 Quadrupole moment (field-independent basis, Debye-Ang):
   XX=           -351.0829   YY=           -389.8778   ZZ=           -394.0886
   XY=            -23.9476   XZ=              9.9618   YZ=             -2.8126
 Traceless Quadrupole moment (field-independent basis, Debye-Ang):
   XX=             27.2669   YY=            -11.5280   ZZ=            -15.7389
   XY=            -23.9476   XZ=              9.9618   YZ=             -2.8126
 Octapole moment (field-independent basis, Debye-Ang**2):
  XXX=           -360.3254  YYY=            129.8405  ZZZ=             14.3849  XYY=            -98.5932
  XXY=            -11.3597  XXZ=           -262.4038  XZZ=             32.9414  YZZ=            -24.9922
  YYZ=             66.0295  XYZ=            -16.9446
 Hexadecapole moment (field-independent basis, Debye-Ang**3):
 XXXX=        -217290.3054 YYYY=         -18105.6989 ZZZZ=          -4589.5404 XXXY=           -865.5592
 XXXZ=            926.4091 YYYX=          -1199.7602 YYYZ=           -198.3131 ZZZX=            -78.7328
 ZZZY=           -106.3071 XXYY=         -40929.9151 XXZZ=         -39108.6334 YYZZ=          -3701.4627
 XXYZ=             -8.0823 YYXZ=           -160.0578 ZZXY=             53.9643
 N-N= 8.270332387984D+03 E-N=-2.287354237176D+04  KE= 2.699669487431D+03
 1\1\GINC-PEDRO-RYZENSSD\SP\RB3LYP TD-FC\SVP\C55H74N4O5\PADAWAN\03-Aug-
 2019\0\\# td=(NStates=1) B3LYP/SVP\\TD\\0,1\C,0,-5.1217898771,-2.00787
 70298,0.3781826942\C,0,-4.7388342024,2.7451309648,1.44394078\C,0,-9.38
 09980095,3.4198227815,-0.2327817461\C,0,-9.7531833728,-1.3673575392,-0
 .9880013535\N,0,-5.2467638387,0.3777894018,1.0067191089\C,0,-4.5521238
 285,-0.7461613371,0.8196954129\C,0,-3.0940990964,-0.6402504597,1.33332
 83286\C,0,-3.1504300084,0.8030291952,1.9226213679\C,0,-4.4148806812,1.
 4008999079,1.3852621232\C,0,-2.9808066492,0.8629438067,3.3750453671\C,
 0,-2.0910811788,-0.7441543771,0.1837363192\C,0,-0.5547586881,-0.791937
 4103,0.6921116639\C,0,0.3945731187,-1.2025571286,-0.42892445\O,0,0.056
 6674343,-1.6759599626,-1.5230759191\O,0,1.686168814,-0.9893257057,-0.0
 983522779\N,0,-7.1090555002,2.8564929211,0.5724767569\C,0,-5.958997475
 1,3.4473991582,1.1148823451\C,0,-6.2545686426,4.7584422837,1.139890481
 8\C,0,-7.5783569325,4.9362024557,0.6759841258\C,0,-8.100480994,3.67490
 59843,0.258415997\C,0,-5.2892994464,5.8104265578,1.6950707731\C,0,-8.1
 836156443,6.2827022818,0.5914776491\C,0,-8.9718250807,6.7611258345,-0.
 3509875776\N,0,-9.259684169,0.9891361466,-0.3950019686\C,0,-9.94963882
 68,2.1561681155,-0.6254318124\C,0,-11.3731311796,1.9862121822,-1.09483
 33172\C,0,-11.4003939899,0.616679008,-1.3608810428\C,0,-10.005862812,0
 .0279528436,-0.8680600485\C,0,-12.22519102,3.0270112027,-1.237656856\C
 ,0,-12.5431420537,-0.2181742969,-1.82500346\C,0,-12.4816882995,-0.5526
 485293,-3.4110992812\N,0,-7.4714861062,-1.2832600112,-0.1719857271\C,0
 ,-8.5576873562,-2.0914078676,-0.7122445869\C,0,-8.1334657856,-3.372074
 0896,-0.7625488222\C,0,-6.7337482839,-3.4133681651,-0.3974673706\C,0,-
 6.450436147,-2.1453773563,-0.0333982636\C,0,-8.9529180494,-4.515592308
 7,-1.2326622606\C,0,-5.6966566109,-4.3111161467,-0.068365891\O,0,-5.51
 77612663,-5.4867482049,-0.1938466506\C,0,-4.463273956,-3.3857293345,0.
 4541844805\C,0,-3.8281266106,-3.7838824817,1.7109376195\O,0,-4.0064857
 221,-3.2867266066,2.7972277909\O,0,-3.1054892365,-4.9405690298,1.47787
 82157\C,0,-2.5350482086,-5.4417836245,2.6551976594\C,0,2.6770798766,-1
 .2186857662,-1.1240164274\C,0,4.0296462114,-0.7127617786,-0.5825603561
 \C,0,4.916183875,0.0400950644,-1.30283424\C,0,4.7821874144,0.387089440
 6,-2.8071078276\C,0,6.266828428,0.5480225415,-0.6147903932\C,0,7.49934
 11745,-0.3824144243,-1.1231191788\C,0,8.7282244235,-0.0696909542,-0.18
 71670642\C,0,10.0637973054,-0.8253168583,-0.5776051153\C,0,9.994805519
 2,-2.4061844213,-0.4055998449\C,0,11.2363374839,-0.2789122059,0.230342
 4785\C,0,12.664508125,-0.6607813953,-0.3204365668\C,0,13.8003086203,0.
 0681195858,0.3585479103\C,0,15.1450734191,-0.2959104725,-0.073960954\C
 ,0,15.6626258344,-1.8063695024,0.2116123929\C,0,16.3185225966,0.713995
 9169,0.4298220045\C,0,17.67521241,0.6629992176,-0.3114550469\C,0,18.60
 92318475,1.7863229612,0.3789087071\C,0,19.9710290045,1.7116189665,-0.1
 534836209\C,0,20.0152422231,2.0042369998,-1.6616742452\C,0,20.82175469
 68,2.8286342022,0.5705288411\H,0,-3.9074184021,3.6123824702,1.72083696
 46\H,0,-9.9458124343,4.3480620483,-0.3396052832\H,0,-10.622046461,-1.9
 438415397,-1.4215316263\H,0,-2.9507374007,-1.285807816,2.3004809238\H,
 0,-2.2734186564,1.4928695102,1.6665695692\H,0,-2.1401042684,0.51552792
 12,3.7890780118\H,0,-3.0770431962,1.8406691166,3.8640866039\H,0,-3.730
 0726042,0.0224774322,3.9642416004\H,0,-2.1254680552,-1.7556703001,-0.3
 779122384\H,0,-2.0660699464,0.142310422,-0.715108205\H,0,-0.1409899188
 ,0.204584312,1.0021205734\H,0,-0.1868390232,-1.4801899776,1.5703945479
 \H,0,-4.4552803445,6.0352178899,0.8593287327\H,0,-5.7452597324,6.88260
 3175,1.9188911837\H,0,-4.7547235592,5.5074187859,2.7111152455\H,0,-7.9
 635413635,7.047624637,1.3217237263\H,0,-9.1323685888,6.0980699675,-1.3
 579573818\H,0,-9.2302477714,7.9004487724,-0.4205222751\H,0,-12.0011944
 814,3.6822074079,-0.2635841715\H,0,-11.9605299013,3.6608000374,-2.2733
 166485\H,0,-13.3290939322,2.4601638521,-1.2351978752\H,0,-12.518504223
 6,-1.1533542621,-1.4308178329\H,0,-13.5345904835,0.2644305978,-1.74605
 69645\H,0,-11.9930349334,0.4164484579,-3.8708844327\H,0,-11.5743624042
 ,-1.1890164752,-3.602789231\H,0,-13.6033870922,-0.6528043752,-3.973524
 8948\H,0,-10.0725338022,-4.5691462344,-0.7544077428\H,0,-9.0919531742,
 -4.4336113071,-2.5050774059\H,0,-8.6729924739,-5.3588541524,-0.9819661
 521\H,0,-3.7666085123,-3.4539916894,-0.325523901\H,0,-1.9316335564,-6.
 5088559813,2.4511284469\H,0,-2.0253609825,-4.7981633002,3.2810625489\H
 ,0,-3.2388769041,-5.7728723788,3.3967065463\H,0,2.6602099285,-2.151872
 8308,-1.4826394309\H,0,2.2359684913,-0.4340209829,-1.804118179\H,0,4.0
 252052922,-0.8678691012,0.4998278858\H,0,5.2098028095,1.4238148905,-3.
 1073554553\H,0,5.1753241496,-0.406304668,-3.5767790795\H,0,3.815551673
 4,0.4940205889,-3.2366944945\H,0,6.5423022464,1.7573518602,-0.80077026
 81\H,0,6.1306211068,0.4471048209,0.3740951169\H,0,6.944201205,-1.45488
 22128,-0.9580565653\H,0,7.7224417867,-0.280496029,-2.1766424932\H,0,9.
 1167271601,1.0868575271,-0.3250623579\H,0,8.6260256654,-0.1391680683,0
 .8543882512\H,0,10.2822108897,-0.6766451078,-1.7823128063\H,0,9.197630
 0792,-2.9614748407,-0.9212706749\H,0,10.9784028714,-2.9310147013,-0.59
 87304779\H,0,9.9057355937,-2.7866803536,0.5863103617\H,0,10.8806733647
 ,0.9360323833,0.2197505603\H,0,11.1972456881,-0.4636816047,1.325722502
 5\H,0,13.0086155722,-1.8260241736,-0.3744206551\H,0,12.8452126735,-0.3
 052806071,-1.3742589596\H,0,13.4409752524,1.1005897698,0.4453974506\H,
 0,13.8494791749,-0.0778442122,1.5572425702\H,0,15.1033726815,-0.189787
 7727,-1.2199540087\H,0,15.1106166146,-2.595762158,-0.5318425175\H,0,16
 .7013040039,-1.9545194885,-0.2264584297\H,0,15.3483601148,-2.127557888
 4,1.3146407355\H,0,15.9158518584,1.709127483,0.2641868777\H,0,16.43405
 80626,0.6308137047,1.6448679094\H,0,18.115312753,-0.306754886,-0.18906
 87747\H,0,17.690493635,0.7834602343,-1.3334717797\H,0,18.2932740169,2.
 8345098469,0.079443334\H,0,18.5718194361,1.7059764071,1.5090380538\H,0
 ,20.3666529977,0.7640543664,0.0844295992\H,0,19.8979371503,3.242032473
 3,-1.8494768501\H,0,21.0157988236,1.949292999,-2.2186549721\H,0,19.228
 1577888,1.3512607478,-2.2106532468\H,0,20.899525189,2.8473061986,1.708
 4318798\H,0,21.9017930365,2.9878788153,0.3135555127\H,0,20.4391835478,
 3.9675499546,0.2398327212\H,0,-7.0563474678,1.8518840616,0.3044122873\
 H,0,-7.6045320016,-0.303230499,0.0476046329\\Version=ES64L-G09RevD.01\
 State=1-A\HF=-2732.9901767\RMSD=3.936e-09\PG=C01 [X(C55H74N4O5)]\\@


 "TIGER, TIGER BURNING BRIGHT
 IN THE FOREST OF THE NIGHT.
 WHAT IMMORTAL HAND OR EYE
 CAN FRAME THY FEARFUL SYMMETRYE?"
                     - WILLIAM BLAKE
 Job cpu time:       0 days  4 hours 27 minutes  9.8 seconds.
 File lengths (MBytes):  RWF=   1953 Int=      0 D2E=      0 Chk=    148 Scr=      1
 Normal termination of Gaussian 09 at Sat Aug  3 23:10:54 2019.
