 Entering Gaussian System, Link 0=g16
 Input=Geometria-93-.com
 Output=Geometria-93-.log
 Initial command:
 /usr/local/g09/l1.exe "/home/padawan/israel-mol/pheophytin/spectra/abs/Gau-62072.inp" -scrdir="/home/padawan/israel-mol/pheophytin/spectra/abs/"
 Entering Link 1 = /usr/local/g09/l1.exe PID=     62074.
  
 Copyright (c) 1988,1990,1992,1993,1995,1998,2003,2009,2013,
            Gaussian, Inc.  All Rights Reserved.
  
 This is part of the Gaussian(R) 09 program.  It is based on
 the Gaussian(R) 03 system (copyright 2003, Gaussian, Inc.),
 the Gaussian(R) 98 system (copyright 1998, Gaussian, Inc.),
 the Gaussian(R) 94 system (copyright 1995, Gaussian, Inc.),
 the Gaussian 92(TM) system (copyright 1992, Gaussian, Inc.),
 the Gaussian 90(TM) system (copyright 1990, Gaussian, Inc.),
 the Gaussian 88(TM) system (copyright 1988, Gaussian, Inc.),
 the Gaussian 86(TM) system (copyright 1986, Carnegie Mellon
 University), and the Gaussian 82(TM) system (copyright 1983,
 Carnegie Mellon University). Gaussian is a federally registered
 trademark of Gaussian, Inc.
  
 This software contains proprietary and confidential information,
 including trade secrets, belonging to Gaussian, Inc.
  
 This software is provided under written license and may be
 used, copied, transmitted, or stored only in accord with that
 written license.
  
 The following legend is applicable only to US Government
 contracts under FAR:
  
                    RESTRICTED RIGHTS LEGEND
  
 Use, reproduction and disclosure by the US Government is
 subject to restrictions as set forth in subparagraphs (a)
 and (c) of the Commercial Computer Software - Restricted
 Rights clause in FAR 52.227-19.
  
 Gaussian, Inc.
 340 Quinnipiac St., Bldg. 40, Wallingford CT 06492
  
  
 ---------------------------------------------------------------
 Warning -- This program may not be used in any manner that
 competes with the business of Gaussian, Inc. or will provide
 assistance to any competitor of Gaussian, Inc.  The licensee
 of this program is prohibited from giving any competitor of
 Gaussian, Inc. access to this program.  By using this program,
 the user acknowledges that Gaussian, Inc. is engaged in the
 business of creating and licensing software in the field of
 computational chemistry and represents and warrants to the
 licensee that it is not a competitor of Gaussian, Inc. and that
 it will not use this program in any manner prohibited above.
 ---------------------------------------------------------------
  

 Cite this work as:
 Gaussian 09, Revision D.01,
 M. J. Frisch, G. W. Trucks, H. B. Schlegel, G. E. Scuseria, 
 M. A. Robb, J. R. Cheeseman, G. Scalmani, V. Barone, B. Mennucci, 
 G. A. Petersson, H. Nakatsuji, M. Caricato, X. Li, H. P. Hratchian, 
 A. F. Izmaylov, J. Bloino, G. Zheng, J. L. Sonnenberg, M. Hada, 
 M. Ehara, K. Toyota, R. Fukuda, J. Hasegawa, M. Ishida, T. Nakajima, 
 Y. Honda, O. Kitao, H. Nakai, T. Vreven, J. A. Montgomery, Jr., 
 J. E. Peralta, F. Ogliaro, M. Bearpark, J. J. Heyd, E. Brothers, 
 K. N. Kudin, V. N. Staroverov, T. Keith, R. Kobayashi, J. Normand, 
 K. Raghavachari, A. Rendell, J. C. Burant, S. S. Iyengar, J. Tomasi, 
 M. Cossi, N. Rega, J. M. Millam, M. Klene, J. E. Knox, J. B. Cross, 
 V. Bakken, C. Adamo, J. Jaramillo, R. Gomperts, R. E. Stratmann, 
 O. Yazyev, A. J. Austin, R. Cammi, C. Pomelli, J. W. Ochterski, 
 R. L. Martin, K. Morokuma, V. G. Zakrzewski, G. A. Voth, 
 P. Salvador, J. J. Dannenberg, S. Dapprich, A. D. Daniels, 
 O. Farkas, J. B. Foresman, J. V. Ortiz, J. Cioslowski, 
 and D. J. Fox, Gaussian, Inc., Wallingford CT, 2013.
 
 ******************************************
 Gaussian 09:  ES64L-G09RevD.01 24-Apr-2013
                27-Jul-2019 
 ******************************************
 %nproc=3
 Will use up to    3 processors via shared memory.
 %Mem=2GB
 --------------------------
 # td=(NStates=1) B3LYP/SVP
 --------------------------
 1/38=1/1;
 2/12=2,17=6,18=5,40=1/2;
 3/5=18,7=101,11=9,16=1,25=1,30=1,74=-5/1,2,8,3;
 4//1;
 5/5=2,38=5/2;
 8/6=1,10=1,108=1/1;
 9/41=1,42=1,70=2/14;
 6/7=2,8=2,9=2,10=2/1;
 99/5=1,9=1/99;
 --
 TD
 --
 Symbolic Z-matrix:
 Charge =  0 Multiplicity = 1
 6                    -5.04388  -1.86526   0.46735 
 6                    -4.88109   2.93378   1.36308 
 6                    -9.50735   3.25313  -0.17789 
 6                    -9.80358  -1.56144  -0.87374 
 7                    -5.24428   0.50376   0.69918 
 6                    -4.55055  -0.60715   0.75979 
 6                    -3.02836  -0.43923   1.19011 
 6                    -3.04035   1.00822   1.73936 
 6                    -4.416     1.55674   1.10522 
 6                    -2.99479   0.92447   3.34777 
 6                    -2.06925  -0.71401  -0.0255 
 6                    -0.62398  -0.59508   0.43149 
 6                     0.37063  -0.8598   -0.72231 
 8                     0.07099  -1.05788  -1.88132 
 8                     1.63791  -0.6191   -0.29095 
 7                    -7.08462   2.72265   0.46136 
 6                    -6.07982   3.43011   0.9888 
 6                    -6.36431   4.82124   0.9726 
 6                    -7.75483   4.91306   0.6188 
 6                    -8.12218   3.56031   0.26363 
 6                    -5.53141   5.9334    1.49072 
 6                    -8.37602   6.14189   0.30583 
 6                    -9.35562   6.45241  -0.60993 
 7                    -9.24558   0.84898  -0.30911 
 6                    -10.04496   1.98049  -0.26437 
 6                    -11.43926   1.73993  -0.71722 
 6                    -11.49046   0.42335  -0.97589 
 6                    -10.16266  -0.10921  -0.73296 
 6                    -12.4876   2.76567  -0.97895 
 6                    -12.69127  -0.47629  -1.41325 
 6                    -12.76528  -0.92928  -2.90808 
 7                    -7.49817  -1.25564  -0.21055 
 6                    -8.54714  -2.10678  -0.54512 
 6                    -8.06601  -3.44078  -0.65388 
 6                    -6.72847  -3.4039   -0.18801 
 6                    -6.39766  -2.02305  -0.08577 
 6                    -8.79409  -4.76939  -1.00313 
 6                    -5.55859  -4.26382  -0.09516 
 8                    -5.45295  -5.48611  -0.14354 
 6                    -4.39384  -3.27976   0.32106 
 6                    -3.78828  -3.76801   1.69118 
 8                    -4.20311  -3.27415   2.72683 
 8                    -2.89843  -4.67233   1.53566 
 6                    -2.2849   -5.29755   2.70447 
 6                     2.72275  -0.76369  -1.23466 
 6                     4.04319  -0.44249  -0.64267 
 6                     5.01557   0.29891  -1.16381 
 6                     4.99494   0.87643  -2.59459 
 6                     6.37058   0.36556  -0.47569 
 6                     7.48087  -0.36522  -1.073 
 6                     8.81489   0.02828  -0.23626 
 6                     10.16159  -0.66222  -0.7487 
 6                     9.96985  -2.24571  -0.57215 
 6                     11.39657  -0.22472  -0.05221 
 6                     12.74423  -0.70041  -0.64077 
 6                     13.88311  -0.02927   0.12152 
 6                     15.22104  -0.23866  -0.41606 
 6                     15.60007  -1.78036  -0.45767 
 6                     16.26985   0.52013   0.46436 
 6                     17.8296   0.46052  -0.02508 
 6                     18.68476   1.35646   0.73412 
 6                     20.2301   1.30784   0.29203 
 6                     20.31863   1.79764  -1.15052 
 6                     20.97402   2.15997   1.30624 
 1                    -4.22807   3.55814   1.99921 
 1                    -10.30024   4.12435  -0.39879 
 1                    -10.68447  -2.22719  -1.18455 
 1                    -2.83255  -1.43669   1.88815 
 1                    -2.10479   1.54261   1.20337 
 1                    -2.04287   0.38589   3.69425 
 1                    -2.96382   1.96429   3.66363 
 1                    -3.88575   0.45454   3.54077 
 1                    -2.30175  -1.52988  -0.62423 
 1                    -2.24683  -0.08748  -0.72091 
 1                    -0.73993   0.42118   0.81729 
 1                    -0.57631  -1.16681   1.30849 
 1                    -4.62368   5.90174   0.84697 
 1                    -6.15616   6.89799   1.16566 
 1                    -5.23832   5.90145   2.65205 
 1                    -8.20034   6.89987   0.92841 
 1                    -9.65      5.83193  -1.3736 
 1                    -9.9674    7.40678  -0.5067 
 1                    -12.69343   3.23535  -0.11196 
 1                    -12.0588   3.47554  -1.60291 
 1                    -13.30413   2.24511  -1.50546 
 1                    -12.75055  -1.37517  -0.95222 
 1                    -13.56381   0.09826  -1.26398 
 1                    -12.66933  -0.03252  -3.61002 
 1                    -11.93272  -1.52801  -3.29183 
 1                    -13.7685  -1.34319  -2.96785 
 1                    -9.59625  -4.80674  -0.22443 
 1                    -9.35176  -4.73232  -2.17829 
 1                    -7.95829  -5.56083  -1.02446 
 1                    -3.40934  -3.11251  -0.57829 
 1                    -1.79558  -6.26334   2.42809 
 1                    -1.64213  -4.58448   3.18592 
 1                    -3.13515  -5.47903   3.53795 
 1                     2.60171  -1.89671  -1.32307 
 1                     2.46856  -0.10922  -2.26536 
 1                     4.27961  -0.98629   0.39533 
 1                     5.38703   1.81868  -2.52234 
 1                     5.4829    0.1724   -3.40181 
 1                     3.98704   0.82437  -3.03454 
 1                     6.71115   1.44494  -0.60574 
 1                     6.31222   0.20918   0.64337 
 1                     7.33045  -1.42354  -0.9521 
 1                     7.70317  -0.13871  -2.24358 
 1                     8.9989    1.20303  -0.40391 
 1                     8.83278  -0.20231   0.95583 
 1                     10.32496  -0.35771  -1.81359 
 1                     9.2217   -2.74808  -1.26877 
 1                     11.04406  -2.76437  -0.88208 
 1                     9.86073  -2.41238   0.59656 
 1                     11.25702   0.97774   0.06257 
 1                     11.18467  -0.7433    1.08414 
 1                     12.85022  -1.80594  -0.72229 
 1                     12.83911  -0.35886  -1.72529 
 1                     13.62212   1.0794    0.09145 
 1                     13.77514  -0.20359   1.28888 
 1                     15.31836   0.24013  -1.45803 
 1                     14.99995  -2.27872  -1.34772 
 1                     16.79083  -1.98248  -0.66407 
 1                     15.26948  -2.30223   0.52836 
 1                     15.78972   1.56134   0.30125 
 1                     16.12218   0.13238   1.53093 
 1                     18.14441  -0.62636  -0.15164 
 1                     17.78861   0.69396  -1.16066 
 1                     18.26297   2.25561   0.78342 
 1                     18.4059   1.00909   1.85245 
 1                     20.55037   0.30214   0.33347 
 1                     19.866    2.77479  -1.32085 
 1                     21.48437   1.83066  -1.58836 
 1                     19.55716   1.19817  -1.60378 
 1                     20.97069   1.47732   2.1092 
 1                     22.09546   2.08859   0.95231 
 1                     20.47187   3.02124   1.82373 
 1                    -7.20956   1.73902   0.50704 
 1                    -7.82959  -0.39068  -0.08407 
 
 Stoichiometry    C55H74N4O5
 Framework group  C1[X(C55H74N4O5)]
 Deg. of freedom   408
 Full point group                 C1      NOp   1
 Largest Abelian subgroup         C1      NOp   1
 Largest concise Abelian subgroup C1      NOp   1
                         Standard orientation:                         
 ---------------------------------------------------------------------
 Center     Atomic      Atomic             Coordinates (Angstroms)
 Number     Number       Type             X           Y           Z
 ---------------------------------------------------------------------
      1          6           0       -5.032750   -1.878512    0.495674
      2          6           0       -4.896639    2.935076    1.314510
      3          6           0       -9.525011    3.203820   -0.229775
      4          6           0       -9.794416   -1.622838   -0.848466
      5          7           0       -5.246373    0.492757    0.689665
      6          6           0       -4.546409   -0.613138    0.767790
      7          6           0       -3.025074   -0.429837    1.194852
      8          6           0       -3.045037    1.026120    1.720894
      9          6           0       -4.423904    1.556711    1.078540
     10          6           0       -2.998597    0.968355    3.330421
     11          6           0       -2.064744   -0.718642   -0.016549
     12          6           0       -0.620044   -0.584322    0.437984
     13          6           0        0.375737   -0.861885   -0.711778
     14          8           0        0.076915   -1.080142   -1.867367
     15          8           0        1.641760   -0.607219   -0.284755
     16          7           0       -7.099185    2.697213    0.417032
     17          6           0       -6.098230    3.418632    0.932752
     18          6           0       -6.390519    4.807711    0.894416
     19          6           0       -7.781627    4.886072    0.539666
     20          6           0       -8.141476    3.525784    0.206293
     21          6           0       -5.563741    5.932662    1.394399
     22          6           0       -8.409778    6.106240    0.207305
     23          6           0       -9.391335    6.396592   -0.712968
     24          7           0       -9.249801    0.799389   -0.322640
     25          6           0      -10.055497    1.926973   -0.295713
     26          6           0      -11.448541    1.671392   -0.744179
     27          6           0      -11.492429    0.350581   -0.981756
     28          6           0      -10.161598   -0.170581   -0.730794
     29          6           0      -12.502682    2.686925   -1.021919
     30          6           0      -12.688281   -0.562650   -1.404264
     31          6           0      -12.760130   -1.039887   -2.891632
     32          7           0       -7.490589   -1.293563   -0.191042
     33          6           0       -8.534853   -2.155809   -0.511599
     34          6           0       -8.046281   -3.488662   -0.599184
     35          6           0       -6.708849   -3.436842   -0.134422
     36          6           0       -6.385764   -2.052700   -0.054392
     37          6           0       -8.766992   -4.826741   -0.926899
     38          6           0       -5.534147   -4.288604   -0.028240
     39          8           0       -5.421670   -5.510897   -0.057112
     40          6           0       -4.374822   -3.291502    0.371793
     41          6           0       -3.766190   -3.754385    1.749329
     42          8           0       -4.183512   -3.246355    2.777099
     43          8           0       -2.871319   -4.656078    1.607989
     44          6           0       -2.254001   -5.259080    2.786433
     45          6           0        2.727154   -0.760801   -1.226402
     46          6           0        4.045916   -0.422789   -0.640076
     47          6           0        5.013998    0.315625   -1.173341
     48          6           0        4.989760    0.870067   -2.613160
     49          6           0        6.368783    0.400863   -0.486837
     50          6           0        7.483001   -0.333150   -1.072777
     51          6           0        8.815011    0.081147   -0.242892
     52          6           0       10.165424   -0.609902   -0.744691
     53          6           0        9.982617   -2.191414   -0.542776
     54          6           0       11.398116   -0.154406   -0.055703
     55          6           0       12.748264   -0.631887   -0.637049
     56          6           0       13.883558    0.057720    0.114024
     57          6           0       15.222509   -0.152744   -0.420599
     58          6           0       15.610165   -1.692757   -0.437696
     59          6           0       16.267268    0.625891    0.447207
     60          6           0       17.827203    0.567204   -0.041746
     61          6           0       18.677521    1.479946    0.702739
     62          6           0       20.223003    1.432921    0.260948
     63          6           0       20.308415    1.900079   -1.189283
     64          6           0       20.962386    2.305311    1.261150
     65          1           0       -4.246970    3.573173    1.940354
     66          1           0      -10.322827    4.066945   -0.464308
     67          1           0      -10.671643   -2.298399   -1.148287
     68          1           0       -2.823490   -1.414898    1.908678
     69          1           0       -2.112627    1.557110    1.176107
     70          1           0       -2.043591    0.440730    3.685135
     71          1           0       -2.973381    2.013251    3.629600
     72          1           0       -3.886859    0.496588    3.531212
     73          1           0       -2.292815   -1.545267   -0.602071
     74          1           0       -2.246011   -0.104317   -0.721819
     75          1           0       -0.741597    0.437305    0.807534
     76          1           0       -0.568949   -1.141681    1.323999
     77          1           0       -4.656005    5.895804    0.750922
     78          1           0       -6.193969    6.888422    1.054170
     79          1           0       -5.270179    5.920926    2.555989
     80          1           0       -8.238182    6.875051    0.817632
     81          1           0       -9.682423    5.762340   -1.466515
     82          1           0      -10.008428    7.349042   -0.624796
     83          1           0      -12.710928    3.169254   -0.162476
     84          1           0      -12.078030    3.389125   -1.657294
     85          1           0      -13.316418    2.153454   -1.539762
     86          1           0      -12.742403   -1.454358   -0.928899
     87          1           0      -13.563997    0.009320   -1.263895
     88          1           0      -12.669395   -0.153942   -3.607851
     89          1           0      -11.924326   -1.640007   -3.266046
     90          1           0      -13.761036   -1.460321   -2.944437
     91          1           0       -9.568726   -4.856132   -0.147431
     92          1           0       -9.325157   -4.811594   -2.102315
     93          1           0       -7.926772   -5.613733   -0.935862
     94          1           0       -3.391510   -3.133140   -0.530456
     95          1           0       -1.759340   -6.226412    2.525354
     96          1           0       -1.615116   -4.534816    3.256200
     97          1           0       -3.103001   -5.431974    3.622998
     98          1           0        2.612446   -1.895747   -1.296651
     99          1           0        2.469034   -0.124327   -2.267353
    100          1           0        4.285649   -0.948586    0.406398
    101          1           0        5.376581    1.815540   -2.556119
    102          1           0        5.481461    0.155970   -3.409194
    103          1           0        3.982056    0.805339   -3.051883
    104          1           0        6.703262    1.479912   -0.634248
    105          1           0        6.311586    0.262068    0.634599
    106          1           0        7.338549   -1.390224   -0.934913
    107          1           0        7.703730   -0.124143   -2.246900
    108          1           0        8.992380    1.254079   -0.429363
    109          1           0        8.834490   -0.130252    0.952726
    110          1           0       10.326812   -0.321550   -1.814363
    111          1           0        9.237118   -2.709046   -1.231017
    112          1           0       11.059636   -2.708937   -0.844746
    113          1           0        9.874729   -2.339989    0.628485
    114          1           0       11.251852    1.048928    0.039887
    115          1           0       11.189417   -0.655932    1.088859
    116          1           0       12.860434   -1.737975   -0.700918
    117          1           0       12.840958   -0.307196   -1.726929
    118          1           0       13.616355    1.164286    0.066321
    119          1           0       13.776869   -0.098511    1.284051
    120          1           0       15.316880    0.309862   -1.470127
    121          1           0       15.012618   -2.208642   -1.319458
    122          1           0       16.801990   -1.891483   -0.641245
    123          1           0       15.282760   -2.200637    0.556672
    124          1           0       15.781268    1.661660    0.267642
    125          1           0       16.122045    0.254430    1.519891
    126          1           0       18.148068   -0.519776   -0.151021
    127          1           0       17.784622    0.782226   -1.180907
    128          1           0       18.250710    2.377395    0.737802
    129          1           0       18.400901    1.148942    1.826574
    130          1           0       20.548913    0.429821    0.318355
    131          1           0       19.850272    2.871829   -1.375058
    132          1           0       21.473833    1.932629   -1.627995
    133          1           0       19.550201    1.289181   -1.632638
    134          1           0       20.963090    1.635581    2.074922
    135          1           0       22.084121    2.234566    0.908018
    136          1           0       20.455543    3.171916    1.764976
    137          1           0       -7.218596    1.713758    0.478482
    138          1           0       -7.826827   -0.428563   -0.078292
 ---------------------------------------------------------------------
 Rotational constants (GHZ):      0.0661142      0.0061073      0.0057531
 Standard basis: SVP (5D, 7F)
 There are  1330 symmetry adapted cartesian basis functions of A   symmetry.
 There are  1266 symmetry adapted basis functions of A   symmetry.
  1266 basis functions,  2118 primitive gaussians,  1330 cartesian basis functions
   236 alpha electrons      236 beta electrons
       nuclear repulsion energy      8286.6123586032 Hartrees.
 NAtoms=  138 NActive=  138 NUniq=  138 SFac= 1.00D+00 NAtFMM=   60 NAOKFM=T Big=T
 Integral buffers will be    131072 words long.
 Regular integral format.
 Two-electron integral symmetry is turned on.
 One-electron integrals computed using PRISM.
 NBasis=  1266 RedAO= T EigKep=  3.65D-04  NBF=  1266
 NBsUse=  1266 1.00D-06 EigRej= -1.00D+00 NBFU=  1266
 ExpMin= 1.22D-01 ExpMax= 2.27D+03 ExpMxC= 3.41D+02 IAcc=1 IRadAn=         1 AccDes= 0.00D+00
 Harris functional with IExCor=  402 and IRadAn=       1 diagonalized for initial guess.
 HarFok:  IExCor=  402 AccDes= 0.00D+00 IRadAn=         1 IDoV= 1 UseB2=F ITyADJ=14
 ICtDFT=  3500011 ScaDFX=  1.000000  1.000000  1.000000  1.000000
 FoFCou: FMM=F IPFlag=           0 FMFlag=      100000 FMFlg1=        2001
         NFxFlg=           0 DoJE=T BraDBF=F KetDBF=T FulRan=T
         wScrn=  0.000000 ICntrl=     500 IOpCl=  0 I1Cent=   200000004 NGrid=           0
         NMat0=    1 NMatS0=      1 NMatT0=    0 NMatD0=    1 NMtDS0=    0 NMtDT0=    0
 Petite list used in FoFCou.
 Requested convergence on RMS density matrix=1.00D-08 within 128 cycles.
 Requested convergence on MAX density matrix=1.00D-06.
 Requested convergence on             energy=1.00D-06.
 No special actions if energy rises.
 Integral accuracy reduced to 1.0D-05 until final iterations.
 Initial convergence to 1.0D-05 achieved.  Increase integral accuracy.
