 Entering Gaussian System, Link 0=g16
 Input=Geometria-394-.com
 Output=Geometria-394-.log
 Initial command:
 /usr/local/g09/l1.exe "/home/padawan/israel-mol/pheophytin/spectra/abs/Gau-112989.inp" -scrdir="/home/padawan/israel-mol/pheophytin/spectra/abs/"
 Entering Link 1 = /usr/local/g09/l1.exe PID=    112991.
  
 Copyright (c) 1988,1990,1992,1993,1995,1998,2003,2009,2013,
            Gaussian, Inc.  All Rights Reserved.
  
 This is part of the Gaussian(R) 09 program.  It is based on
 the Gaussian(R) 03 system (copyright 2003, Gaussian, Inc.),
 the Gaussian(R) 98 system (copyright 1998, Gaussian, Inc.),
 the Gaussian(R) 94 system (copyright 1995, Gaussian, Inc.),
 the Gaussian 92(TM) system (copyright 1992, Gaussian, Inc.),
 the Gaussian 90(TM) system (copyright 1990, Gaussian, Inc.),
 the Gaussian 88(TM) system (copyright 1988, Gaussian, Inc.),
 the Gaussian 86(TM) system (copyright 1986, Carnegie Mellon
 University), and the Gaussian 82(TM) system (copyright 1983,
 Carnegie Mellon University). Gaussian is a federally registered
 trademark of Gaussian, Inc.
  
 This software contains proprietary and confidential information,
 including trade secrets, belonging to Gaussian, Inc.
  
 This software is provided under written license and may be
 used, copied, transmitted, or stored only in accord with that
 written license.
  
 The following legend is applicable only to US Government
 contracts under FAR:
  
                    RESTRICTED RIGHTS LEGEND
  
 Use, reproduction and disclosure by the US Government is
 subject to restrictions as set forth in subparagraphs (a)
 and (c) of the Commercial Computer Software - Restricted
 Rights clause in FAR 52.227-19.
  
 Gaussian, Inc.
 340 Quinnipiac St., Bldg. 40, Wallingford CT 06492
  
  
 ---------------------------------------------------------------
 Warning -- This program may not be used in any manner that
 competes with the business of Gaussian, Inc. or will provide
 assistance to any competitor of Gaussian, Inc.  The licensee
 of this program is prohibited from giving any competitor of
 Gaussian, Inc. access to this program.  By using this program,
 the user acknowledges that Gaussian, Inc. is engaged in the
 business of creating and licensing software in the field of
 computational chemistry and represents and warrants to the
 licensee that it is not a competitor of Gaussian, Inc. and that
 it will not use this program in any manner prohibited above.
 ---------------------------------------------------------------
  

 Cite this work as:
 Gaussian 09, Revision D.01,
 M. J. Frisch, G. W. Trucks, H. B. Schlegel, G. E. Scuseria, 
 M. A. Robb, J. R. Cheeseman, G. Scalmani, V. Barone, B. Mennucci, 
 G. A. Petersson, H. Nakatsuji, M. Caricato, X. Li, H. P. Hratchian, 
 A. F. Izmaylov, J. Bloino, G. Zheng, J. L. Sonnenberg, M. Hada, 
 M. Ehara, K. Toyota, R. Fukuda, J. Hasegawa, M. Ishida, T. Nakajima, 
 Y. Honda, O. Kitao, H. Nakai, T. Vreven, J. A. Montgomery, Jr., 
 J. E. Peralta, F. Ogliaro, M. Bearpark, J. J. Heyd, E. Brothers, 
 K. N. Kudin, V. N. Staroverov, T. Keith, R. Kobayashi, J. Normand, 
 K. Raghavachari, A. Rendell, J. C. Burant, S. S. Iyengar, J. Tomasi, 
 M. Cossi, N. Rega, J. M. Millam, M. Klene, J. E. Knox, J. B. Cross, 
 V. Bakken, C. Adamo, J. Jaramillo, R. Gomperts, R. E. Stratmann, 
 O. Yazyev, A. J. Austin, R. Cammi, C. Pomelli, J. W. Ochterski, 
 R. L. Martin, K. Morokuma, V. G. Zakrzewski, G. A. Voth, 
 P. Salvador, J. J. Dannenberg, S. Dapprich, A. D. Daniels, 
 O. Farkas, J. B. Foresman, J. V. Ortiz, J. Cioslowski, 
 and D. J. Fox, Gaussian, Inc., Wallingford CT, 2013.
 
 ******************************************
 Gaussian 09:  ES64L-G09RevD.01 24-Apr-2013
                 4-Aug-2019 
 ******************************************
 %nproc=3
 Will use up to    3 processors via shared memory.
 %Mem=2GB
 --------------------------
 # td=(NStates=1) B3LYP/SVP
 --------------------------
 1/38=1/1;
 2/12=2,17=6,18=5,40=1/2;
 3/5=18,7=101,11=9,16=1,25=1,30=1,74=-5/1,2,8,3;
 4//1;
 5/5=2,38=5/2;
 8/6=1,10=1,108=1/1;
 9/41=1,42=1,70=2/14;
 6/7=2,8=2,9=2,10=2/1;
 99/5=1,9=1/99;
 --
 TD
 --
 Symbolic Z-matrix:
 Charge =  0 Multiplicity = 1
 6                    -4.97379  -1.84978   0.46857 
 6                    -4.953     2.82059   1.50279 
 6                    -9.44266   3.18247  -0.23533 
 6                    -9.81796  -1.55484  -1.08939 
 7                    -5.14063   0.49267   0.89909 
 6                    -4.48486  -0.64893   0.84465 
 6                    -3.02658  -0.45262   1.39017 
 6                    -3.17569   0.94313   2.01554 
 6                    -4.43299   1.49596   1.3256 
 6                    -3.21219   0.90267   3.59666 
 6                    -1.97569  -0.566     0.18632 
 6                    -0.65529  -0.63451   0.73884 
 6                     0.38173  -0.71776  -0.48508 
 8                     0.00821  -1.05998  -1.54741 
 8                     1.65212  -0.54799  -0.08514 
 7                    -7.15572   2.68025   0.50921 
 6                    -6.11043   3.36522   1.08812 
 6                    -6.46009   4.7628    1.17231 
 6                    -7.73508   4.83323   0.52337 
 6                    -8.22533   3.58445   0.18958 
 6                    -5.62185   5.75414   1.72523 
 6                    -8.337     6.28776   0.28407 
 6                    -9.13302   6.58229  -0.6846 
 7                    -9.22978   0.79419  -0.57351 
 6                    -9.95167   1.93623  -0.65512 
 6                    -11.30895   1.72463  -1.05233 
 6                    -11.34567   0.32071  -1.40224 
 6                    -10.06702  -0.14734  -1.0211 
 6                    -12.38123   2.80195  -1.22954 
 6                    -12.51444  -0.47398  -1.99094 
 6                    -12.4172  -0.78028  -3.41574 
 7                    -7.39844  -1.24257  -0.21976 
 6                    -8.5013   -2.08415  -0.6581 
 6                    -8.06439  -3.41768  -0.65666 
 6                    -6.68243  -3.39906  -0.22134 
 6                    -6.29762  -1.98675   0.01096 
 6                    -8.73957  -4.70058  -1.10118 
 6                    -5.61357  -4.23604   0.0256 
 8                    -5.58951  -5.43684   0.0179 
 6                    -4.32942  -3.27494   0.50668 
 6                    -3.82189  -3.73467   1.87448 
 8                    -4.17367  -3.35801   3.01161 
 8                    -2.87053  -4.66782   1.62566 
 6                    -2.44474  -5.48145   2.85954 
 6                     2.59596  -0.76543  -1.26706 
 6                     3.9475   -0.61463  -0.67372 
 6                     4.88826   0.30079  -0.97148 
 6                     4.75468   1.41181  -2.22552 
 6                     6.30709   0.27544  -0.14738 
 6                     7.42537  -0.3233   -0.92702 
 6                     8.737    -0.10348  -0.16316 
 6                     10.08419  -0.56674  -0.96575 
 6                     10.08323  -2.15832  -1.16834 
 6                     11.33393  -0.17581  -0.06328 
 6                     12.64765  -0.53417  -0.69465 
 6                     13.84992  -0.10989   0.19388 
 6                     15.14605  -0.34347  -0.32766 
 6                     15.51179  -1.76164  -0.53541 
 6                     16.30856   0.40762   0.39398 
 6                     17.72305   0.44852  -0.1827 
 6                     18.7173   1.30592   0.69609 
 6                     20.09824   1.31969   0.00225 
 6                     20.28551   1.74096  -1.44657 
 6                     21.02414   2.2403    0.88587 
 1                    -4.29948   3.4718    2.07932 
 1                    -10.05233   4.04913  -0.47727 
 1                    -10.54041  -2.45619  -1.38538 
 1                    -2.68825  -1.26195   2.15823 
 1                    -2.33774   1.4991    1.87935 
 1                    -2.26807   0.3811    3.98171 
 1                    -3.32221   1.8       4.05021 
 1                    -4.05705   0.22504   3.77095 
 1                    -2.30389  -1.45856  -0.58625 
 1                    -2.09939   0.20191  -0.60856 
 1                    -0.41352   0.16085   1.34347 
 1                    -0.59657  -1.50024   1.32667 
 1                    -4.76247   6.01319   0.98966 
 1                    -5.91403   6.69442   1.74398 
 1                    -5.13245   5.57338   2.87677 
 1                    -8.02424   7.0027    1.17158 
 1                    -9.33583   5.91223  -1.43968 
 1                    -9.62013   7.53332  -0.60922 
 1                    -12.43674   3.46897  -0.37725 
 1                    -12.11689   3.6495   -1.97911 
 1                    -13.2063   2.38685  -1.55555 
 1                    -12.48096  -1.43302  -1.57366 
 1                    -13.42967  -0.22192  -1.64233 
 1                    -12.37433   0.19104  -4.01937 
 1                    -11.44268  -1.3564   -3.66642 
 1                    -13.47582  -1.1931   -3.9862 
 1                    -9.68702  -4.87819  -0.50576 
 1                    -9.09005  -4.68192  -2.21939 
 1                    -8.12854  -5.60034  -0.8509 
 1                    -3.38942  -3.38261  -0.01877 
 1                    -1.85883  -6.18498   2.36654 
 1                    -1.95867  -4.93891   3.57673 
 1                    -3.23481  -5.95976   3.19454 
 1                     2.43953  -1.82876  -1.60308 
 1                     2.38861  -0.06196  -2.15664 
 1                     4.3135   -1.09753   0.1461 
 1                     4.84056   2.45868  -1.61871 
 1                     5.47007   1.18352  -3.07855 
 1                     3.70397   1.68344  -2.47035 
 1                     6.68722   1.30665   0.32305 
 1                     6.03121  -0.30522   0.73853 
 1                     7.16144  -1.50943  -1.04624 
 1                     7.62697   0.13454  -1.97406 
 1                     9.00707   0.95018   0.05518 
 1                     8.72296  -0.62751   0.73582 
 1                     10.2243  -0.12886  -2.10809 
 1                     9.35988  -2.36583  -1.97924 
 1                     11.09739  -2.44651  -1.42675 
 1                     9.92461  -2.99125  -0.21386 
 1                     11.34904   0.72994   0.07324 
 1                     11.52103  -0.68776   0.90263 
 1                     12.68323  -1.62922  -0.77978 
 1                     12.87899  -0.13789  -1.67453 
 1                     13.57032   1.06454   0.49518 
 1                     13.97222  -0.51991   1.32456 
 1                     15.25756   0.23875  -1.1538 
 1                     14.74508  -2.09757  -1.27895 
 1                     16.62705  -1.91506  -0.92763 
 1                     15.4051  -2.20266   0.5595 
 1                     16.09185   1.50776   0.61724 
 1                     16.1374  -0.0751    1.39414 
 1                     18.12389  -0.5474   -0.3149 
 1                     17.95178   0.81968  -1.32949 
 1                     18.10829   2.29679   0.62442 
 1                     18.81028   0.79324   1.79665 
 1                     20.38091   0.17122   0.07584 
 1                     20.0518   2.8455   -1.62464 
 1                     21.28816   1.49233  -1.84742 
 1                     19.53125   1.1061   -2.04818 
 1                     20.85544   1.69538   2.03211 
 1                     22.28668   2.07015   0.77358 
 1                     20.80456   3.20701   0.784 
 1                    -7.29296   1.63456   0.29581 
 1                    -7.69744  -0.20594  -0.19595 
 
 Stoichiometry    C55H74N4O5
 Framework group  C1[X(C55H74N4O5)]
 Deg. of freedom   408
 Full point group                 C1      NOp   1
 Largest Abelian subgroup         C1      NOp   1
 Largest concise Abelian subgroup C1      NOp   1
                         Standard orientation:                         
 ---------------------------------------------------------------------
 Center     Atomic      Atomic             Coordinates (Angstroms)
 Number     Number       Type             X           Y           Z
 ---------------------------------------------------------------------
      1          6           0       -4.964046   -1.870771    0.458452
      2          6           0       -4.967538    2.795183    1.512607
      3          6           0       -9.457821    3.141813   -0.227034
      4          6           0       -9.808612   -1.593635   -1.101564
      5          7           0       -5.143012    0.468948    0.898849
      6          6           0       -4.481441   -0.669086    0.839986
      7          6           0       -3.024540   -0.467748    1.387347
      8          6           0       -3.181115    0.924552    2.018563
      9          6           0       -4.440732    1.473966    1.330121
     10          6           0       -3.218459    0.877149    3.599467
     11          6           0       -1.972287   -0.570672    0.183738
     12          6           0       -0.651925   -0.634879    0.736867
     13          6           0        0.386317   -0.707660   -0.486681
     14          8           0        0.015238   -1.047220   -1.550717
     15          8           0        1.655560   -0.533191   -0.085149
     16          7           0       -7.168864    2.647966    0.516928
     17          6           0       -6.127436    3.335732    1.099474
     18          6           0       -6.484204    4.731158    1.189392
     19          6           0       -7.759105    4.797921    0.539879
     20          6           0       -8.242819    3.548113    0.200425
     21          6           0       -5.651354    5.724344    1.747114
     22          6           0       -8.368205    6.250403    0.306374
     23          6           0       -9.165058    6.545040   -0.661574
     24          7           0       -9.232650    0.756102   -0.575256
     25          6           0       -9.960244    1.894821   -0.652492
     26          6           0      -11.316179    1.678069   -1.051527
     27          6           0      -11.345567    0.275493   -1.407448
     28          6           0      -10.064823   -0.187723   -1.027431
     29          6           0      -12.393761    2.750712   -1.224870
     30          6           0      -12.509917   -0.522565   -2.000342
     31          6           0      -12.410186   -0.822283   -3.426369
     32          7           0       -7.391278   -1.272871   -0.228947
     33          6           0       -8.489583   -2.118129   -0.671631
     34          6           0       -8.045941   -3.449432   -0.675582
     35          6           0       -6.664386   -3.425692   -0.239239
     36          6           0       -6.286868   -2.012467   -0.000653
     37          6           0       -8.714333   -4.733816   -1.126038
     38          6           0       -5.591471   -4.258314    0.004863
     39          8           0       -5.561341   -5.458938   -0.007945
     40          6           0       -4.312516   -3.292806    0.490919
     41          6           0       -3.803575   -3.755806    1.857097
     42          8           0       -4.158016   -3.385794    2.995578
     43          8           0       -2.847347   -4.683074    1.604948
     44          6           0       -2.418277   -5.499803    2.835631
     45          6           0        2.601279   -0.740811   -1.267338
     46          6           0        3.951641   -0.585727   -0.672431
     47          6           0        4.887966    0.335698   -0.965636
     48          6           0        4.749612    1.451377   -2.215012
     49          6           0        6.306359    0.313986   -0.140680
     50          6           0        7.428169   -0.275758   -0.922097
     51          6           0        8.738155   -0.052589   -0.156410
     52          6           0       10.088205   -0.505606   -0.960044
     53          6           0       10.095425   -2.096289   -1.169419
     54          6           0       11.335352   -0.112230   -0.055049
     55          6           0       12.651284   -0.461250   -0.687048
     56          6           0       13.850811   -0.034704    0.204116
     57          6           0       15.148451   -0.259504   -0.317524
     58          6           0       15.521486   -1.674908   -0.531080
     59          6           0       16.306670    0.494347    0.408108
     60          6           0       17.721314    0.544854   -0.167421
     61          6           0       18.710641    1.403508    0.715706
     62          6           0       20.091954    1.427209    0.022881
     63          6           0       20.278055    1.855605   -1.424004
     64          6           0       21.012607    2.348694    0.911056
     65          1           0       -4.317702    3.447216    2.092366
     66          1           0      -10.071699    4.006413   -0.465688
     67          1           0      -10.526300   -2.497355   -1.401891
     68          1           0       -2.682635   -1.278627    2.152170
     69          1           0       -2.345886    1.485320    1.885323
     70          1           0       -2.271969    0.358719    3.982935
     71          1           0       -3.333310    1.771964    4.056765
     72          1           0       -4.059996    0.194524    3.770288
     73          1           0       -2.295456   -1.461573   -0.592860
     74          1           0       -2.099340    0.199985   -0.607936
     75          1           0       -0.414576    0.159103    1.345060
     76          1           0       -0.589224   -1.502805    1.321040
     77          1           0       -4.792803    5.990865    1.013245
     78          1           0       -5.948287    6.663052    1.769677
     79          1           0       -5.161812    5.541135    2.898206
     80          1           0       -8.059647    6.963112    1.197144
     81          1           0       -9.363976    5.877200   -1.419641
     82          1           0       -9.657012    7.493272   -0.582470
     83          1           0      -12.453209    3.413793   -0.369779
     84          1           0      -12.133207    3.602780   -1.970635
     85          1           0      -13.216512    2.332846   -1.553220
     86          1           0      -12.471871   -1.483200   -1.587138
     87          1           0      -13.426641   -0.276619   -1.651284
     88          1           0      -12.371823    0.151808   -4.025817
     89          1           0      -11.432598   -1.392401   -3.678832
     90          1           0      -13.466330   -1.237999   -3.999309
     91          1           0       -9.661268   -4.918745   -0.532036
     92          1           0       -9.064165   -4.712144   -2.244398
     93          1           0       -8.098933   -5.631538   -0.879185
     94          1           0       -3.371635   -3.393490   -0.034343
     95          1           0       -1.828489   -6.198259    2.340037
     96          1           0       -1.935436   -4.957884    3.555468
     97          1           0       -3.206140   -5.983526    3.168042
     98          1           0        2.450442   -1.803472   -1.608002
     99          1           0        2.390972   -0.034606   -2.154052
    100          1           0        4.319537   -1.070270    0.145574
    101          1           0        4.829790    2.496062   -1.603677
    102          1           0        5.466713    1.230351   -3.068517
    103          1           0        3.697703    1.718740   -2.459400
    104          1           0        6.680956    1.345085    0.334414
    105          1           0        6.032825   -0.271834    0.742559
    106          1           0        7.170313   -1.462684   -1.046555
    107          1           0        7.628148    0.187557   -1.967037
    108          1           0        9.002754    1.001487    0.066611
    109          1           0        8.726164   -0.580512    0.740316
    110          1           0       10.226857   -0.062147   -2.100400
    111          1           0        9.373664   -2.303978   -1.981694
    112          1           0       11.111200   -2.378245   -1.428367
    113          1           0        9.940374   -2.934080   -0.218615
    114          1           0       11.345798    0.792997    0.085339
    115          1           0       11.524394   -0.627353    0.908793
    116          1           0       12.692459   -1.555738   -0.776824
    117          1           0       12.881271   -0.059629   -1.665063
    118          1           0       13.565076    1.136996    0.510235
    119          1           0       13.974427   -0.448928    1.333117
    120          1           0       15.257563    0.326786   -1.141095
    121          1           0       14.756977   -2.011533   -1.276568
    122          1           0       16.637764   -1.821019   -0.923182
    123          1           0       15.416293   -2.121135    0.561862
    124          1           0       16.084255    1.592417    0.635917
    125          1           0       16.137283    0.006509    1.406085
    126          1           0       18.127275   -0.448453   -0.303595
    127          1           0       17.948932    0.922065   -1.312458
    128          1           0       18.096674    2.391579    0.647845
    129          1           0       18.805478    0.886597    1.814127
    130          1           0       20.380376    0.279872    0.091759
    131          1           0       20.038889    2.959704   -1.597519
    132          1           0       21.282211    1.613752   -1.825218
    133          1           0       19.527410    1.219516   -2.028830
    134          1           0       20.845895    1.798044    2.054848
    135          1           0       22.276061    2.185404    0.798909
    136          1           0       20.788209    3.314718    0.813160
    137          1           0       -7.300679    1.602525    0.298974
    138          1           0       -7.695529   -0.237879   -0.200917
 ---------------------------------------------------------------------
 Rotational constants (GHZ):      0.0642921      0.0061410      0.0057986
 Standard basis: SVP (5D, 7F)
 There are  1330 symmetry adapted cartesian basis functions of A   symmetry.
 There are  1266 symmetry adapted basis functions of A   symmetry.
  1266 basis functions,  2118 primitive gaussians,  1330 cartesian basis functions
   236 alpha electrons      236 beta electrons
       nuclear repulsion energy      8289.2830188884 Hartrees.
 NAtoms=  138 NActive=  138 NUniq=  138 SFac= 1.00D+00 NAtFMM=   60 NAOKFM=T Big=T
 Integral buffers will be    131072 words long.
 Regular integral format.
 Two-electron integral symmetry is turned on.
 One-electron integrals computed using PRISM.
 NBasis=  1266 RedAO= T EigKep=  2.86D-04  NBF=  1266
 NBsUse=  1266 1.00D-06 EigRej= -1.00D+00 NBFU=  1266
 ExpMin= 1.22D-01 ExpMax= 2.27D+03 ExpMxC= 3.41D+02 IAcc=1 IRadAn=         1 AccDes= 0.00D+00
 Harris functional with IExCor=  402 and IRadAn=       1 diagonalized for initial guess.
 HarFok:  IExCor=  402 AccDes= 0.00D+00 IRadAn=         1 IDoV= 1 UseB2=F ITyADJ=14
 ICtDFT=  3500011 ScaDFX=  1.000000  1.000000  1.000000  1.000000
 FoFCou: FMM=F IPFlag=           0 FMFlag=      100000 FMFlg1=        2001
         NFxFlg=           0 DoJE=T BraDBF=F KetDBF=T FulRan=T
         wScrn=  0.000000 ICntrl=     500 IOpCl=  0 I1Cent=   200000004 NGrid=           0
         NMat0=    1 NMatS0=      1 NMatT0=    0 NMatD0=    1 NMtDS0=    0 NMtDT0=    0
 Petite list used in FoFCou.
 Requested convergence on RMS density matrix=1.00D-08 within 128 cycles.
 Requested convergence on MAX density matrix=1.00D-06.
 Requested convergence on             energy=1.00D-06.
 No special actions if energy rises.
 Integral accuracy reduced to 1.0D-05 until final iterations.
 Initial convergence to 1.0D-05 achieved.  Increase integral accuracy.
 SCF Done:  E(RB3LYP) =  -2732.99260850     A.U. after   17 cycles
            NFock= 17  Conv=0.25D-08     -V/T= 2.0116
 DoSCS=F DFT=T ScalE2(SS,OS)=  1.000000  1.000000
 ExpMin= 1.22D-01 ExpMax= 2.27D+03 ExpMxC= 3.41D+02 IAcc=3 IRadAn=         5 AccDes= 0.00D+00
 HarFok:  IExCor=  205 AccDes= 0.00D+00 IRadAn=         5 IDoV=-2 UseB2=F ITyADJ=14
 ICtDFT= 12500011 ScaDFX=  1.000000  1.000000  1.000000  1.000000
 Range of M.O.s used for correlation:    65  1266
 NBasis=  1266 NAE=   236 NBE=   236 NFC=    64 NFV=     0
 NROrb=   1202 NOA=   172 NOB=   172 NVA=  1030 NVB=  1030

 **** Warning!!: The smallest alpha delta epsilon is  0.91574408D-01

 Would need an additional        965744300000 words for in-memory AO integral storage.
 Orbital symmetries:
       Occupied  (A) (A) (A) (A) (A) (A) (A) (A) (A) (A) (A) (A)
                 (A) (A) (A) (A) (A) (A) (A) (A) (A) (A) (A) (A)
                 (A) (A) (A) (A) (A) (A) (A) (A) (A) (A) (A) (A)
                 (A) (A) (A) (A) (A) (A) (A) (A) (A) (A) (A) (A)
                 (A) (A) (A) (A) (A) (A) (A) (A) (A) (A) (A) (A)
                 (A) (A) (A) (A) (A) (A) (A) (A) (A) (A) (A) (A)
                 (A) (A) (A) (A) (A) (A) (A) (A) (A) (A) (A) (A)
                 (A) (A) (A) (A) (A) (A) (A) (A) (A) (A) (A) (A)
                 (A) (A) (A) (A) (A) (A) (A) (A) (A) (A) (A) (A)
                 (A) (A) (A) (A) (A) (A) (A) (A) (A) (A) (A) (A)
                 (A) (A) (A) (A) (A) (A) (A) (A) (A) (A) (A) (A)
                 (A) (A) (A) (A) (A) (A) (A) (A) (A) (A) (A) (A)
                 (A) (A) (A) (A) (A) (A) (A) (A) (A) (A) (A) (A)
                 (A) (A) (A) (A) (A) (A) (A) (A) (A) (A) (A) (A)
                 (A) (A) (A) (A) (A) (A) (A) (A) (A) (A) (A) (A)
                 (A) (A) (A) (A) (A) (A) (A) (A) (A) (A) (A) (A)
                 (A) (A) (A) (A) (A) (A) (A) (A) (A) (A) (A) (A)
                 (A) (A) (A) (A) (A) (A) (A) (A) (A) (A) (A) (A)
                 (A) (A) (A) (A) (A) (A) (A) (A) (A) (A) (A) (A)
                 (A) (A) (A) (A) (A) (A) (A) (A)
       Virtual   (A) (A) (A) (A) (A) (A) (A) (A) (A) (A) (A) (A)
                 (A) (A) (A) (A) (A) (A) (A) (A) (A) (A) (A) (A)
                 (A) (A) (A) (A) (A) (A) (A) (A) (A) (A) (A) (A)
                 (A) (A) (A) (A) (A) (A) (A) (A) (A) (A) (A) (A)
                 (A) (A) (A) (A) (A) (A) (A) (A) (A) (A) (A) (A)
                 (A) (A) (A) (A) (A) (A) (A) (A) (A) (A) (A) (A)
                 (A) (A) (A) (A) (A) (A) (A) (A) (A) (A) (A) (A)
                 (A) (A) (A) (A) (A) (A) (A) (A) (A) (A) (A) (A)
                 (A) (A) (A) (A) (A) (A) (A) (A) (A) (A) (A) (A)
                 (A) (A) (A) (A) (A) (A) (A) (A) (A) (A) (A) (A)
                 (A) (A) (A) (A) (A) (A) (A) (A) (A) (A) (A) (A)
                 (A) (A) (A) (A) (A) (A) (A) (A) (A) (A) (A) (A)
                 (A) (A) (A) (A) (A) (A) (A) (A) (A) (A) (A) (A)
                 (A) (A) (A) (A) (A) (A) (A) (A) (A) (A) (A) (A)
                 (A) (A) (A) (A) (A) (A) (A) (A) (A) (A) (A) (A)
                 (A) (A) (A) (A) (A) (A) (A) (A) (A) (A) (A) (A)
                 (A) (A) (A) (A) (A) (A) (A) (A) (A) (A) (A) (A)
                 (A) (A) (A) (A) (A) (A) (A) (A) (A) (A) (A) (A)
                 (A) (A) (A) (A) (A) (A) (A) (A) (A) (A) (A) (A)
                 (A) (A) (A) (A) (A) (A) (A) (A) (A) (A) (A) (A)
                 (A) (A) (A) (A) (A) (A) (A) (A) (A) (A) (A) (A)
                 (A) (A) (A) (A) (A) (A) (A) (A) (A) (A) (A) (A)
                 (A) (A) (A) (A) (A) (A) (A) (A) (A) (A) (A) (A)
                 (A) (A) (A) (A) (A) (A) (A) (A) (A) (A) (A) (A)
                 (A) (A) (A) (A) (A) (A) (A) (A) (A) (A) (A) (A)
                 (A) (A) (A) (A) (A) (A) (A) (A) (A) (A) (A) (A)
                 (A) (A) (A) (A) (A) (A) (A) (A) (A) (A) (A) (A)
                 (A) (A) (A) (A) (A) (A) (A) (A) (A) (A) (A) (A)
                 (A) (A) (A) (A) (A) (A) (A) (A) (A) (A) (A) (A)
                 (A) (A) (A) (A) (A) (A) (A) (A) (A) (A) (A) (A)
                 (A) (A) (A) (A) (A) (A) (A) (A) (A) (A) (A) (A)
                 (A) (A) (A) (A) (A) (A) (A) (A) (A) (A) (A) (A)
                 (A) (A) (A) (A) (A) (A) (A) (A) (A) (A) (A) (A)
                 (A) (A) (A) (A) (A) (A) (A) (A) (A) (A) (A) (A)
                 (A) (A) (A) (A) (A) (A) (A) (A) (A) (A) (A) (A)
                 (A) (A) (A) (A) (A) (A) (A) (A) (A) (A) (A) (A)
                 (A) (A) (A) (A) (A) (A) (A) (A) (A) (A) (A) (A)
                 (A) (A) (A) (A) (A) (A) (A) (A) (A) (A) (A) (A)
                 (A) (A) (A) (A) (A) (A) (A) (A) (A) (A) (A) (A)
                 (A) (A) (A) (A) (A) (A) (A) (A) (A) (A) (A) (A)
                 (A) (A) (A) (A) (A) (A) (A) (A) (A) (A) (A) (A)
                 (A) (A) (A) (A) (A) (A) (A) (A) (A) (A) (A) (A)
                 (A) (A) (A) (A) (A) (A) (A) (A) (A) (A) (A) (A)
                 (A) (A) (A) (A) (A) (A) (A) (A) (A) (A) (A) (A)
                 (A) (A) (A) (A) (A) (A) (A) (A) (A) (A) (A) (A)
                 (A) (A) (A) (A) (A) (A) (A) (A) (A) (A) (A) (A)
                 (A) (A) (A) (A) (A) (A) (A) (A) (A) (A) (A) (A)
                 (A) (A) (A) (A) (A) (A) (A) (A) (A) (A) (A) (A)
                 (A) (A) (A) (A) (A) (A) (A) (A) (A) (A) (A) (A)
                 (A) (A) (A) (A) (A) (A) (A) (A) (A) (A) (A) (A)
                 (A) (A) (A) (A) (A) (A) (A) (A) (A) (A) (A) (A)
                 (A) (A) (A) (A) (A) (A) (A) (A) (A) (A) (A) (A)
                 (A) (A) (A) (A) (A) (A) (A) (A) (A) (A) (A) (A)
                 (A) (A) (A) (A) (A) (A) (A) (A) (A) (A) (A) (A)
                 (A) (A) (A) (A) (A) (A) (A) (A) (A) (A) (A) (A)
                 (A) (A) (A) (A) (A) (A) (A) (A) (A) (A) (A) (A)
                 (A) (A) (A) (A) (A) (A) (A) (A) (A) (A) (A) (A)
                 (A) (A) (A) (A) (A) (A) (A) (A) (A) (A) (A) (A)
                 (A) (A) (A) (A) (A) (A) (A) (A) (A) (A) (A) (A)
                 (A) (A) (A) (A) (A) (A) (A) (A) (A) (A) (A) (A)
                 (A) (A) (A) (A) (A) (A) (A) (A) (A) (A) (A) (A)
                 (A) (A) (A) (A) (A) (A) (A) (A) (A) (A) (A) (A)
                 (A) (A) (A) (A) (A) (A) (A) (A) (A) (A) (A) (A)
                 (A) (A) (A) (A) (A) (A) (A) (A) (A) (A) (A) (A)
                 (A) (A) (A) (A) (A) (A) (A) (A) (A) (A) (A) (A)
                 (A) (A) (A) (A) (A) (A) (A) (A) (A) (A) (A) (A)
                 (A) (A) (A) (A) (A) (A) (A) (A) (A) (A) (A) (A)
                 (A) (A) (A) (A) (A) (A) (A) (A) (A) (A) (A) (A)
                 (A) (A) (A) (A) (A) (A) (A) (A) (A) (A) (A) (A)
                 (A) (A) (A) (A) (A) (A) (A) (A) (A) (A) (A) (A)
                 (A) (A) (A) (A) (A) (A) (A) (A) (A) (A) (A) (A)
                 (A) (A) (A) (A) (A) (A) (A) (A) (A) (A) (A) (A)
                 (A) (A) (A) (A) (A) (A) (A) (A) (A) (A) (A) (A)
                 (A) (A) (A) (A) (A) (A) (A) (A) (A) (A) (A) (A)
                 (A) (A) (A) (A) (A) (A) (A) (A) (A) (A) (A) (A)
                 (A) (A) (A) (A) (A) (A) (A) (A) (A) (A) (A) (A)
                 (A) (A) (A) (A) (A) (A) (A) (A) (A) (A) (A) (A)
                 (A) (A) (A) (A) (A) (A) (A) (A) (A) (A) (A) (A)
                 (A) (A) (A) (A) (A) (A) (A) (A) (A) (A) (A) (A)
                 (A) (A) (A) (A) (A) (A) (A) (A) (A) (A) (A) (A)
                 (A) (A) (A) (A) (A) (A) (A) (A) (A) (A) (A) (A)
                 (A) (A) (A) (A) (A) (A) (A) (A) (A) (A) (A) (A)
                 (A) (A) (A) (A) (A) (A) (A) (A) (A) (A) (A) (A)
                 (A) (A) (A) (A) (A) (A) (A) (A) (A) (A) (A) (A)
                 (A) (A) (A) (A) (A) (A) (A) (A) (A) (A) (A) (A)
                 (A) (A) (A) (A) (A) (A) (A) (A) (A) (A)
     8 initial guesses have been made.
 Convergence on wavefunction:    0.001000000000000
 Iteration     1 Dimension     8 NMult     0 NNew      8
 CISAX will form     8 AO SS matrices at one time.
 Iteration     2 Dimension    12 NMult     8 NNew      4
 Iteration     3 Dimension    16 NMult    12 NNew      4
 Iteration     4 Dimension    20 NMult    16 NNew      4
 Iteration     5 Dimension    24 NMult    20 NNew      4
