 Entering Gaussian System, Link 0=g16
 Input=Geometria-58-.com
 Output=Geometria-58-.log
 Initial command:
 /usr/local/g09/l1.exe "/home/padawan/israel-mol/pheophytin/spectra/abs/Gau-53425.inp" -scrdir="/home/padawan/israel-mol/pheophytin/spectra/abs/"
 Entering Link 1 = /usr/local/g09/l1.exe PID=     53427.
  
 Copyright (c) 1988,1990,1992,1993,1995,1998,2003,2009,2013,
            Gaussian, Inc.  All Rights Reserved.
  
 This is part of the Gaussian(R) 09 program.  It is based on
 the Gaussian(R) 03 system (copyright 2003, Gaussian, Inc.),
 the Gaussian(R) 98 system (copyright 1998, Gaussian, Inc.),
 the Gaussian(R) 94 system (copyright 1995, Gaussian, Inc.),
 the Gaussian 92(TM) system (copyright 1992, Gaussian, Inc.),
 the Gaussian 90(TM) system (copyright 1990, Gaussian, Inc.),
 the Gaussian 88(TM) system (copyright 1988, Gaussian, Inc.),
 the Gaussian 86(TM) system (copyright 1986, Carnegie Mellon
 University), and the Gaussian 82(TM) system (copyright 1983,
 Carnegie Mellon University). Gaussian is a federally registered
 trademark of Gaussian, Inc.
  
 This software contains proprietary and confidential information,
 including trade secrets, belonging to Gaussian, Inc.
  
 This software is provided under written license and may be
 used, copied, transmitted, or stored only in accord with that
 written license.
  
 The following legend is applicable only to US Government
 contracts under FAR:
  
                    RESTRICTED RIGHTS LEGEND
  
 Use, reproduction and disclosure by the US Government is
 subject to restrictions as set forth in subparagraphs (a)
 and (c) of the Commercial Computer Software - Restricted
 Rights clause in FAR 52.227-19.
  
 Gaussian, Inc.
 340 Quinnipiac St., Bldg. 40, Wallingford CT 06492
  
  
 ---------------------------------------------------------------
 Warning -- This program may not be used in any manner that
 competes with the business of Gaussian, Inc. or will provide
 assistance to any competitor of Gaussian, Inc.  The licensee
 of this program is prohibited from giving any competitor of
 Gaussian, Inc. access to this program.  By using this program,
 the user acknowledges that Gaussian, Inc. is engaged in the
 business of creating and licensing software in the field of
 computational chemistry and represents and warrants to the
 licensee that it is not a competitor of Gaussian, Inc. and that
 it will not use this program in any manner prohibited above.
 ---------------------------------------------------------------
  

 Cite this work as:
 Gaussian 09, Revision D.01,
 M. J. Frisch, G. W. Trucks, H. B. Schlegel, G. E. Scuseria, 
 M. A. Robb, J. R. Cheeseman, G. Scalmani, V. Barone, B. Mennucci, 
 G. A. Petersson, H. Nakatsuji, M. Caricato, X. Li, H. P. Hratchian, 
 A. F. Izmaylov, J. Bloino, G. Zheng, J. L. Sonnenberg, M. Hada, 
 M. Ehara, K. Toyota, R. Fukuda, J. Hasegawa, M. Ishida, T. Nakajima, 
 Y. Honda, O. Kitao, H. Nakai, T. Vreven, J. A. Montgomery, Jr., 
 J. E. Peralta, F. Ogliaro, M. Bearpark, J. J. Heyd, E. Brothers, 
 K. N. Kudin, V. N. Staroverov, T. Keith, R. Kobayashi, J. Normand, 
 K. Raghavachari, A. Rendell, J. C. Burant, S. S. Iyengar, J. Tomasi, 
 M. Cossi, N. Rega, J. M. Millam, M. Klene, J. E. Knox, J. B. Cross, 
 V. Bakken, C. Adamo, J. Jaramillo, R. Gomperts, R. E. Stratmann, 
 O. Yazyev, A. J. Austin, R. Cammi, C. Pomelli, J. W. Ochterski, 
 R. L. Martin, K. Morokuma, V. G. Zakrzewski, G. A. Voth, 
 P. Salvador, J. J. Dannenberg, S. Dapprich, A. D. Daniels, 
 O. Farkas, J. B. Foresman, J. V. Ortiz, J. Cioslowski, 
 and D. J. Fox, Gaussian, Inc., Wallingford CT, 2013.
 
 ******************************************
 Gaussian 09:  ES64L-G09RevD.01 24-Apr-2013
                26-Jul-2019 
 ******************************************
 %nproc=3
 Will use up to    3 processors via shared memory.
 %Mem=2GB
 --------------------------
 # td=(NStates=1) B3LYP/SVP
 --------------------------
 1/38=1/1;
 2/12=2,17=6,18=5,40=1/2;
 3/5=18,7=101,11=9,16=1,25=1,30=1,74=-5/1,2,8,3;
 4//1;
 5/5=2,38=5/2;
 8/6=1,10=1,108=1/1;
 9/41=1,42=1,70=2/14;
 6/7=2,8=2,9=2,10=2/1;
 99/5=1,9=1/99;
 --
 TD
 --
 Symbolic Z-matrix:
 Charge =  0 Multiplicity = 1
 6                    -5.14139  -1.96237   0.43674 
 6                    -4.71414   2.82466   1.35121 
 6                    -9.35967   3.27432  -0.11803 
 6                    -9.79627  -1.43751  -0.90603 
 7                    -5.19564   0.40769   0.77273 
 6                    -4.54729  -0.76325   0.78039 
 6                    -3.02907  -0.7099    1.29886 
 6                    -3.0569    0.82544   1.84733 
 6                    -4.40169   1.39588   1.31369 
 6                    -3.01122   0.81165   3.39914 
 6                    -2.13786  -0.78542   0.05373 
 6                    -0.64937  -0.66865   0.44007 
 6                     0.31859  -1.0642   -0.46599 
 8                     0.13197  -1.57762  -1.6221 
 8                     1.65873  -0.68343  -0.17861 
 7                    -7.08904   2.78858   0.54352 
 6                    -5.91137   3.48513   1.01173 
 6                    -6.16944   4.81286   1.00149 
 6                    -7.53758   4.90858   0.58091 
 6                    -8.02405   3.70373   0.24853 
 6                    -5.21096   6.01888   1.49911 
 6                    -8.3168    6.11866   0.69264 
 6                    -9.15054   6.60276  -0.3683 
 7                    -9.20935   0.85822  -0.53684 
 6                    -9.84858   2.01222  -0.47724 
 6                    -11.26596   1.89525  -1.00348 
 6                    -11.42785   0.56404  -1.28548 
 6                    -10.07942  -0.1095   -0.96507 
 6                    -12.29406   2.926    -1.2381 
 6                    -12.59571  -0.14123  -1.87597 
 6                    -12.46124  -0.3548   -3.41773 
 7                    -7.50314  -1.21256  -0.28839 
 6                    -8.51042  -2.0035   -0.64098 
 6                    -8.23368  -3.41023  -0.67398 
 6                    -6.93352  -3.43544  -0.18612 
 6                    -6.50607  -2.06516   0.01696 
 6                    -9.10013  -4.5427   -1.16145 
 6                    -5.77353  -4.2373    0.06171 
 8                    -5.72957  -5.48886   0.01094 
 6                    -4.55659  -3.38291   0.56715 
 6                    -3.98346  -3.81877   1.84988 
 8                    -4.19266  -3.3517    2.92928 
 8                    -3.00748  -4.78298   1.59679 
 6                    -2.44244  -5.43572   2.69324 
 6                     2.76156  -1.08745  -1.1299 
 6                     3.98864  -0.63667  -0.48274 
 6                     5.13672  -0.07515  -1.05968 
 6                     5.17078   0.5054   -2.51742 
 6                     6.33658   0.26914  -0.26129 
 6                     7.5317   -0.41504  -0.96461 
 6                     8.77986  -0.22194  -0.17067 
 6                     10.1386  -0.93284  -0.69599 
 6                     10.0241  -2.42313  -0.67446 
 6                     11.30493  -0.3243   -0.01633 
 6                     12.68235  -0.66553  -0.58442 
 6                     13.7384   0.03648   0.14751 
 6                     15.18907  -0.18644  -0.44723 
 6                     15.49221  -1.74681  -0.36672 
 6                     16.30888   0.66457   0.35373 
 6                     17.6286   0.73913  -0.20211 
 6                     18.64436   1.64085   0.45074 
 6                     20.0993   1.80165  -0.04072 
 6                     20.07875   2.52791  -1.42221 
 6                     20.91577   2.46433   1.10327 
 1                    -4.00607   3.3513    1.96711 
 1                    -9.97895   3.93941   0.05171 
 1                    -10.6082  -2.13548  -1.35844 
 1                    -2.62828  -1.20387   2.05447 
 1                    -2.18865   1.52563   1.43473 
 1                    -2.05097   0.27198   3.71669 
 1                    -3.26646   1.88057   3.82036 
 1                    -3.78808   0.24566   3.73709 
 1                    -2.30548  -1.64832  -0.55874 
 1                    -2.308    -0.01681  -0.5301 
 1                    -0.35696   0.19774   1.15074 
 1                    -0.62863  -1.56386   1.26102 
 1                    -4.38302   6.11734   0.7399 
 1                    -5.47572   7.0671    1.56199 
 1                    -4.76581   5.91534   2.5912 
 1                    -7.99516   7.06531   1.31271 
 1                    -9.28963   6.12364  -1.31526 
 1                    -9.60076   7.63599  -0.21116 
 1                    -12.4409   3.37921  -0.42879 
 1                    -12.14018   3.7641   -2.18563 
 1                    -13.23733   2.53337  -1.58224 
 1                    -12.71789  -0.84748  -1.22211 
 1                    -13.52417   0.29854  -1.75847 
 1                    -12.155    0.57234  -3.79058 
 1                    -11.50585  -1.05618  -3.70562 
 1                    -13.30059  -0.90467  -3.8827 
 1                    -10.19342  -4.42868  -0.72459 
 1                    -9.12811  -4.75352  -2.48948 
 1                    -8.69171  -5.37174  -0.76062 
 1                    -3.72806  -3.54372  -0.09709 
 1                    -1.49979  -5.99982   2.46248 
 1                    -2.07022  -4.61243   3.20044 
 1                    -3.26696  -5.81029   3.37281 
 1                     2.70603  -2.13352  -1.2084 
 1                     2.46335  -0.67334  -1.9998 
 1                     4.01392  -0.62589   0.76743 
 1                     5.62741   1.54781  -2.42938 
 1                     5.48019  -0.27885  -3.0871 
 1                     4.21519   0.59143  -2.79752 
 1                     6.32751   1.36397  -0.18705 
 1                     6.11024   0.02253   0.69121 
 1                     7.28071  -1.53059  -1.04533 
 1                     7.57414  -0.05577  -1.96723 
 1                     8.75134   0.84392  -0.0251 
 1                     8.81991  -0.71639   0.85653 
 1                     10.30624  -0.74632  -1.74307 
 1                     9.08767  -2.72495  -1.35064 
 1                     10.94101  -3.08044  -0.76239 
 1                     9.75562  -2.84187   0.36494 
 1                     11.15401   0.70656  -0.1779 
 1                     11.2116  -0.41265   1.10505 
 1                     12.76765  -1.79703  -0.5709 
 1                     12.70532  -0.19939  -1.69309 
 1                     13.55179   1.09008   0.00245 
 1                     13.8167  -0.45136   1.15583 
 1                     15.28633   0.23864  -1.60546 
 1                     14.82537  -2.48091  -0.94004 
 1                     16.69672  -1.99231  -0.63012 
 1                     15.30676  -1.99459   0.84494 
 1                     15.80456   1.73407   0.56434 
 1                     16.31064   0.31457   1.41517 
 1                     17.97033  -0.42031  -0.20229 
 1                     17.66414   1.00168  -1.17122 
 1                     18.20647   2.54676   0.50253 
 1                     18.5803   1.29919   1.4804 
 1                     20.5178   0.76241  -0.29917 
 1                     19.4497   3.44875  -1.43339 
 1                     21.01827   3.03316  -1.82716 
 1                     19.67527   1.77935  -2.21369 
 1                     20.86911   2.00956   2.06661 
 1                     21.89471   2.6986    0.7771 
 1                     20.54906   3.38918   1.38542 
 1                    -6.96917   1.74761   0.22971 
 1                    -7.30087  -0.25811  -0.31811 
 
 Stoichiometry    C55H74N4O5
 Framework group  C1[X(C55H74N4O5)]
 Deg. of freedom   408
 Full point group                 C1      NOp   1
 Largest Abelian subgroup         C1      NOp   1
 Largest concise Abelian subgroup C1      NOp   1
                         Standard orientation:                         
 ---------------------------------------------------------------------
 Center     Atomic      Atomic             Coordinates (Angstroms)
 Number     Number       Type             X           Y           Z
 ---------------------------------------------------------------------
      1          6           0       -5.142505   -1.961001    0.438825
      2          6           0       -4.714502    2.827646    1.344442
      3          6           0       -9.359446    3.275562   -0.127162
      4          6           0       -9.796826   -1.437647   -0.906454
      5          7           0       -5.196341    0.409702    0.770341
      6          6           0       -4.548255   -0.761369    0.780418
      7          6           0       -3.030192   -0.707372    1.299287
      8          6           0       -3.057862    0.829001    1.844862
      9          6           0       -4.402351    1.398730    1.309712
     10          6           0       -3.012691    0.818114    3.396704
     11          6           0       -2.138585   -0.785427    0.054592
     12          6           0       -0.650198   -0.668255    0.441192
     13          6           0        0.317964   -1.065726   -0.463802
     14          8           0        0.131619   -1.581274   -1.619004
     15          8           0        1.658095   -0.684703   -0.176701
     16          7           0       -7.089147    2.790566    0.536047
     17          6           0       -5.911476    3.487743    1.003331
     18          6           0       -6.169249    4.815503    0.990507
     19          6           0       -7.537233    4.910734    0.569308
     20          6           0       -8.023859    3.705368    0.239023
     21          6           0       -5.210668    6.022245    1.486178
     22          6           0       -8.316219    6.121189    0.678503
     23          6           0       -9.149510    6.603482   -0.383615
     24          7           0       -9.209524    0.858651   -0.541378
     25          6           0       -9.848519    2.012902   -0.484156
     26          6           0      -11.265755    1.895254   -1.010647
     27          6           0      -11.427841    0.563552   -1.290197
     28          6           0      -10.079668   -0.109685   -0.968078
     29          6           0      -12.293549    2.925784   -1.247532
     30          6           0      -12.595664   -0.142570   -1.879739
     31          6           0      -12.460736   -0.359068   -3.421052
     32          7           0       -7.503850   -1.212038   -0.288481
     33          6           0       -8.511192   -2.003414   -0.639914
     34          6           0       -8.234744   -3.410263   -0.670183
     35          6           0       -6.934751   -3.434844   -0.181848
     36          6           0       -6.507070   -2.064278    0.018790
     37          6           0       -9.101290   -4.543454   -1.155804
     38          6           0       -5.775025   -4.236490    0.067861
     39          8           0       -5.731321   -5.488152    0.019463
     40          6           0       -4.558061   -3.381419    0.572092
     41          6           0       -3.985445   -3.814990    1.855831
     42          8           0       -4.194897   -3.345855    2.934283
     43          8           0       -3.009592   -4.779895    1.604871
     44          6           0       -2.445053   -5.430698    2.702732
     45          6           0        2.761149   -1.090759   -1.126866
     46          6           0        3.988120   -0.639034   -0.480156
     47          6           0        5.136506   -0.078843   -1.057774
     48          6           0        5.171170    0.498958   -2.516590
     49          6           0        6.336180    0.266685   -0.259635
     50          6           0        7.531388   -0.419080   -0.961285
     51          6           0        8.779326   -0.224760   -0.167293
     52          6           0       10.138087   -0.936945   -0.690834
     53          6           0       10.023246   -2.427166   -0.666541
     54          6           0       11.304328   -0.327384   -0.011942
     55          6           0       12.681854   -0.669988   -0.578940
     56          6           0       13.737822    0.033163    0.152015
     57          6           0       15.188632   -0.191188   -0.441826
     58          6           0       15.491404   -1.751474   -0.358282
     59          6           0       16.308371    0.661080    0.357903
     60          6           0       17.628285    0.734303   -0.197653
     61          6           0       18.644028    1.637027    0.453835
     62          6           0       20.099170    1.796584   -0.037449
     63          6           0       20.079228    2.520253   -1.420306
     64          6           0       20.915414    2.461233    1.105566
     65          1           0       -4.006514    3.355284    1.959583
     66          1           0       -9.978636    3.941108    0.041130
     67          1           0      -10.608759   -2.136284   -1.357809
     68          1           0       -2.629750   -1.200011    2.055947
     69          1           0       -2.189323    1.528225    1.431224
     70          1           0       -2.052659    0.278836    3.715584
     71          1           0       -3.267836    1.887883    3.815836
     72          1           0       -3.789785    0.252931    3.735463
     73          1           0       -2.306195   -1.649441   -0.556315
     74          1           0       -2.308374   -0.017875   -0.530740
     75          1           0       -0.357833    0.199404    1.150327
     76          1           0       -0.629928   -1.561928    1.263836
     77          1           0       -4.382460    6.119096    0.727051
     78          1           0       -5.475219    7.070644    1.546996
     79          1           0       -4.765900    5.920662    2.578608
     80          1           0       -7.994580    7.068932    1.296903
     81          1           0       -9.288397    6.122617   -1.329722
     82          1           0       -9.599556    7.637106   -0.228566
     83          1           0      -12.440554    3.380542   -0.439127
     84          1           0      -12.139175    3.762068   -2.196585
     85          1           0      -13.236799    2.532715   -1.591248
     86          1           0      -12.718220   -0.847571   -1.224591
     87          1           0      -13.524068    0.297624   -1.763368
     88          1           0      -12.154175    0.567305   -3.795539
     89          1           0      -11.505405   -1.061202   -3.707311
     90          1           0      -13.300055   -0.909628   -3.885258
     91          1           0      -10.194691   -4.428381   -0.719526
     92          1           0       -9.128877   -4.756771   -2.483445
     93          1           0       -8.693185   -5.371830   -0.753292
     94          1           0       -3.729351   -3.543659   -0.091571
     95          1           0       -1.502453   -5.995429    2.473339
     96          1           0       -2.072814   -4.606540    3.208509
     97          1           0       -3.269878   -5.803803    3.382737
     98          1           0        2.705421   -2.136960   -1.203424
     99          1           0        2.463317   -0.678221   -1.997641
    100          1           0        4.012996   -0.625911    0.770005
    101          1           0        5.628009    1.541427   -2.430358
    102          1           0        5.480602   -0.286432   -3.084695
    103          1           0        4.215696    0.584670   -2.797165
    104          1           0        6.327332    1.361652   -0.187459
    105          1           0        6.109478    0.021912    0.693245
    106          1           0        7.280180   -1.534726   -1.039984
    107          1           0        7.574228   -0.061709   -1.964563
    108          1           0        8.750994    0.841377   -0.023742
    109          1           0        8.818928   -0.717288    0.860841
    110          1           0       10.306109   -0.752434   -1.738209
    111          1           0        9.086971   -2.730055   -1.342466
    112          1           0       10.940041   -3.084844   -0.752936
    113          1           0        9.754337   -2.843893    0.373551
    114          1           0       11.153684    0.703200   -0.175495
    115          1           0       11.210605   -0.413606    1.109574
    116          1           0       12.766903   -1.801479   -0.563264
    117          1           0       12.705288   -0.205935   -1.688474
    118          1           0       13.551485    1.086532    0.004921
    119          1           0       13.815679   -0.452797    1.161281
    120          1           0       15.286367    0.231688   -1.600825
    121          1           0       14.824589   -2.486501   -0.930448
    122          1           0       16.695951   -1.997733   -0.620830
    123          1           0       15.305501   -1.996938    0.853780
    124          1           0       15.804217    1.731084    0.566331
    125          1           0       16.309702    0.313076    1.420000
    126          1           0       17.969761   -0.425204   -0.195539
    127          1           0       17.664203    0.995029   -1.167234
    128          1           0       18.206320    2.543131    0.503779
    129          1           0       18.579561    1.297313    1.484113
    130          1           0       20.517522    0.756774   -0.293806
    131          1           0       19.450388    3.441212   -1.433416
    132          1           0       21.018992    3.024537   -1.825892
    133          1           0       19.675846    1.770300   -2.210513
    134          1           0       20.868337    2.008288    2.069739
    135          1           0       21.894510    2.694677    0.779276
    136          1           0       20.548816    3.386696    1.385853
    137          1           0       -6.969399    1.748990    0.224233
    138          1           0       -7.301363   -0.257683   -0.319933
 ---------------------------------------------------------------------
 Rotational constants (GHZ):      0.0630726      0.0061622      0.0057933
 Standard basis: SVP (5D, 7F)
 There are  1330 symmetry adapted cartesian basis functions of A   symmetry.
 There are  1266 symmetry adapted basis functions of A   symmetry.
  1266 basis functions,  2118 primitive gaussians,  1330 cartesian basis functions
   236 alpha electrons      236 beta electrons
       nuclear repulsion energy      8290.5278067389 Hartrees.
 NAtoms=  138 NActive=  138 NUniq=  138 SFac= 1.00D+00 NAtFMM=   60 NAOKFM=T Big=T
 Integral buffers will be    131072 words long.
 Regular integral format.
 Two-electron integral symmetry is turned on.
 One-electron integrals computed using PRISM.
 NBasis=  1266 RedAO= T EigKep=  2.86D-04  NBF=  1266
 NBsUse=  1266 1.00D-06 EigRej= -1.00D+00 NBFU=  1266
 ExpMin= 1.22D-01 ExpMax= 2.27D+03 ExpMxC= 3.41D+02 IAcc=1 IRadAn=         1 AccDes= 0.00D+00
 Harris functional with IExCor=  402 and IRadAn=       1 diagonalized for initial guess.
 HarFok:  IExCor=  402 AccDes= 0.00D+00 IRadAn=         1 IDoV= 1 UseB2=F ITyADJ=14
 ICtDFT=  3500011 ScaDFX=  1.000000  1.000000  1.000000  1.000000
 FoFCou: FMM=F IPFlag=           0 FMFlag=      100000 FMFlg1=        2001
         NFxFlg=           0 DoJE=T BraDBF=F KetDBF=T FulRan=T
         wScrn=  0.000000 ICntrl=     500 IOpCl=  0 I1Cent=   200000004 NGrid=           0
         NMat0=    1 NMatS0=      1 NMatT0=    0 NMatD0=    1 NMtDS0=    0 NMtDT0=    0
 Petite list used in FoFCou.
 Requested convergence on RMS density matrix=1.00D-08 within 128 cycles.
 Requested convergence on MAX density matrix=1.00D-06.
 Requested convergence on             energy=1.00D-06.
 No special actions if energy rises.
 Integral accuracy reduced to 1.0D-05 until final iterations.
 Initial convergence to 1.0D-05 achieved.  Increase integral accuracy.
 SCF Done:  E(RB3LYP) =  -2732.97777903     A.U. after   18 cycles
            NFock= 18  Conv=0.36D-08     -V/T= 2.0112
 DoSCS=F DFT=T ScalE2(SS,OS)=  1.000000  1.000000
 ExpMin= 1.22D-01 ExpMax= 2.27D+03 ExpMxC= 3.41D+02 IAcc=3 IRadAn=         5 AccDes= 0.00D+00
 HarFok:  IExCor=  205 AccDes= 0.00D+00 IRadAn=         5 IDoV=-2 UseB2=F ITyADJ=14
 ICtDFT= 12500011 ScaDFX=  1.000000  1.000000  1.000000  1.000000
 Range of M.O.s used for correlation:    65  1266
 NBasis=  1266 NAE=   236 NBE=   236 NFC=    64 NFV=     0
 NROrb=   1202 NOA=   172 NOB=   172 NVA=  1030 NVB=  1030

 **** Warning!!: The smallest alpha delta epsilon is  0.82769214D-01

 Would need an additional        965744300000 words for in-memory AO integral storage.
 Orbital symmetries:
       Occupied  (A) (A) (A) (A) (A) (A) (A) (A) (A) (A) (A) (A)
                 (A) (A) (A) (A) (A) (A) (A) (A) (A) (A) (A) (A)
                 (A) (A) (A) (A) (A) (A) (A) (A) (A) (A) (A) (A)
                 (A) (A) (A) (A) (A) (A) (A) (A) (A) (A) (A) (A)
                 (A) (A) (A) (A) (A) (A) (A) (A) (A) (A) (A) (A)
                 (A) (A) (A) (A) (A) (A) (A) (A) (A) (A) (A) (A)
                 (A) (A) (A) (A) (A) (A) (A) (A) (A) (A) (A) (A)
                 (A) (A) (A) (A) (A) (A) (A) (A) (A) (A) (A) (A)
                 (A) (A) (A) (A) (A) (A) (A) (A) (A) (A) (A) (A)
                 (A) (A) (A) (A) (A) (A) (A) (A) (A) (A) (A) (A)
                 (A) (A) (A) (A) (A) (A) (A) (A) (A) (A) (A) (A)
                 (A) (A) (A) (A) (A) (A) (A) (A) (A) (A) (A) (A)
                 (A) (A) (A) (A) (A) (A) (A) (A) (A) (A) (A) (A)
                 (A) (A) (A) (A) (A) (A) (A) (A) (A) (A) (A) (A)
                 (A) (A) (A) (A) (A) (A) (A) (A) (A) (A) (A) (A)
                 (A) (A) (A) (A) (A) (A) (A) (A) (A) (A) (A) (A)
                 (A) (A) (A) (A) (A) (A) (A) (A) (A) (A) (A) (A)
                 (A) (A) (A) (A) (A) (A) (A) (A) (A) (A) (A) (A)
                 (A) (A) (A) (A) (A) (A) (A) (A) (A) (A) (A) (A)
                 (A) (A) (A) (A) (A) (A) (A) (A)
       Virtual   (A) (A) (A) (A) (A) (A) (A) (A) (A) (A) (A) (A)
                 (A) (A) (A) (A) (A) (A) (A) (A) (A) (A) (A) (A)
                 (A) (A) (A) (A) (A) (A) (A) (A) (A) (A) (A) (A)
                 (A) (A) (A) (A) (A) (A) (A) (A) (A) (A) (A) (A)
                 (A) (A) (A) (A) (A) (A) (A) (A) (A) (A) (A) (A)
                 (A) (A) (A) (A) (A) (A) (A) (A) (A) (A) (A) (A)
                 (A) (A) (A) (A) (A) (A) (A) (A) (A) (A) (A) (A)
                 (A) (A) (A) (A) (A) (A) (A) (A) (A) (A) (A) (A)
                 (A) (A) (A) (A) (A) (A) (A) (A) (A) (A) (A) (A)
                 (A) (A) (A) (A) (A) (A) (A) (A) (A) (A) (A) (A)
                 (A) (A) (A) (A) (A) (A) (A) (A) (A) (A) (A) (A)
                 (A) (A) (A) (A) (A) (A) (A) (A) (A) (A) (A) (A)
                 (A) (A) (A) (A) (A) (A) (A) (A) (A) (A) (A) (A)
                 (A) (A) (A) (A) (A) (A) (A) (A) (A) (A) (A) (A)
                 (A) (A) (A) (A) (A) (A) (A) (A) (A) (A) (A) (A)
                 (A) (A) (A) (A) (A) (A) (A) (A) (A) (A) (A) (A)
                 (A) (A) (A) (A) (A) (A) (A) (A) (A) (A) (A) (A)
                 (A) (A) (A) (A) (A) (A) (A) (A) (A) (A) (A) (A)
                 (A) (A) (A) (A) (A) (A) (A) (A) (A) (A) (A) (A)
                 (A) (A) (A) (A) (A) (A) (A) (A) (A) (A) (A) (A)
                 (A) (A) (A) (A) (A) (A) (A) (A) (A) (A) (A) (A)
                 (A) (A) (A) (A) (A) (A) (A) (A) (A) (A) (A) (A)
                 (A) (A) (A) (A) (A) (A) (A) (A) (A) (A) (A) (A)
                 (A) (A) (A) (A) (A) (A) (A) (A) (A) (A) (A) (A)
                 (A) (A) (A) (A) (A) (A) (A) (A) (A) (A) (A) (A)
                 (A) (A) (A) (A) (A) (A) (A) (A) (A) (A) (A) (A)
                 (A) (A) (A) (A) (A) (A) (A) (A) (A) (A) (A) (A)
                 (A) (A) (A) (A) (A) (A) (A) (A) (A) (A) (A) (A)
                 (A) (A) (A) (A) (A) (A) (A) (A) (A) (A) (A) (A)
                 (A) (A) (A) (A) (A) (A) (A) (A) (A) (A) (A) (A)
                 (A) (A) (A) (A) (A) (A) (A) (A) (A) (A) (A) (A)
                 (A) (A) (A) (A) (A) (A) (A) (A) (A) (A) (A) (A)
                 (A) (A) (A) (A) (A) (A) (A) (A) (A) (A) (A) (A)
                 (A) (A) (A) (A) (A) (A) (A) (A) (A) (A) (A) (A)
                 (A) (A) (A) (A) (A) (A) (A) (A) (A) (A) (A) (A)
                 (A) (A) (A) (A) (A) (A) (A) (A) (A) (A) (A) (A)
                 (A) (A) (A) (A) (A) (A) (A) (A) (A) (A) (A) (A)
                 (A) (A) (A) (A) (A) (A) (A) (A) (A) (A) (A) (A)
                 (A) (A) (A) (A) (A) (A) (A) (A) (A) (A) (A) (A)
                 (A) (A) (A) (A) (A) (A) (A) (A) (A) (A) (A) (A)
                 (A) (A) (A) (A) (A) (A) (A) (A) (A) (A) (A) (A)
                 (A) (A) (A) (A) (A) (A) (A) (A) (A) (A) (A) (A)
                 (A) (A) (A) (A) (A) (A) (A) (A) (A) (A) (A) (A)
                 (A) (A) (A) (A) (A) (A) (A) (A) (A) (A) (A) (A)
                 (A) (A) (A) (A) (A) (A) (A) (A) (A) (A) (A) (A)
                 (A) (A) (A) (A) (A) (A) (A) (A) (A) (A) (A) (A)
                 (A) (A) (A) (A) (A) (A) (A) (A) (A) (A) (A) (A)
                 (A) (A) (A) (A) (A) (A) (A) (A) (A) (A) (A) (A)
                 (A) (A) (A) (A) (A) (A) (A) (A) (A) (A) (A) (A)
                 (A) (A) (A) (A) (A) (A) (A) (A) (A) (A) (A) (A)
                 (A) (A) (A) (A) (A) (A) (A) (A) (A) (A) (A) (A)
                 (A) (A) (A) (A) (A) (A) (A) (A) (A) (A) (A) (A)
                 (A) (A) (A) (A) (A) (A) (A) (A) (A) (A) (A) (A)
                 (A) (A) (A) (A) (A) (A) (A) (A) (A) (A) (A) (A)
                 (A) (A) (A) (A) (A) (A) (A) (A) (A) (A) (A) (A)
                 (A) (A) (A) (A) (A) (A) (A) (A) (A) (A) (A) (A)
                 (A) (A) (A) (A) (A) (A) (A) (A) (A) (A) (A) (A)
                 (A) (A) (A) (A) (A) (A) (A) (A) (A) (A) (A) (A)
                 (A) (A) (A) (A) (A) (A) (A) (A) (A) (A) (A) (A)
                 (A) (A) (A) (A) (A) (A) (A) (A) (A) (A) (A) (A)
                 (A) (A) (A) (A) (A) (A) (A) (A) (A) (A) (A) (A)
                 (A) (A) (A) (A) (A) (A) (A) (A) (A) (A) (A) (A)
                 (A) (A) (A) (A) (A) (A) (A) (A) (A) (A) (A) (A)
                 (A) (A) (A) (A) (A) (A) (A) (A) (A) (A) (A) (A)
                 (A) (A) (A) (A) (A) (A) (A) (A) (A) (A) (A) (A)
                 (A) (A) (A) (A) (A) (A) (A) (A) (A) (A) (A) (A)
                 (A) (A) (A) (A) (A) (A) (A) (A) (A) (A) (A) (A)
                 (A) (A) (A) (A) (A) (A) (A) (A) (A) (A) (A) (A)
                 (A) (A) (A) (A) (A) (A) (A) (A) (A) (A) (A) (A)
                 (A) (A) (A) (A) (A) (A) (A) (A) (A) (A) (A) (A)
                 (A) (A) (A) (A) (A) (A) (A) (A) (A) (A) (A) (A)
                 (A) (A) (A) (A) (A) (A) (A) (A) (A) (A) (A) (A)
                 (A) (A) (A) (A) (A) (A) (A) (A) (A) (A) (A) (A)
                 (A) (A) (A) (A) (A) (A) (A) (A) (A) (A) (A) (A)
                 (A) (A) (A) (A) (A) (A) (A) (A) (A) (A) (A) (A)
                 (A) (A) (A) (A) (A) (A) (A) (A) (A) (A) (A) (A)
                 (A) (A) (A) (A) (A) (A) (A) (A) (A) (A) (A) (A)
                 (A) (A) (A) (A) (A) (A) (A) (A) (A) (A) (A) (A)
                 (A) (A) (A) (A) (A) (A) (A) (A) (A) (A) (A) (A)
                 (A) (A) (A) (A) (A) (A) (A) (A) (A) (A) (A) (A)
                 (A) (A) (A) (A) (A) (A) (A) (A) (A) (A) (A) (A)
                 (A) (A) (A) (A) (A) (A) (A) (A) (A) (A) (A) (A)
                 (A) (A) (A) (A) (A) (A) (A) (A) (A) (A) (A) (A)
                 (A) (A) (A) (A) (A) (A) (A) (A) (A) (A) (A) (A)
                 (A) (A) (A) (A) (A) (A) (A) (A) (A) (A) (A) (A)
                 (A) (A) (A) (A) (A) (A) (A) (A) (A) (A)
     8 initial guesses have been made.
 Convergence on wavefunction:    0.001000000000000
 Iteration     1 Dimension     8 NMult     0 NNew      8
 CISAX will form     8 AO SS matrices at one time.
 Iteration     2 Dimension    12 NMult     8 NNew      4
 Iteration     3 Dimension    16 NMult    12 NNew      4
 Iteration     4 Dimension    20 NMult    16 NNew      4
 Iteration     5 Dimension    24 NMult    20 NNew      4
 Iteration     6 Dimension    28 NMult    24 NNew      4
 Iteration     7 Dimension    32 NMult    28 NNew      4
 ***********************************************************************
 Excited states from <AA,BB:AA,BB> singles matrix:
 ***********************************************************************
 
 Ground to excited state transition densities written to RWF  633
 Ground to excited state transition electric dipole moments (Au):
       state          X           Y           Z        Dip. S.      Osc.
         1        -0.0488     -2.1703     -0.2791      4.7903      0.2357
 Ground to excited state transition velocity dipole moments (Au):
       state          X           Y           Z        Dip. S.      Osc.
         1         0.0031      0.1559      0.0205      0.0247      0.2235
 Ground to excited state transition magnetic dipole moments (Au):
       state          X           Y           Z
         1         0.1039      0.3563     -2.6905
 Ground to excited state transition velocity quadrupole moments (Au):
       state          XX          YY          ZZ          XY          XZ          YZ
         1        -0.1689      0.4363      0.0089     -2.1422     -0.2754      0.0474
 <0|del|b> * <b|rxdel|0> + <0|del|b> * <b|delr+rdel|0>
 Rotatory Strengths (R) in cgs (10**-40 erg-esu-cm/Gauss)
       state          XX          YY          ZZ    R(velocity)    E-M Angle
         1        -3.8712    -51.7227     61.2501      1.8854       89.92
 1/2[<0|r|b>*<b|rxdel|0> + (<0|rxdel|b>*<b|r|0>)*]
 Rotatory Strengths (R) in cgs (10**-40 erg-esu-cm/Gauss)
       state          XX          YY          ZZ     R(length)
         1         3.5817    546.7948   -530.9517      6.4749
  1/2[<0|del|b>*<b|r|0> + (<0|r|b>*<b|del|0>)*] (Au)
       state          X           Y           Z        Dip. S.   Osc.(frdel)
         1        -0.0002     -0.3384     -0.0057      0.3443      0.2295

 Excitation energies and oscillator strengths:
 
 Excited State   1:      Singlet-A      2.0083 eV  617.35 nm  f=0.2357  <S**2>=0.000
     235 -> 237       -0.31354
     235 -> 238        0.24630
     236 -> 237        0.56626
     236 -> 238        0.13368
 This state for optimization and/or second-order correction.
 Total Energy, E(TD-HF/TD-KS) =  -2732.90397435    
 Copying the excited state density for this state as the 1-particle RhoCI density.
 SavETr:  write IOETrn=   770 NScale= 10 NData=  16 NLR=1 NState=    1 LETran=      28.

 **********************************************************************

            Population analysis using the SCF density.

 **********************************************************************

 Orbital symmetries:
       Occupied  (A) (A) (A) (A) (A) (A) (A) (A) (A) (A) (A) (A)
                 (A) (A) (A) (A) (A) (A) (A) (A) (A) (A) (A) (A)
                 (A) (A) (A) (A) (A) (A) (A) (A) (A) (A) (A) (A)
                 (A) (A) (A) (A) (A) (A) (A) (A) (A) (A) (A) (A)
                 (A) (A) (A) (A) (A) (A) (A) (A) (A) (A) (A) (A)
                 (A) (A) (A) (A) (A) (A) (A) (A) (A) (A) (A) (A)
                 (A) (A) (A) (A) (A) (A) (A) (A) (A) (A) (A) (A)
                 (A) (A) (A) (A) (A) (A) (A) (A) (A) (A) (A) (A)
                 (A) (A) (A) (A) (A) (A) (A) (A) (A) (A) (A) (A)
                 (A) (A) (A) (A) (A) (A) (A) (A) (A) (A) (A) (A)
                 (A) (A) (A) (A) (A) (A) (A) (A) (A) (A) (A) (A)
                 (A) (A) (A) (A) (A) (A) (A) (A) (A) (A) (A) (A)
                 (A) (A) (A) (A) (A) (A) (A) (A) (A) (A) (A) (A)
                 (A) (A) (A) (A) (A) (A) (A) (A) (A) (A) (A) (A)
                 (A) (A) (A) (A) (A) (A) (A) (A) (A) (A) (A) (A)
                 (A) (A) (A) (A) (A) (A) (A) (A) (A) (A) (A) (A)
                 (A) (A) (A) (A) (A) (A) (A) (A) (A) (A) (A) (A)
                 (A) (A) (A) (A) (A) (A) (A) (A) (A) (A) (A) (A)
                 (A) (A) (A) (A) (A) (A) (A) (A) (A) (A) (A) (A)
                 (A) (A) (A) (A) (A) (A) (A) (A)
       Virtual   (A) (A) (A) (A) (A) (A) (A) (A) (A) (A) (A) (A)
                 (A) (A) (A) (A) (A) (A) (A) (A) (A) (A) (A) (A)
                 (A) (A) (A) (A) (A) (A) (A) (A) (A) (A) (A) (A)
                 (A) (A) (A) (A) (A) (A) (A) (A) (A) (A) (A) (A)
                 (A) (A) (A) (A) (A) (A) (A) (A) (A) (A) (A) (A)
                 (A) (A) (A) (A) (A) (A) (A) (A) (A) (A) (A) (A)
                 (A) (A) (A) (A) (A) (A) (A) (A) (A) (A) (A) (A)
                 (A) (A) (A) (A) (A) (A) (A) (A) (A) (A) (A) (A)
                 (A) (A) (A) (A) (A) (A) (A) (A) (A) (A) (A) (A)
                 (A) (A) (A) (A) (A) (A) (A) (A) (A) (A) (A) (A)
                 (A) (A) (A) (A) (A) (A) (A) (A) (A) (A) (A) (A)
                 (A) (A) (A) (A) (A) (A) (A) (A) (A) (A) (A) (A)
                 (A) (A) (A) (A) (A) (A) (A) (A) (A) (A) (A) (A)
                 (A) (A) (A) (A) (A) (A) (A) (A) (A) (A) (A) (A)
                 (A) (A) (A) (A) (A) (A) (A) (A) (A) (A) (A) (A)
                 (A) (A) (A) (A) (A) (A) (A) (A) (A) (A) (A) (A)
                 (A) (A) (A) (A) (A) (A) (A) (A) (A) (A) (A) (A)
                 (A) (A) (A) (A) (A) (A) (A) (A) (A) (A) (A) (A)
                 (A) (A) (A) (A) (A) (A) (A) (A) (A) (A) (A) (A)
                 (A) (A) (A) (A) (A) (A) (A) (A) (A) (A) (A) (A)
                 (A) (A) (A) (A) (A) (A) (A) (A) (A) (A) (A) (A)
                 (A) (A) (A) (A) (A) (A) (A) (A) (A) (A) (A) (A)
                 (A) (A) (A) (A) (A) (A) (A) (A) (A) (A) (A) (A)
                 (A) (A) (A) (A) (A) (A) (A) (A) (A) (A) (A) (A)
                 (A) (A) (A) (A) (A) (A) (A) (A) (A) (A) (A) (A)
                 (A) (A) (A) (A) (A) (A) (A) (A) (A) (A) (A) (A)
                 (A) (A) (A) (A) (A) (A) (A) (A) (A) (A) (A) (A)
                 (A) (A) (A) (A) (A) (A) (A) (A) (A) (A) (A) (A)
                 (A) (A) (A) (A) (A) (A) (A) (A) (A) (A) (A) (A)
                 (A) (A) (A) (A) (A) (A) (A) (A) (A) (A) (A) (A)
                 (A) (A) (A) (A) (A) (A) (A) (A) (A) (A) (A) (A)
                 (A) (A) (A) (A) (A) (A) (A) (A) (A) (A) (A) (A)
                 (A) (A) (A) (A) (A) (A) (A) (A) (A) (A) (A) (A)
                 (A) (A) (A) (A) (A) (A) (A) (A) (A) (A) (A) (A)
                 (A) (A) (A) (A) (A) (A) (A) (A) (A) (A) (A) (A)
                 (A) (A) (A) (A) (A) (A) (A) (A) (A) (A) (A) (A)
                 (A) (A) (A) (A) (A) (A) (A) (A) (A) (A) (A) (A)
                 (A) (A) (A) (A) (A) (A) (A) (A) (A) (A) (A) (A)
                 (A) (A) (A) (A) (A) (A) (A) (A) (A) (A) (A) (A)
                 (A) (A) (A) (A) (A) (A) (A) (A) (A) (A) (A) (A)
                 (A) (A) (A) (A) (A) (A) (A) (A) (A) (A) (A) (A)
                 (A) (A) (A) (A) (A) (A) (A) (A) (A) (A) (A) (A)
                 (A) (A) (A) (A) (A) (A) (A) (A) (A) (A) (A) (A)
                 (A) (A) (A) (A) (A) (A) (A) (A) (A) (A) (A) (A)
                 (A) (A) (A) (A) (A) (A) (A) (A) (A) (A) (A) (A)
                 (A) (A) (A) (A) (A) (A) (A) (A) (A) (A) (A) (A)
                 (A) (A) (A) (A) (A) (A) (A) (A) (A) (A) (A) (A)
                 (A) (A) (A) (A) (A) (A) (A) (A) (A) (A) (A) (A)
                 (A) (A) (A) (A) (A) (A) (A) (A) (A) (A) (A) (A)
                 (A) (A) (A) (A) (A) (A) (A) (A) (A) (A) (A) (A)
                 (A) (A) (A) (A) (A) (A) (A) (A) (A) (A) (A) (A)
                 (A) (A) (A) (A) (A) (A) (A) (A) (A) (A) (A) (A)
                 (A) (A) (A) (A) (A) (A) (A) (A) (A) (A) (A) (A)
                 (A) (A) (A) (A) (A) (A) (A) (A) (A) (A) (A) (A)
                 (A) (A) (A) (A) (A) (A) (A) (A) (A) (A) (A) (A)
                 (A) (A) (A) (A) (A) (A) (A) (A) (A) (A) (A) (A)
                 (A) (A) (A) (A) (A) (A) (A) (A) (A) (A) (A) (A)
                 (A) (A) (A) (A) (A) (A) (A) (A) (A) (A) (A) (A)
                 (A) (A) (A) (A) (A) (A) (A) (A) (A) (A) (A) (A)
                 (A) (A) (A) (A) (A) (A) (A) (A) (A) (A) (A) (A)
                 (A) (A) (A) (A) (A) (A) (A) (A) (A) (A) (A) (A)
                 (A) (A) (A) (A) (A) (A) (A) (A) (A) (A) (A) (A)
                 (A) (A) (A) (A) (A) (A) (A) (A) (A) (A) (A) (A)
                 (A) (A) (A) (A) (A) (A) (A) (A) (A) (A) (A) (A)
                 (A) (A) (A) (A) (A) (A) (A) (A) (A) (A) (A) (A)
                 (A) (A) (A) (A) (A) (A) (A) (A) (A) (A) (A) (A)
                 (A) (A) (A) (A) (A) (A) (A) (A) (A) (A) (A) (A)
                 (A) (A) (A) (A) (A) (A) (A) (A) (A) (A) (A) (A)
                 (A) (A) (A) (A) (A) (A) (A) (A) (A) (A) (A) (A)
                 (A) (A) (A) (A) (A) (A) (A) (A) (A) (A) (A) (A)
                 (A) (A) (A) (A) (A) (A) (A) (A) (A) (A) (A) (A)
                 (A) (A) (A) (A) (A) (A) (A) (A) (A) (A) (A) (A)
                 (A) (A) (A) (A) (A) (A) (A) (A) (A) (A) (A) (A)
                 (A) (A) (A) (A) (A) (A) (A) (A) (A) (A) (A) (A)
                 (A) (A) (A) (A) (A) (A) (A) (A) (A) (A) (A) (A)
                 (A) (A) (A) (A) (A) (A) (A) (A) (A) (A) (A) (A)
                 (A) (A) (A) (A) (A) (A) (A) (A) (A) (A) (A) (A)
                 (A) (A) (A) (A) (A) (A) (A) (A) (A) (A) (A) (A)
                 (A) (A) (A) (A) (A) (A) (A) (A) (A) (A) (A) (A)
                 (A) (A) (A) (A) (A) (A) (A) (A) (A) (A) (A) (A)
                 (A) (A) (A) (A) (A) (A) (A) (A) (A) (A) (A) (A)
                 (A) (A) (A) (A) (A) (A) (A) (A) (A) (A) (A) (A)
                 (A) (A) (A) (A) (A) (A) (A) (A) (A) (A) (A) (A)
                 (A) (A) (A) (A) (A) (A) (A) (A) (A) (A) (A) (A)
                 (A) (A) (A) (A) (A) (A) (A) (A) (A) (A) (A) (A)
                 (A) (A) (A) (A) (A) (A) (A) (A) (A) (A)
 The electronic state is 1-A.
 Alpha  occ. eigenvalues --  -19.16998 -19.15444 -19.13422 -19.11681 -19.11216
 Alpha  occ. eigenvalues --  -14.38332 -14.36375 -14.33547 -14.30135 -10.32043
 Alpha  occ. eigenvalues --  -10.31259 -10.27892 -10.24321 -10.24105 -10.23947
 Alpha  occ. eigenvalues --  -10.23876 -10.23808 -10.23362 -10.23284 -10.23112
 Alpha  occ. eigenvalues --  -10.22262 -10.22106 -10.21979 -10.21907 -10.21818
 Alpha  occ. eigenvalues --  -10.21761 -10.21753 -10.21685 -10.21594 -10.21052
 Alpha  occ. eigenvalues --  -10.21039 -10.21028 -10.20953 -10.20821 -10.20527
 Alpha  occ. eigenvalues --  -10.20500 -10.20244 -10.20049 -10.19977 -10.19965
 Alpha  occ. eigenvalues --  -10.19674 -10.19557 -10.19509 -10.19402 -10.19020
 Alpha  occ. eigenvalues --  -10.19001 -10.18948 -10.18898 -10.18858 -10.18829
 Alpha  occ. eigenvalues --  -10.18776 -10.18774 -10.18758 -10.18661 -10.18451
 Alpha  occ. eigenvalues --  -10.18373 -10.18200 -10.17931 -10.17678 -10.17572
 Alpha  occ. eigenvalues --  -10.17157 -10.17129 -10.16572 -10.16493  -1.09358
 Alpha  occ. eigenvalues --   -1.04399  -1.01772  -1.01671  -1.00236  -0.97943
 Alpha  occ. eigenvalues --   -0.95781  -0.94250  -0.93751  -0.85329  -0.82855
 Alpha  occ. eigenvalues --   -0.82489  -0.82100  -0.81847  -0.81175  -0.80987
 Alpha  occ. eigenvalues --   -0.80756  -0.80297  -0.79210  -0.79085  -0.78075
 Alpha  occ. eigenvalues --   -0.77068  -0.76542  -0.75977  -0.75286  -0.74404
 Alpha  occ. eigenvalues --   -0.73863  -0.73433  -0.72763  -0.71622  -0.71122
 Alpha  occ. eigenvalues --   -0.70216  -0.69495  -0.69375  -0.68875  -0.68376
 Alpha  occ. eigenvalues --   -0.68264  -0.67087  -0.66951  -0.65625  -0.64586
 Alpha  occ. eigenvalues --   -0.64177  -0.63541  -0.63161  -0.62900  -0.61670
 Alpha  occ. eigenvalues --   -0.61075  -0.60084  -0.59116  -0.59037  -0.57920
 Alpha  occ. eigenvalues --   -0.57435  -0.57015  -0.56267  -0.56111  -0.55848
 Alpha  occ. eigenvalues --   -0.55276  -0.55142  -0.53433  -0.53328  -0.53127
 Alpha  occ. eigenvalues --   -0.52874  -0.52660  -0.51690  -0.51243  -0.50460
 Alpha  occ. eigenvalues --   -0.50130  -0.49676  -0.49300  -0.48949  -0.48714
 Alpha  occ. eigenvalues --   -0.48367  -0.47852  -0.47603  -0.47302  -0.47000
 Alpha  occ. eigenvalues --   -0.46363  -0.46196  -0.46069  -0.45853  -0.45642
 Alpha  occ. eigenvalues --   -0.45461  -0.45278  -0.45084  -0.44889  -0.44751
 Alpha  occ. eigenvalues --   -0.44475  -0.44405  -0.44318  -0.44125  -0.43693
 Alpha  occ. eigenvalues --   -0.43568  -0.43259  -0.43245  -0.43095  -0.43040
 Alpha  occ. eigenvalues --   -0.42769  -0.42243  -0.42178  -0.42033  -0.41963
 Alpha  occ. eigenvalues --   -0.41338  -0.41047  -0.40828  -0.40719  -0.40249
 Alpha  occ. eigenvalues --   -0.40186  -0.40119  -0.39806  -0.39436  -0.39395
 Alpha  occ. eigenvalues --   -0.39325  -0.39082  -0.38932  -0.38836  -0.38627
 Alpha  occ. eigenvalues --   -0.38464  -0.38119  -0.37809  -0.37757  -0.37361
 Alpha  occ. eigenvalues --   -0.37236  -0.37074  -0.37062  -0.36989  -0.36855
 Alpha  occ. eigenvalues --   -0.36693  -0.36527  -0.36248  -0.36066  -0.35854
 Alpha  occ. eigenvalues --   -0.35825  -0.35655  -0.35576  -0.35374  -0.35057
 Alpha  occ. eigenvalues --   -0.34631  -0.34621  -0.34504  -0.34264  -0.33673
 Alpha  occ. eigenvalues --   -0.33591  -0.32902  -0.32835  -0.32697  -0.32519
 Alpha  occ. eigenvalues --   -0.31809  -0.31803  -0.31695  -0.31617  -0.31320
 Alpha  occ. eigenvalues --   -0.31153  -0.30770  -0.29999  -0.29983  -0.29582
 Alpha  occ. eigenvalues --   -0.29330  -0.28847  -0.28611  -0.28427  -0.28374
 Alpha  occ. eigenvalues --   -0.28151  -0.27572  -0.26703  -0.26302  -0.26182
 Alpha  occ. eigenvalues --   -0.24875  -0.23496  -0.23202  -0.23160  -0.19718
 Alpha  occ. eigenvalues --   -0.19658
 Alpha virt. eigenvalues --   -0.11381  -0.07240  -0.05276  -0.03191  -0.02070
 Alpha virt. eigenvalues --   -0.00989  -0.00530  -0.00006   0.01792   0.03294
 Alpha virt. eigenvalues --    0.03511   0.03878   0.04449   0.04584   0.04896
 Alpha virt. eigenvalues --    0.05148   0.05169   0.05295   0.05723   0.05809
 Alpha virt. eigenvalues --    0.06221   0.06331   0.06597   0.07086   0.07184
 Alpha virt. eigenvalues --    0.07350   0.07439   0.07616   0.07771   0.07965
 Alpha virt. eigenvalues --    0.08028   0.08253   0.08532   0.09059   0.09337
 Alpha virt. eigenvalues --    0.09378   0.09586   0.09895   0.09956   0.10082
 Alpha virt. eigenvalues --    0.10299   0.10457   0.10857   0.11049   0.11055
 Alpha virt. eigenvalues --    0.11176   0.11197   0.11383   0.11612   0.11752
 Alpha virt. eigenvalues --    0.11758   0.11927   0.12065   0.12477   0.12628
 Alpha virt. eigenvalues --    0.12818   0.12963   0.12985   0.13146   0.13203
 Alpha virt. eigenvalues --    0.13348   0.13542   0.13708   0.13863   0.13904
 Alpha virt. eigenvalues --    0.14111   0.14233   0.14399   0.14470   0.14534
 Alpha virt. eigenvalues --    0.14596   0.14830   0.15041   0.15282   0.15818
 Alpha virt. eigenvalues --    0.16019   0.16091   0.16408   0.16722   0.16963
 Alpha virt. eigenvalues --    0.17136   0.17253   0.17306   0.17595   0.17758
 Alpha virt. eigenvalues --    0.18133   0.18346   0.18373   0.18519   0.18958
 Alpha virt. eigenvalues --    0.19037   0.19294   0.19555   0.19692   0.19719
 Alpha virt. eigenvalues --    0.20186   0.20394   0.20568   0.20735   0.20763
 Alpha virt. eigenvalues --    0.21101   0.21144   0.21380   0.21958   0.22184
 Alpha virt. eigenvalues --    0.22291   0.22368   0.22428   0.22600   0.22999
 Alpha virt. eigenvalues --    0.23579   0.23678   0.23951   0.24075   0.24294
 Alpha virt. eigenvalues --    0.24401   0.25029   0.25061   0.25429   0.25473
 Alpha virt. eigenvalues --    0.26318   0.26451   0.27010   0.27108   0.27720
 Alpha virt. eigenvalues --    0.27780   0.28063   0.28285   0.28428   0.28963
 Alpha virt. eigenvalues --    0.29959   0.29978   0.30395   0.30964   0.31247
 Alpha virt. eigenvalues --    0.31453   0.32335   0.32656   0.33021   0.33289
 Alpha virt. eigenvalues --    0.33729   0.33914   0.34287   0.34312   0.34463
 Alpha virt. eigenvalues --    0.34850   0.35500   0.35886   0.36020   0.36792
 Alpha virt. eigenvalues --    0.37383   0.37865   0.38265   0.38375   0.38550
 Alpha virt. eigenvalues --    0.38736   0.38853   0.39590   0.39734   0.40070
 Alpha virt. eigenvalues --    0.40238   0.40479   0.40574   0.40704   0.40866
 Alpha virt. eigenvalues --    0.41402   0.41783   0.41940   0.42162   0.42274
 Alpha virt. eigenvalues --    0.42501   0.42642   0.42674   0.42742   0.43260
 Alpha virt. eigenvalues --    0.43602   0.43683   0.43849   0.44362   0.44460
 Alpha virt. eigenvalues --    0.44520   0.44640   0.44829   0.45038   0.45171
 Alpha virt. eigenvalues --    0.45373   0.45804   0.46027   0.46354   0.46564
 Alpha virt. eigenvalues --    0.46777   0.47030   0.47092   0.47733   0.47813
 Alpha virt. eigenvalues --    0.48166   0.48270   0.48542   0.48801   0.48873
 Alpha virt. eigenvalues --    0.49078   0.49211   0.49477   0.49881   0.50257
 Alpha virt. eigenvalues --    0.50570   0.50758   0.51053   0.51267   0.51399
 Alpha virt. eigenvalues --    0.51613   0.52031   0.52288   0.52651   0.52863
 Alpha virt. eigenvalues --    0.53132   0.53383   0.53633   0.53852   0.54063
 Alpha virt. eigenvalues --    0.54383   0.54449   0.54638   0.54836   0.55239
 Alpha virt. eigenvalues --    0.55499   0.55747   0.56265   0.56355   0.56566
 Alpha virt. eigenvalues --    0.56874   0.57051   0.57145   0.57575   0.57693
 Alpha virt. eigenvalues --    0.57851   0.58090   0.58208   0.58349   0.58687
 Alpha virt. eigenvalues --    0.58890   0.59108   0.59178   0.59408   0.59532
 Alpha virt. eigenvalues --    0.59978   0.60222   0.60305   0.60420   0.60524
 Alpha virt. eigenvalues --    0.60714   0.60937   0.61115   0.61293   0.61390
 Alpha virt. eigenvalues --    0.61425   0.61569   0.61787   0.61839   0.61940
 Alpha virt. eigenvalues --    0.62110   0.62198   0.62744   0.62978   0.63041
 Alpha virt. eigenvalues --    0.63188   0.63338   0.63378   0.63569   0.63596
 Alpha virt. eigenvalues --    0.63905   0.64006   0.64121   0.64194   0.64263
 Alpha virt. eigenvalues --    0.64308   0.64493   0.64523   0.64728   0.64812
 Alpha virt. eigenvalues --    0.64936   0.65069   0.65133   0.65321   0.65421
 Alpha virt. eigenvalues --    0.65556   0.65617   0.65909   0.66052   0.66075
 Alpha virt. eigenvalues --    0.66112   0.66407   0.66579   0.66587   0.66834
 Alpha virt. eigenvalues --    0.66955   0.67084   0.67348   0.67414   0.67436
 Alpha virt. eigenvalues --    0.67808   0.67848   0.68020   0.68178   0.68223
 Alpha virt. eigenvalues --    0.68443   0.68553   0.68632   0.68738   0.68764
 Alpha virt. eigenvalues --    0.68978   0.69140   0.69203   0.69268   0.69407
 Alpha virt. eigenvalues --    0.69760   0.69828   0.69954   0.70036   0.70113
 Alpha virt. eigenvalues --    0.70225   0.70335   0.70435   0.70664   0.70888
 Alpha virt. eigenvalues --    0.71035   0.71340   0.71422   0.71486   0.71638
 Alpha virt. eigenvalues --    0.71734   0.72006   0.72262   0.72336   0.72657
 Alpha virt. eigenvalues --    0.72812   0.72852   0.72988   0.73293   0.73662
 Alpha virt. eigenvalues --    0.73675   0.73852   0.74177   0.74348   0.74486
 Alpha virt. eigenvalues --    0.74557   0.74739   0.75186   0.75208   0.75535
 Alpha virt. eigenvalues --    0.75842   0.75935   0.76145   0.76334   0.76392
 Alpha virt. eigenvalues --    0.76704   0.76738   0.77069   0.77325   0.77429
 Alpha virt. eigenvalues --    0.77565   0.77701   0.78137   0.78205   0.78702
 Alpha virt. eigenvalues --    0.78782   0.78840   0.79763   0.79851   0.79952
 Alpha virt. eigenvalues --    0.80201   0.80477   0.80738   0.81196   0.81946
 Alpha virt. eigenvalues --    0.82009   0.82389   0.83436   0.83754   0.84045
 Alpha virt. eigenvalues --    0.84372   0.84443   0.84634   0.84890   0.85560
 Alpha virt. eigenvalues --    0.85873   0.86332   0.86964   0.87217   0.87683
 Alpha virt. eigenvalues --    0.88584   0.89352   0.90319   0.91094   0.91500
 Alpha virt. eigenvalues --    0.91806   0.91936   0.92421   0.92704   0.92821
 Alpha virt. eigenvalues --    0.93793   0.94074   0.94308   0.94886   0.95090
 Alpha virt. eigenvalues --    0.95330   0.95401   0.96363   0.96401   0.97270
 Alpha virt. eigenvalues --    0.97953   0.98195   0.98495   0.98661   0.98691
 Alpha virt. eigenvalues --    0.99351   1.00318   1.00486   1.01186   1.01265
 Alpha virt. eigenvalues --    1.01384   1.01944   1.02317   1.02486   1.02627
 Alpha virt. eigenvalues --    1.03162   1.04113   1.04289   1.04500   1.05202
 Alpha virt. eigenvalues --    1.05233   1.05915   1.06177   1.06703   1.07194
 Alpha virt. eigenvalues --    1.07368   1.07603   1.07923   1.08527   1.08733
 Alpha virt. eigenvalues --    1.09532   1.09728   1.10217   1.10819   1.11685
 Alpha virt. eigenvalues --    1.11753   1.12594   1.12783   1.13008   1.13055
 Alpha virt. eigenvalues --    1.14232   1.14437   1.14751   1.15038   1.15790
 Alpha virt. eigenvalues --    1.16285   1.16488   1.16661   1.16752   1.17244
 Alpha virt. eigenvalues --    1.17505   1.17800   1.18526   1.19166   1.19520
 Alpha virt. eigenvalues --    1.20053   1.20469   1.21274   1.21945   1.22500
 Alpha virt. eigenvalues --    1.22777   1.23160   1.23656   1.24161   1.24488
 Alpha virt. eigenvalues --    1.24619   1.24778   1.26210   1.26584   1.26790
 Alpha virt. eigenvalues --    1.26912   1.27493   1.27773   1.28148   1.28563
 Alpha virt. eigenvalues --    1.29151   1.29519   1.29659   1.30002   1.30578
 Alpha virt. eigenvalues --    1.31008   1.31297   1.32131   1.32453   1.33074
 Alpha virt. eigenvalues --    1.33875   1.34170   1.34509   1.34971   1.35342
 Alpha virt. eigenvalues --    1.35637   1.35754   1.35995   1.36228   1.36398
 Alpha virt. eigenvalues --    1.37717   1.37868   1.38367   1.38476   1.38915
 Alpha virt. eigenvalues --    1.39360   1.40010   1.40264   1.40506   1.41867
 Alpha virt. eigenvalues --    1.42193   1.42419   1.42484   1.42603   1.43061
 Alpha virt. eigenvalues --    1.43610   1.44258   1.44997   1.45472   1.45772
 Alpha virt. eigenvalues --    1.46507   1.47070   1.47303   1.47625   1.48218
 Alpha virt. eigenvalues --    1.48456   1.48727   1.49599   1.49836   1.50303
 Alpha virt. eigenvalues --    1.50322   1.50741   1.51138   1.51226   1.51358
 Alpha virt. eigenvalues --    1.51896   1.52296   1.52542   1.52849   1.53150
 Alpha virt. eigenvalues --    1.53263   1.53300   1.53932   1.54163   1.54817
 Alpha virt. eigenvalues --    1.55514   1.55725   1.56113   1.56534   1.56826
 Alpha virt. eigenvalues --    1.56869   1.57396   1.57581   1.58290   1.58402
 Alpha virt. eigenvalues --    1.58630   1.58909   1.59306   1.59718   1.60032
 Alpha virt. eigenvalues --    1.60390   1.60657   1.61535   1.61746   1.61977
 Alpha virt. eigenvalues --    1.62403   1.62521   1.62802   1.63241   1.63566
 Alpha virt. eigenvalues --    1.63697   1.64064   1.64334   1.64870   1.65264
 Alpha virt. eigenvalues --    1.65357   1.65705   1.66061   1.66841   1.67153
 Alpha virt. eigenvalues --    1.67216   1.67628   1.68053   1.68197   1.68398
 Alpha virt. eigenvalues --    1.68854   1.69483   1.69619   1.69667   1.70073
 Alpha virt. eigenvalues --    1.70317   1.70741   1.70945   1.71203   1.71313
 Alpha virt. eigenvalues --    1.71446   1.71623   1.71830   1.71957   1.72087
 Alpha virt. eigenvalues --    1.72479   1.72636   1.72749   1.72989   1.73223
 Alpha virt. eigenvalues --    1.73780   1.73974   1.74210   1.74504   1.74665
 Alpha virt. eigenvalues --    1.74994   1.75137   1.75373   1.75457   1.75797
 Alpha virt. eigenvalues --    1.75978   1.76180   1.76423   1.76632   1.76897
 Alpha virt. eigenvalues --    1.77132   1.77268   1.77401   1.77611   1.77974
 Alpha virt. eigenvalues --    1.78331   1.78500   1.78800   1.79145   1.79307
 Alpha virt. eigenvalues --    1.79439   1.79528   1.79592   1.80112   1.80407
 Alpha virt. eigenvalues --    1.80625   1.80636   1.80995   1.81085   1.81436
 Alpha virt. eigenvalues --    1.81793   1.81936   1.82189   1.82419   1.82449
 Alpha virt. eigenvalues --    1.82755   1.82908   1.83354   1.83470   1.83888
 Alpha virt. eigenvalues --    1.83968   1.84175   1.84455   1.84521   1.84749
 Alpha virt. eigenvalues --    1.85102   1.85299   1.85534   1.85619   1.85931
 Alpha virt. eigenvalues --    1.86053   1.86258   1.86512   1.87040   1.87169
 Alpha virt. eigenvalues --    1.87509   1.87696   1.88291   1.88353   1.88700
 Alpha virt. eigenvalues --    1.88738   1.88884   1.89167   1.89222   1.89631
 Alpha virt. eigenvalues --    1.89683   1.89912   1.90207   1.90341   1.90457
 Alpha virt. eigenvalues --    1.90835   1.91251   1.91382   1.91824   1.91988
 Alpha virt. eigenvalues --    1.92194   1.92446   1.92936   1.93057   1.93591
 Alpha virt. eigenvalues --    1.93943   1.94136   1.94411   1.94632   1.94668
 Alpha virt. eigenvalues --    1.94974   1.95174   1.95329   1.95751   1.96000
 Alpha virt. eigenvalues --    1.96180   1.96386   1.96781   1.96893   1.97286
 Alpha virt. eigenvalues --    1.97401   1.97586   1.98225   1.98426   1.98572
 Alpha virt. eigenvalues --    1.98713   1.98945   1.99299   1.99485   1.99860
 Alpha virt. eigenvalues --    2.00364   2.00563   2.00957   2.01191   2.01365
 Alpha virt. eigenvalues --    2.01576   2.02055   2.02597   2.02744   2.03070
 Alpha virt. eigenvalues --    2.03681   2.03708   2.04040   2.04138   2.04470
 Alpha virt. eigenvalues --    2.04776   2.05239   2.05604   2.05833   2.05889
 Alpha virt. eigenvalues --    2.06195   2.06817   2.07500   2.07595   2.07779
 Alpha virt. eigenvalues --    2.07955   2.08579   2.08978   2.09294   2.09690
 Alpha virt. eigenvalues --    2.09756   2.10332   2.10699   2.10925   2.11280
 Alpha virt. eigenvalues --    2.11476   2.12106   2.12560   2.12766   2.13266
 Alpha virt. eigenvalues --    2.13672   2.13967   2.14334   2.14350   2.14743
 Alpha virt. eigenvalues --    2.14841   2.15207   2.16021   2.16239   2.16903
 Alpha virt. eigenvalues --    2.17207   2.17431   2.17534   2.17718   2.18147
 Alpha virt. eigenvalues --    2.18849   2.18994   2.19286   2.20067   2.20306
 Alpha virt. eigenvalues --    2.20453   2.21046   2.22157   2.22329   2.22349
 Alpha virt. eigenvalues --    2.23056   2.23344   2.23611   2.23891   2.24401
 Alpha virt. eigenvalues --    2.25047   2.25228   2.25783   2.26120   2.26450
 Alpha virt. eigenvalues --    2.26731   2.27513   2.27892   2.28514   2.28720
 Alpha virt. eigenvalues --    2.29272   2.29351   2.29711   2.30119   2.30603
 Alpha virt. eigenvalues --    2.31462   2.31806   2.32216   2.32563   2.32703
 Alpha virt. eigenvalues --    2.33124   2.33560   2.33591   2.33933   2.34534
 Alpha virt. eigenvalues --    2.35036   2.35749   2.35993   2.36301   2.36449
 Alpha virt. eigenvalues --    2.36691   2.36877   2.37221   2.37414   2.37799
 Alpha virt. eigenvalues --    2.37960   2.38769   2.39493   2.39610   2.40234
 Alpha virt. eigenvalues --    2.40356   2.40668   2.40856   2.41335   2.42036
 Alpha virt. eigenvalues --    2.42257   2.42633   2.42798   2.43282   2.43564
 Alpha virt. eigenvalues --    2.43844   2.44007   2.44616   2.44825   2.45372
 Alpha virt. eigenvalues --    2.45852   2.46180   2.46551   2.46924   2.47155
 Alpha virt. eigenvalues --    2.47800   2.48290   2.48407   2.48522   2.48970
 Alpha virt. eigenvalues --    2.49203   2.49530   2.49990   2.50635   2.51269
 Alpha virt. eigenvalues --    2.51568   2.53062   2.53424   2.54485   2.54716
 Alpha virt. eigenvalues --    2.54929   2.55079   2.55782   2.56327   2.56414
 Alpha virt. eigenvalues --    2.56857   2.57255   2.57588   2.58558   2.58839
 Alpha virt. eigenvalues --    2.59218   2.59474   2.59705   2.59886   2.60384
 Alpha virt. eigenvalues --    2.60543   2.61400   2.61494   2.61771   2.62183
 Alpha virt. eigenvalues --    2.62522   2.62728   2.62943   2.63249   2.63958
 Alpha virt. eigenvalues --    2.64773   2.65262   2.65498   2.65994   2.66232
 Alpha virt. eigenvalues --    2.66342   2.66572   2.67056   2.67161   2.67386
 Alpha virt. eigenvalues --    2.68129   2.68962   2.69318   2.69708   2.70255
 Alpha virt. eigenvalues --    2.70891   2.71271   2.71953   2.72234   2.72930
 Alpha virt. eigenvalues --    2.73265   2.73387   2.73604   2.73978   2.74461
 Alpha virt. eigenvalues --    2.74544   2.75308   2.76137   2.76295   2.76555
 Alpha virt. eigenvalues --    2.77192   2.77434   2.78206   2.79156   2.79383
 Alpha virt. eigenvalues --    2.79870   2.80408   2.80962   2.81024   2.81472
 Alpha virt. eigenvalues --    2.82138   2.82892   2.83142   2.83598   2.83741
 Alpha virt. eigenvalues --    2.84348   2.85118   2.85237   2.85572   2.86000
 Alpha virt. eigenvalues --    2.86426   2.86763   2.86895   2.87314   2.87663
 Alpha virt. eigenvalues --    2.88127   2.88446   2.89264   2.89418   2.89739
 Alpha virt. eigenvalues --    2.90012   2.90164   2.91354   2.91495   2.91883
 Alpha virt. eigenvalues --    2.92209   2.92533   2.93278   2.93560   2.94569
 Alpha virt. eigenvalues --    2.94792   2.95023   2.96292   2.96479   2.96900
 Alpha virt. eigenvalues --    2.97094   2.97976   2.98496   2.98837   2.99369
 Alpha virt. eigenvalues --    2.99415   3.00127   3.00486   3.00987   3.01266
 Alpha virt. eigenvalues --    3.02406   3.02906   3.03390   3.04130   3.04320
 Alpha virt. eigenvalues --    3.05131   3.05810   3.06658   3.07860   3.08789
 Alpha virt. eigenvalues --    3.09072   3.09495   3.09982   3.10046   3.11232
 Alpha virt. eigenvalues --    3.11389   3.12655   3.12696   3.13799   3.13823
 Alpha virt. eigenvalues --    3.14229   3.15013   3.16452   3.16963   3.17883
 Alpha virt. eigenvalues --    3.18180   3.18407   3.19187   3.20202   3.20485
 Alpha virt. eigenvalues --    3.20783   3.22585   3.22696   3.23633   3.24152
 Alpha virt. eigenvalues --    3.25457   3.26996   3.27481   3.30708   3.35530
 Alpha virt. eigenvalues --    3.37931   3.38697   3.39746   3.40817   3.43003
 Alpha virt. eigenvalues --    3.45580   3.50126   3.50888   3.52573   3.60511
 Alpha virt. eigenvalues --    3.60557   3.61335   3.62629   3.67063   3.70503
          Condensed to atoms (all electrons):
 Mulliken charges:
               1
     1  C    0.045563
     2  C   -0.042030
     3  C    0.019299
     4  C   -0.104045
     5  N   -0.182923
     6  C   -0.086981
     7  C    0.006274
     8  C   -0.145826
     9  C   -0.012023
    10  C    0.085602
    11  C    0.194546
    12  C   -0.020996
    13  C    0.212407
    14  O   -0.302210
    15  O   -0.408170
    16  N   -0.140304
    17  C    0.100663
    18  C   -0.058144
    19  C    0.039811
    20  C    0.091328
    21  C    0.032272
    22  C   -0.087403
    23  C   -0.073928
    24  N   -0.199241
    25  C    0.069685
    26  C   -0.135807
    27  C   -0.121806
    28  C    0.037901
    29  C    0.148930
    30  C    0.198488
    31  C    0.000609
    32  N    0.091211
    33  C    0.065180
    34  C   -0.145618
    35  C    0.068309
    36  C   -0.012577
    37  C    0.063300
    38  C    0.020656
    39  O   -0.211433
    40  C    0.057209
    41  C    0.189764
    42  O   -0.193212
    43  O   -0.336142
    44  C    0.223387
    45  C    0.396136
    46  C   -0.140537
    47  C   -0.278265
    48  C    0.198870
    49  C    0.169759
    50  C    0.020322
    51  C    0.023218
    52  C   -0.006999
    53  C   -0.032719
    54  C    0.052509
    55  C   -0.000606
    56  C    0.080983
    57  C   -0.115940
    58  C   -0.087922
    59  C   -0.012204
    60  C    0.123077
    61  C    0.056259
    62  C   -0.066776
    63  C   -0.025420
    64  C    0.118458
    65  H   -0.022670
    66  H   -0.138201
    67  H    0.017010
    68  H   -0.053578
    69  H    0.028107
    70  H    0.029178
    71  H    0.026955
    72  H   -0.002542
    73  H    0.011240
    74  H   -0.039969
    75  H    0.058733
    76  H    0.052327
    77  H    0.033059
    78  H    0.008662
    79  H    0.043127
    80  H    0.035945
    81  H    0.035351
    82  H    0.040168
    83  H   -0.034057
    84  H    0.028793
    85  H   -0.008712
    86  H   -0.050671
    87  H   -0.046160
    88  H    0.010923
    89  H    0.012832
    90  H    0.028612
    91  H    0.046369
    92  H    0.067298
    93  H    0.007983
    94  H    0.039403
    95  H    0.044613
    96  H   -0.022847
    97  H    0.034298
    98  H    0.008978
    99  H   -0.017260
   100  H    0.033651
   101  H    0.039262
   102  H   -0.000377
   103  H   -0.047355
   104  H   -0.001424
   105  H   -0.062030
   106  H    0.009457
   107  H   -0.002795
   108  H   -0.014332
   109  H    0.003898
   110  H   -0.031757
   111  H    0.029861
   112  H    0.023211
   113  H   -0.011169
   114  H   -0.037930
   115  H   -0.017732
   116  H    0.007199
   117  H    0.002857
   118  H   -0.007342
   119  H    0.001178
   120  H    0.010898
   121  H    0.047151
   122  H    0.040007
   123  H    0.018518
   124  H   -0.012135
   125  H   -0.015094
   126  H   -0.006639
   127  H   -0.058380
   128  H   -0.049255
   129  H   -0.028338
   130  H    0.004724
   131  H    0.001434
   132  H    0.011873
   133  H    0.033787
   134  H   -0.005741
   135  H   -0.009174
   136  H   -0.033009
   137  H    0.187012
   138  H    0.118958
 Sum of Mulliken charges =   0.00000
 Mulliken charges with hydrogens summed into heavy atoms:
               1
     1  C    0.045563
     2  C   -0.064701
     3  C   -0.118902
     4  C   -0.087035
     5  N   -0.182923
     6  C   -0.086981
     7  C   -0.047304
     8  C   -0.117718
     9  C   -0.012023
    10  C    0.139193
    11  C    0.165818
    12  C    0.090063
    13  C    0.212407
    14  O   -0.302210
    15  O   -0.408170
    16  N    0.046708
    17  C    0.100663
    18  C   -0.058144
    19  C    0.039811
    20  C    0.091328
    21  C    0.117120
    22  C   -0.051458
    23  C    0.001591
    24  N   -0.199241
    25  C    0.069685
    26  C   -0.135807
    27  C   -0.121806
    28  C    0.037901
    29  C    0.134953
    30  C    0.101657
    31  C    0.052976
    32  N    0.210169
    33  C    0.065180
    34  C   -0.145618
    35  C    0.068309
    36  C   -0.012577
    37  C    0.184950
    38  C    0.020656
    39  O   -0.211433
    40  C    0.096612
    41  C    0.189764
    42  O   -0.193212
    43  O   -0.336142
    44  C    0.279452
    45  C    0.387853
    46  C   -0.106886
    47  C   -0.278265
    48  C    0.190400
    49  C    0.106305
    50  C    0.026983
    51  C    0.012784
    52  C   -0.038756
    53  C    0.009183
    54  C   -0.003153
    55  C    0.009449
    56  C    0.074819
    57  C   -0.105042
    58  C    0.017755
    59  C   -0.039433
    60  C    0.058059
    61  C   -0.021333
    62  C   -0.062052
    63  C    0.021674
    64  C    0.070535
 Electronic spatial extent (au):  <R**2>=         178201.4967
 Charge=              0.0000 electrons
 Dipole moment (field-independent basis, Debye):
    X=              0.5693    Y=              5.2050    Z=              0.5451  Tot=              5.2643
 Quadrupole moment (field-independent basis, Debye-Ang):
   XX=           -348.8035   YY=           -384.2446   ZZ=           -394.2759
   XY=            -13.8112   XZ=             14.2063   YZ=             -0.8584
 Traceless Quadrupole moment (field-independent basis, Debye-Ang):
   XX=             26.9711   YY=             -8.4699   ZZ=            -18.5012
   XY=            -13.8112   XZ=             14.2063   YZ=             -0.8584
 Octapole moment (field-independent basis, Debye-Ang**2):
  XXX=           -726.7125  YYY=            196.7261  ZZZ=              6.7956  XYY=            -44.2024
  XXY=            232.6246  XXZ=           -199.6941  XZZ=              7.7033  YZZ=            -19.1469
  YYZ=             59.9839  XYZ=            -41.9978
 Hexadecapole moment (field-independent basis, Debye-Ang**3):
 XXXX=        -220086.8512 YYYY=         -17678.6247 ZZZZ=          -4442.0684 XXXY=           3147.3930
 XXXZ=           2479.6305 YYYX=          -1327.9509 YYYZ=            -94.3202 ZZZX=             93.8559
 ZZZY=            -70.6710 XXYY=         -39833.3275 XXZZ=         -38927.1660 YYZZ=          -3602.0059
 XXYZ=            133.0981 YYXZ=            -39.4788 ZZXY=            111.5989
 N-N= 8.290527806739D+03 E-N=-2.291627616413D+04  KE= 2.702647348935D+03
 1\1\GINC-PEDRO-RYZENSSD\SP\RB3LYP TD-FC\SVP\C55H74N4O5\PADAWAN\26-Jul-
 2019\0\\# td=(NStates=1) B3LYP/SVP\\TD\\0,1\C,0,-5.1413918373,-1.96237
 24793,0.4367385498\C,0,-4.7141417332,2.8246589176,1.3512115071\C,0,-9.
 3596658763,3.274318231,-0.1180302709\C,0,-9.7962676813,-1.4375145549,-
 0.9060331567\N,0,-5.1956387262,0.4076923921,0.7727257096\C,0,-4.547293
 3454,-0.7632530463,0.7803914825\C,0,-3.0290725938,-0.7098974244,1.2988
 648823\C,0,-3.0569006555,0.8254414364,1.8473338392\C,0,-4.401689362,1.
 3958794058,1.3136949665\C,0,-3.0112196905,0.8116486772,3.3991377764\C,
 0,-2.1378558563,-0.7854185036,0.0537333189\C,0,-0.649368149,-0.6686450
 811,0.4400664593\C,0,0.31858552,-1.0642032932,-0.4659881564\O,0,0.1319
 749651,-1.5776201286,-1.6220958211\O,0,1.6587260697,-0.6834251156,-0.1
 786103037\N,0,-7.0890434989,2.7885761294,0.5435238616\C,0,-5.911372712
 7,3.4851329316,1.0117320301\C,0,-6.1694401297,4.8128577253,1.001486641
 5\C,0,-7.5375828551,4.9085796935,0.5809146189\C,0,-8.0240533512,3.7037
 288666,0.2485250079\C,0,-5.2109616127,6.0188774028,1.4991111771\C,0,-8
 .3167989626,6.1186558772,0.6926377651\C,0,-9.1505429525,6.6027599979,-
 0.3682993087\N,0,-9.2093491355,0.8582230553,-0.536836152\C,0,-9.848578
 7208,2.0122237211,-0.4772369929\C,0,-11.2659604625,1.8952530863,-1.003
 4841823\C,0,-11.4278467352,0.5640437445,-1.2854835031\C,0,-10.07942016
 77,-0.1095009018,-0.9650697495\C,0,-12.2940579067,2.9260011017,-1.2380
 969\C,0,-12.5957073102,-0.1412266022,-1.8759685566\C,0,-12.4612362543,
 -0.3547987443,-3.4177299443\N,0,-7.5031392715,-1.2125629415,-0.2883873
 672\C,0,-8.5104226298,-2.0034990767,-0.6409774601\C,0,-8.2336758066,-3
 .410227905,-0.6739799653\C,0,-6.9335182609,-3.4354403723,-0.1861162355
 \C,0,-6.5060717106,-2.0651593345,0.0169567719\C,0,-9.1001327709,-4.542
 695019,-1.1614451389\C,0,-5.7735342986,-4.237298765,0.0617071163\O,0,-
 5.7295724474,-5.4888584159,0.0109438285\C,0,-4.5565932879,-3.382909052
 5,0.5671457767\C,0,-3.9834621441,-3.8187659701,1.8498815139\O,0,-4.192
 6643399,-3.3517031042,2.9292809962\O,0,-3.0074794355,-4.7829832712,1.5
 967901069\C,0,-2.4424389477,-5.4357230184,2.6932414637\C,0,2.761558324
 4,-1.0874526429,-1.1298970155\C,0,3.988642111,-0.6366741698,-0.4827403
 741\C,0,5.1367159282,-0.0751464597,-1.0596799246\C,0,5.1707762733,0.50
 54012718,-2.5174188587\C,0,6.3365754027,0.2691446537,-0.2612850427\C,0
 ,7.5317044108,-0.4150376867,-0.9646133282\C,0,8.7798595871,-0.22193617
 87,-0.170665414\C,0,10.1386047862,-0.9328376104,-0.6959869535\C,0,10.0
 240984484,-2.4231261155,-0.6744567306\C,0,11.3049343436,-0.3242967444,
 -0.0163321889\C,0,12.6823499092,-0.6655318704,-0.5844229654\C,0,13.738
 4024296,0.0364764214,0.1475068062\C,0,15.1890678186,-0.1864395255,-0.4
 472282807\C,0,15.4922087927,-1.7468135468,-0.3667154398\C,0,16.3088816
 325,0.6645709744,0.3537343957\C,0,17.6285977486,0.7391268304,-0.202114
 1128\C,0,18.6443553598,1.6408484137,0.4507358898\C,0,20.0993018318,1.8
 016479694,-0.0407223447\C,0,20.0787485738,2.527909367,-1.4222102988\C,
 0,20.9157740987,2.4643277716,1.1032721154\H,0,-4.0060682671,3.35129636
 16,1.9671115921\H,0,-9.9789457477,3.9394111832,0.0517138487\H,0,-10.60
 81950759,-2.1354807036,-1.3584353166\H,0,-2.6282751545,-1.2038696222,2
 .0544663223\H,0,-2.1886501795,1.5256327865,1.4347263848\H,0,-2.0509653
 545,0.2719835668,3.7166907731\H,0,-3.2664621381,1.880573107,3.82036223
 14\H,0,-3.7880784047,0.2456597505,3.7370888851\H,0,-2.305476056,-1.648
 3195651,-0.5587403212\H,0,-2.3080041398,-0.0168054895,-0.5300997042\H,
 0,-0.356961516,0.197743628,1.1507354348\H,0,-0.6286332026,-1.563858344
 4,1.2610236108\H,0,-4.3830231188,6.1173361017,0.7398967895\H,0,-5.4757
 227787,7.0671016249,1.5619854931\H,0,-4.7658146683,5.915339578,2.59120
 32543\H,0,-7.9951645259,7.0653064051,1.3127128252\H,0,-9.2896343153,6.
 1236425248,-1.3152631124\H,0,-9.6007648231,7.6359923267,-0.211161339\H
 ,0,-12.4408984518,3.3792071079,-0.4287906922\H,0,-12.1401778661,3.7641
 003674,-2.1856278796\H,0,-13.2373347563,2.5333711728,-1.5822425797\H,0
 ,-12.7178941626,-0.8474836751,-1.2221069618\H,0,-13.5241694414,0.29854
 40091,-1.7584682056\H,0,-12.15500113,0.5723440475,-3.7905764019\H,0,-1
 1.5058455526,-1.0561831919,-3.7056195141\H,0,-13.3005868122,-0.9046695
 618,-3.8826958119\H,0,-10.1934158904,-4.428682188,-0.7245947615\H,0,-9
 .1281067896,-4.7535232983,-2.4894758458\H,0,-8.6917143461,-5.371735440
 5,-0.7606240179\H,0,-3.7280646579,-3.5437206623,-0.0970910577\H,0,-1.4
 99790372,-5.9998150772,2.4624795821\H,0,-2.0702154679,-4.6124347274,3.
 200444487\H,0,-3.2669597124,-5.8102861202,3.372814157\H,0,2.706034511,
 -2.1335209956,-1.2084020072\H,0,2.4633512296,-0.6733449153,-1.99979774
 7\H,0,4.0139241641,-0.6258949038,0.7674346465\H,0,5.6274145707,1.54780
 72897,-2.4293776576\H,0,5.4801946367,-0.2788519227,-3.0871001116\H,0,4
 .2151916374,0.5914303298,-2.7975205772\H,0,6.3275107673,1.3639725223,-
 0.187048896\H,0,6.1102390686,0.0225323636,0.6912068281\H,0,7.280714856
 4,-1.5305897836,-1.0453252921\H,0,7.5741369562,-0.0557735568,-1.967231
 5522\H,0,8.7513406215,0.8439232336,-0.0251023619\H,0,8.8199050533,-0.7
 163857901,0.8565284652\H,0,10.3062432929,-0.7463220755,-1.7430688819\H
 ,0,9.0876690831,-2.7249511883,-1.3506436122\H,0,10.941009132,-3.080439
 6438,-0.7623868436\H,0,9.7556205822,-2.8418658722,0.3649382245\H,0,11.
 1540106985,0.706559436,-0.1778992047\H,0,11.2115971232,-0.4126465012,1
 .1050504352\H,0,12.7676514757,-1.7970312743,-0.570900303\H,0,12.705318
 6841,-0.199390018,-1.6930908428\H,0,13.5517863335,1.0900787187,0.00245
 31562\H,0,13.8166958966,-0.451361564,1.1558324291\H,0,15.2863309773,0.
 2386350696,-1.6054625596\H,0,14.8253680897,-2.4809106729,-0.9400433375
 \H,0,16.6967235459,-1.9923132679,-0.6301187958\H,0,15.3067559544,-1.99
 45945921,0.8449437658\H,0,15.8045607293,1.7340699773,0.5643368927\H,0,
 16.3106357204,0.3145720805,1.4151749401\H,0,17.9703282545,-0.420306241
 1,-0.2022900968\H,0,17.6641409997,1.0016820565,-1.1712155541\H,0,18.20
 6465336,2.546761072,0.5025256423\H,0,18.5803002842,1.2991857281,1.4803
 951895\H,0,20.5177981122,0.7624142024,-0.2991687607\H,0,19.4497023268,
 3.4487531454,-1.4333852409\H,0,21.0182690706,3.0331613858,-1.827155822
 2\H,0,19.6752725003,1.7793535571,-2.2136935509\H,0,20.8691121477,2.009
 5624242,2.0666076974\H,0,21.8947123284,2.6985998874,0.7771018673\H,0,2
 0.5490645359,3.3891821178,1.3854172796\H,0,-6.96916875,1.7476136346,0.
 2297148176\H,0,-7.3008716356,-0.2581059866,-0.3181119388\\Version=ES64
 L-G09RevD.01\State=1-A\HF=-2732.977779\RMSD=3.595e-09\PG=C01 [X(C55H74
 N4O5)]\\@


 SIGN SEEN IN A RESTAURANT-
 WE RESERVE THE RIGHT TO SERVE REFUSE TO ANYONE.
 Job cpu time:       0 days  5 hours 30 minutes  0.0 seconds.
 File lengths (MBytes):  RWF=   1953 Int=      0 D2E=      0 Chk=    148 Scr=      1
 Normal termination of Gaussian 09 at Fri Jul 26 05:07:38 2019.
