 Entering Gaussian System, Link 0=g16
 Input=Geometria-20-.com
 Output=Geometria-20-.log
 Initial command:
 /usr/local/g09/l1.exe "/home/padawan/israel-mol/pheophytin/spectra/abs/Gau-46305.inp" -scrdir="/home/padawan/israel-mol/pheophytin/spectra/abs/"
 Entering Link 1 = /usr/local/g09/l1.exe PID=     46307.
  
 Copyright (c) 1988,1990,1992,1993,1995,1998,2003,2009,2013,
            Gaussian, Inc.  All Rights Reserved.
  
 This is part of the Gaussian(R) 09 program.  It is based on
 the Gaussian(R) 03 system (copyright 2003, Gaussian, Inc.),
 the Gaussian(R) 98 system (copyright 1998, Gaussian, Inc.),
 the Gaussian(R) 94 system (copyright 1995, Gaussian, Inc.),
 the Gaussian 92(TM) system (copyright 1992, Gaussian, Inc.),
 the Gaussian 90(TM) system (copyright 1990, Gaussian, Inc.),
 the Gaussian 88(TM) system (copyright 1988, Gaussian, Inc.),
 the Gaussian 86(TM) system (copyright 1986, Carnegie Mellon
 University), and the Gaussian 82(TM) system (copyright 1983,
 Carnegie Mellon University). Gaussian is a federally registered
 trademark of Gaussian, Inc.
  
 This software contains proprietary and confidential information,
 including trade secrets, belonging to Gaussian, Inc.
  
 This software is provided under written license and may be
 used, copied, transmitted, or stored only in accord with that
 written license.
  
 The following legend is applicable only to US Government
 contracts under FAR:
  
                    RESTRICTED RIGHTS LEGEND
  
 Use, reproduction and disclosure by the US Government is
 subject to restrictions as set forth in subparagraphs (a)
 and (c) of the Commercial Computer Software - Restricted
 Rights clause in FAR 52.227-19.
  
 Gaussian, Inc.
 340 Quinnipiac St., Bldg. 40, Wallingford CT 06492
  
  
 ---------------------------------------------------------------
 Warning -- This program may not be used in any manner that
 competes with the business of Gaussian, Inc. or will provide
 assistance to any competitor of Gaussian, Inc.  The licensee
 of this program is prohibited from giving any competitor of
 Gaussian, Inc. access to this program.  By using this program,
 the user acknowledges that Gaussian, Inc. is engaged in the
 business of creating and licensing software in the field of
 computational chemistry and represents and warrants to the
 licensee that it is not a competitor of Gaussian, Inc. and that
 it will not use this program in any manner prohibited above.
 ---------------------------------------------------------------
  

 Cite this work as:
 Gaussian 09, Revision D.01,
 M. J. Frisch, G. W. Trucks, H. B. Schlegel, G. E. Scuseria, 
 M. A. Robb, J. R. Cheeseman, G. Scalmani, V. Barone, B. Mennucci, 
 G. A. Petersson, H. Nakatsuji, M. Caricato, X. Li, H. P. Hratchian, 
 A. F. Izmaylov, J. Bloino, G. Zheng, J. L. Sonnenberg, M. Hada, 
 M. Ehara, K. Toyota, R. Fukuda, J. Hasegawa, M. Ishida, T. Nakajima, 
 Y. Honda, O. Kitao, H. Nakai, T. Vreven, J. A. Montgomery, Jr., 
 J. E. Peralta, F. Ogliaro, M. Bearpark, J. J. Heyd, E. Brothers, 
 K. N. Kudin, V. N. Staroverov, T. Keith, R. Kobayashi, J. Normand, 
 K. Raghavachari, A. Rendell, J. C. Burant, S. S. Iyengar, J. Tomasi, 
 M. Cossi, N. Rega, J. M. Millam, M. Klene, J. E. Knox, J. B. Cross, 
 V. Bakken, C. Adamo, J. Jaramillo, R. Gomperts, R. E. Stratmann, 
 O. Yazyev, A. J. Austin, R. Cammi, C. Pomelli, J. W. Ochterski, 
 R. L. Martin, K. Morokuma, V. G. Zakrzewski, G. A. Voth, 
 P. Salvador, J. J. Dannenberg, S. Dapprich, A. D. Daniels, 
 O. Farkas, J. B. Foresman, J. V. Ortiz, J. Cioslowski, 
 and D. J. Fox, Gaussian, Inc., Wallingford CT, 2013.
 
 ******************************************
 Gaussian 09:  ES64L-G09RevD.01 24-Apr-2013
                24-Jul-2019 
 ******************************************
 %nproc=3
 Will use up to    3 processors via shared memory.
 %Mem=2GB
 --------------------------
 # td=(NStates=1) B3LYP/SVP
 --------------------------
 1/38=1/1;
 2/12=2,17=6,18=5,40=1/2;
 3/5=18,7=101,11=9,16=1,25=1,30=1,74=-5/1,2,8,3;
 4//1;
 5/5=2,38=5/2;
 8/6=1,10=1,108=1/1;
 9/41=1,42=1,70=2/14;
 6/7=2,8=2,9=2,10=2/1;
 99/5=1,9=1/99;
 --
 TD
 --
 Symbolic Z-matrix:
 Charge =  0 Multiplicity = 1
 6                    -5.15119  -1.91555   0.60715 
 6                    -4.78232   2.74462   1.31711 
 6                    -9.32744   3.29158  -0.19441 
 6                    -9.86388  -1.52325  -0.96047 
 7                    -5.25891   0.49486   0.89207 
 6                    -4.49386  -0.66517   0.8646 
 6                    -3.10908  -0.46945   1.23104 
 6                    -3.12853   0.89193   1.85742 
 6                    -4.48273   1.40854   1.26245 
 6                    -3.15162   1.01886   3.38825 
 6                    -2.03267  -0.50654   0.05987 
 6                    -0.59544  -0.57338   0.54134 
 6                     0.37841  -0.9859   -0.5834 
 8                     0.02191  -1.43253  -1.62566 
 8                     1.62954  -0.71883  -0.25224 
 7                    -7.1113    2.69669   0.57238 
 6                    -5.99769   3.39676   0.98895 
 6                    -6.3034    4.82348   1.06528 
 6                    -7.66673   4.94464   0.64343 
 6                    -8.09629   3.61033   0.24309 
 6                    -5.37783   5.93219   1.66026 
 6                    -8.31635   6.25085   0.42222 
 6                    -9.17872   6.55683  -0.57792 
 7                    -9.21794   0.80237  -0.51623 
 6                    -9.83095   2.0172   -0.53523 
 6                    -11.26012   1.8153   -1.05813 
 6                    -11.40348   0.47841  -1.28057 
 6                    -10.09506  -0.21268  -0.92539 
 6                    -12.24705   2.98798  -1.14029 
 6                    -12.60177  -0.32179  -1.77144 
 6                    -12.6576  -0.577    -3.30287 
 7                    -7.61168  -1.32269  -0.06124 
 6                    -8.65459  -2.09947  -0.55541 
 6                    -8.17361  -3.49676  -0.57535 
 6                    -6.8217   -3.40404  -0.13863 
 6                    -6.46724  -2.06294   0.08798 
 6                    -9.01666  -4.67596  -0.90808 
 6                    -5.64917  -4.3655   -0.02042 
 8                    -5.4508   -5.58039  -0.19829 
 6                    -4.55059  -3.32974   0.41197 
 6                    -3.87431  -3.71522   1.77627 
 8                    -4.18318  -3.29863   2.82704 
 8                    -2.88921  -4.73171   1.60566 
 6                    -2.24773  -5.12199   2.79802 
 6                     2.65087  -0.97544  -1.28596 
 6                     3.96777  -0.67933  -0.70903 
 6                     5.0188    0.0384   -1.17048 
 6                     4.89333   0.89892  -2.3706 
 6                     6.29956   0.24274  -0.46321 
 6                     7.57332  -0.4106   -1.10088 
 6                     8.83567  -0.22777  -0.18406 
 6                     10.13675  -0.73796  -0.8915 
 6                     10.07809  -2.34394  -1.1226 
 6                     11.41571  -0.36246  -0.04091 
 6                     12.73089  -0.46032  -0.76097 
 6                     13.85208  -0.12537   0.2553 
 6                     15.2961  -0.23263  -0.29118 
 6                     15.59939  -1.76679  -0.45533 
 6                     16.3385   0.52625   0.48111 
 6                     17.77044   0.63298  -0.09169 
 6                     18.62302   1.48668   0.79405 
 6                     20.02185   1.57829   0.13673 
 6                     20.24142   2.1601   -1.20597 
 6                     20.89934   2.3862    1.10992 
 1                    -3.84761   3.32053   1.85076 
 1                    -10.15136   4.10732  -0.37997 
 1                    -10.73216  -2.17365  -1.20785 
 1                    -2.77909  -1.16259   1.91454 
 1                    -2.28944   1.48361   1.58305 
 1                    -2.1348    0.68753   3.83219 
 1                    -3.33209   2.04923   3.86635 
 1                    -3.84772   0.22642   3.86389 
 1                    -2.24797  -1.31997  -0.82163 
 1                    -2.15564   0.46277  -0.50889 
 1                    -0.15457   0.39257   0.85763 
 1                    -0.4995   -1.21407   1.42214 
 1                    -4.55052   6.09774   0.94062 
 1                    -5.90236   6.72774   1.58064 
 1                    -5.15902   5.71073   2.73919 
 1                    -7.97536   6.949     1.09838 
 1                    -9.47055   5.99718  -1.45972 
 1                    -9.67648   7.62072  -0.4674 
 1                    -12.903    3.44424  -0.26306 
 1                    -11.77752   3.86331  -2.05893 
 1                    -13.29639   2.72941  -1.62045 
 1                    -12.67145  -1.46178  -1.23409 
 1                    -13.53834   0.02148  -1.34568 
 1                    -12.44782   0.46036  -3.67594 
 1                    -11.77835  -1.16718  -3.50829 
 1                    -13.62741  -0.94733  -3.55684 
 1                    -9.55785  -4.92591   0.16707 
 1                    -9.90041  -4.5198   -1.82771 
 1                    -8.37253  -5.63168  -0.99847 
 1                    -3.67099  -3.38066  -0.29167 
 1                    -1.42674  -5.74717   2.4531 
 1                    -1.78449  -4.21417   3.28316 
 1                    -2.91891  -5.78025   3.47222 
 1                     2.52596  -1.92585  -1.53784 
 1                     2.32057  -0.55697  -2.26393 
 1                     4.09974  -1.17377   0.19993 
 1                     5.11422   1.84437  -2.2207 
 1                     5.57156   0.53935  -3.23582 
 1                     3.92778   0.79566  -2.70427 
 1                     6.72403   1.40516  -0.20501 
 1                     6.10784  -0.25539   0.49096 
 1                     7.35583  -1.44856  -1.44419 
 1                     8.01025  -0.00732  -1.85175 
 1                     8.89332   0.87749   0.07563 
 1                     8.75787  -0.73477   0.81617 
 1                     10.23698  -0.11851  -1.728 
 1                     9.33458  -2.6514   -1.68202 
 1                     10.84864  -2.62517  -1.56546 
 1                     9.97206  -2.76986  -0.15326 
 1                     11.27637   0.6779    0.22785 
 1                     11.22624  -1.09086   0.78943 
 1                     12.78911  -1.49906  -1.1691 
 1                     12.7971   0.19364  -1.62715 
 1                     13.67191   0.86089   0.67823 
 1                     13.79496  -0.67676   1.07739 
 1                     15.30067   0.0929   -1.22409 
 1                     14.80483  -2.03406  -1.12905 
 1                     16.61265  -1.88976  -0.96853 
 1                     15.40853  -2.36293   0.26494 
 1                     15.7707   1.47342   0.57486 
 1                     16.49601  -0.1596    1.35814 
 1                     18.08778  -0.40154  -0.41426 
 1                     17.67132   1.16894  -1.21828 
 1                     18.19788   2.51076   0.83439 
 1                     18.61475   1.00921   1.83681 
 1                     20.25049   0.55849   0.0025 
 1                     20.16021   3.3278   -1.1127 
 1                     21.20377   2.19267  -1.50374 
 1                     19.57511   1.846    -1.95148 
 1                     20.83328   1.87993   2.1967 
 1                     22.12492   2.41642   0.79455 
 1                     20.40354   3.32867   1.2373 
 1                    -7.13423   1.73801   0.17541 
 1                    -7.63054  -0.31105   0.14807 
 
 Stoichiometry    C55H74N4O5
 Framework group  C1[X(C55H74N4O5)]
 Deg. of freedom   408
 Full point group                 C1      NOp   1
 Largest Abelian subgroup         C1      NOp   1
 Largest concise Abelian subgroup C1      NOp   1
                         Standard orientation:                         
 ---------------------------------------------------------------------
 Center     Atomic      Atomic             Coordinates (Angstroms)
 Number     Number       Type             X           Y           Z
 ---------------------------------------------------------------------
      1          6           0       -5.146601   -1.922647    0.628436
      2          6           0       -4.790552    2.746161    1.286273
      3          6           0       -9.336831    3.263799   -0.232080
      4          6           0       -9.860015   -1.560747   -0.944311
      5          7           0       -5.260929    0.490497    0.886348
      6          6           0       -4.492724   -0.667685    0.872000
      7          6           0       -3.108560   -0.464109    1.236472
      8          6           0       -3.131841    0.904138    1.847582
      9          6           0       -4.487316    1.410373    1.246622
     10          6           0       -3.155602    1.048127    3.376884
     11          6           0       -2.031804   -0.511368    0.065988
     12          6           0       -0.594505   -0.568899    0.548425
     13          6           0        0.380702   -0.991326   -0.571451
     14          8           0        0.025639   -1.450559   -1.608708
     15          8           0        1.631034   -0.717166   -0.243075
     16          7           0       -7.119234    2.683557    0.541709
     17          6           0       -6.007625    3.391281    0.950621
     18          6           0       -6.317233    4.817923    1.010930
     19          6           0       -7.680791    4.930648    0.587505
     20          6           0       -8.106642    3.590774    0.202048
     21          6           0       -5.394801    5.935736    1.593626
     22          6           0       -8.333918    6.232524    0.351576
     23          6           0       -9.196905    6.524941   -0.652080
     24          7           0       -9.220491    0.771448   -0.526012
     25          6           0       -9.836796    1.984323   -0.558713
     26          6           0      -11.265305    1.772686   -1.079573
     27          6           0      -11.404987    0.433006   -1.287068
     28          6           0      -10.094763   -0.250499   -0.923937
     29          6           0      -12.255407    2.941685   -1.175024
     30          6           0      -12.600987   -0.375895   -1.769162
     31          6           0      -12.655801   -0.648372   -3.297651
     32          7           0       -7.608552   -1.344009   -0.046986
     33          6           0       -8.649240   -2.129100   -0.532613
     34          6           0       -8.164460   -3.525209   -0.536831
     35          6           0       -6.812895   -3.423930   -0.100937
     36          6           0       -6.462132   -2.079420    0.110721
     37          6           0       -9.004234   -4.710351   -0.856496
     38          6           0       -5.637784   -4.380816    0.028234
     39          8           0       -5.436076   -5.597072   -0.135991
     40          6           0       -4.542116   -3.337298    0.449205
     41          6           0       -3.865074   -3.705638    1.817857
     42          8           0       -4.175298   -3.278161    2.863841
     43          8           0       -2.877174   -4.721291    1.658805
     44          6           0       -2.234885   -5.096460    2.855573
     45          6           0        2.653268   -0.982548   -1.273682
     46          6           0        3.969240   -0.676415   -0.699867
     47          6           0        5.018415    0.038968   -1.169129
     48          6           0        4.890850    0.885657   -2.378829
     49          6           0        6.298464    0.254692   -0.463956
     50          6           0        7.574126   -0.402272   -1.094050
     51          6           0        8.835779   -0.205759   -0.179108
     52          6           0       10.138399   -0.720290   -0.880562
     53          6           0       10.084155   -2.328910   -1.093692
     54          6           0       11.416146   -0.331819   -0.034007
     55          6           0       12.731747   -0.434150   -0.752688
     56          6           0       13.851809   -0.084797    0.259968
     57          6           0       15.296224   -0.194239   -0.285020
     58          6           0       15.603721   -1.729300   -0.431940
     59          6           0       16.336401    0.576071    0.478916
     60          6           0       17.768162    0.680281   -0.094787
     61          6           0       18.618234    1.546163    0.781500
     62          6           0       20.016947    1.634212    0.123441
     63          6           0       20.235215    2.201565   -1.225641
     64          6           0       20.892032    2.455351    1.087693
     65          1           0       -3.857527    3.330551    1.813614
     66          1           0      -10.162928    4.075164   -0.426905
     67          1           0      -10.726464   -2.216237   -1.184554
     68          1           0       -2.776829   -1.148649    1.927748
     69          1           0       -2.294309    1.494994    1.566755
     70          1           0       -2.137977    0.724550    3.824691
     71          1           0       -3.338968    2.083288    3.843392
     72          1           0       -3.849644    0.259166    3.861242
     73          1           0       -2.244711   -1.335190   -0.806393
     74          1           0       -2.157294    0.451182   -0.513606
     75          1           0       -0.156329    0.401724    0.853964
     76          1           0       -0.497004   -1.199438    1.436359
     77          1           0       -4.567795    6.095480    0.872325
     78          1           0       -5.921473    6.728913    1.505015
     79          1           0       -5.175620    5.726959    2.675006
     80          1           0       -7.994973    6.939127    1.019943
     81          1           0       -9.487035    5.954672   -1.527611
     82          1           0       -9.697587    7.588648   -0.553557
     83          1           0      -12.912780    3.405951   -0.303078
     84          1           0      -11.788066    3.807959   -2.103315
     85          1           0      -13.303937    2.674907   -1.652447
     86          1           0      -12.667680   -1.509977   -1.219102
     87          1           0      -13.538579   -0.030432   -1.347436
     88          1           0      -12.448769    0.385319   -3.682275
     89          1           0      -11.774913   -1.238422   -3.496298
     90          1           0      -13.624550   -1.024162   -3.547639
     91          1           0       -9.544965   -4.949731    0.221292
     92          1           0       -9.888213   -4.566898   -1.777973
     93          1           0       -8.357486   -5.665269   -0.936069
     94          1           0       -3.662230   -3.393694   -0.253665
     95          1           0       -1.412130   -5.723222    2.517813
     96          1           0       -1.774215   -4.182014    3.330608
     97          1           0       -2.904419   -5.748961    3.536979
     98          1           0        2.530995   -1.936053   -1.514935
     99          1           0        2.322035   -0.575950   -2.256333
    100          1           0        4.102367   -1.160293    0.214594
    101          1           0        5.109141    1.833319   -2.239471
    102          1           0        5.570241    0.518275   -3.239851
    103          1           0        3.925658    0.776042   -2.711492
    104          1           0        6.719715    1.421074   -0.218709
    105          1           0        6.107897   -0.233248    0.495686
    106          1           0        7.359536   -1.444601   -1.425760
    107          1           0        8.010116   -0.006232   -1.849310
    108          1           0        8.890378    0.902484    0.068203
    109          1           0        8.759153   -0.701746    0.826720
    110          1           0       10.237111   -0.109970   -1.723924
    111          1           0        9.341601   -2.644638   -1.649764
    112          1           0       10.855556   -2.612985   -1.533235
    113          1           0        9.979080   -2.744244   -0.119668
    114          1           0       11.273929    0.711097    0.223076
    115          1           0       11.228488   -1.051399    0.804402
    116          1           0       12.792876   -1.477230   -1.149158
    117          1           0       12.796352    0.210255   -1.626123
    118          1           0       13.668863    0.905635    0.671807
    119          1           0       13.796017   -0.627112    1.088174
    120          1           0       15.300108    0.120848   -1.221515
    121          1           0       14.810028   -2.006254   -1.102767
    122          1           0       16.617415   -1.855253   -0.943549
    123          1           0       15.414329   -2.317866    0.294922
    124          1           0       15.766000    1.522688    0.561961
    125          1           0       16.495592   -0.099484    1.363596
    126          1           0       18.088380   -0.356916   -0.405702
    127          1           0       17.667820    1.203333   -1.227319
    128          1           0       18.190303    2.569464    0.810301
    129          1           0       18.611045    1.080364    1.829537
    130          1           0       20.248386    0.613609    0.000677
    131          1           0       20.150809    3.370008   -1.145462
    132          1           0       21.197528    2.233415   -1.523589
    133          1           0       19.569915    1.877327   -1.967707
    134          1           0       20.827118    1.961095    2.180056
    135          1           0       22.117584    2.485378    0.772224
    136          1           0       20.393641    3.397831    1.204430
    137          1           0       -7.139473    1.720442    0.155490
    138          1           0       -7.630212   -0.330142    0.150997
 ---------------------------------------------------------------------
 Rotational constants (GHZ):      0.0639432      0.0061312      0.0057732
 Standard basis: SVP (5D, 7F)
 There are  1330 symmetry adapted cartesian basis functions of A   symmetry.
 There are  1266 symmetry adapted basis functions of A   symmetry.
  1266 basis functions,  2118 primitive gaussians,  1330 cartesian basis functions
   236 alpha electrons      236 beta electrons
       nuclear repulsion energy      8287.8715295167 Hartrees.
 NAtoms=  138 NActive=  138 NUniq=  138 SFac= 1.00D+00 NAtFMM=   60 NAOKFM=T Big=T
 Integral buffers will be    131072 words long.
 Regular integral format.
 Two-electron integral symmetry is turned on.
 One-electron integrals computed using PRISM.
 NBasis=  1266 RedAO= T EigKep=  3.51D-04  NBF=  1266
 NBsUse=  1266 1.00D-06 EigRej= -1.00D+00 NBFU=  1266
 ExpMin= 1.22D-01 ExpMax= 2.27D+03 ExpMxC= 3.41D+02 IAcc=1 IRadAn=         1 AccDes= 0.00D+00
 Harris functional with IExCor=  402 and IRadAn=       1 diagonalized for initial guess.
 HarFok:  IExCor=  402 AccDes= 0.00D+00 IRadAn=         1 IDoV= 1 UseB2=F ITyADJ=14
 ICtDFT=  3500011 ScaDFX=  1.000000  1.000000  1.000000  1.000000
 FoFCou: FMM=F IPFlag=           0 FMFlag=      100000 FMFlg1=        2001
         NFxFlg=           0 DoJE=T BraDBF=F KetDBF=T FulRan=T
         wScrn=  0.000000 ICntrl=     500 IOpCl=  0 I1Cent=   200000004 NGrid=           0
         NMat0=    1 NMatS0=      1 NMatT0=    0 NMatD0=    1 NMtDS0=    0 NMtDT0=    0
 Petite list used in FoFCou.
 Requested convergence on RMS density matrix=1.00D-08 within 128 cycles.
 Requested convergence on MAX density matrix=1.00D-06.
 Requested convergence on             energy=1.00D-06.
 No special actions if energy rises.
 Integral accuracy reduced to 1.0D-05 until final iterations.
 Initial convergence to 1.0D-05 achieved.  Increase integral accuracy.
 SCF Done:  E(RB3LYP) =  -2733.06590232     A.U. after   17 cycles
            NFock= 17  Conv=0.68D-08     -V/T= 2.0112
 DoSCS=F DFT=T ScalE2(SS,OS)=  1.000000  1.000000
 ExpMin= 1.22D-01 ExpMax= 2.27D+03 ExpMxC= 3.41D+02 IAcc=3 IRadAn=         5 AccDes= 0.00D+00
 HarFok:  IExCor=  205 AccDes= 0.00D+00 IRadAn=         5 IDoV=-2 UseB2=F ITyADJ=14
 ICtDFT= 12500011 ScaDFX=  1.000000  1.000000  1.000000  1.000000
 Range of M.O.s used for correlation:    65  1266
 NBasis=  1266 NAE=   236 NBE=   236 NFC=    64 NFV=     0
 NROrb=   1202 NOA=   172 NOB=   172 NVA=  1030 NVB=  1030

 **** Warning!!: The smallest alpha delta epsilon is  0.88293722D-01

 Would need an additional        965744300000 words for in-memory AO integral storage.
 Orbital symmetries:
       Occupied  (A) (A) (A) (A) (A) (A) (A) (A) (A) (A) (A) (A)
                 (A) (A) (A) (A) (A) (A) (A) (A) (A) (A) (A) (A)
                 (A) (A) (A) (A) (A) (A) (A) (A) (A) (A) (A) (A)
                 (A) (A) (A) (A) (A) (A) (A) (A) (A) (A) (A) (A)
                 (A) (A) (A) (A) (A) (A) (A) (A) (A) (A) (A) (A)
                 (A) (A) (A) (A) (A) (A) (A) (A) (A) (A) (A) (A)
                 (A) (A) (A) (A) (A) (A) (A) (A) (A) (A) (A) (A)
                 (A) (A) (A) (A) (A) (A) (A) (A) (A) (A) (A) (A)
                 (A) (A) (A) (A) (A) (A) (A) (A) (A) (A) (A) (A)
                 (A) (A) (A) (A) (A) (A) (A) (A) (A) (A) (A) (A)
                 (A) (A) (A) (A) (A) (A) (A) (A) (A) (A) (A) (A)
                 (A) (A) (A) (A) (A) (A) (A) (A) (A) (A) (A) (A)
                 (A) (A) (A) (A) (A) (A) (A) (A) (A) (A) (A) (A)
                 (A) (A) (A) (A) (A) (A) (A) (A) (A) (A) (A) (A)
                 (A) (A) (A) (A) (A) (A) (A) (A) (A) (A) (A) (A)
                 (A) (A) (A) (A) (A) (A) (A) (A) (A) (A) (A) (A)
                 (A) (A) (A) (A) (A) (A) (A) (A) (A) (A) (A) (A)
                 (A) (A) (A) (A) (A) (A) (A) (A) (A) (A) (A) (A)
                 (A) (A) (A) (A) (A) (A) (A) (A) (A) (A) (A) (A)
                 (A) (A) (A) (A) (A) (A) (A) (A)
       Virtual   (A) (A) (A) (A) (A) (A) (A) (A) (A) (A) (A) (A)
                 (A) (A) (A) (A) (A) (A) (A) (A) (A) (A) (A) (A)
                 (A) (A) (A) (A) (A) (A) (A) (A) (A) (A) (A) (A)
                 (A) (A) (A) (A) (A) (A) (A) (A) (A) (A) (A) (A)
                 (A) (A) (A) (A) (A) (A) (A) (A) (A) (A) (A) (A)
                 (A) (A) (A) (A) (A) (A) (A) (A) (A) (A) (A) (A)
                 (A) (A) (A) (A) (A) (A) (A) (A) (A) (A) (A) (A)
                 (A) (A) (A) (A) (A) (A) (A) (A) (A) (A) (A) (A)
                 (A) (A) (A) (A) (A) (A) (A) (A) (A) (A) (A) (A)
                 (A) (A) (A) (A) (A) (A) (A) (A) (A) (A) (A) (A)
                 (A) (A) (A) (A) (A) (A) (A) (A) (A) (A) (A) (A)
                 (A) (A) (A) (A) (A) (A) (A) (A) (A) (A) (A) (A)
                 (A) (A) (A) (A) (A) (A) (A) (A) (A) (A) (A) (A)
                 (A) (A) (A) (A) (A) (A) (A) (A) (A) (A) (A) (A)
                 (A) (A) (A) (A) (A) (A) (A) (A) (A) (A) (A) (A)
                 (A) (A) (A) (A) (A) (A) (A) (A) (A) (A) (A) (A)
                 (A) (A) (A) (A) (A) (A) (A) (A) (A) (A) (A) (A)
                 (A) (A) (A) (A) (A) (A) (A) (A) (A) (A) (A) (A)
                 (A) (A) (A) (A) (A) (A) (A) (A) (A) (A) (A) (A)
                 (A) (A) (A) (A) (A) (A) (A) (A) (A) (A) (A) (A)
                 (A) (A) (A) (A) (A) (A) (A) (A) (A) (A) (A) (A)
                 (A) (A) (A) (A) (A) (A) (A) (A) (A) (A) (A) (A)
                 (A) (A) (A) (A) (A) (A) (A) (A) (A) (A) (A) (A)
                 (A) (A) (A) (A) (A) (A) (A) (A) (A) (A) (A) (A)
                 (A) (A) (A) (A) (A) (A) (A) (A) (A) (A) (A) (A)
                 (A) (A) (A) (A) (A) (A) (A) (A) (A) (A) (A) (A)
                 (A) (A) (A) (A) (A) (A) (A) (A) (A) (A) (A) (A)
                 (A) (A) (A) (A) (A) (A) (A) (A) (A) (A) (A) (A)
                 (A) (A) (A) (A) (A) (A) (A) (A) (A) (A) (A) (A)
                 (A) (A) (A) (A) (A) (A) (A) (A) (A) (A) (A) (A)
                 (A) (A) (A) (A) (A) (A) (A) (A) (A) (A) (A) (A)
                 (A) (A) (A) (A) (A) (A) (A) (A) (A) (A) (A) (A)
                 (A) (A) (A) (A) (A) (A) (A) (A) (A) (A) (A) (A)
                 (A) (A) (A) (A) (A) (A) (A) (A) (A) (A) (A) (A)
                 (A) (A) (A) (A) (A) (A) (A) (A) (A) (A) (A) (A)
                 (A) (A) (A) (A) (A) (A) (A) (A) (A) (A) (A) (A)
                 (A) (A) (A) (A) (A) (A) (A) (A) (A) (A) (A) (A)
                 (A) (A) (A) (A) (A) (A) (A) (A) (A) (A) (A) (A)
                 (A) (A) (A) (A) (A) (A) (A) (A) (A) (A) (A) (A)
                 (A) (A) (A) (A) (A) (A) (A) (A) (A) (A) (A) (A)
                 (A) (A) (A) (A) (A) (A) (A) (A) (A) (A) (A) (A)
                 (A) (A) (A) (A) (A) (A) (A) (A) (A) (A) (A) (A)
                 (A) (A) (A) (A) (A) (A) (A) (A) (A) (A) (A) (A)
                 (A) (A) (A) (A) (A) (A) (A) (A) (A) (A) (A) (A)
                 (A) (A) (A) (A) (A) (A) (A) (A) (A) (A) (A) (A)
                 (A) (A) (A) (A) (A) (A) (A) (A) (A) (A) (A) (A)
                 (A) (A) (A) (A) (A) (A) (A) (A) (A) (A) (A) (A)
                 (A) (A) (A) (A) (A) (A) (A) (A) (A) (A) (A) (A)
                 (A) (A) (A) (A) (A) (A) (A) (A) (A) (A) (A) (A)
                 (A) (A) (A) (A) (A) (A) (A) (A) (A) (A) (A) (A)
                 (A) (A) (A) (A) (A) (A) (A) (A) (A) (A) (A) (A)
                 (A) (A) (A) (A) (A) (A) (A) (A) (A) (A) (A) (A)
                 (A) (A) (A) (A) (A) (A) (A) (A) (A) (A) (A) (A)
                 (A) (A) (A) (A) (A) (A) (A) (A) (A) (A) (A) (A)
                 (A) (A) (A) (A) (A) (A) (A) (A) (A) (A) (A) (A)
                 (A) (A) (A) (A) (A) (A) (A) (A) (A) (A) (A) (A)
                 (A) (A) (A) (A) (A) (A) (A) (A) (A) (A) (A) (A)
                 (A) (A) (A) (A) (A) (A) (A) (A) (A) (A) (A) (A)
                 (A) (A) (A) (A) (A) (A) (A) (A) (A) (A) (A) (A)
                 (A) (A) (A) (A) (A) (A) (A) (A) (A) (A) (A) (A)
                 (A) (A) (A) (A) (A) (A) (A) (A) (A) (A) (A) (A)
                 (A) (A) (A) (A) (A) (A) (A) (A) (A) (A) (A) (A)
                 (A) (A) (A) (A) (A) (A) (A) (A) (A) (A) (A) (A)
                 (A) (A) (A) (A) (A) (A) (A) (A) (A) (A) (A) (A)
                 (A) (A) (A) (A) (A) (A) (A) (A) (A) (A) (A) (A)
                 (A) (A) (A) (A) (A) (A) (A) (A) (A) (A) (A) (A)
                 (A) (A) (A) (A) (A) (A) (A) (A) (A) (A) (A) (A)
                 (A) (A) (A) (A) (A) (A) (A) (A) (A) (A) (A) (A)
                 (A) (A) (A) (A) (A) (A) (A) (A) (A) (A) (A) (A)
                 (A) (A) (A) (A) (A) (A) (A) (A) (A) (A) (A) (A)
                 (A) (A) (A) (A) (A) (A) (A) (A) (A) (A) (A) (A)
                 (A) (A) (A) (A) (A) (A) (A) (A) (A) (A) (A) (A)
                 (A) (A) (A) (A) (A) (A) (A) (A) (A) (A) (A) (A)
                 (A) (A) (A) (A) (A) (A) (A) (A) (A) (A) (A) (A)
                 (A) (A) (A) (A) (A) (A) (A) (A) (A) (A) (A) (A)
                 (A) (A) (A) (A) (A) (A) (A) (A) (A) (A) (A) (A)
                 (A) (A) (A) (A) (A) (A) (A) (A) (A) (A) (A) (A)
                 (A) (A) (A) (A) (A) (A) (A) (A) (A) (A) (A) (A)
                 (A) (A) (A) (A) (A) (A) (A) (A) (A) (A) (A) (A)
                 (A) (A) (A) (A) (A) (A) (A) (A) (A) (A) (A) (A)
                 (A) (A) (A) (A) (A) (A) (A) (A) (A) (A) (A) (A)
                 (A) (A) (A) (A) (A) (A) (A) (A) (A) (A) (A) (A)
                 (A) (A) (A) (A) (A) (A) (A) (A) (A) (A) (A) (A)
                 (A) (A) (A) (A) (A) (A) (A) (A) (A) (A) (A) (A)
                 (A) (A) (A) (A) (A) (A) (A) (A) (A) (A) (A) (A)
                 (A) (A) (A) (A) (A) (A) (A) (A) (A) (A)
     8 initial guesses have been made.
 Convergence on wavefunction:    0.001000000000000
 Iteration     1 Dimension     8 NMult     0 NNew      8
 CISAX will form     8 AO SS matrices at one time.
 Iteration     2 Dimension    12 NMult     8 NNew      4
 Iteration     3 Dimension    16 NMult    12 NNew      4
 Iteration     4 Dimension    20 NMult    16 NNew      4
 Iteration     5 Dimension    24 NMult    20 NNew      4
 Iteration     6 Dimension    28 NMult    24 NNew      4
 ***********************************************************************
 Excited states from <AA,BB:AA,BB> singles matrix:
 ***********************************************************************
 
 Ground to excited state transition densities written to RWF  633
 Ground to excited state transition electric dipole moments (Au):
       state          X           Y           Z        Dip. S.      Osc.
         1        -0.3129      1.8244      0.0851      3.4335      0.1761
 Ground to excited state transition velocity dipole moments (Au):
       state          X           Y           Z        Dip. S.      Osc.
         1         0.0234     -0.1376     -0.0074      0.0195      0.1693
 Ground to excited state transition magnetic dipole moments (Au):
       state          X           Y           Z
         1        -0.1607     -0.1751      2.5120
 Ground to excited state transition velocity quadrupole moments (Au):
       state          XX          YY          ZZ          XY          XZ          YZ
         1        -0.5530     -0.2097     -0.0267      1.8605      0.0591     -0.0721
 <0|del|b> * <b|rxdel|0> + <0|del|b> * <b|delr+rdel|0>
 Rotatory Strengths (R) in cgs (10**-40 erg-esu-cm/Gauss)
       state          XX          YY          ZZ    R(velocity)    E-M Angle
         1        -0.3294    -47.1035     63.8480      5.4717       89.71
 1/2[<0|r|b>*<b|rxdel|0> + (<0|rxdel|b>*<b|r|0>)*]
 Rotatory Strengths (R) in cgs (10**-40 erg-esu-cm/Gauss)
       state          XX          YY          ZZ     R(length)
         1       -35.5591    225.9386   -151.0996     13.0933
  1/2[<0|del|b>*<b|r|0> + (<0|r|b>*<b|del|0>)*] (Au)
       state          X           Y           Z        Dip. S.   Osc.(frdel)
         1        -0.0073     -0.2511     -0.0006      0.2590      0.1727

 Excitation energies and oscillator strengths:
 
 Excited State   1:      Singlet-A      2.0940 eV  592.10 nm  f=0.1761  <S**2>=0.000
     235 -> 238        0.31394
     236 -> 237        0.62904
 This state for optimization and/or second-order correction.
 Total Energy, E(TD-HF/TD-KS) =  -2732.98895020    
 Copying the excited state density for this state as the 1-particle RhoCI density.
 SavETr:  write IOETrn=   770 NScale= 10 NData=  16 NLR=1 NState=    1 LETran=      28.

 **********************************************************************

            Population analysis using the SCF density.

 **********************************************************************

 Orbital symmetries:
       Occupied  (A) (A) (A) (A) (A) (A) (A) (A) (A) (A) (A) (A)
                 (A) (A) (A) (A) (A) (A) (A) (A) (A) (A) (A) (A)
                 (A) (A) (A) (A) (A) (A) (A) (A) (A) (A) (A) (A)
                 (A) (A) (A) (A) (A) (A) (A) (A) (A) (A) (A) (A)
                 (A) (A) (A) (A) (A) (A) (A) (A) (A) (A) (A) (A)
                 (A) (A) (A) (A) (A) (A) (A) (A) (A) (A) (A) (A)
                 (A) (A) (A) (A) (A) (A) (A) (A) (A) (A) (A) (A)
                 (A) (A) (A) (A) (A) (A) (A) (A) (A) (A) (A) (A)
                 (A) (A) (A) (A) (A) (A) (A) (A) (A) (A) (A) (A)
                 (A) (A) (A) (A) (A) (A) (A) (A) (A) (A) (A) (A)
                 (A) (A) (A) (A) (A) (A) (A) (A) (A) (A) (A) (A)
                 (A) (A) (A) (A) (A) (A) (A) (A) (A) (A) (A) (A)
                 (A) (A) (A) (A) (A) (A) (A) (A) (A) (A) (A) (A)
                 (A) (A) (A) (A) (A) (A) (A) (A) (A) (A) (A) (A)
                 (A) (A) (A) (A) (A) (A) (A) (A) (A) (A) (A) (A)
                 (A) (A) (A) (A) (A) (A) (A) (A) (A) (A) (A) (A)
                 (A) (A) (A) (A) (A) (A) (A) (A) (A) (A) (A) (A)
                 (A) (A) (A) (A) (A) (A) (A) (A) (A) (A) (A) (A)
                 (A) (A) (A) (A) (A) (A) (A) (A) (A) (A) (A) (A)
                 (A) (A) (A) (A) (A) (A) (A) (A)
       Virtual   (A) (A) (A) (A) (A) (A) (A) (A) (A) (A) (A) (A)
                 (A) (A) (A) (A) (A) (A) (A) (A) (A) (A) (A) (A)
                 (A) (A) (A) (A) (A) (A) (A) (A) (A) (A) (A) (A)
                 (A) (A) (A) (A) (A) (A) (A) (A) (A) (A) (A) (A)
                 (A) (A) (A) (A) (A) (A) (A) (A) (A) (A) (A) (A)
                 (A) (A) (A) (A) (A) (A) (A) (A) (A) (A) (A) (A)
                 (A) (A) (A) (A) (A) (A) (A) (A) (A) (A) (A) (A)
                 (A) (A) (A) (A) (A) (A) (A) (A) (A) (A) (A) (A)
                 (A) (A) (A) (A) (A) (A) (A) (A) (A) (A) (A) (A)
                 (A) (A) (A) (A) (A) (A) (A) (A) (A) (A) (A) (A)
                 (A) (A) (A) (A) (A) (A) (A) (A) (A) (A) (A) (A)
                 (A) (A) (A) (A) (A) (A) (A) (A) (A) (A) (A) (A)
                 (A) (A) (A) (A) (A) (A) (A) (A) (A) (A) (A) (A)
                 (A) (A) (A) (A) (A) (A) (A) (A) (A) (A) (A) (A)
                 (A) (A) (A) (A) (A) (A) (A) (A) (A) (A) (A) (A)
                 (A) (A) (A) (A) (A) (A) (A) (A) (A) (A) (A) (A)
                 (A) (A) (A) (A) (A) (A) (A) (A) (A) (A) (A) (A)
                 (A) (A) (A) (A) (A) (A) (A) (A) (A) (A) (A) (A)
                 (A) (A) (A) (A) (A) (A) (A) (A) (A) (A) (A) (A)
                 (A) (A) (A) (A) (A) (A) (A) (A) (A) (A) (A) (A)
                 (A) (A) (A) (A) (A) (A) (A) (A) (A) (A) (A) (A)
                 (A) (A) (A) (A) (A) (A) (A) (A) (A) (A) (A) (A)
                 (A) (A) (A) (A) (A) (A) (A) (A) (A) (A) (A) (A)
                 (A) (A) (A) (A) (A) (A) (A) (A) (A) (A) (A) (A)
                 (A) (A) (A) (A) (A) (A) (A) (A) (A) (A) (A) (A)
                 (A) (A) (A) (A) (A) (A) (A) (A) (A) (A) (A) (A)
                 (A) (A) (A) (A) (A) (A) (A) (A) (A) (A) (A) (A)
                 (A) (A) (A) (A) (A) (A) (A) (A) (A) (A) (A) (A)
                 (A) (A) (A) (A) (A) (A) (A) (A) (A) (A) (A) (A)
                 (A) (A) (A) (A) (A) (A) (A) (A) (A) (A) (A) (A)
                 (A) (A) (A) (A) (A) (A) (A) (A) (A) (A) (A) (A)
                 (A) (A) (A) (A) (A) (A) (A) (A) (A) (A) (A) (A)
                 (A) (A) (A) (A) (A) (A) (A) (A) (A) (A) (A) (A)
                 (A) (A) (A) (A) (A) (A) (A) (A) (A) (A) (A) (A)
                 (A) (A) (A) (A) (A) (A) (A) (A) (A) (A) (A) (A)
                 (A) (A) (A) (A) (A) (A) (A) (A) (A) (A) (A) (A)
                 (A) (A) (A) (A) (A) (A) (A) (A) (A) (A) (A) (A)
                 (A) (A) (A) (A) (A) (A) (A) (A) (A) (A) (A) (A)
                 (A) (A) (A) (A) (A) (A) (A) (A) (A) (A) (A) (A)
                 (A) (A) (A) (A) (A) (A) (A) (A) (A) (A) (A) (A)
                 (A) (A) (A) (A) (A) (A) (A) (A) (A) (A) (A) (A)
                 (A) (A) (A) (A) (A) (A) (A) (A) (A) (A) (A) (A)
                 (A) (A) (A) (A) (A) (A) (A) (A) (A) (A) (A) (A)
                 (A) (A) (A) (A) (A) (A) (A) (A) (A) (A) (A) (A)
                 (A) (A) (A) (A) (A) (A) (A) (A) (A) (A) (A) (A)
                 (A) (A) (A) (A) (A) (A) (A) (A) (A) (A) (A) (A)
                 (A) (A) (A) (A) (A) (A) (A) (A) (A) (A) (A) (A)
                 (A) (A) (A) (A) (A) (A) (A) (A) (A) (A) (A) (A)
                 (A) (A) (A) (A) (A) (A) (A) (A) (A) (A) (A) (A)
                 (A) (A) (A) (A) (A) (A) (A) (A) (A) (A) (A) (A)
                 (A) (A) (A) (A) (A) (A) (A) (A) (A) (A) (A) (A)
                 (A) (A) (A) (A) (A) (A) (A) (A) (A) (A) (A) (A)
                 (A) (A) (A) (A) (A) (A) (A) (A) (A) (A) (A) (A)
                 (A) (A) (A) (A) (A) (A) (A) (A) (A) (A) (A) (A)
                 (A) (A) (A) (A) (A) (A) (A) (A) (A) (A) (A) (A)
                 (A) (A) (A) (A) (A) (A) (A) (A) (A) (A) (A) (A)
                 (A) (A) (A) (A) (A) (A) (A) (A) (A) (A) (A) (A)
                 (A) (A) (A) (A) (A) (A) (A) (A) (A) (A) (A) (A)
                 (A) (A) (A) (A) (A) (A) (A) (A) (A) (A) (A) (A)
                 (A) (A) (A) (A) (A) (A) (A) (A) (A) (A) (A) (A)
                 (A) (A) (A) (A) (A) (A) (A) (A) (A) (A) (A) (A)
                 (A) (A) (A) (A) (A) (A) (A) (A) (A) (A) (A) (A)
                 (A) (A) (A) (A) (A) (A) (A) (A) (A) (A) (A) (A)
                 (A) (A) (A) (A) (A) (A) (A) (A) (A) (A) (A) (A)
                 (A) (A) (A) (A) (A) (A) (A) (A) (A) (A) (A) (A)
                 (A) (A) (A) (A) (A) (A) (A) (A) (A) (A) (A) (A)
                 (A) (A) (A) (A) (A) (A) (A) (A) (A) (A) (A) (A)
                 (A) (A) (A) (A) (A) (A) (A) (A) (A) (A) (A) (A)
                 (A) (A) (A) (A) (A) (A) (A) (A) (A) (A) (A) (A)
                 (A) (A) (A) (A) (A) (A) (A) (A) (A) (A) (A) (A)
                 (A) (A) (A) (A) (A) (A) (A) (A) (A) (A) (A) (A)
                 (A) (A) (A) (A) (A) (A) (A) (A) (A) (A) (A) (A)
                 (A) (A) (A) (A) (A) (A) (A) (A) (A) (A) (A) (A)
                 (A) (A) (A) (A) (A) (A) (A) (A) (A) (A) (A) (A)
                 (A) (A) (A) (A) (A) (A) (A) (A) (A) (A) (A) (A)
                 (A) (A) (A) (A) (A) (A) (A) (A) (A) (A) (A) (A)
                 (A) (A) (A) (A) (A) (A) (A) (A) (A) (A) (A) (A)
                 (A) (A) (A) (A) (A) (A) (A) (A) (A) (A) (A) (A)
                 (A) (A) (A) (A) (A) (A) (A) (A) (A) (A) (A) (A)
                 (A) (A) (A) (A) (A) (A) (A) (A) (A) (A) (A) (A)
                 (A) (A) (A) (A) (A) (A) (A) (A) (A) (A) (A) (A)
                 (A) (A) (A) (A) (A) (A) (A) (A) (A) (A) (A) (A)
                 (A) (A) (A) (A) (A) (A) (A) (A) (A) (A) (A) (A)
                 (A) (A) (A) (A) (A) (A) (A) (A) (A) (A) (A) (A)
                 (A) (A) (A) (A) (A) (A) (A) (A) (A) (A) (A) (A)
                 (A) (A) (A) (A) (A) (A) (A) (A) (A) (A)
 The electronic state is 1-A.
 Alpha  occ. eigenvalues --  -19.18059 -19.16241 -19.13329 -19.12593 -19.12377
 Alpha  occ. eigenvalues --  -14.37001 -14.36756 -14.32090 -14.30295 -10.31347
 Alpha  occ. eigenvalues --  -10.31320 -10.28570 -10.24570 -10.24492 -10.24035
 Alpha  occ. eigenvalues --  -10.23483 -10.23405 -10.23138 -10.23116 -10.22835
 Alpha  occ. eigenvalues --  -10.22506 -10.22010 -10.21725 -10.21672 -10.21633
 Alpha  occ. eigenvalues --  -10.21530 -10.21258 -10.21112 -10.20946 -10.20853
 Alpha  occ. eigenvalues --  -10.20776 -10.20714 -10.20539 -10.20500 -10.20416
 Alpha  occ. eigenvalues --  -10.20275 -10.20242 -10.19901 -10.19858 -10.19812
 Alpha  occ. eigenvalues --  -10.19730 -10.19726 -10.19724 -10.19452 -10.19426
 Alpha  occ. eigenvalues --  -10.19424 -10.19256 -10.19169 -10.19075 -10.19020
 Alpha  occ. eigenvalues --  -10.18920 -10.18741 -10.18450 -10.18240 -10.18012
 Alpha  occ. eigenvalues --  -10.17930 -10.17924 -10.17694 -10.17271 -10.16854
 Alpha  occ. eigenvalues --  -10.16783 -10.16630 -10.15983 -10.15679  -1.10444
 Alpha  occ. eigenvalues --   -1.08830  -1.01591  -1.01128  -1.00868  -0.98045
 Alpha  occ. eigenvalues --   -0.97443  -0.96765  -0.91814  -0.84251  -0.83336
 Alpha  occ. eigenvalues --   -0.82444  -0.82044  -0.81630  -0.81387  -0.80756
 Alpha  occ. eigenvalues --   -0.80268  -0.79266  -0.78932  -0.78288  -0.78260
 Alpha  occ. eigenvalues --   -0.76866  -0.76409  -0.75504  -0.75137  -0.74162
 Alpha  occ. eigenvalues --   -0.73780  -0.72749  -0.72599  -0.72104  -0.71519
 Alpha  occ. eigenvalues --   -0.69814  -0.69437  -0.68604  -0.68249  -0.68211
 Alpha  occ. eigenvalues --   -0.67831  -0.66757  -0.66359  -0.65711  -0.65475
 Alpha  occ. eigenvalues --   -0.63501  -0.62897  -0.62301  -0.61657  -0.61163
 Alpha  occ. eigenvalues --   -0.60780  -0.59319  -0.58619  -0.58182  -0.58117
 Alpha  occ. eigenvalues --   -0.57421  -0.56541  -0.56373  -0.56032  -0.56025
 Alpha  occ. eigenvalues --   -0.55313  -0.55258  -0.54307  -0.54039  -0.53780
 Alpha  occ. eigenvalues --   -0.52451  -0.52314  -0.51570  -0.50402  -0.50150
 Alpha  occ. eigenvalues --   -0.49768  -0.49272  -0.48967  -0.48746  -0.48058
 Alpha  occ. eigenvalues --   -0.48016  -0.47780  -0.47684  -0.47121  -0.47116
 Alpha  occ. eigenvalues --   -0.46954  -0.46782  -0.46328  -0.46138  -0.45907
 Alpha  occ. eigenvalues --   -0.45709  -0.45504  -0.45326  -0.45054  -0.45012
 Alpha  occ. eigenvalues --   -0.44805  -0.44377  -0.44147  -0.43782  -0.43642
 Alpha  occ. eigenvalues --   -0.43372  -0.43117  -0.42911  -0.42750  -0.42577
 Alpha  occ. eigenvalues --   -0.42423  -0.42194  -0.42068  -0.41835  -0.41697
 Alpha  occ. eigenvalues --   -0.41399  -0.41342  -0.40731  -0.40439  -0.40169
 Alpha  occ. eigenvalues --   -0.40054  -0.39991  -0.39732  -0.39668  -0.39442
 Alpha  occ. eigenvalues --   -0.39292  -0.39093  -0.38940  -0.38820  -0.38620
 Alpha  occ. eigenvalues --   -0.38539  -0.38223  -0.38161  -0.37862  -0.37766
 Alpha  occ. eigenvalues --   -0.37319  -0.37246  -0.37219  -0.37167  -0.37000
 Alpha  occ. eigenvalues --   -0.36736  -0.36600  -0.36539  -0.36234  -0.35975
 Alpha  occ. eigenvalues --   -0.35710  -0.35562  -0.35502  -0.35179  -0.34984
 Alpha  occ. eigenvalues --   -0.34811  -0.34780  -0.34396  -0.34239  -0.33812
 Alpha  occ. eigenvalues --   -0.33697  -0.33102  -0.32904  -0.32861  -0.32620
 Alpha  occ. eigenvalues --   -0.32588  -0.32155  -0.31935  -0.31597  -0.31463
 Alpha  occ. eigenvalues --   -0.31385  -0.31173  -0.30861  -0.30242  -0.29929
 Alpha  occ. eigenvalues --   -0.29677  -0.29274  -0.28533  -0.28420  -0.28329
 Alpha  occ. eigenvalues --   -0.27891  -0.27647  -0.26515  -0.25528  -0.25278
 Alpha  occ. eigenvalues --   -0.25087  -0.24881  -0.24267  -0.23207  -0.19790
 Alpha  occ. eigenvalues --   -0.18936
 Alpha virt. eigenvalues --   -0.10107  -0.07528  -0.04837  -0.02154  -0.01401
 Alpha virt. eigenvalues --   -0.00130   0.00858   0.01111   0.01950   0.02776
 Alpha virt. eigenvalues --    0.03476   0.03790   0.04557   0.04635   0.04876
 Alpha virt. eigenvalues --    0.05240   0.05341   0.05544   0.06158   0.06279
 Alpha virt. eigenvalues --    0.06420   0.06514   0.06898   0.07015   0.07201
 Alpha virt. eigenvalues --    0.07377   0.07824   0.07880   0.08125   0.08236
 Alpha virt. eigenvalues --    0.08367   0.08463   0.08495   0.08992   0.09205
 Alpha virt. eigenvalues --    0.09240   0.09478   0.09754   0.09956   0.10032
 Alpha virt. eigenvalues --    0.10096   0.10529   0.10739   0.10950   0.11170
 Alpha virt. eigenvalues --    0.11215   0.11383   0.11520   0.11620   0.11830
 Alpha virt. eigenvalues --    0.11924   0.12193   0.12387   0.12499   0.12561
 Alpha virt. eigenvalues --    0.12704   0.12868   0.12878   0.13164   0.13191
 Alpha virt. eigenvalues --    0.13500   0.13627   0.13692   0.13748   0.14110
 Alpha virt. eigenvalues --    0.14210   0.14562   0.14902   0.14970   0.15328
 Alpha virt. eigenvalues --    0.15363   0.15653   0.16014   0.16151   0.16353
 Alpha virt. eigenvalues --    0.16634   0.16658   0.16842   0.17075   0.17226
 Alpha virt. eigenvalues --    0.17465   0.17844   0.17915   0.18154   0.18288
 Alpha virt. eigenvalues --    0.18440   0.18739   0.18832   0.18890   0.19109
 Alpha virt. eigenvalues --    0.19545   0.19667   0.19972   0.20245   0.20346
 Alpha virt. eigenvalues --    0.20509   0.20706   0.20892   0.21141   0.21487
 Alpha virt. eigenvalues --    0.21521   0.21570   0.21671   0.21972   0.22319
 Alpha virt. eigenvalues --    0.22607   0.22638   0.22830   0.22932   0.23517
 Alpha virt. eigenvalues --    0.23758   0.23866   0.23960   0.24410   0.24451
 Alpha virt. eigenvalues --    0.24826   0.25053   0.25270   0.25851   0.25857
 Alpha virt. eigenvalues --    0.26118   0.26546   0.26571   0.26680   0.27352
 Alpha virt. eigenvalues --    0.27437   0.27591   0.27674   0.28015   0.28710
 Alpha virt. eigenvalues --    0.28987   0.29394   0.29829   0.30115   0.31141
 Alpha virt. eigenvalues --    0.31697   0.31773   0.32000   0.32735   0.33147
 Alpha virt. eigenvalues --    0.33225   0.33245   0.33503   0.34180   0.34845
 Alpha virt. eigenvalues --    0.35205   0.35750   0.35959   0.36768   0.36827
 Alpha virt. eigenvalues --    0.37409   0.37597   0.37907   0.37979   0.38563
 Alpha virt. eigenvalues --    0.38833   0.39576   0.39700   0.39801   0.39952
 Alpha virt. eigenvalues --    0.40348   0.40845   0.41089   0.41135   0.41280
 Alpha virt. eigenvalues --    0.41617   0.41696   0.42039   0.42220   0.42252
 Alpha virt. eigenvalues --    0.42460   0.42944   0.42971   0.43106   0.43215
 Alpha virt. eigenvalues --    0.43402   0.43508   0.43818   0.44045   0.44141
 Alpha virt. eigenvalues --    0.44524   0.44712   0.45224   0.45406   0.45549
 Alpha virt. eigenvalues --    0.45873   0.46129   0.46280   0.46708   0.46872
 Alpha virt. eigenvalues --    0.46999   0.47018   0.47348   0.47421   0.47596
 Alpha virt. eigenvalues --    0.47711   0.48028   0.48342   0.48609   0.48659
 Alpha virt. eigenvalues --    0.48896   0.48997   0.49145   0.49417   0.49717
 Alpha virt. eigenvalues --    0.49957   0.50129   0.50222   0.50498   0.50974
 Alpha virt. eigenvalues --    0.51150   0.51341   0.51527   0.51980   0.52300
 Alpha virt. eigenvalues --    0.52688   0.52742   0.53079   0.53320   0.53446
 Alpha virt. eigenvalues --    0.53862   0.54132   0.54245   0.54651   0.54994
 Alpha virt. eigenvalues --    0.55432   0.55637   0.55748   0.56164   0.56420
 Alpha virt. eigenvalues --    0.56887   0.56989   0.57238   0.57611   0.57778
 Alpha virt. eigenvalues --    0.58071   0.58313   0.58487   0.58721   0.59038
 Alpha virt. eigenvalues --    0.59276   0.59357   0.59469   0.59591   0.59979
 Alpha virt. eigenvalues --    0.60324   0.60375   0.60500   0.60731   0.60841
 Alpha virt. eigenvalues --    0.60950   0.61058   0.61278   0.61355   0.61545
 Alpha virt. eigenvalues --    0.61596   0.61673   0.61869   0.62145   0.62214
 Alpha virt. eigenvalues --    0.62350   0.62515   0.62545   0.62664   0.62848
 Alpha virt. eigenvalues --    0.63004   0.63244   0.63369   0.63429   0.63637
 Alpha virt. eigenvalues --    0.63865   0.64009   0.64175   0.64334   0.64440
 Alpha virt. eigenvalues --    0.64513   0.64664   0.64845   0.64999   0.65081
 Alpha virt. eigenvalues --    0.65179   0.65182   0.65420   0.65662   0.65787
 Alpha virt. eigenvalues --    0.65955   0.66004   0.66194   0.66337   0.66555
 Alpha virt. eigenvalues --    0.66809   0.66868   0.67066   0.67209   0.67243
 Alpha virt. eigenvalues --    0.67500   0.67566   0.67749   0.67899   0.67928
 Alpha virt. eigenvalues --    0.68108   0.68186   0.68257   0.68422   0.68660
 Alpha virt. eigenvalues --    0.68702   0.68776   0.68850   0.68918   0.69173
 Alpha virt. eigenvalues --    0.69314   0.69449   0.69722   0.69824   0.69916
 Alpha virt. eigenvalues --    0.70338   0.70398   0.70487   0.70544   0.70692
 Alpha virt. eigenvalues --    0.70797   0.70942   0.71061   0.71130   0.71170
 Alpha virt. eigenvalues --    0.71322   0.71385   0.71680   0.71892   0.72033
 Alpha virt. eigenvalues --    0.72140   0.72240   0.72419   0.72625   0.72704
 Alpha virt. eigenvalues --    0.72969   0.73057   0.73167   0.73396   0.73772
 Alpha virt. eigenvalues --    0.74000   0.74241   0.74355   0.74488   0.74552
 Alpha virt. eigenvalues --    0.74741   0.75159   0.75276   0.75752   0.75803
 Alpha virt. eigenvalues --    0.75923   0.76096   0.76355   0.76480   0.76951
 Alpha virt. eigenvalues --    0.77270   0.77446   0.77644   0.77843   0.77998
 Alpha virt. eigenvalues --    0.78099   0.78332   0.78826   0.78956   0.79108
 Alpha virt. eigenvalues --    0.79157   0.79428   0.79806   0.79830   0.80211
 Alpha virt. eigenvalues --    0.80625   0.80845   0.81141   0.81208   0.81294
 Alpha virt. eigenvalues --    0.81881   0.82375   0.82487   0.82570   0.82776
 Alpha virt. eigenvalues --    0.83271   0.83804   0.84202   0.84590   0.85604
 Alpha virt. eigenvalues --    0.86047   0.86615   0.87414   0.87932   0.88354
 Alpha virt. eigenvalues --    0.88573   0.89200   0.89545   0.90277   0.90809
 Alpha virt. eigenvalues --    0.91212   0.91681   0.91957   0.92830   0.93191
 Alpha virt. eigenvalues --    0.93589   0.94179   0.94357   0.94930   0.95621
 Alpha virt. eigenvalues --    0.96019   0.96221   0.97107   0.97211   0.97544
 Alpha virt. eigenvalues --    0.97743   0.98272   0.98456   0.98834   0.99240
 Alpha virt. eigenvalues --    0.99903   1.00727   1.01151   1.01284   1.01586
 Alpha virt. eigenvalues --    1.02340   1.02887   1.03133   1.03286   1.04262
 Alpha virt. eigenvalues --    1.05130   1.05234   1.05284   1.05579   1.05863
 Alpha virt. eigenvalues --    1.06024   1.06897   1.07038   1.07437   1.07864
 Alpha virt. eigenvalues --    1.07941   1.08249   1.08455   1.08742   1.09705
 Alpha virt. eigenvalues --    1.09974   1.10617   1.10856   1.11421   1.12052
 Alpha virt. eigenvalues --    1.12969   1.13098   1.13374   1.13569   1.13880
 Alpha virt. eigenvalues --    1.13997   1.14604   1.14708   1.15620   1.16114
 Alpha virt. eigenvalues --    1.17034   1.17179   1.17740   1.18049   1.18205
 Alpha virt. eigenvalues --    1.18877   1.19197   1.19523   1.19904   1.20515
 Alpha virt. eigenvalues --    1.21209   1.21306   1.21735   1.22140   1.22835
 Alpha virt. eigenvalues --    1.23236   1.24320   1.24364   1.25026   1.25131
 Alpha virt. eigenvalues --    1.25202   1.25280   1.25727   1.26100   1.26461
 Alpha virt. eigenvalues --    1.27197   1.27562   1.27816   1.28169   1.28598
 Alpha virt. eigenvalues --    1.28829   1.29246   1.29531   1.29937   1.30268
 Alpha virt. eigenvalues --    1.30415   1.30970   1.31295   1.31602   1.32056
 Alpha virt. eigenvalues --    1.32880   1.33375   1.33514   1.34049   1.34644
 Alpha virt. eigenvalues --    1.34990   1.35418   1.35586   1.36190   1.37002
 Alpha virt. eigenvalues --    1.37294   1.37686   1.38002   1.38092   1.38638
 Alpha virt. eigenvalues --    1.38835   1.38926   1.39214   1.39795   1.40874
 Alpha virt. eigenvalues --    1.41385   1.42314   1.42930   1.43868   1.44435
 Alpha virt. eigenvalues --    1.45122   1.45706   1.45775   1.46073   1.46567
 Alpha virt. eigenvalues --    1.46964   1.47267   1.47898   1.48133   1.48530
 Alpha virt. eigenvalues --    1.48714   1.49003   1.49116   1.49284   1.49660
 Alpha virt. eigenvalues --    1.49865   1.50205   1.50450   1.51304   1.51468
 Alpha virt. eigenvalues --    1.51994   1.52249   1.52397   1.53190   1.53857
 Alpha virt. eigenvalues --    1.53997   1.54631   1.54862   1.55073   1.55404
 Alpha virt. eigenvalues --    1.55635   1.56112   1.56169   1.56544   1.57057
 Alpha virt. eigenvalues --    1.57168   1.57402   1.57594   1.58025   1.58158
 Alpha virt. eigenvalues --    1.58314   1.59346   1.59775   1.60179   1.60562
 Alpha virt. eigenvalues --    1.60743   1.60852   1.61183   1.61582   1.61700
 Alpha virt. eigenvalues --    1.62028   1.62299   1.62505   1.62643   1.63224
 Alpha virt. eigenvalues --    1.63268   1.63710   1.64387   1.64890   1.65410
 Alpha virt. eigenvalues --    1.65606   1.65902   1.66307   1.66350   1.66519
 Alpha virt. eigenvalues --    1.67138   1.67676   1.67944   1.68161   1.68293
 Alpha virt. eigenvalues --    1.68967   1.69041   1.69198   1.69336   1.69641
 Alpha virt. eigenvalues --    1.69686   1.70048   1.70272   1.70703   1.70819
 Alpha virt. eigenvalues --    1.71245   1.71340   1.71524   1.71774   1.72037
 Alpha virt. eigenvalues --    1.72203   1.72583   1.72869   1.73386   1.73432
 Alpha virt. eigenvalues --    1.73591   1.73826   1.73971   1.74095   1.74361
 Alpha virt. eigenvalues --    1.74489   1.74506   1.75023   1.75084   1.75104
 Alpha virt. eigenvalues --    1.75359   1.75963   1.76087   1.76419   1.76550
 Alpha virt. eigenvalues --    1.76874   1.76942   1.77260   1.77477   1.77709
 Alpha virt. eigenvalues --    1.77949   1.78104   1.78450   1.78633   1.78885
 Alpha virt. eigenvalues --    1.79138   1.79504   1.79603   1.79710   1.80345
 Alpha virt. eigenvalues --    1.80480   1.80613   1.81036   1.81197   1.81219
 Alpha virt. eigenvalues --    1.81420   1.81793   1.81901   1.81967   1.82176
 Alpha virt. eigenvalues --    1.82275   1.82892   1.83122   1.83358   1.83909
 Alpha virt. eigenvalues --    1.84029   1.84228   1.84364   1.84513   1.84675
 Alpha virt. eigenvalues --    1.85203   1.85364   1.85518   1.85690   1.86050
 Alpha virt. eigenvalues --    1.86353   1.86548   1.86864   1.86921   1.87139
 Alpha virt. eigenvalues --    1.87490   1.87650   1.87846   1.88260   1.88295
 Alpha virt. eigenvalues --    1.88698   1.88735   1.89045   1.89164   1.89266
 Alpha virt. eigenvalues --    1.89690   1.89996   1.90276   1.90630   1.90749
 Alpha virt. eigenvalues --    1.90793   1.91105   1.91653   1.91741   1.91903
 Alpha virt. eigenvalues --    1.92287   1.92485   1.92660   1.92852   1.93693
 Alpha virt. eigenvalues --    1.93915   1.94234   1.94258   1.94642   1.94782
 Alpha virt. eigenvalues --    1.95137   1.95360   1.95414   1.95826   1.96130
 Alpha virt. eigenvalues --    1.96481   1.96731   1.96846   1.97007   1.97434
 Alpha virt. eigenvalues --    1.97906   1.98040   1.98375   1.98517   1.99023
 Alpha virt. eigenvalues --    1.99098   1.99478   1.99606   2.00050   2.00180
 Alpha virt. eigenvalues --    2.00448   2.00594   2.01006   2.01099   2.01450
 Alpha virt. eigenvalues --    2.01833   2.02038   2.02499   2.02916   2.03030
 Alpha virt. eigenvalues --    2.03169   2.03476   2.04327   2.04702   2.04715
 Alpha virt. eigenvalues --    2.05337   2.05525   2.05741   2.05924   2.06026
 Alpha virt. eigenvalues --    2.06251   2.06583   2.07358   2.07385   2.07913
 Alpha virt. eigenvalues --    2.08134   2.08482   2.08803   2.09138   2.09524
 Alpha virt. eigenvalues --    2.09906   2.10197   2.10903   2.11161   2.11426
 Alpha virt. eigenvalues --    2.11554   2.11867   2.12308   2.12508   2.13070
 Alpha virt. eigenvalues --    2.13184   2.13400   2.13832   2.14455   2.14670
 Alpha virt. eigenvalues --    2.14895   2.15374   2.15488   2.15847   2.15887
 Alpha virt. eigenvalues --    2.16124   2.16288   2.17137   2.17979   2.18207
 Alpha virt. eigenvalues --    2.18574   2.18890   2.19316   2.19764   2.20088
 Alpha virt. eigenvalues --    2.20676   2.21059   2.21204   2.21954   2.22002
 Alpha virt. eigenvalues --    2.22099   2.22633   2.23354   2.23742   2.23829
 Alpha virt. eigenvalues --    2.24046   2.25072   2.25767   2.25963   2.26214
 Alpha virt. eigenvalues --    2.26663   2.27106   2.27733   2.27887   2.28372
 Alpha virt. eigenvalues --    2.29121   2.29141   2.29705   2.29880   2.30086
 Alpha virt. eigenvalues --    2.30304   2.30570   2.31160   2.31519   2.32379
 Alpha virt. eigenvalues --    2.33229   2.33293   2.33459   2.33611   2.33778
 Alpha virt. eigenvalues --    2.34204   2.34888   2.34954   2.35094   2.35949
 Alpha virt. eigenvalues --    2.36096   2.36244   2.37433   2.37453   2.37791
 Alpha virt. eigenvalues --    2.38246   2.38709   2.39123   2.39946   2.40001
 Alpha virt. eigenvalues --    2.40356   2.40593   2.41194   2.41375   2.41694
 Alpha virt. eigenvalues --    2.42625   2.42648   2.42766   2.43285   2.43400
 Alpha virt. eigenvalues --    2.44004   2.44512   2.45041   2.46093   2.46533
 Alpha virt. eigenvalues --    2.46712   2.47192   2.47551   2.47874   2.48087
 Alpha virt. eigenvalues --    2.49045   2.49227   2.49280   2.49501   2.49722
 Alpha virt. eigenvalues --    2.50094   2.50516   2.51295   2.52126   2.52354
 Alpha virt. eigenvalues --    2.52643   2.53125   2.53241   2.53407   2.53767
 Alpha virt. eigenvalues --    2.53856   2.54248   2.55430   2.55748   2.56001
 Alpha virt. eigenvalues --    2.57018   2.57038   2.57380   2.57791   2.58003
 Alpha virt. eigenvalues --    2.58310   2.58687   2.59351   2.59839   2.60263
 Alpha virt. eigenvalues --    2.60506   2.61048   2.61116   2.61296   2.62011
 Alpha virt. eigenvalues --    2.62301   2.62579   2.63557   2.63876   2.64138
 Alpha virt. eigenvalues --    2.65385   2.65720   2.66038   2.66448   2.66866
 Alpha virt. eigenvalues --    2.67170   2.67394   2.67566   2.68521   2.68858
 Alpha virt. eigenvalues --    2.69199   2.69310   2.69761   2.70168   2.70250
 Alpha virt. eigenvalues --    2.70839   2.71109   2.71188   2.71390   2.71588
 Alpha virt. eigenvalues --    2.72743   2.72901   2.73808   2.73859   2.74496
 Alpha virt. eigenvalues --    2.74534   2.75104   2.76040   2.76756   2.77215
 Alpha virt. eigenvalues --    2.77335   2.77521   2.78282   2.79112   2.79916
 Alpha virt. eigenvalues --    2.80197   2.80393   2.81330   2.81704   2.82229
 Alpha virt. eigenvalues --    2.82468   2.83080   2.83578   2.83625   2.83977
 Alpha virt. eigenvalues --    2.84690   2.85097   2.85694   2.85968   2.86410
 Alpha virt. eigenvalues --    2.86498   2.86691   2.87012   2.87709   2.88228
 Alpha virt. eigenvalues --    2.88580   2.89639   2.89712   2.90269   2.90678
 Alpha virt. eigenvalues --    2.91028   2.91560   2.91688   2.91910   2.92371
 Alpha virt. eigenvalues --    2.93119   2.93286   2.93469   2.93775   2.94067
 Alpha virt. eigenvalues --    2.94412   2.94684   2.94746   2.94973   2.95730
 Alpha virt. eigenvalues --    2.96493   2.96565   2.96816   2.97909   2.98741
 Alpha virt. eigenvalues --    2.98784   3.00018   3.00283   3.00454   3.01109
 Alpha virt. eigenvalues --    3.01466   3.01888   3.02755   3.03607   3.04112
 Alpha virt. eigenvalues --    3.04414   3.05239   3.05836   3.06287   3.07158
 Alpha virt. eigenvalues --    3.08001   3.08376   3.08735   3.09228   3.10872
 Alpha virt. eigenvalues --    3.12000   3.13062   3.14343   3.15488   3.15646
 Alpha virt. eigenvalues --    3.15745   3.16217   3.16356   3.18791   3.18882
 Alpha virt. eigenvalues --    3.19860   3.20270   3.20711   3.20945   3.21010
 Alpha virt. eigenvalues --    3.21508   3.23388   3.25189   3.26238   3.27648
 Alpha virt. eigenvalues --    3.27803   3.31446   3.32108   3.33691   3.35508
 Alpha virt. eigenvalues --    3.37258   3.37546   3.41237   3.41354   3.43556
 Alpha virt. eigenvalues --    3.45701   3.49724   3.53105   3.56202   3.57966
 Alpha virt. eigenvalues --    3.62600   3.63390   3.63988   3.67561   3.69062
          Condensed to atoms (all electrons):
 Mulliken charges:
               1
     1  C    0.010669
     2  C   -0.105796
     3  C   -0.128098
     4  C   -0.091508
     5  N   -0.111441
     6  C   -0.004274
     7  C    0.059519
     8  C   -0.032193
     9  C   -0.071711
    10  C    0.004839
    11  C   -0.018813
    12  C    0.044898
    13  C    0.140796
    14  O   -0.217831
    15  O   -0.311789
    16  N   -0.075501
    17  C    0.117473
    18  C   -0.191566
    19  C   -0.005124
    20  C    0.129369
    21  C    0.244335
    22  C    0.006348
    23  C   -0.045496
    24  N   -0.266981
    25  C    0.023807
    26  C   -0.065100
    27  C   -0.047011
    28  C    0.087404
    29  C   -0.077608
    30  C   -0.051436
    31  C    0.070469
    32  N   -0.060846
    33  C    0.093860
    34  C   -0.093044
    35  C   -0.104032
    36  C    0.088267
    37  C   -0.032791
    38  C    0.176277
    39  O   -0.185353
    40  C   -0.099301
    41  C    0.191878
    42  O   -0.171309
    43  O   -0.339488
    44  C    0.164792
    45  C    0.336890
    46  C   -0.045571
    47  C   -0.154096
    48  C    0.192541
    49  C    0.051103
    50  C    0.095419
    51  C   -0.025401
    52  C   -0.086220
    53  C    0.216515
    54  C   -0.001132
    55  C    0.060083
    56  C    0.083421
    57  C   -0.003612
    58  C    0.094642
    59  C    0.068960
    60  C   -0.083866
    61  C    0.063408
    62  C   -0.064653
    63  C    0.112944
    64  C   -0.009551
    65  H    0.008758
    66  H    0.023331
    67  H   -0.008620
    68  H   -0.036405
    69  H   -0.025716
    70  H    0.012735
    71  H    0.033943
    72  H    0.036964
    73  H    0.063878
    74  H    0.007227
    75  H    0.027766
    76  H    0.024806
    77  H    0.028135
    78  H   -0.075957
    79  H    0.049246
    80  H   -0.016811
    81  H    0.039000
    82  H    0.037071
    83  H    0.060117
    84  H    0.049005
    85  H    0.011496
    86  H    0.002561
    87  H   -0.001502
    88  H    0.016999
    89  H    0.009559
    90  H    0.021113
    91  H    0.057509
    92  H    0.067964
    93  H    0.057335
    94  H    0.060708
    95  H    0.019856
    96  H    0.024194
    97  H    0.043250
    98  H   -0.029116
    99  H    0.016418
   100  H   -0.035703
   101  H   -0.023252
   102  H    0.017589
   103  H   -0.038606
   104  H    0.028624
   105  H   -0.012036
   106  H    0.005687
   107  H   -0.062420
   108  H   -0.005616
   109  H   -0.010474
   110  H   -0.035268
   111  H   -0.043191
   112  H   -0.067724
   113  H   -0.005621
   114  H   -0.014601
   115  H   -0.000573
   116  H    0.001604
   117  H   -0.010803
   118  H   -0.033270
   119  H   -0.058277
   120  H   -0.074419
   121  H   -0.030602
   122  H    0.015042
   123  H   -0.052836
   124  H   -0.000073
   125  H   -0.008684
   126  H    0.007127
   127  H   -0.001560
   128  H   -0.005351
   129  H    0.011795
   130  H   -0.027767
   131  H   -0.023317
   132  H   -0.030378
   133  H   -0.004918
   134  H    0.008577
   135  H    0.031991
   136  H    0.006236
   137  H    0.166646
   138  H    0.148222
 Sum of Mulliken charges =   0.00000
 Mulliken charges with hydrogens summed into heavy atoms:
               1
     1  C    0.010669
     2  C   -0.097038
     3  C   -0.104767
     4  C   -0.100127
     5  N   -0.111441
     6  C   -0.004274
     7  C    0.023115
     8  C   -0.057909
     9  C   -0.071711
    10  C    0.088480
    11  C    0.052293
    12  C    0.097470
    13  C    0.140796
    14  O   -0.217831
    15  O   -0.311789
    16  N    0.091144
    17  C    0.117473
    18  C   -0.191566
    19  C   -0.005124
    20  C    0.129369
    21  C    0.245760
    22  C   -0.010463
    23  C    0.030574
    24  N   -0.266981
    25  C    0.023807
    26  C   -0.065100
    27  C   -0.047011
    28  C    0.087404
    29  C    0.043010
    30  C   -0.050377
    31  C    0.118139
    32  N    0.087376
    33  C    0.093860
    34  C   -0.093044
    35  C   -0.104032
    36  C    0.088267
    37  C    0.150017
    38  C    0.176277
    39  O   -0.185353
    40  C   -0.038593
    41  C    0.191878
    42  O   -0.171309
    43  O   -0.339488
    44  C    0.252091
    45  C    0.324193
    46  C   -0.081274
    47  C   -0.154096
    48  C    0.148272
    49  C    0.067690
    50  C    0.038686
    51  C   -0.041491
    52  C   -0.121489
    53  C    0.099979
    54  C   -0.016307
    55  C    0.050884
    56  C   -0.008126
    57  C   -0.078031
    58  C    0.026247
    59  C    0.060204
    60  C   -0.078300
    61  C    0.069853
    62  C   -0.092420
    63  C    0.054332
    64  C    0.037253
 Electronic spatial extent (au):  <R**2>=         178895.2551
 Charge=              0.0000 electrons
 Dipole moment (field-independent basis, Debye):
    X=              2.3667    Y=              5.4164    Z=              0.2585  Tot=              5.9166
 Quadrupole moment (field-independent basis, Debye-Ang):
   XX=           -360.3536   YY=           -387.6646   ZZ=           -395.3616
   XY=            -32.6893   XZ=              0.7130   YZ=             -0.8870
 Traceless Quadrupole moment (field-independent basis, Debye-Ang):
   XX=             20.7730   YY=             -6.5380   ZZ=            -14.2350
   XY=            -32.6893   XZ=              0.7130   YZ=             -0.8870
 Octapole moment (field-independent basis, Debye-Ang**2):
  XXX=           -876.0183  YYY=            179.8898  ZZZ=             14.8716  XYY=            -77.2597
  XXY=             35.4405  XXZ=           -277.8710  XZZ=             34.6877  YZZ=            -19.0715
  YYZ=             61.5863  XYZ=            -46.1604
 Hexadecapole moment (field-independent basis, Debye-Ang**3):
 XXXX=        -228221.4178 YYYY=         -17753.8293 ZZZZ=          -4438.4436 XXXY=          -2263.8158
 XXXZ=           -627.4694 YYYX=          -1476.2120 YYYZ=           -114.6455 ZZZX=           -200.9280
 ZZZY=            -56.8867 XXYY=         -40527.9399 XXZZ=         -39668.4465 YYZZ=          -3571.3157
 XXYZ=           -167.3216 YYXZ=           -143.2163 ZZXY=            -55.6216
 N-N= 8.287871529517D+03 E-N=-2.291138730135D+04  KE= 2.702777910646D+03
 1\1\GINC-PEDRO-RYZENSSD\SP\RB3LYP TD-FC\SVP\C55H74N4O5\PADAWAN\24-Jul-
 2019\0\\# td=(NStates=1) B3LYP/SVP\\TD\\0,1\C,0,-5.1511928174,-1.91554
 77969,0.6071455905\C,0,-4.7823185509,2.7446209138,1.3171080967\C,0,-9.
 327442654,3.2915799572,-0.1944079087\C,0,-9.8638844429,-1.5232531287,-
 0.9604686003\N,0,-5.2589050528,0.494861109,0.8920676438\C,0,-4.4938580
 019,-0.6651732383,0.8645999034\C,0,-3.1090805946,-0.46945338,1.2310380
 996\C,0,-3.1285278182,0.8919280851,1.8574248483\C,0,-4.4827274658,1.40
 8540672,1.262449842\C,0,-3.1516237309,1.0188593982,3.3882466873\C,0,-2
 .0326653372,-0.5065406158,0.059873933\C,0,-0.5954427565,-0.5733755542,
 0.5413365864\C,0,0.3784115026,-0.9858954624,-0.5833998976\O,0,0.021913
 959,-1.4325256192,-1.6256561771\O,0,1.6295431514,-0.718828656,-0.25223
 76665\N,0,-7.1112957242,2.6966869405,0.5723767469\C,0,-5.9976913445,3.
 3967640947,0.9889497519\C,0,-6.3034035261,4.8234787874,1.0652830211\C,
 0,-7.6667257694,4.9446432998,0.6434308705\C,0,-8.096290575,3.610329526
 7,0.2430944648\C,0,-5.3778282993,5.932188734,1.6602572917\C,0,-8.31634
 89176,6.2508490965,0.4222207234\C,0,-9.1787157698,6.5568254044,-0.5779
 202708\N,0,-9.2179399946,0.8023674697,-0.5162340918\C,0,-9.8309469576,
 2.0172042191,-0.5352327925\C,0,-11.2601198785,1.8152950905,-1.05812964
 69\C,0,-11.4034842989,0.4784051806,-1.280573012\C,0,-10.0950617319,-0.
 2126812198,-0.9253857811\C,0,-12.2470532062,2.9879772993,-1.140287119\
 C,0,-12.6017679163,-0.321794659,-1.7714381035\C,0,-12.6575958903,-0.57
 70009645,-3.3028684581\N,0,-7.6116801256,-1.3226939546,-0.061244653\C,
 0,-8.6545870462,-2.0994686737,-0.5554089033\C,0,-8.1736098,-3.49675655
 79,-0.5753501023\C,0,-6.8216970788,-3.404037232,-0.138631487\C,0,-6.46
 72378272,-2.0629391125,0.0879838746\C,0,-9.016664424,-4.6759583453,-0.
 9080798024\C,0,-5.6491718624,-4.3655015853,-0.0204210965\O,0,-5.450804
 5707,-5.5803875689,-0.1982870946\C,0,-4.5505926879,-3.329743736,0.4119
 702591\C,0,-3.874311229,-3.7152156151,1.7762741531\O,0,-4.1831833918,-
 3.2986277967,2.8270407722\O,0,-2.8892076084,-4.7317081437,1.605660994\
 C,0,-2.2477294767,-5.1219916453,2.7980219418\C,0,2.6508672553,-0.97544
 14417,-1.2859626221\C,0,3.9677700238,-0.6793284352,-0.7090330034\C,0,5
 .018804137,0.0384048954,-1.1704810047\C,0,4.8933285286,0.8989206238,-2
 .3706041772\C,0,6.2995617014,0.2427420134,-0.4632052347\C,0,7.57331857
 23,-0.4105972426,-1.1008769546\C,0,8.8356651676,-0.2277667618,-0.18405
 67532\C,0,10.1367546012,-0.7379581224,-0.8914965045\C,0,10.078093848,-
 2.3439381967,-1.1226015451\C,0,11.4157054207,-0.3624605608,-0.04091464
 72\C,0,12.7308947637,-0.4603213493,-0.7609706202\C,0,13.8520837978,-0.
 1253697632,0.2552975853\C,0,15.2960985217,-0.2326341449,-0.2911826762\
 C,0,15.5993895108,-1.766785544,-0.4553343017\C,0,16.3385045948,0.52624
 7142,0.481107133\C,0,17.770441933,0.6329762153,-0.0916930707\C,0,18.62
 30232266,1.4866829972,0.7940502212\C,0,20.021854087,1.5782856332,0.136
 7254\C,0,20.2414248414,2.1601025864,-1.2059686747\C,0,20.8993424555,2.
 3861999588,1.1099227805\H,0,-3.8476124215,3.3205332853,1.8507599569\H,
 0,-10.1513629894,4.1073179739,-0.3799693196\H,0,-10.7321574721,-2.1736
 54521,-1.2078502581\H,0,-2.779090236,-1.1625854937,1.9145423299\H,0,-2
 .2894402585,1.4836085841,1.5830512173\H,0,-2.1348037384,0.6875251209,3
 .8321923232\H,0,-3.3320887008,2.0492299727,3.8663468299\H,0,-3.8477243
 693,0.2264178263,3.8638915654\H,0,-2.2479703054,-1.3199667298,-0.82162
 66099\H,0,-2.1556389033,0.4627724682,-0.508887583\H,0,-0.1545712769,0.
 3925731109,0.8576261239\H,0,-0.4995002893,-1.2140733659,1.4221397224\H
 ,0,-4.5505198685,6.0977441425,0.9406168615\H,0,-5.9023554419,6.7277376
 885,1.5806373583\H,0,-5.1590239892,5.7107291169,2.7391880528\H,0,-7.97
 53625457,6.949004775,1.098381392\H,0,-9.4705524071,5.9971798785,-1.459
 7175579\H,0,-9.6764823948,7.6207207996,-0.4673969626\H,0,-12.903004662
 5,3.4442436116,-0.2630641195\H,0,-11.7775216005,3.8633102884,-2.058925
 2093\H,0,-13.2963906619,2.7294107768,-1.6204464\H,0,-12.6714495182,-1.
 4617751042,-1.2340881599\H,0,-13.5383408586,0.0214763023,-1.3456769265
 \H,0,-12.4478204119,0.4603628494,-3.6759449388\H,0,-11.7783528033,-1.1
 67184292,-3.5082897811\H,0,-13.6274094944,-0.9473338282,-3.5568432266\
 H,0,-9.557852334,-4.925911911,0.1670744054\H,0,-9.9004140203,-4.519799
 926,-1.8277096692\H,0,-8.3725324279,-5.6316814351,-0.9984678023\H,0,-3
 .6709889503,-3.3806643566,-0.2916705157\H,0,-1.4267430673,-5.747169812
 7,2.453098644\H,0,-1.7844868951,-4.2141749014,3.2831627589\H,0,-2.9189
 149079,-5.7802531169,3.472224098\H,0,2.5259565032,-1.9258502285,-1.537
 8449515\H,0,2.3205669512,-0.5569732781,-2.2639341606\H,0,4.099742746,-
 1.1737696913,0.1999278958\H,0,5.1142232515,1.8443669457,-2.2206967895\
 H,0,5.5715637736,0.5393498975,-3.2358249841\H,0,3.9277828965,0.7956607
 529,-2.7042712522\H,0,6.7240304192,1.4051566407,-0.2050106922\H,0,6.10
 78388286,-0.2553854281,0.4909568031\H,0,7.3558323681,-1.4485615808,-1.
 4441851781\H,0,8.0102505676,-0.0073187113,-1.851750004\H,0,8.893324819
 9,0.87748659,0.0756277111\H,0,8.7578688497,-0.7347676283,0.8161744298\
 H,0,10.2369763662,-0.1185092942,-1.7279973747\H,0,9.3345837746,-2.6514
 038336,-1.6820167495\H,0,10.8486398951,-2.6251741172,-1.5654571506\H,0
 ,9.9720622263,-2.7698586715,-0.1532635957\H,0,11.2763729347,0.67789656
 98,0.2278513703\H,0,11.2262385874,-1.0908643229,0.7894288731\H,0,12.78
 9113622,-1.4990614773,-1.169100123\H,0,12.797097862,0.1936392849,-1.62
 71542491\H,0,13.6719083457,0.8608857994,0.678230734\H,0,13.7949637234,
 -0.6767641042,1.0773945854\H,0,15.3006724114,0.0929004961,-1.224094422
 7\H,0,14.8048260355,-2.0340559874,-1.1290522384\H,0,16.612645138,-1.88
 97630129,-0.9685326372\H,0,15.4085261314,-2.3629314257,0.264935765\H,0
 ,15.7706973429,1.4734239127,0.5748579448\H,0,16.4960142582,-0.15959533
 62,1.3581392365\H,0,18.0877799997,-0.4015443649,-0.4142612939\H,0,17.6
 713217178,1.1689387822,-1.2182802605\H,0,18.1978844779,2.5107574716,0.
 8343888286\H,0,18.6147537296,1.0092067302,1.8368108311\H,0,20.25049138
 15,0.5584938104,0.0025014063\H,0,20.1602133779,3.3278010502,-1.1127031
 727\H,0,21.2037676205,2.1926673364,-1.5037434809\H,0,19.5751124842,1.8
 460002217,-1.9514773292\H,0,20.8332785644,1.8799294609,2.1967007067\H,
 0,22.1249153487,2.4164216696,0.7945536125\H,0,20.4035399834,3.32866606
 62,1.2373024681\H,0,-7.1342252556,1.7380126745,0.175409387\H,0,-7.6305
 446029,-0.3110512811,0.1480746799\\Version=ES64L-G09RevD.01\State=1-A\
 HF=-2733.0659023\RMSD=6.766e-09\PG=C01 [X(C55H74N4O5)]\\@


 IT IS IMPOSSIBLE TO MEDITATE ON TIME AND THE MYSTERY 
 OF NATURE WITHOUT AN OVERWHELMING EMOTION AT THE
 LIMITATIONS OF HUMAN INTELLIGENCE.

                                         -- ALFRED NORTH WHITEHEAD
 Job cpu time:       0 days  5 hours  7 minutes 27.5 seconds.
 File lengths (MBytes):  RWF=   1953 Int=      0 D2E=      0 Chk=    148 Scr=      1
 Normal termination of Gaussian 09 at Wed Jul 24 19:35:07 2019.
