 Entering Gaussian System, Link 0=g16
 Input=Geometria-282-.com
 Output=Geometria-282-.log
 Initial command:
 /usr/local/g09/l1.exe "/home/padawan/israel-mol/pheophytin/spectra/abs/Gau-104078.inp" -scrdir="/home/padawan/israel-mol/pheophytin/spectra/abs/"
 Entering Link 1 = /usr/local/g09/l1.exe PID=    104080.
  
 Copyright (c) 1988,1990,1992,1993,1995,1998,2003,2009,2013,
            Gaussian, Inc.  All Rights Reserved.
  
 This is part of the Gaussian(R) 09 program.  It is based on
 the Gaussian(R) 03 system (copyright 2003, Gaussian, Inc.),
 the Gaussian(R) 98 system (copyright 1998, Gaussian, Inc.),
 the Gaussian(R) 94 system (copyright 1995, Gaussian, Inc.),
 the Gaussian 92(TM) system (copyright 1992, Gaussian, Inc.),
 the Gaussian 90(TM) system (copyright 1990, Gaussian, Inc.),
 the Gaussian 88(TM) system (copyright 1988, Gaussian, Inc.),
 the Gaussian 86(TM) system (copyright 1986, Carnegie Mellon
 University), and the Gaussian 82(TM) system (copyright 1983,
 Carnegie Mellon University). Gaussian is a federally registered
 trademark of Gaussian, Inc.
  
 This software contains proprietary and confidential information,
 including trade secrets, belonging to Gaussian, Inc.
  
 This software is provided under written license and may be
 used, copied, transmitted, or stored only in accord with that
 written license.
  
 The following legend is applicable only to US Government
 contracts under FAR:
  
                    RESTRICTED RIGHTS LEGEND
  
 Use, reproduction and disclosure by the US Government is
 subject to restrictions as set forth in subparagraphs (a)
 and (c) of the Commercial Computer Software - Restricted
 Rights clause in FAR 52.227-19.
  
 Gaussian, Inc.
 340 Quinnipiac St., Bldg. 40, Wallingford CT 06492
  
  
 ---------------------------------------------------------------
 Warning -- This program may not be used in any manner that
 competes with the business of Gaussian, Inc. or will provide
 assistance to any competitor of Gaussian, Inc.  The licensee
 of this program is prohibited from giving any competitor of
 Gaussian, Inc. access to this program.  By using this program,
 the user acknowledges that Gaussian, Inc. is engaged in the
 business of creating and licensing software in the field of
 computational chemistry and represents and warrants to the
 licensee that it is not a competitor of Gaussian, Inc. and that
 it will not use this program in any manner prohibited above.
 ---------------------------------------------------------------
  

 Cite this work as:
 Gaussian 09, Revision D.01,
 M. J. Frisch, G. W. Trucks, H. B. Schlegel, G. E. Scuseria, 
 M. A. Robb, J. R. Cheeseman, G. Scalmani, V. Barone, B. Mennucci, 
 G. A. Petersson, H. Nakatsuji, M. Caricato, X. Li, H. P. Hratchian, 
 A. F. Izmaylov, J. Bloino, G. Zheng, J. L. Sonnenberg, M. Hada, 
 M. Ehara, K. Toyota, R. Fukuda, J. Hasegawa, M. Ishida, T. Nakajima, 
 Y. Honda, O. Kitao, H. Nakai, T. Vreven, J. A. Montgomery, Jr., 
 J. E. Peralta, F. Ogliaro, M. Bearpark, J. J. Heyd, E. Brothers, 
 K. N. Kudin, V. N. Staroverov, T. Keith, R. Kobayashi, J. Normand, 
 K. Raghavachari, A. Rendell, J. C. Burant, S. S. Iyengar, J. Tomasi, 
 M. Cossi, N. Rega, J. M. Millam, M. Klene, J. E. Knox, J. B. Cross, 
 V. Bakken, C. Adamo, J. Jaramillo, R. Gomperts, R. E. Stratmann, 
 O. Yazyev, A. J. Austin, R. Cammi, C. Pomelli, J. W. Ochterski, 
 R. L. Martin, K. Morokuma, V. G. Zakrzewski, G. A. Voth, 
 P. Salvador, J. J. Dannenberg, S. Dapprich, A. D. Daniels, 
 O. Farkas, J. B. Foresman, J. V. Ortiz, J. Cioslowski, 
 and D. J. Fox, Gaussian, Inc., Wallingford CT, 2013.
 
 ******************************************
 Gaussian 09:  ES64L-G09RevD.01 24-Apr-2013
                 2-Aug-2019 
 ******************************************
 %nproc=3
 Will use up to    3 processors via shared memory.
 %Mem=2GB
 --------------------------
 # td=(NStates=1) B3LYP/SVP
 --------------------------
 1/38=1/1;
 2/12=2,17=6,18=5,40=1/2;
 3/5=18,7=101,11=9,16=1,25=1,30=1,74=-5/1,2,8,3;
 4//1;
 5/5=2,38=5/2;
 8/6=1,10=1,108=1/1;
 9/41=1,42=1,70=2/14;
 6/7=2,8=2,9=2,10=2/1;
 99/5=1,9=1/99;
 --
 TD
 --
 Symbolic Z-matrix:
 Charge =  0 Multiplicity = 1
 6                    -5.07551  -1.93407   0.43644 
 6                    -4.82001   2.8384    1.23467 
 6                    -9.48028   3.20554  -0.21568 
 6                    -9.81403  -1.63418  -0.74646 
 7                    -5.16501   0.47433   0.77989 
 6                    -4.45191  -0.67052   0.75311 
 6                    -3.05982  -0.48615   1.16219 
 6                    -3.11169   1.00383   1.77931 
 6                    -4.38994   1.51659   1.17376 
 6                    -2.92306   1.19399   3.33831 
 6                    -2.09289  -0.61967   0.02806 
 6                    -0.68292  -0.69198   0.41413 
 6                     0.36501  -0.73356  -0.76687 
 8                     0.11876  -0.95912  -1.88666 
 8                     1.64088  -0.49741  -0.34746 
 7                    -7.12046   2.70425   0.35918 
 6                    -5.97275   3.44132   0.85684 
 6                    -6.32326   4.86131   0.99318 
 6                    -7.67371   4.89971   0.49022 
 6                    -8.2571    3.53428   0.07393 
 6                    -5.42606   5.8015    1.51503 
 6                    -8.47288   6.2284    0.47921 
 6                    -9.40744   6.53809  -0.49666 
 7                    -9.24005   0.73043  -0.35747 
 6                    -9.90712   1.9148   -0.51135 
 6                    -11.33398   1.71179  -0.78303 
 6                    -11.47127   0.33182  -1.14791 
 6                    -10.18142  -0.25185  -0.75686 
 6                    -12.22495   2.76857  -1.16543 
 6                    -12.78001  -0.36694  -1.41015 
 6                    -12.78821  -0.75752  -2.89515 
 7                    -7.47594  -1.3409   -0.14161 
 6                    -8.57282  -2.17991  -0.63127 
 6                    -8.11991  -3.52371  -0.62828 
 6                    -6.75177  -3.42571  -0.18821 
 6                    -6.43206  -2.12809   0.11488 
 6                    -8.81355  -4.71387  -0.94027 
 6                    -5.60037  -4.35736   0.06294 
 8                    -5.35266  -5.4914   -0.02507 
 6                    -4.40828  -3.18087   0.38555 
 6                    -3.73916  -3.65002   1.64844 
 8                    -3.9937   -3.30933   2.78087 
 8                    -2.80834  -4.61779   1.3799 
 6                    -2.31939  -5.30419   2.59602 
 6                     2.65446  -0.72562  -1.27954 
 6                     3.96921  -0.53592  -0.62813 
 6                     4.99277   0.26701  -1.00407 
 6                     4.8953    1.14642  -2.23751 
 6                     6.26192   0.46077  -0.25261 
 6                     7.47088  -0.1587   -0.99651 
 6                     8.79804  -0.13535  -0.08873 
 6                     9.98413  -0.68242  -0.74579 
 6                     9.88337  -2.18291  -0.9914 
 6                     11.33065  -0.33042   0.00257 
 6                     12.65063  -0.64321  -0.67877 
 6                     13.82951  -0.12051   0.14584 
 6                     15.18952  -0.46492  -0.37101 
 6                     15.54981  -1.96289  -0.13925 
 6                     16.2835   0.52345   0.21955 
 6                     17.70926   0.5861   -0.19947 
 6                     18.65028   1.49711   0.57861 
 6                     20.15403   1.30635   0.29819 
 6                     20.52063   1.86966  -1.13016 
 6                     21.02273   2.06499   1.34236 
 1                    -3.90086   3.35888   1.65787 
 1                    -10.12502   4.04077  -0.55759 
 1                    -10.42317  -2.39994  -1.05954 
 1                    -2.76559  -1.21316   1.91439 
 1                    -2.22943   1.55112   1.29263 
 1                    -1.70211   0.82417   3.50677 
 1                    -2.98446   2.22531   3.72959 
 1                    -3.54316   0.54612   4.04132 
 1                    -2.4535   -1.28839  -0.514 
 1                    -2.47953   0.25658  -0.77835 
 1                    -0.51122   0.17222   0.86665 
 1                    -0.54201  -1.59456   1.11213 
 1                    -4.72079   6.23415   0.75266 
 1                    -6.19481   6.71187   2.13218 
 1                    -5.15424   5.30413   2.41431 
 1                    -8.09012   6.92943   1.34927 
 1                    -9.43906   5.82526  -1.25316 
 1                    -9.91977   7.48835  -0.64732 
 1                    -12.6153   3.3308   -0.33351 
 1                    -12.02241   3.41442  -1.97296 
 1                    -13.20868   2.36882  -1.35632 
 1                    -12.80272  -1.30233  -0.90238 
 1                    -13.68487   0.17559  -1.28277 
 1                    -12.53389   0.16659  -3.51358 
 1                    -12.00297  -1.40158  -3.23945 
 1                    -13.74895  -1.25243  -3.09507 
 1                    -9.77085  -4.90303  -0.54867 
 1                    -9.18294  -4.66111  -2.16495 
 1                    -8.17748  -5.59197  -0.73147 
 1                    -3.44297  -3.31502  -0.36562 
 1                    -1.39886  -5.95026   2.33652 
 1                    -2.14547  -4.37619   3.50856 
 1                    -3.21658  -5.69509   3.08554 
 1                     2.67152  -1.78806  -1.74078 
 1                     2.68136   0.00519  -2.1321 
 1                     4.23068  -1.19984   0.29891 
 1                     5.55178   2.20257  -2.09354 
 1                     5.42992   0.68961  -3.04731 
 1                     3.87667   1.4516   -2.53298 
 1                     6.4358    1.39372  -0.20225 
 1                     6.19085  -0.22047   0.7664 
 1                     7.34691  -1.17955  -1.02141 
 1                     7.87451   0.27551  -1.95225 
 1                     8.87064   0.83809   0.2017 
 1                     8.62928  -0.95198   0.88065 
 1                     10.19186  -0.31783  -1.6872 
 1                     8.81554  -2.44978  -1.36223 
 1                     10.55519  -2.74468  -1.56655 
 1                     9.37843  -2.65157  -0.0173 
 1                     11.31282   0.79908  -0.00502 
 1                     11.15416  -0.7545    1.029 
 1                     12.38067  -1.71333  -0.69756 
 1                     12.65343  -0.09042  -1.80482 
 1                     13.80602   0.72898   0.34071 
 1                     13.71589  -0.69457   1.08308 
 1                     15.11412  -0.23656  -1.57575 
 1                     14.92487  -2.56222  -0.96333 
 1                     16.59314  -2.40407  -0.29402 
 1                     15.14021  -2.21969   0.98788 
 1                     16.0281   1.83205  -0.06882 
 1                     15.99776   0.43524   1.28571 
 1                     18.02477  -0.54464   0.07923 
 1                     17.71217   0.59442  -1.32807 
 1                     18.3556   2.61593   0.22568 
 1                     18.46259   1.43541   1.7144 
 1                     20.46341   0.33909   0.2384 
 1                     20.19963   3.06385  -1.27366 
 1                     21.54067   1.86133  -1.38522 
 1                     20.19554   1.4344   -2.07358 
 1                     20.94888   1.80929   2.40548 
 1                     22.04335   1.70143   1.19219 
 1                     21.01806   3.29086   1.087 
 1                    -7.02655   1.82665   0.32213 
 1                    -7.6516   -0.4625    0.0825 
 
 Stoichiometry    C55H74N4O5
 Framework group  C1[X(C55H74N4O5)]
 Deg. of freedom   408
 Full point group                 C1      NOp   1
 Largest Abelian subgroup         C1      NOp   1
 Largest concise Abelian subgroup C1      NOp   1
                         Standard orientation:                         
 ---------------------------------------------------------------------
 Center     Atomic      Atomic             Coordinates (Angstroms)
 Number     Number       Type             X           Y           Z
 ---------------------------------------------------------------------
      1          6           0       -5.066867   -1.949343    0.455039
      2          6           0       -4.832500    2.831010    1.211485
      3          6           0       -9.495485    3.164316   -0.238296
      4          6           0       -9.807601   -1.681316   -0.726650
      5          7           0       -5.167071    0.461524    0.777576
      6          6           0       -4.448795   -0.680265    0.760199
      7          6           0       -3.057242   -0.486004    1.166553
      8          6           0       -3.115428    1.009038    1.770714
      9          6           0       -4.396459    1.510690    1.161744
     10          6           0       -2.926491    1.213622    3.327853
     11          6           0       -2.090578   -0.625007    0.032858
     12          6           0       -0.680002   -0.687537    0.418424
     13          6           0        0.367215   -0.734640   -0.763006
     14          8           0        0.121150   -0.971060   -1.880597
     15          8           0        1.642317   -0.489045   -0.346682
     16          7           0       -7.132972    2.678781    0.339024
     17          6           0       -5.988255    3.425369    0.829335
     18          6           0       -6.345120    4.844888    0.953585
     19          6           0       -7.696112    4.872763    0.451385
     20          6           0       -8.273594    3.501124    0.047465
     21          6           0       -5.451822    5.793650    1.466522
     22          6           0       -8.501339    6.197658    0.429444
     23          6           0       -9.438031    6.494592   -0.548339
     24          7           0       -9.244101    0.689182   -0.358720
     25          6           0       -9.916674    1.869126   -0.522377
     26          6           0      -11.342793    1.657274   -0.791145
     27          6           0      -11.474079    0.273564   -1.143885
     28          6           0      -10.181289   -0.300804   -0.748794
     29          6           0      -12.238858    2.706612   -1.182019
     30          6           0      -12.779817   -0.433396   -1.398992
     31          6           0      -12.787365   -0.836928   -2.880524
     32          7           0       -7.470411   -1.372145   -0.126244
     33          6           0       -8.563832   -2.220366   -0.607701
     34          6           0       -8.104812   -3.562019   -0.593371
     35          6           0       -6.736796   -3.453972   -0.155261
     36          6           0       -6.422772   -2.152317    0.136258
     37          6           0       -8.793262   -4.757995   -0.894442
     38          6           0       -5.580973   -4.378156    0.103067
     39          8           0       -5.328178   -5.511780    0.024740
     40          6           0       -4.394010   -3.193492    0.414474
     41          6           0       -3.721805   -3.648578    1.680871
     42          8           0       -3.977043   -3.299199    2.810489
     43          8           0       -2.786794   -4.614407    1.420023
     44          6           0       -2.293801   -5.287962    2.641687
     45          6           0        2.656214   -0.720755   -1.277552
     46          6           0        3.970581   -0.519421   -0.628868
     47          6           0        4.990192    0.284850   -1.012598
     48          6           0        4.887784    1.153029   -2.253566
     49          6           0        6.259011    0.490922   -0.263864
     50          6           0        7.470216   -0.129508   -1.003297
     51          6           0        8.797946   -0.092215   -0.096812
     52          6           0        9.986014   -0.639594   -0.750033
     53          6           0        9.891906   -2.142609   -0.982486
     54          6           0       11.331481   -0.274967   -0.005837
     55          6           0       12.652356   -0.587678   -0.685481
     56          6           0       13.829472   -0.052462    0.133608
     57          6           0       15.190641   -0.395172   -0.381304
     58          6           0       15.557929   -1.889412   -0.136800
     59          6           0       16.280558    0.603261    0.199759
     60          6           0       17.705697    0.668744   -0.220930
     61          6           0       18.643148    1.590767    0.548442
     62          6           0       20.147540    1.404405    0.268499
     63          6           0       20.510496    1.956918   -1.164995
     64          6           0       21.013574    2.176051    1.305327
     65          1           0       -3.915405    3.359327    1.629407
     66          1           0      -10.144282    3.993597   -0.586948
     67          1           0      -10.413482   -2.452528   -1.032565
     68          1           0       -2.759139   -1.205095    1.924820
     69          1           0       -2.236045    1.556069    1.278590
     70          1           0       -1.703743    0.850839    3.498553
     71          1           0       -2.992293    2.248022    3.710190
     72          1           0       -3.543106    0.569091    4.036968
     73          1           0       -2.448549   -1.300057   -0.503068
     74          1           0       -2.481813    0.242423   -0.780847
     75          1           0       -0.511891    0.181342    0.863259
     76          1           0       -0.534459   -1.583357    1.124138
     77          1           0       -4.749100    6.222847    0.699848
     78          1           0       -6.224243    6.705857    2.076334
     79          1           0       -5.177061    5.305375    2.369874
     80          1           0       -8.121115    6.907978    1.293063
     81          1           0       -9.466978    5.775062   -1.298574
     82          1           0       -9.954794    7.441158   -0.706862
     83          1           0      -12.631129    3.274294   -0.354717
     84          1           0      -12.039866    3.346319   -1.995300
     85          1           0      -13.220903    2.300757   -1.368639
     86          1           0      -12.797891   -1.364421   -0.883082
     87          1           0      -13.687041    0.106105   -1.275618
     88          1           0      -12.537723    0.082910   -3.507179
     89          1           0      -11.999458   -1.480385   -3.219833
     90          1           0      -13.745996   -1.337928   -3.075361
     91          1           0       -9.749394   -4.948084   -0.500443
     92          1           0       -9.163813   -4.717586   -2.119241
     93          1           0       -8.153042   -5.631338   -0.678510
     94          1           0       -3.428665   -3.329789   -0.336264
     95          1           0       -1.370540   -5.932077    2.387084
     96          1           0       -2.123424   -4.351269    3.545967
     97          1           0       -3.188840   -5.678663    3.135299
     98          1           0        2.677765   -1.787083   -1.729531
     99          1           0        2.679147    0.002716   -2.136462
    100          1           0        4.235768   -1.174044    0.303712
    101          1           0        5.539555    2.213374   -2.119323
    102          1           0        5.423866    0.691628   -3.059779
    103          1           0        3.867551    1.450991   -2.550874
    104          1           0        6.428684    1.425047   -0.221763
    105          1           0        6.191814   -0.181739    0.761103
    106          1           0        7.350879   -1.151092   -1.019216
    107          1           0        7.871141    0.298193   -1.963106
    108          1           0        8.866334    0.884038    0.185071
    109          1           0        8.633633   -0.901131    0.879773
    110          1           0       10.191373   -0.282274   -1.694748
    111          1           0        8.825019   -2.417552   -1.350135
    112          1           0       10.565837   -2.706301   -1.553257
    113          1           0        9.389840   -2.605052   -0.003943
    114          1           0       11.308503    0.854327   -0.023248
    115          1           0       11.157705   -0.690892    1.024390
    116          1           0       12.387262   -1.659141   -0.694739
    117          1           0       12.651794   -0.044709   -1.816302
    118          1           0       13.802263    0.798580    0.321093
    119          1           0       13.719170   -0.618844    1.075899
    120          1           0       15.113297   -0.177664   -1.587925
    121          1           0       14.935094   -2.498735   -0.955126
    122          1           0       16.603138   -2.327185   -0.288546
    123          1           0       15.150350   -2.138246    0.992850
    124          1           0       16.018989    1.908128   -0.099787
    125          1           0       15.996034    0.523050    1.266875
    126          1           0       18.026570   -0.458080    0.067354
    127          1           0       17.707715    0.667247   -1.349559
    128          1           0       18.343115    2.705114    0.186018
    129          1           0       18.456603    1.538105    1.684875
    130          1           0       20.461280    0.438080    0.216890
    131          1           0       20.183949    3.148343   -1.318630
    132          1           0       21.530369    1.951005   -1.420786
    133          1           0       20.186679    1.511980   -2.104329
    134          1           0       20.941689    1.929292    2.370697
    135          1           0       22.035717    1.815842    1.157523
    136          1           0       21.003127    3.399621    1.039309
    137          1           0       -7.035103    1.801332    0.309550
    138          1           0       -7.649898   -0.492634    0.090351
 ---------------------------------------------------------------------
 Rotational constants (GHZ):      0.0662534      0.0061366      0.0057753
 Standard basis: SVP (5D, 7F)
 There are  1330 symmetry adapted cartesian basis functions of A   symmetry.
 There are  1266 symmetry adapted basis functions of A   symmetry.
  1266 basis functions,  2118 primitive gaussians,  1330 cartesian basis functions
   236 alpha electrons      236 beta electrons
       nuclear repulsion energy      8303.9683856638 Hartrees.
 NAtoms=  138 NActive=  138 NUniq=  138 SFac= 1.00D+00 NAtFMM=   60 NAOKFM=T Big=T
 Integral buffers will be    131072 words long.
 Regular integral format.
 Two-electron integral symmetry is turned on.
 One-electron integrals computed using PRISM.
 NBasis=  1266 RedAO= T EigKep=  2.63D-04  NBF=  1266
 NBsUse=  1266 1.00D-06 EigRej= -1.00D+00 NBFU=  1266
 ExpMin= 1.22D-01 ExpMax= 2.27D+03 ExpMxC= 3.41D+02 IAcc=1 IRadAn=         1 AccDes= 0.00D+00
 Harris functional with IExCor=  402 and IRadAn=       1 diagonalized for initial guess.
 HarFok:  IExCor=  402 AccDes= 0.00D+00 IRadAn=         1 IDoV= 1 UseB2=F ITyADJ=14
 ICtDFT=  3500011 ScaDFX=  1.000000  1.000000  1.000000  1.000000
 FoFCou: FMM=F IPFlag=           0 FMFlag=      100000 FMFlg1=        2001
         NFxFlg=           0 DoJE=T BraDBF=F KetDBF=T FulRan=T
         wScrn=  0.000000 ICntrl=     500 IOpCl=  0 I1Cent=   200000004 NGrid=           0
         NMat0=    1 NMatS0=      1 NMatT0=    0 NMatD0=    1 NMtDS0=    0 NMtDT0=    0
 Petite list used in FoFCou.
 Requested convergence on RMS density matrix=1.00D-08 within 128 cycles.
 Requested convergence on MAX density matrix=1.00D-06.
 Requested convergence on             energy=1.00D-06.
 No special actions if energy rises.
 Integral accuracy reduced to 1.0D-05 until final iterations.
 Initial convergence to 1.0D-05 achieved.  Increase integral accuracy.
 SCF Done:  E(RB3LYP) =  -2732.87466454     A.U. after   17 cycles
            NFock= 17  Conv=0.52D-08     -V/T= 2.0113
 DoSCS=F DFT=T ScalE2(SS,OS)=  1.000000  1.000000
 ExpMin= 1.22D-01 ExpMax= 2.27D+03 ExpMxC= 3.41D+02 IAcc=3 IRadAn=         5 AccDes= 0.00D+00
 HarFok:  IExCor=  205 AccDes= 0.00D+00 IRadAn=         5 IDoV=-2 UseB2=F ITyADJ=14
 ICtDFT= 12500011 ScaDFX=  1.000000  1.000000  1.000000  1.000000
 Range of M.O.s used for correlation:    65  1266
 NBasis=  1266 NAE=   236 NBE=   236 NFC=    64 NFV=     0
 NROrb=   1202 NOA=   172 NOB=   172 NVA=  1030 NVB=  1030

 **** Warning!!: The smallest alpha delta epsilon is  0.91357376D-01

 Would need an additional        965744300000 words for in-memory AO integral storage.
 Orbital symmetries:
       Occupied  (A) (A) (A) (A) (A) (A) (A) (A) (A) (A) (A) (A)
                 (A) (A) (A) (A) (A) (A) (A) (A) (A) (A) (A) (A)
                 (A) (A) (A) (A) (A) (A) (A) (A) (A) (A) (A) (A)
                 (A) (A) (A) (A) (A) (A) (A) (A) (A) (A) (A) (A)
                 (A) (A) (A) (A) (A) (A) (A) (A) (A) (A) (A) (A)
                 (A) (A) (A) (A) (A) (A) (A) (A) (A) (A) (A) (A)
                 (A) (A) (A) (A) (A) (A) (A) (A) (A) (A) (A) (A)
                 (A) (A) (A) (A) (A) (A) (A) (A) (A) (A) (A) (A)
                 (A) (A) (A) (A) (A) (A) (A) (A) (A) (A) (A) (A)
                 (A) (A) (A) (A) (A) (A) (A) (A) (A) (A) (A) (A)
                 (A) (A) (A) (A) (A) (A) (A) (A) (A) (A) (A) (A)
                 (A) (A) (A) (A) (A) (A) (A) (A) (A) (A) (A) (A)
                 (A) (A) (A) (A) (A) (A) (A) (A) (A) (A) (A) (A)
                 (A) (A) (A) (A) (A) (A) (A) (A) (A) (A) (A) (A)
                 (A) (A) (A) (A) (A) (A) (A) (A) (A) (A) (A) (A)
                 (A) (A) (A) (A) (A) (A) (A) (A) (A) (A) (A) (A)
                 (A) (A) (A) (A) (A) (A) (A) (A) (A) (A) (A) (A)
                 (A) (A) (A) (A) (A) (A) (A) (A) (A) (A) (A) (A)
                 (A) (A) (A) (A) (A) (A) (A) (A) (A) (A) (A) (A)
                 (A) (A) (A) (A) (A) (A) (A) (A)
       Virtual   (A) (A) (A) (A) (A) (A) (A) (A) (A) (A) (A) (A)
                 (A) (A) (A) (A) (A) (A) (A) (A) (A) (A) (A) (A)
                 (A) (A) (A) (A) (A) (A) (A) (A) (A) (A) (A) (A)
                 (A) (A) (A) (A) (A) (A) (A) (A) (A) (A) (A) (A)
                 (A) (A) (A) (A) (A) (A) (A) (A) (A) (A) (A) (A)
                 (A) (A) (A) (A) (A) (A) (A) (A) (A) (A) (A) (A)
                 (A) (A) (A) (A) (A) (A) (A) (A) (A) (A) (A) (A)
                 (A) (A) (A) (A) (A) (A) (A) (A) (A) (A) (A) (A)
                 (A) (A) (A) (A) (A) (A) (A) (A) (A) (A) (A) (A)
                 (A) (A) (A) (A) (A) (A) (A) (A) (A) (A) (A) (A)
                 (A) (A) (A) (A) (A) (A) (A) (A) (A) (A) (A) (A)
                 (A) (A) (A) (A) (A) (A) (A) (A) (A) (A) (A) (A)
                 (A) (A) (A) (A) (A) (A) (A) (A) (A) (A) (A) (A)
                 (A) (A) (A) (A) (A) (A) (A) (A) (A) (A) (A) (A)
                 (A) (A) (A) (A) (A) (A) (A) (A) (A) (A) (A) (A)
                 (A) (A) (A) (A) (A) (A) (A) (A) (A) (A) (A) (A)
                 (A) (A) (A) (A) (A) (A) (A) (A) (A) (A) (A) (A)
                 (A) (A) (A) (A) (A) (A) (A) (A) (A) (A) (A) (A)
                 (A) (A) (A) (A) (A) (A) (A) (A) (A) (A) (A) (A)
                 (A) (A) (A) (A) (A) (A) (A) (A) (A) (A) (A) (A)
                 (A) (A) (A) (A) (A) (A) (A) (A) (A) (A) (A) (A)
                 (A) (A) (A) (A) (A) (A) (A) (A) (A) (A) (A) (A)
                 (A) (A) (A) (A) (A) (A) (A) (A) (A) (A) (A) (A)
                 (A) (A) (A) (A) (A) (A) (A) (A) (A) (A) (A) (A)
                 (A) (A) (A) (A) (A) (A) (A) (A) (A) (A) (A) (A)
                 (A) (A) (A) (A) (A) (A) (A) (A) (A) (A) (A) (A)
                 (A) (A) (A) (A) (A) (A) (A) (A) (A) (A) (A) (A)
                 (A) (A) (A) (A) (A) (A) (A) (A) (A) (A) (A) (A)
                 (A) (A) (A) (A) (A) (A) (A) (A) (A) (A) (A) (A)
                 (A) (A) (A) (A) (A) (A) (A) (A) (A) (A) (A) (A)
                 (A) (A) (A) (A) (A) (A) (A) (A) (A) (A) (A) (A)
                 (A) (A) (A) (A) (A) (A) (A) (A) (A) (A) (A) (A)
                 (A) (A) (A) (A) (A) (A) (A) (A) (A) (A) (A) (A)
                 (A) (A) (A) (A) (A) (A) (A) (A) (A) (A) (A) (A)
                 (A) (A) (A) (A) (A) (A) (A) (A) (A) (A) (A) (A)
                 (A) (A) (A) (A) (A) (A) (A) (A) (A) (A) (A) (A)
                 (A) (A) (A) (A) (A) (A) (A) (A) (A) (A) (A) (A)
                 (A) (A) (A) (A) (A) (A) (A) (A) (A) (A) (A) (A)
                 (A) (A) (A) (A) (A) (A) (A) (A) (A) (A) (A) (A)
                 (A) (A) (A) (A) (A) (A) (A) (A) (A) (A) (A) (A)
                 (A) (A) (A) (A) (A) (A) (A) (A) (A) (A) (A) (A)
                 (A) (A) (A) (A) (A) (A) (A) (A) (A) (A) (A) (A)
                 (A) (A) (A) (A) (A) (A) (A) (A) (A) (A) (A) (A)
                 (A) (A) (A) (A) (A) (A) (A) (A) (A) (A) (A) (A)
                 (A) (A) (A) (A) (A) (A) (A) (A) (A) (A) (A) (A)
                 (A) (A) (A) (A) (A) (A) (A) (A) (A) (A) (A) (A)
                 (A) (A) (A) (A) (A) (A) (A) (A) (A) (A) (A) (A)
                 (A) (A) (A) (A) (A) (A) (A) (A) (A) (A) (A) (A)
                 (A) (A) (A) (A) (A) (A) (A) (A) (A) (A) (A) (A)
                 (A) (A) (A) (A) (A) (A) (A) (A) (A) (A) (A) (A)
                 (A) (A) (A) (A) (A) (A) (A) (A) (A) (A) (A) (A)
                 (A) (A) (A) (A) (A) (A) (A) (A) (A) (A) (A) (A)
                 (A) (A) (A) (A) (A) (A) (A) (A) (A) (A) (A) (A)
                 (A) (A) (A) (A) (A) (A) (A) (A) (A) (A) (A) (A)
                 (A) (A) (A) (A) (A) (A) (A) (A) (A) (A) (A) (A)
                 (A) (A) (A) (A) (A) (A) (A) (A) (A) (A) (A) (A)
                 (A) (A) (A) (A) (A) (A) (A) (A) (A) (A) (A) (A)
                 (A) (A) (A) (A) (A) (A) (A) (A) (A) (A) (A) (A)
                 (A) (A) (A) (A) (A) (A) (A) (A) (A) (A) (A) (A)
                 (A) (A) (A) (A) (A) (A) (A) (A) (A) (A) (A) (A)
                 (A) (A) (A) (A) (A) (A) (A) (A) (A) (A) (A) (A)
                 (A) (A) (A) (A) (A) (A) (A) (A) (A) (A) (A) (A)
                 (A) (A) (A) (A) (A) (A) (A) (A) (A) (A) (A) (A)
                 (A) (A) (A) (A) (A) (A) (A) (A) (A) (A) (A) (A)
                 (A) (A) (A) (A) (A) (A) (A) (A) (A) (A) (A) (A)
                 (A) (A) (A) (A) (A) (A) (A) (A) (A) (A) (A) (A)
                 (A) (A) (A) (A) (A) (A) (A) (A) (A) (A) (A) (A)
                 (A) (A) (A) (A) (A) (A) (A) (A) (A) (A) (A) (A)
                 (A) (A) (A) (A) (A) (A) (A) (A) (A) (A) (A) (A)
                 (A) (A) (A) (A) (A) (A) (A) (A) (A) (A) (A) (A)
                 (A) (A) (A) (A) (A) (A) (A) (A) (A) (A) (A) (A)
                 (A) (A) (A) (A) (A) (A) (A) (A) (A) (A) (A) (A)
                 (A) (A) (A) (A) (A) (A) (A) (A) (A) (A) (A) (A)
                 (A) (A) (A) (A) (A) (A) (A) (A) (A) (A) (A) (A)
                 (A) (A) (A) (A) (A) (A) (A) (A) (A) (A) (A) (A)
                 (A) (A) (A) (A) (A) (A) (A) (A) (A) (A) (A) (A)
                 (A) (A) (A) (A) (A) (A) (A) (A) (A) (A) (A) (A)
                 (A) (A) (A) (A) (A) (A) (A) (A) (A) (A) (A) (A)
                 (A) (A) (A) (A) (A) (A) (A) (A) (A) (A) (A) (A)
                 (A) (A) (A) (A) (A) (A) (A) (A) (A) (A) (A) (A)
                 (A) (A) (A) (A) (A) (A) (A) (A) (A) (A) (A) (A)
                 (A) (A) (A) (A) (A) (A) (A) (A) (A) (A) (A) (A)
                 (A) (A) (A) (A) (A) (A) (A) (A) (A) (A) (A) (A)
                 (A) (A) (A) (A) (A) (A) (A) (A) (A) (A) (A) (A)
                 (A) (A) (A) (A) (A) (A) (A) (A) (A) (A) (A) (A)
                 (A) (A) (A) (A) (A) (A) (A) (A) (A) (A)
     8 initial guesses have been made.
 Convergence on wavefunction:    0.001000000000000
 Iteration     1 Dimension     8 NMult     0 NNew      8
 CISAX will form     8 AO SS matrices at one time.
 Iteration     2 Dimension    12 NMult     8 NNew      4
 Iteration     3 Dimension    16 NMult    12 NNew      4
 Iteration     4 Dimension    20 NMult    16 NNew      4
 Iteration     5 Dimension    24 NMult    20 NNew      4
 Iteration     6 Dimension    28 NMult    24 NNew      4
 ***********************************************************************
 Excited states from <AA,BB:AA,BB> singles matrix:
 ***********************************************************************
 
 Ground to excited state transition densities written to RWF  633
 Ground to excited state transition electric dipole moments (Au):
       state          X           Y           Z        Dip. S.      Osc.
         1         0.1461     -1.2234     -0.1007      1.5281      0.0769
 Ground to excited state transition velocity dipole moments (Au):
       state          X           Y           Z        Dip. S.      Osc.
         1        -0.0111      0.0915      0.0082      0.0086      0.0755
 Ground to excited state transition magnetic dipole moments (Au):
       state          X           Y           Z
         1         0.2490      0.2205     -2.3197
 Ground to excited state transition velocity quadrupole moments (Au):
       state          XX          YY          ZZ          XY          XZ          YZ
         1         0.3257      0.0825      0.0191     -1.2181     -0.0710      0.0208
 <0|del|b> * <b|rxdel|0> + <0|del|b> * <b|delr+rdel|0>
 Rotatory Strengths (R) in cgs (10**-40 erg-esu-cm/Gauss)
       state          XX          YY          ZZ    R(velocity)    E-M Angle
         1       -11.0359    -56.3118     52.1529     -5.0649       90.43
 1/2[<0|r|b>*<b|rxdel|0> + (<0|rxdel|b>*<b|r|0>)*]
 Rotatory Strengths (R) in cgs (10**-40 erg-esu-cm/Gauss)
       state          XX          YY          ZZ     R(length)
         1       -25.7284    190.7446   -165.2122     -0.0653
  1/2[<0|del|b>*<b|r|0> + (<0|r|b>*<b|del|0>)*] (Au)
       state          X           Y           Z        Dip. S.   Osc.(frdel)
         1        -0.0016     -0.1119     -0.0008      0.1143      0.0762

 Excitation energies and oscillator strengths:
 
 Excited State   1:      Singlet-A      2.0553 eV  603.23 nm  f=0.0769  <S**2>=0.000
     235 -> 237        0.10709
     235 -> 238        0.38774
     236 -> 237        0.57103
 This state for optimization and/or second-order correction.
 Total Energy, E(TD-HF/TD-KS) =  -2732.79913200    
 Copying the excited state density for this state as the 1-particle RhoCI density.
 SavETr:  write IOETrn=   770 NScale= 10 NData=  16 NLR=1 NState=    1 LETran=      28.

 **********************************************************************

            Population analysis using the SCF density.

 **********************************************************************

 Orbital symmetries:
       Occupied  (A) (A) (A) (A) (A) (A) (A) (A) (A) (A) (A) (A)
                 (A) (A) (A) (A) (A) (A) (A) (A) (A) (A) (A) (A)
                 (A) (A) (A) (A) (A) (A) (A) (A) (A) (A) (A) (A)
                 (A) (A) (A) (A) (A) (A) (A) (A) (A) (A) (A) (A)
                 (A) (A) (A) (A) (A) (A) (A) (A) (A) (A) (A) (A)
                 (A) (A) (A) (A) (A) (A) (A) (A) (A) (A) (A) (A)
                 (A) (A) (A) (A) (A) (A) (A) (A) (A) (A) (A) (A)
                 (A) (A) (A) (A) (A) (A) (A) (A) (A) (A) (A) (A)
                 (A) (A) (A) (A) (A) (A) (A) (A) (A) (A) (A) (A)
                 (A) (A) (A) (A) (A) (A) (A) (A) (A) (A) (A) (A)
                 (A) (A) (A) (A) (A) (A) (A) (A) (A) (A) (A) (A)
                 (A) (A) (A) (A) (A) (A) (A) (A) (A) (A) (A) (A)
                 (A) (A) (A) (A) (A) (A) (A) (A) (A) (A) (A) (A)
                 (A) (A) (A) (A) (A) (A) (A) (A) (A) (A) (A) (A)
                 (A) (A) (A) (A) (A) (A) (A) (A) (A) (A) (A) (A)
                 (A) (A) (A) (A) (A) (A) (A) (A) (A) (A) (A) (A)
                 (A) (A) (A) (A) (A) (A) (A) (A) (A) (A) (A) (A)
                 (A) (A) (A) (A) (A) (A) (A) (A) (A) (A) (A) (A)
                 (A) (A) (A) (A) (A) (A) (A) (A) (A) (A) (A) (A)
                 (A) (A) (A) (A) (A) (A) (A) (A)
       Virtual   (A) (A) (A) (A) (A) (A) (A) (A) (A) (A) (A) (A)
                 (A) (A) (A) (A) (A) (A) (A) (A) (A) (A) (A) (A)
                 (A) (A) (A) (A) (A) (A) (A) (A) (A) (A) (A) (A)
                 (A) (A) (A) (A) (A) (A) (A) (A) (A) (A) (A) (A)
                 (A) (A) (A) (A) (A) (A) (A) (A) (A) (A) (A) (A)
                 (A) (A) (A) (A) (A) (A) (A) (A) (A) (A) (A) (A)
                 (A) (A) (A) (A) (A) (A) (A) (A) (A) (A) (A) (A)
                 (A) (A) (A) (A) (A) (A) (A) (A) (A) (A) (A) (A)
                 (A) (A) (A) (A) (A) (A) (A) (A) (A) (A) (A) (A)
                 (A) (A) (A) (A) (A) (A) (A) (A) (A) (A) (A) (A)
                 (A) (A) (A) (A) (A) (A) (A) (A) (A) (A) (A) (A)
                 (A) (A) (A) (A) (A) (A) (A) (A) (A) (A) (A) (A)
                 (A) (A) (A) (A) (A) (A) (A) (A) (A) (A) (A) (A)
                 (A) (A) (A) (A) (A) (A) (A) (A) (A) (A) (A) (A)
                 (A) (A) (A) (A) (A) (A) (A) (A) (A) (A) (A) (A)
                 (A) (A) (A) (A) (A) (A) (A) (A) (A) (A) (A) (A)
                 (A) (A) (A) (A) (A) (A) (A) (A) (A) (A) (A) (A)
                 (A) (A) (A) (A) (A) (A) (A) (A) (A) (A) (A) (A)
                 (A) (A) (A) (A) (A) (A) (A) (A) (A) (A) (A) (A)
                 (A) (A) (A) (A) (A) (A) (A) (A) (A) (A) (A) (A)
                 (A) (A) (A) (A) (A) (A) (A) (A) (A) (A) (A) (A)
                 (A) (A) (A) (A) (A) (A) (A) (A) (A) (A) (A) (A)
                 (A) (A) (A) (A) (A) (A) (A) (A) (A) (A) (A) (A)
                 (A) (A) (A) (A) (A) (A) (A) (A) (A) (A) (A) (A)
                 (A) (A) (A) (A) (A) (A) (A) (A) (A) (A) (A) (A)
                 (A) (A) (A) (A) (A) (A) (A) (A) (A) (A) (A) (A)
                 (A) (A) (A) (A) (A) (A) (A) (A) (A) (A) (A) (A)
                 (A) (A) (A) (A) (A) (A) (A) (A) (A) (A) (A) (A)
                 (A) (A) (A) (A) (A) (A) (A) (A) (A) (A) (A) (A)
                 (A) (A) (A) (A) (A) (A) (A) (A) (A) (A) (A) (A)
                 (A) (A) (A) (A) (A) (A) (A) (A) (A) (A) (A) (A)
                 (A) (A) (A) (A) (A) (A) (A) (A) (A) (A) (A) (A)
                 (A) (A) (A) (A) (A) (A) (A) (A) (A) (A) (A) (A)
                 (A) (A) (A) (A) (A) (A) (A) (A) (A) (A) (A) (A)
                 (A) (A) (A) (A) (A) (A) (A) (A) (A) (A) (A) (A)
                 (A) (A) (A) (A) (A) (A) (A) (A) (A) (A) (A) (A)
                 (A) (A) (A) (A) (A) (A) (A) (A) (A) (A) (A) (A)
                 (A) (A) (A) (A) (A) (A) (A) (A) (A) (A) (A) (A)
                 (A) (A) (A) (A) (A) (A) (A) (A) (A) (A) (A) (A)
                 (A) (A) (A) (A) (A) (A) (A) (A) (A) (A) (A) (A)
                 (A) (A) (A) (A) (A) (A) (A) (A) (A) (A) (A) (A)
                 (A) (A) (A) (A) (A) (A) (A) (A) (A) (A) (A) (A)
                 (A) (A) (A) (A) (A) (A) (A) (A) (A) (A) (A) (A)
                 (A) (A) (A) (A) (A) (A) (A) (A) (A) (A) (A) (A)
                 (A) (A) (A) (A) (A) (A) (A) (A) (A) (A) (A) (A)
                 (A) (A) (A) (A) (A) (A) (A) (A) (A) (A) (A) (A)
                 (A) (A) (A) (A) (A) (A) (A) (A) (A) (A) (A) (A)
                 (A) (A) (A) (A) (A) (A) (A) (A) (A) (A) (A) (A)
                 (A) (A) (A) (A) (A) (A) (A) (A) (A) (A) (A) (A)
                 (A) (A) (A) (A) (A) (A) (A) (A) (A) (A) (A) (A)
                 (A) (A) (A) (A) (A) (A) (A) (A) (A) (A) (A) (A)
                 (A) (A) (A) (A) (A) (A) (A) (A) (A) (A) (A) (A)
                 (A) (A) (A) (A) (A) (A) (A) (A) (A) (A) (A) (A)
                 (A) (A) (A) (A) (A) (A) (A) (A) (A) (A) (A) (A)
                 (A) (A) (A) (A) (A) (A) (A) (A) (A) (A) (A) (A)
                 (A) (A) (A) (A) (A) (A) (A) (A) (A) (A) (A) (A)
                 (A) (A) (A) (A) (A) (A) (A) (A) (A) (A) (A) (A)
                 (A) (A) (A) (A) (A) (A) (A) (A) (A) (A) (A) (A)
                 (A) (A) (A) (A) (A) (A) (A) (A) (A) (A) (A) (A)
                 (A) (A) (A) (A) (A) (A) (A) (A) (A) (A) (A) (A)
                 (A) (A) (A) (A) (A) (A) (A) (A) (A) (A) (A) (A)
                 (A) (A) (A) (A) (A) (A) (A) (A) (A) (A) (A) (A)
                 (A) (A) (A) (A) (A) (A) (A) (A) (A) (A) (A) (A)
                 (A) (A) (A) (A) (A) (A) (A) (A) (A) (A) (A) (A)
                 (A) (A) (A) (A) (A) (A) (A) (A) (A) (A) (A) (A)
                 (A) (A) (A) (A) (A) (A) (A) (A) (A) (A) (A) (A)
                 (A) (A) (A) (A) (A) (A) (A) (A) (A) (A) (A) (A)
                 (A) (A) (A) (A) (A) (A) (A) (A) (A) (A) (A) (A)
                 (A) (A) (A) (A) (A) (A) (A) (A) (A) (A) (A) (A)
                 (A) (A) (A) (A) (A) (A) (A) (A) (A) (A) (A) (A)
                 (A) (A) (A) (A) (A) (A) (A) (A) (A) (A) (A) (A)
                 (A) (A) (A) (A) (A) (A) (A) (A) (A) (A) (A) (A)
                 (A) (A) (A) (A) (A) (A) (A) (A) (A) (A) (A) (A)
                 (A) (A) (A) (A) (A) (A) (A) (A) (A) (A) (A) (A)
                 (A) (A) (A) (A) (A) (A) (A) (A) (A) (A) (A) (A)
                 (A) (A) (A) (A) (A) (A) (A) (A) (A) (A) (A) (A)
                 (A) (A) (A) (A) (A) (A) (A) (A) (A) (A) (A) (A)
                 (A) (A) (A) (A) (A) (A) (A) (A) (A) (A) (A) (A)
                 (A) (A) (A) (A) (A) (A) (A) (A) (A) (A) (A) (A)
                 (A) (A) (A) (A) (A) (A) (A) (A) (A) (A) (A) (A)
                 (A) (A) (A) (A) (A) (A) (A) (A) (A) (A) (A) (A)
                 (A) (A) (A) (A) (A) (A) (A) (A) (A) (A) (A) (A)
                 (A) (A) (A) (A) (A) (A) (A) (A) (A) (A) (A) (A)
                 (A) (A) (A) (A) (A) (A) (A) (A) (A) (A) (A) (A)
                 (A) (A) (A) (A) (A) (A) (A) (A) (A) (A) (A) (A)
                 (A) (A) (A) (A) (A) (A) (A) (A) (A) (A)
 The electronic state is 1-A.
 Alpha  occ. eigenvalues --  -19.17644 -19.17097 -19.14137 -19.12926 -19.11806
 Alpha  occ. eigenvalues --  -14.35521 -14.35473 -14.32017 -14.29886 -10.31676
 Alpha  occ. eigenvalues --  -10.30570 -10.29126 -10.25842 -10.25036 -10.24614
 Alpha  occ. eigenvalues --  -10.24267 -10.23110 -10.22987 -10.22973 -10.22946
 Alpha  occ. eigenvalues --  -10.22422 -10.22383 -10.22055 -10.21961 -10.21876
 Alpha  occ. eigenvalues --  -10.21624 -10.21465 -10.21304 -10.20897 -10.20832
 Alpha  occ. eigenvalues --  -10.20715 -10.20408 -10.20401 -10.20381 -10.20060
 Alpha  occ. eigenvalues --  -10.20057 -10.19952 -10.19900 -10.19834 -10.19793
 Alpha  occ. eigenvalues --  -10.19791 -10.19756 -10.19688 -10.19534 -10.19403
 Alpha  occ. eigenvalues --  -10.19362 -10.19321 -10.19082 -10.19072 -10.19014
 Alpha  occ. eigenvalues --  -10.18963 -10.18904 -10.18771 -10.18656 -10.18611
 Alpha  occ. eigenvalues --  -10.18590 -10.18556 -10.18383 -10.18152 -10.18113
 Alpha  occ. eigenvalues --  -10.17993 -10.17879 -10.17308 -10.16280  -1.10857
 Alpha  occ. eigenvalues --   -1.08088  -1.06556  -1.02467  -0.99288  -0.98040
 Alpha  occ. eigenvalues --   -0.95731  -0.94549  -0.91634  -0.85182  -0.83188
 Alpha  occ. eigenvalues --   -0.82777  -0.82571  -0.82182  -0.82094  -0.81143
 Alpha  occ. eigenvalues --   -0.81031  -0.79866  -0.79510  -0.79385  -0.77380
 Alpha  occ. eigenvalues --   -0.77107  -0.76336  -0.76029  -0.75467  -0.75130
 Alpha  occ. eigenvalues --   -0.73764  -0.73326  -0.72494  -0.71673  -0.71345
 Alpha  occ. eigenvalues --   -0.70781  -0.69078  -0.68251  -0.67772  -0.67411
 Alpha  occ. eigenvalues --   -0.66912  -0.66850  -0.66055  -0.65882  -0.65721
 Alpha  occ. eigenvalues --   -0.64731  -0.63447  -0.62493  -0.62100  -0.61501
 Alpha  occ. eigenvalues --   -0.61284  -0.59162  -0.58865  -0.58312  -0.57344
 Alpha  occ. eigenvalues --   -0.57057  -0.56744  -0.55748  -0.55724  -0.55447
 Alpha  occ. eigenvalues --   -0.55103  -0.54404  -0.53627  -0.53435  -0.53376
 Alpha  occ. eigenvalues --   -0.52735  -0.52134  -0.51238  -0.50928  -0.50632
 Alpha  occ. eigenvalues --   -0.50063  -0.49763  -0.49106  -0.48984  -0.48724
 Alpha  occ. eigenvalues --   -0.48469  -0.48164  -0.47845  -0.47601  -0.47531
 Alpha  occ. eigenvalues --   -0.47242  -0.47038  -0.46971  -0.46528  -0.46371
 Alpha  occ. eigenvalues --   -0.45730  -0.45674  -0.45591  -0.45356  -0.45061
 Alpha  occ. eigenvalues --   -0.44972  -0.44652  -0.44550  -0.43963  -0.43779
 Alpha  occ. eigenvalues --   -0.43763  -0.43681  -0.43147  -0.42855  -0.42636
 Alpha  occ. eigenvalues --   -0.42463  -0.42213  -0.41950  -0.41597  -0.41477
 Alpha  occ. eigenvalues --   -0.41414  -0.41189  -0.40973  -0.40766  -0.40695
 Alpha  occ. eigenvalues --   -0.40662  -0.40280  -0.40046  -0.39675  -0.39455
 Alpha  occ. eigenvalues --   -0.39379  -0.39208  -0.39069  -0.38779  -0.38666
 Alpha  occ. eigenvalues --   -0.38411  -0.38041  -0.37848  -0.37708  -0.37514
 Alpha  occ. eigenvalues --   -0.37358  -0.37017  -0.36802  -0.36780  -0.36697
 Alpha  occ. eigenvalues --   -0.36287  -0.36119  -0.35911  -0.35628  -0.35593
 Alpha  occ. eigenvalues --   -0.35280  -0.35241  -0.35202  -0.35075  -0.34594
 Alpha  occ. eigenvalues --   -0.34455  -0.34344  -0.34023  -0.33874  -0.33582
 Alpha  occ. eigenvalues --   -0.33496  -0.33170  -0.33018  -0.32839  -0.32566
 Alpha  occ. eigenvalues --   -0.32453  -0.32112  -0.31705  -0.31353  -0.31230
 Alpha  occ. eigenvalues --   -0.31067  -0.30451  -0.30133  -0.29664  -0.29448
 Alpha  occ. eigenvalues --   -0.29171  -0.28859  -0.28440  -0.27813  -0.27454
 Alpha  occ. eigenvalues --   -0.27191  -0.26891  -0.26583  -0.26004  -0.25884
 Alpha  occ. eigenvalues --   -0.24971  -0.24422  -0.23794  -0.21723  -0.20026
 Alpha  occ. eigenvalues --   -0.19231
 Alpha virt. eigenvalues --   -0.10095  -0.08890  -0.04358  -0.02082  -0.00347
 Alpha virt. eigenvalues --    0.00325   0.00673   0.00891   0.01419   0.02284
 Alpha virt. eigenvalues --    0.02903   0.03662   0.03694   0.03795   0.04532
 Alpha virt. eigenvalues --    0.04889   0.05151   0.05301   0.05398   0.05604
 Alpha virt. eigenvalues --    0.05631   0.06235   0.06253   0.06265   0.06819
 Alpha virt. eigenvalues --    0.07236   0.07321   0.07617   0.07922   0.07980
 Alpha virt. eigenvalues --    0.08323   0.08498   0.08626   0.08990   0.09251
 Alpha virt. eigenvalues --    0.09488   0.09506   0.09745   0.09885   0.09927
 Alpha virt. eigenvalues --    0.10099   0.10234   0.10387   0.10458   0.10576
 Alpha virt. eigenvalues --    0.10786   0.11001   0.11094   0.11139   0.11254
 Alpha virt. eigenvalues --    0.11535   0.11601   0.11682   0.12015   0.12070
 Alpha virt. eigenvalues --    0.12319   0.12429   0.12680   0.12847   0.12988
 Alpha virt. eigenvalues --    0.13202   0.13359   0.13475   0.13561   0.13632
 Alpha virt. eigenvalues --    0.13858   0.13916   0.14273   0.14495   0.14676
 Alpha virt. eigenvalues --    0.14854   0.15040   0.15194   0.15430   0.15739
 Alpha virt. eigenvalues --    0.15980   0.16079   0.16217   0.16479   0.16721
 Alpha virt. eigenvalues --    0.16935   0.16971   0.17193   0.17530   0.17624
 Alpha virt. eigenvalues --    0.18002   0.18155   0.18397   0.18889   0.19179
 Alpha virt. eigenvalues --    0.19408   0.19790   0.19877   0.19909   0.20101
 Alpha virt. eigenvalues --    0.20469   0.20772   0.20910   0.21198   0.21386
 Alpha virt. eigenvalues --    0.21758   0.21952   0.22048   0.22301   0.22430
 Alpha virt. eigenvalues --    0.22487   0.22828   0.23250   0.23380   0.23465
 Alpha virt. eigenvalues --    0.23690   0.24140   0.24345   0.24522   0.24580
 Alpha virt. eigenvalues --    0.24897   0.25354   0.25660   0.25988   0.26071
 Alpha virt. eigenvalues --    0.26480   0.26636   0.26983   0.27062   0.27288
 Alpha virt. eigenvalues --    0.27555   0.28292   0.28726   0.29035   0.29113
 Alpha virt. eigenvalues --    0.29252   0.29809   0.30298   0.30822   0.30896
 Alpha virt. eigenvalues --    0.31772   0.32081   0.32131   0.32857   0.33341
 Alpha virt. eigenvalues --    0.33556   0.33861   0.34207   0.34729   0.34893
 Alpha virt. eigenvalues --    0.35290   0.35677   0.36253   0.36569   0.37643
 Alpha virt. eigenvalues --    0.37724   0.38033   0.38180   0.38654   0.38845
 Alpha virt. eigenvalues --    0.39182   0.39341   0.39694   0.39915   0.40006
 Alpha virt. eigenvalues --    0.40106   0.40377   0.40443   0.41012   0.41265
 Alpha virt. eigenvalues --    0.41289   0.41397   0.42168   0.42186   0.42362
 Alpha virt. eigenvalues --    0.42626   0.42677   0.42821   0.43140   0.43377
 Alpha virt. eigenvalues --    0.43503   0.43867   0.43915   0.44176   0.44216
 Alpha virt. eigenvalues --    0.44875   0.45009   0.45091   0.45283   0.45819
 Alpha virt. eigenvalues --    0.45971   0.46047   0.46119   0.46340   0.46735
 Alpha virt. eigenvalues --    0.46843   0.47022   0.47249   0.47461   0.47706
 Alpha virt. eigenvalues --    0.47991   0.48118   0.48287   0.48320   0.48818
 Alpha virt. eigenvalues --    0.48897   0.49205   0.49565   0.49701   0.49788
 Alpha virt. eigenvalues --    0.50081   0.50125   0.50446   0.50574   0.50945
 Alpha virt. eigenvalues --    0.51407   0.51638   0.51844   0.51886   0.52362
 Alpha virt. eigenvalues --    0.52562   0.52844   0.53147   0.53333   0.53635
 Alpha virt. eigenvalues --    0.53940   0.54434   0.54621   0.54934   0.55118
 Alpha virt. eigenvalues --    0.55225   0.55461   0.55528   0.55763   0.56125
 Alpha virt. eigenvalues --    0.56376   0.56497   0.56818   0.56866   0.57491
 Alpha virt. eigenvalues --    0.57534   0.57824   0.58037   0.58344   0.58502
 Alpha virt. eigenvalues --    0.58561   0.58603   0.58848   0.59262   0.59411
 Alpha virt. eigenvalues --    0.59587   0.59738   0.59793   0.60125   0.60189
 Alpha virt. eigenvalues --    0.60335   0.60388   0.60511   0.60681   0.60910
 Alpha virt. eigenvalues --    0.61031   0.61318   0.61373   0.61483   0.61689
 Alpha virt. eigenvalues --    0.61790   0.61831   0.61898   0.62126   0.62290
 Alpha virt. eigenvalues --    0.62576   0.62762   0.62792   0.63009   0.63139
 Alpha virt. eigenvalues --    0.63310   0.63388   0.63700   0.63861   0.63934
 Alpha virt. eigenvalues --    0.63987   0.64132   0.64236   0.64517   0.64663
 Alpha virt. eigenvalues --    0.64724   0.64861   0.64963   0.65111   0.65207
 Alpha virt. eigenvalues --    0.65423   0.65512   0.65700   0.66045   0.66048
 Alpha virt. eigenvalues --    0.66130   0.66261   0.66603   0.66770   0.66837
 Alpha virt. eigenvalues --    0.67004   0.67197   0.67310   0.67379   0.67414
 Alpha virt. eigenvalues --    0.67535   0.67738   0.67802   0.67853   0.68046
 Alpha virt. eigenvalues --    0.68193   0.68502   0.68638   0.68770   0.68942
 Alpha virt. eigenvalues --    0.69076   0.69211   0.69410   0.69543   0.69680
 Alpha virt. eigenvalues --    0.69983   0.70031   0.70152   0.70255   0.70326
 Alpha virt. eigenvalues --    0.70402   0.70525   0.70701   0.70818   0.71071
 Alpha virt. eigenvalues --    0.71254   0.71381   0.71414   0.71713   0.72002
 Alpha virt. eigenvalues --    0.72037   0.72264   0.72358   0.72455   0.72641
 Alpha virt. eigenvalues --    0.72871   0.72969   0.73094   0.73300   0.73422
 Alpha virt. eigenvalues --    0.73829   0.73925   0.74152   0.74292   0.74356
 Alpha virt. eigenvalues --    0.74463   0.74902   0.75159   0.75312   0.75573
 Alpha virt. eigenvalues --    0.75678   0.76011   0.76112   0.76681   0.76716
 Alpha virt. eigenvalues --    0.77041   0.77265   0.77404   0.77631   0.78141
 Alpha virt. eigenvalues --    0.78173   0.78237   0.78479   0.78692   0.78954
 Alpha virt. eigenvalues --    0.79292   0.79350   0.79482   0.79846   0.80436
 Alpha virt. eigenvalues --    0.80941   0.81102   0.81571   0.81888   0.82123
 Alpha virt. eigenvalues --    0.82590   0.83009   0.83240   0.83412   0.84053
 Alpha virt. eigenvalues --    0.84748   0.85299   0.85620   0.85718   0.86221
 Alpha virt. eigenvalues --    0.87060   0.87397   0.87622   0.88200   0.88462
 Alpha virt. eigenvalues --    0.89382   0.90026   0.90401   0.90565   0.91077
 Alpha virt. eigenvalues --    0.91252   0.91707   0.91973   0.92237   0.92780
 Alpha virt. eigenvalues --    0.93663   0.93906   0.94099   0.94487   0.95254
 Alpha virt. eigenvalues --    0.95622   0.96079   0.96283   0.96651   0.97260
 Alpha virt. eigenvalues --    0.97556   0.97651   0.98161   0.98302   0.98756
 Alpha virt. eigenvalues --    0.99515   0.99956   1.00568   1.00948   1.01677
 Alpha virt. eigenvalues --    1.02002   1.02198   1.02433   1.02710   1.03255
 Alpha virt. eigenvalues --    1.03565   1.03765   1.03912   1.04366   1.04802
 Alpha virt. eigenvalues --    1.05397   1.06032   1.06180   1.07076   1.07460
 Alpha virt. eigenvalues --    1.07698   1.07970   1.08591   1.09046   1.09232
 Alpha virt. eigenvalues --    1.09702   1.10413   1.10768   1.11433   1.11454
 Alpha virt. eigenvalues --    1.12406   1.12715   1.13289   1.14086   1.14516
 Alpha virt. eigenvalues --    1.14634   1.14902   1.15424   1.16097   1.16421
 Alpha virt. eigenvalues --    1.16648   1.17392   1.17478   1.18054   1.18305
 Alpha virt. eigenvalues --    1.18337   1.19523   1.19720   1.20319   1.21366
 Alpha virt. eigenvalues --    1.21702   1.21830   1.22156   1.22538   1.23316
 Alpha virt. eigenvalues --    1.23723   1.24005   1.24442   1.24719   1.25014
 Alpha virt. eigenvalues --    1.25194   1.25463   1.25934   1.26805   1.27059
 Alpha virt. eigenvalues --    1.27271   1.27599   1.27998   1.28518   1.28905
 Alpha virt. eigenvalues --    1.29510   1.29579   1.30163   1.30263   1.31169
 Alpha virt. eigenvalues --    1.31685   1.31753   1.31854   1.33433   1.33606
 Alpha virt. eigenvalues --    1.34090   1.34248   1.34539   1.34793   1.35062
 Alpha virt. eigenvalues --    1.35276   1.35909   1.36217   1.36375   1.36961
 Alpha virt. eigenvalues --    1.37509   1.37781   1.38049   1.38335   1.39188
 Alpha virt. eigenvalues --    1.39334   1.40031   1.40476   1.40730   1.41417
 Alpha virt. eigenvalues --    1.41532   1.41771   1.41902   1.42369   1.43774
 Alpha virt. eigenvalues --    1.44135   1.44740   1.45015   1.45254   1.45825
 Alpha virt. eigenvalues --    1.46907   1.47150   1.47470   1.47558   1.48325
 Alpha virt. eigenvalues --    1.48611   1.49029   1.49535   1.49737   1.50186
 Alpha virt. eigenvalues --    1.50312   1.50849   1.51140   1.51258   1.51498
 Alpha virt. eigenvalues --    1.51685   1.51994   1.52337   1.52483   1.52710
 Alpha virt. eigenvalues --    1.52805   1.53167   1.53487   1.53930   1.54556
 Alpha virt. eigenvalues --    1.54583   1.55023   1.55142   1.55522   1.56051
 Alpha virt. eigenvalues --    1.56545   1.56581   1.56884   1.57926   1.57993
 Alpha virt. eigenvalues --    1.58813   1.59011   1.59322   1.59417   1.60050
 Alpha virt. eigenvalues --    1.60245   1.60727   1.60818   1.61421   1.61455
 Alpha virt. eigenvalues --    1.61718   1.61994   1.62061   1.62214   1.62737
 Alpha virt. eigenvalues --    1.63174   1.63773   1.64210   1.64362   1.64439
 Alpha virt. eigenvalues --    1.64939   1.64994   1.65743   1.65776   1.65918
 Alpha virt. eigenvalues --    1.66353   1.66644   1.66930   1.67356   1.67595
 Alpha virt. eigenvalues --    1.67718   1.68332   1.68738   1.69105   1.69552
 Alpha virt. eigenvalues --    1.69725   1.70253   1.70429   1.70497   1.70615
 Alpha virt. eigenvalues --    1.70637   1.71256   1.71338   1.71496   1.71709
 Alpha virt. eigenvalues --    1.71834   1.72334   1.72580   1.72589   1.73053
 Alpha virt. eigenvalues --    1.73109   1.73224   1.73402   1.73481   1.73828
 Alpha virt. eigenvalues --    1.73865   1.74154   1.74382   1.74644   1.74881
 Alpha virt. eigenvalues --    1.75151   1.75351   1.75472   1.75590   1.75654
 Alpha virt. eigenvalues --    1.76299   1.76382   1.76653   1.76687   1.76876
 Alpha virt. eigenvalues --    1.77171   1.77256   1.77773   1.77848   1.77899
 Alpha virt. eigenvalues --    1.78368   1.78518   1.79108   1.79347   1.79505
 Alpha virt. eigenvalues --    1.79712   1.79747   1.79962   1.80492   1.80689
 Alpha virt. eigenvalues --    1.80882   1.81202   1.81351   1.81524   1.81626
 Alpha virt. eigenvalues --    1.81801   1.81938   1.82274   1.82398   1.82667
 Alpha virt. eigenvalues --    1.82867   1.83308   1.83401   1.83534   1.83798
 Alpha virt. eigenvalues --    1.84156   1.84178   1.84696   1.84861   1.85036
 Alpha virt. eigenvalues --    1.85171   1.85262   1.85497   1.85845   1.86232
 Alpha virt. eigenvalues --    1.86739   1.86816   1.86975   1.87411   1.87712
 Alpha virt. eigenvalues --    1.87940   1.88009   1.88329   1.88853   1.88940
 Alpha virt. eigenvalues --    1.89151   1.89331   1.89434   1.89877   1.90066
 Alpha virt. eigenvalues --    1.90468   1.90552   1.90914   1.91141   1.91265
 Alpha virt. eigenvalues --    1.91691   1.91812   1.92188   1.92452   1.92625
 Alpha virt. eigenvalues --    1.92876   1.93119   1.93628   1.93984   1.94029
 Alpha virt. eigenvalues --    1.94372   1.94421   1.94635   1.95287   1.95362
 Alpha virt. eigenvalues --    1.95544   1.95887   1.96134   1.96407   1.96488
 Alpha virt. eigenvalues --    1.96745   1.96931   1.97204   1.97596   1.97681
 Alpha virt. eigenvalues --    1.98371   1.98571   1.98710   1.98811   1.99145
 Alpha virt. eigenvalues --    1.99217   1.99678   2.00238   2.00340   2.00497
 Alpha virt. eigenvalues --    2.01031   2.01340   2.01707   2.01802   2.02428
 Alpha virt. eigenvalues --    2.02471   2.02528   2.03118   2.03472   2.03716
 Alpha virt. eigenvalues --    2.04357   2.04900   2.05132   2.05332   2.05864
 Alpha virt. eigenvalues --    2.06143   2.06529   2.06641   2.07243   2.07458
 Alpha virt. eigenvalues --    2.07637   2.07920   2.08579   2.08861   2.09272
 Alpha virt. eigenvalues --    2.09554   2.09755   2.10046   2.10374   2.10937
 Alpha virt. eigenvalues --    2.11420   2.11649   2.12058   2.12163   2.12707
 Alpha virt. eigenvalues --    2.13127   2.13532   2.13716   2.13831   2.14174
 Alpha virt. eigenvalues --    2.15047   2.15276   2.15881   2.15975   2.16060
 Alpha virt. eigenvalues --    2.16818   2.17026   2.17489   2.17890   2.17956
 Alpha virt. eigenvalues --    2.18804   2.18953   2.19101   2.19457   2.19844
 Alpha virt. eigenvalues --    2.20169   2.20957   2.21283   2.21474   2.21800
 Alpha virt. eigenvalues --    2.22861   2.22981   2.23078   2.23446   2.24622
 Alpha virt. eigenvalues --    2.24947   2.25167   2.25586   2.25646   2.25926
 Alpha virt. eigenvalues --    2.26193   2.26227   2.26889   2.27029   2.27576
 Alpha virt. eigenvalues --    2.28369   2.28403   2.28440   2.28498   2.29329
 Alpha virt. eigenvalues --    2.29828   2.30094   2.30261   2.30734   2.31200
 Alpha virt. eigenvalues --    2.31548   2.32168   2.32580   2.32800   2.33392
 Alpha virt. eigenvalues --    2.33457   2.33503   2.34143   2.34555   2.35370
 Alpha virt. eigenvalues --    2.35557   2.35875   2.35905   2.36205   2.36621
 Alpha virt. eigenvalues --    2.37079   2.37416   2.37641   2.37974   2.38724
 Alpha virt. eigenvalues --    2.39099   2.39256   2.39500   2.40226   2.40322
 Alpha virt. eigenvalues --    2.41184   2.41320   2.41486   2.42102   2.42553
 Alpha virt. eigenvalues --    2.42862   2.43117   2.43347   2.43725   2.43777
 Alpha virt. eigenvalues --    2.43894   2.44319   2.44600   2.45652   2.45731
 Alpha virt. eigenvalues --    2.46301   2.46638   2.47341   2.47672   2.48076
 Alpha virt. eigenvalues --    2.48155   2.48746   2.49212   2.49774   2.50251
 Alpha virt. eigenvalues --    2.50950   2.51097   2.51110   2.51370   2.52200
 Alpha virt. eigenvalues --    2.52418   2.52754   2.53579   2.54045   2.54297
 Alpha virt. eigenvalues --    2.54681   2.54789   2.54928   2.56018   2.56517
 Alpha virt. eigenvalues --    2.56851   2.58230   2.58256   2.58506   2.58691
 Alpha virt. eigenvalues --    2.59847   2.60136   2.60580   2.60866   2.61235
 Alpha virt. eigenvalues --    2.61347   2.61646   2.62093   2.63077   2.63311
 Alpha virt. eigenvalues --    2.63667   2.63711   2.64438   2.64702   2.65301
 Alpha virt. eigenvalues --    2.65542   2.65687   2.66340   2.66887   2.67142
 Alpha virt. eigenvalues --    2.67356   2.67783   2.68270   2.68965   2.69469
 Alpha virt. eigenvalues --    2.69863   2.70300   2.70479   2.71305   2.71524
 Alpha virt. eigenvalues --    2.71657   2.72131   2.72653   2.73118   2.74020
 Alpha virt. eigenvalues --    2.74273   2.75030   2.75289   2.76732   2.77141
 Alpha virt. eigenvalues --    2.77444   2.77674   2.78158   2.78366   2.78989
 Alpha virt. eigenvalues --    2.79204   2.79365   2.80913   2.81377   2.81600
 Alpha virt. eigenvalues --    2.82402   2.82680   2.82878   2.82977   2.83165
 Alpha virt. eigenvalues --    2.84138   2.84196   2.84421   2.84560   2.85402
 Alpha virt. eigenvalues --    2.86244   2.86559   2.86881   2.87105   2.87441
 Alpha virt. eigenvalues --    2.87812   2.88117   2.88209   2.89215   2.89565
 Alpha virt. eigenvalues --    2.89928   2.90549   2.91141   2.91549   2.91834
 Alpha virt. eigenvalues --    2.92036   2.92584   2.92816   2.92969   2.93445
 Alpha virt. eigenvalues --    2.93691   2.93929   2.94137   2.95372   2.95514
 Alpha virt. eigenvalues --    2.95996   2.96293   2.97512   2.97827   2.98629
 Alpha virt. eigenvalues --    2.98745   2.98961   2.99806   2.99878   3.00176
 Alpha virt. eigenvalues --    3.00623   3.01192   3.02338   3.02693   3.02864
 Alpha virt. eigenvalues --    3.03040   3.04124   3.04403   3.04517   3.04922
 Alpha virt. eigenvalues --    3.05943   3.06775   3.06928   3.07684   3.07985
 Alpha virt. eigenvalues --    3.08876   3.09577   3.11102   3.11892   3.13835
 Alpha virt. eigenvalues --    3.14483   3.15870   3.16822   3.17249   3.17432
 Alpha virt. eigenvalues --    3.17583   3.18805   3.20383   3.20955   3.21389
 Alpha virt. eigenvalues --    3.22298   3.22645   3.22771   3.24655   3.25621
 Alpha virt. eigenvalues --    3.25819   3.27685   3.31889   3.37242   3.40103
 Alpha virt. eigenvalues --    3.44185   3.44750   3.46225   3.46892   3.49637
 Alpha virt. eigenvalues --    3.51132   3.56394   3.62796   3.63868   3.65372
 Alpha virt. eigenvalues --    3.66463   3.67834   3.70573   3.73220   3.75779
          Condensed to atoms (all electrons):
 Mulliken charges:
               1
     1  C    0.121474
     2  C   -0.059739
     3  C   -0.082903
     4  C   -0.012918
     5  N   -0.155430
     6  C   -0.070560
     7  C   -0.061356
     8  C   -0.013087
     9  C   -0.081731
    10  C   -0.003083
    11  C    0.109102
    12  C    0.177702
    13  C    0.147237
    14  O   -0.177264
    15  O   -0.299979
    16  N   -0.063239
    17  C    0.164802
    18  C   -0.102754
    19  C   -0.050914
    20  C    0.204362
    21  C    0.053214
    22  C   -0.059672
    23  C   -0.004478
    24  N   -0.263304
    25  C    0.052614
    26  C   -0.168480
    27  C   -0.086006
    28  C    0.093592
    29  C    0.166604
    30  C    0.150503
    31  C   -0.029322
    32  N    0.017601
    33  C    0.047542
    34  C   -0.053064
    35  C   -0.091814
    36  C    0.086906
    37  C    0.040903
    38  C    0.118573
    39  O   -0.089257
    40  C   -0.223878
    41  C    0.184112
    42  O   -0.234831
    43  O   -0.325963
    44  C    0.116739
    45  C    0.278561
    46  C   -0.132060
    47  C   -0.150194
    48  C    0.014849
    49  C    0.193896
    50  C    0.005839
    51  C   -0.003368
    52  C    0.009194
    53  C    0.002732
    54  C   -0.028027
    55  C   -0.010028
    56  C    0.263225
    57  C   -0.092576
    58  C   -0.050640
    59  C   -0.070865
    60  C    0.046428
    61  C    0.026108
    62  C   -0.014520
    63  C   -0.023448
    64  C    0.003399
    65  H   -0.012296
    66  H   -0.010542
    67  H   -0.066808
    68  H    0.002086
    69  H    0.006512
    70  H    0.027710
    71  H    0.025063
    72  H    0.050481
    73  H   -0.105933
    74  H    0.003205
    75  H   -0.031370
    76  H    0.052780
    77  H    0.076394
    78  H    0.023595
    79  H    0.031225
    80  H    0.028468
    81  H    0.022863
    82  H    0.035842
    83  H   -0.012034
    84  H    0.019613
    85  H   -0.036000
    86  H   -0.010598
    87  H   -0.002145
    88  H    0.014355
    89  H    0.000888
    90  H    0.007268
    91  H    0.015441
    92  H    0.041605
    93  H    0.047568
    94  H    0.087881
    95  H    0.071747
    96  H    0.050848
    97  H    0.036273
    98  H    0.034498
    99  H    0.002312
   100  H   -0.004863
   101  H    0.013975
   102  H    0.027273
   103  H    0.039950
   104  H   -0.063198
   105  H    0.019370
   106  H   -0.023922
   107  H    0.016300
   108  H   -0.031964
   109  H    0.010112
   110  H   -0.045952
   111  H   -0.007049
   112  H    0.025332
   113  H   -0.013651
   114  H   -0.015382
   115  H    0.004907
   116  H    0.006480
   117  H    0.014437
   118  H   -0.145129
   119  H   -0.019283
   120  H   -0.001065
   121  H    0.032599
   122  H    0.038350
   123  H    0.025810
   124  H   -0.020406
   125  H   -0.000785
   126  H   -0.013650
   127  H    0.016014
   128  H    0.010377
   129  H    0.010930
   130  H   -0.025649
   131  H    0.011568
   132  H   -0.014490
   133  H    0.003387
   134  H    0.011210
   135  H   -0.004613
   136  H    0.034749
   137  H    0.026600
   138  H    0.065464
 Sum of Mulliken charges =   0.00000
 Mulliken charges with hydrogens summed into heavy atoms:
               1
     1  C    0.121474
     2  C   -0.072036
     3  C   -0.093445
     4  C   -0.079726
     5  N   -0.155430
     6  C   -0.070560
     7  C   -0.059269
     8  C   -0.006575
     9  C   -0.081731
    10  C    0.100171
    11  C    0.006374
    12  C    0.199112
    13  C    0.147237
    14  O   -0.177264
    15  O   -0.299979
    16  N   -0.036638
    17  C    0.164802
    18  C   -0.102754
    19  C   -0.050914
    20  C    0.204362
    21  C    0.184427
    22  C   -0.031204
    23  C    0.054227
    24  N   -0.263304
    25  C    0.052614
    26  C   -0.168480
    27  C   -0.086006
    28  C    0.093592
    29  C    0.138183
    30  C    0.137759
    31  C   -0.006811
    32  N    0.083065
    33  C    0.047542
    34  C   -0.053064
    35  C   -0.091814
    36  C    0.086906
    37  C    0.145517
    38  C    0.118573
    39  O   -0.089257
    40  C   -0.135997
    41  C    0.184112
    42  O   -0.234831
    43  O   -0.325963
    44  C    0.275608
    45  C    0.315371
    46  C   -0.136923
    47  C   -0.150194
    48  C    0.096047
    49  C    0.150068
    50  C   -0.001783
    51  C   -0.025220
    52  C   -0.036758
    53  C    0.007363
    54  C   -0.038502
    55  C    0.010889
    56  C    0.098813
    57  C   -0.093641
    58  C    0.046118
    59  C   -0.092056
    60  C    0.048793
    61  C    0.047415
    62  C   -0.040169
    63  C   -0.022983
    64  C    0.044746
 Electronic spatial extent (au):  <R**2>=         178523.7351
 Charge=              0.0000 electrons
 Dipole moment (field-independent basis, Debye):
    X=              1.0233    Y=              3.1484    Z=              0.2510  Tot=              3.3200
 Quadrupole moment (field-independent basis, Debye-Ang):
   XX=           -340.1366   YY=           -378.2876   ZZ=           -397.7305
   XY=            -24.6510   XZ=              5.1843   YZ=              0.0049
 Traceless Quadrupole moment (field-independent basis, Debye-Ang):
   XX=             31.9150   YY=             -6.2360   ZZ=            -25.6790
   XY=            -24.6510   XZ=              5.1843   YZ=              0.0049
 Octapole moment (field-independent basis, Debye-Ang**2):
  XXX=           -298.1961  YYY=             81.6335  ZZZ=             15.5158  XYY=           -201.6855
  XXY=           -173.9243  XXZ=           -202.8485  XZZ=             31.1358  YZZ=             -7.3331
  YYZ=             33.2860  XYZ=            -42.0830
 Hexadecapole moment (field-independent basis, Debye-Ang**3):
 XXXX=        -212815.3204 YYYY=         -17238.1906 ZZZZ=          -4006.3010 XXXY=          -3252.4834
 XXXZ=           1285.7646 YYYX=           -979.1536 YYYZ=           -195.2854 ZZZX=           -111.2623
 ZZZY=            -57.9611 XXYY=         -40631.6971 XXZZ=         -39210.2357 YYZZ=          -3473.9974
 XXYZ=           -169.4250 YYXZ=            -19.9815 ZZXY=            -32.2061
 N-N= 8.303968385664D+03 E-N=-2.294281196374D+04  KE= 2.702470008259D+03
 1\1\GINC-PEDRO-RYZENSSD\SP\RB3LYP TD-FC\SVP\C55H74N4O5\PADAWAN\02-Aug-
 2019\0\\# td=(NStates=1) B3LYP/SVP\\TD\\0,1\C,0,-5.0755052486,-1.93406
 96491,0.4364385198\C,0,-4.8200123202,2.8384002917,1.2346698529\C,0,-9.
 4802779375,3.2055413533,-0.2156800359\C,0,-9.8140294574,-1.6341842218,
 -0.7464571991\N,0,-5.1650056629,0.4743290558,0.7798864256\C,0,-4.45191
 38075,-0.6705237734,0.7531087543\C,0,-3.0598156681,-0.4861450492,1.162
 1912149\C,0,-3.111686134,1.0038292752,1.7793070365\C,0,-4.3899381869,1
 .516591477,1.1737609731\C,0,-2.9230608746,1.193986911,3.3383116938\C,0
 ,-2.0928913598,-0.6196719289,0.0280607517\C,0,-0.6829215044,-0.6919774
 143,0.4141338661\C,0,0.3650101624,-0.7335602289,-0.7668682444\O,0,0.11
 8763644,-0.9591182784,-1.8866622777\O,0,1.6408842855,-0.4974065138,-0.
 3474571884\N,0,-7.1204566403,2.7042476966,0.3591754267\C,0,-5.97274885
 03,3.4413185502,0.8568365406\C,0,-6.3232555113,4.8613125708,0.99317581
 04\C,0,-7.6737064674,4.8997088064,0.490215549\C,0,-8.2570966556,3.5342
 819219,0.0739275482\C,0,-5.4260631228,5.8014956647,1.5150327693\C,0,-8
 .4728845712,6.2283968513,0.4792064219\C,0,-9.4074386421,6.5380935313,-
 0.496662145\N,0,-9.2400522058,0.730430276,-0.3574682152\C,0,-9.9071245
 754,1.9148039791,-0.5113504042\C,0,-11.3339772642,1.7117947405,-0.7830
 321371\C,0,-11.4712710776,0.3318205222,-1.1479097457\C,0,-10.181420367
 7,-0.2518451362,-0.7568589284\C,0,-12.224950996,2.7685653581,-1.165429
 6333\C,0,-12.7800057401,-0.3669391734,-1.4101519749\C,0,-12.7882089516
 ,-0.7575190163,-2.8951476861\N,0,-7.4759365513,-1.3408957748,-0.141612
 6898\C,0,-8.5728188694,-2.1799067175,-0.631266489\C,0,-8.1199144304,-3
 .5237092531,-0.6282753948\C,0,-6.7517700861,-3.4257093992,-0.188206444
 5\C,0,-6.4320643098,-2.1280856272,0.1148765639\C,0,-8.813554113,-4.713
 8721367,-0.9402730217\C,0,-5.6003669819,-4.3573607712,0.0629372393\O,0
 ,-5.3526647567,-5.49139867,-0.0250697729\C,0,-4.4082784564,-3.18086884
 85,0.3855476169\C,0,-3.7391577137,-3.6500190954,1.6484413698\O,0,-3.99
 37044439,-3.3093288668,2.7808661547\O,0,-2.8083395216,-4.6177867516,1.
 3798984177\C,0,-2.3193866425,-5.3041898651,2.5960217418\C,0,2.65445761
 44,-0.7256164592,-1.27954198\C,0,3.9692101678,-0.5359240948,-0.6281349
 136\C,0,4.9927715338,0.2670077557,-1.004074364\C,0,4.8952987256,1.1464
 153732,-2.2375108679\C,0,6.261917937,0.4607738166,-0.2526141756\C,0,7.
 4708783282,-0.1587020531,-0.9965065176\C,0,8.7980414052,-0.1353475199,
 -0.0887272202\C,0,9.9841293386,-0.6824225689,-0.745791934\C,0,9.883374
 376,-2.1829120941,-0.9913984247\C,0,11.3306469149,-0.3304173564,0.0025
 697013\C,0,12.6506267369,-0.6432096382,-0.6787724003\C,0,13.8295115406
 ,-0.1205092771,0.1458366392\C,0,15.1895178636,-0.4649173732,-0.3710106
 59\C,0,15.5498145533,-1.9628851539,-0.1392526936\C,0,16.2834990942,0.5
 23446862,0.2195509774\C,0,17.7092558144,0.5861015279,-0.1994738488\C,0
 ,18.6502759519,1.4971140403,0.5786086771\C,0,20.1540273043,1.306348439
 4,0.2981915467\C,0,20.5206327622,1.8696635425,-1.1301610939\C,0,21.022
 7347948,2.0649878376,1.3423560238\H,0,-3.9008577461,3.3588771197,1.657
 870668\H,0,-10.1250203551,4.0407713192,-0.5575870814\H,0,-10.423166573
 1,-2.3999371492,-1.0595354266\H,0,-2.7655888859,-1.2131605513,1.914392
 3149\H,0,-2.2294342579,1.5511153347,1.2926321754\H,0,-1.702110469,0.82
 41687853,3.506769781\H,0,-2.9844639383,2.2253075805,3.7295931545\H,0,-
 3.5431639133,0.5461197965,4.0413193081\H,0,-2.4535008585,-1.2883935725
 ,-0.5139958468\H,0,-2.4795312925,0.2565818492,-0.7783545297\H,0,-0.511
 2169415,0.1722210757,0.866647026\H,0,-0.5420145408,-1.5945614147,1.112
 1287213\H,0,-4.7207868952,6.2341477829,0.7526580656\H,0,-6.1948146879,
 6.7118661013,2.1321825129\H,0,-5.1542435112,5.3041284568,2.4143055646\
 H,0,-8.0901240218,6.9294328178,1.3492664805\H,0,-9.4390592578,5.825262
 6868,-1.2531569018\H,0,-9.9197667233,7.4883475623,-0.6473249554\H,0,-1
 2.6152958916,3.3308022674,-0.3335111642\H,0,-12.0224060889,3.414415398
 9,-1.9729566125\H,0,-13.208681891,2.3688247182,-1.3563199874\H,0,-12.8
 027226455,-1.3023291596,-0.9023849896\H,0,-13.6848655111,0.1755917139,
 -1.2827706359\H,0,-12.5338890188,0.1665934724,-3.5135787022\H,0,-12.00
 29652645,-1.4015777314,-3.2394528974\H,0,-13.7489516487,-1.2524343382,
 -3.095067049\H,0,-9.7708536342,-4.9030296228,-0.5486671687\H,0,-9.1829
 422731,-4.6611140574,-2.1649533935\H,0,-8.177482923,-5.5919674637,-0.7
 314711026\H,0,-3.442966148,-3.315017792,-0.3656179104\H,0,-1.398860279
 ,-5.9502601217,2.3365169858\H,0,-2.1454729937,-4.376191103,3.508555298
 1\H,0,-3.2165846749,-5.6950946011,3.0855354291\H,0,2.6715210596,-1.788
 0564491,-1.7407752445\H,0,2.6813630308,0.0051929385,-2.1321009773\H,0,
 4.2306758393,-1.1998422985,0.2989077938\H,0,5.5517770069,2.2025727663,
 -2.0935440742\H,0,5.4299196092,0.689614924,-3.0473061322\H,0,3.8766677
 85,1.4515963464,-2.5329841235\H,0,6.4358015964,1.3937154965,-0.2022504
 161\H,0,6.1908471294,-0.2204719368,0.7664043478\H,0,7.346911476,-1.179
 5546801,-1.0214129009\H,0,7.8745069932,0.2755095716,-1.952250054\H,0,8
 .8706425517,0.8380926506,0.2017003183\H,0,8.6292759904,-0.9519793494,0
 .8806508775\H,0,10.1918618548,-0.3178292262,-1.6872032953\H,0,8.815541
 8704,-2.4497836716,-1.3622347713\H,0,10.5551905502,-2.7446760674,-1.56
 65472596\H,0,9.3784328634,-2.6515668423,-0.0172999993\H,0,11.312816579
 1,0.799078688,-0.005021917\H,0,11.1541613796,-0.7545006866,1.029002830
 5\H,0,12.3806727779,-1.7133329045,-0.6975629693\H,0,12.6534334955,-0.0
 904191209,-1.8048220159\H,0,13.8060217571,0.7289826091,0.3407069816\H,
 0,13.7158858156,-0.6945658844,1.0830751534\H,0,15.1141237566,-0.236562
 4501,-1.5757495883\H,0,14.9248680397,-2.5622188037,-0.9633256658\H,0,1
 6.5931431878,-2.404074444,-0.2940151854\H,0,15.1402092997,-2.219687101
 3,0.9878780592\H,0,16.0281030835,1.8320497753,-0.0688164226\H,0,15.997
 7644332,0.4352441477,1.2857119938\H,0,18.0247736991,-0.5446386744,0.07
 9228055\H,0,17.7121658022,0.5944213304,-1.3280712396\H,0,18.3556002495
 ,2.6159279887,0.2256779575\H,0,18.4625885131,1.4354093504,1.7143985899
 \H,0,20.4634126737,0.3390918702,0.2384049967\H,0,20.1996273193,3.06385
 46556,-1.2736592683\H,0,21.5406713108,1.8613342031,-1.3852216288\H,0,2
 0.1955445275,1.4343990616,-2.0735795395\H,0,20.9488801245,1.8092923972
 ,2.4054815848\H,0,22.0433471919,1.7014301704,1.1921933764\H,0,21.01806
 14355,3.2908622858,1.0869974376\H,0,-7.0265544885,1.8266515384,0.32213
 40595\H,0,-7.6515967081,-0.4624964256,0.0824981222\\Version=ES64L-G09R
 evD.01\State=1-A\HF=-2732.8746645\RMSD=5.189e-09\PG=C01 [X(C55H74N4O5)
 ]\\@


 IF YOU WANT TO LEARN FROM THE THEORETICAL PHYSICISTS ABOUT THE
 METHODS WHICH THEY USE, I ADVISE YOU TO FOLLOW THIS PRINCIPLE VERY STRICTLY:
 DON'T LISTEN TO THEIR WORDS; PAY ATTENTION, INSTEAD, TO THEIR ACTIONS.
 -- A.EINSTEIN, 1934
 Job cpu time:       0 days  4 hours 37 minutes 52.1 seconds.
 File lengths (MBytes):  RWF=   1953 Int=      0 D2E=      0 Chk=    148 Scr=      1
 Normal termination of Gaussian 09 at Fri Aug  2 21:59:24 2019.
