 Entering Gaussian System, Link 0=g16
 Input=Geometria-204-.com
 Output=Geometria-204-.log
 Initial command:
 /usr/local/g16/l1.exe "/home/padawan/israel-mol/dihydrobiliverdin/spectra/emi/Gau-32352.inp" -scrdir="/home/padawan/israel-mol/dihydrobiliverdin/spectra/emi/"
 Entering Link 1 = /usr/local/g16/l1.exe PID=     32354.
  
 Copyright (c) 1988,1990,1992,1993,1995,1998,2003,2009,2016,
            Gaussian, Inc.  All Rights Reserved.
  
 This is part of the Gaussian(R) 16 program.  It is based on
 the Gaussian(R) 09 system (copyright 2009, Gaussian, Inc.),
 the Gaussian(R) 03 system (copyright 2003, Gaussian, Inc.),
 the Gaussian(R) 98 system (copyright 1998, Gaussian, Inc.),
 the Gaussian(R) 94 system (copyright 1995, Gaussian, Inc.),
 the Gaussian 92(TM) system (copyright 1992, Gaussian, Inc.),
 the Gaussian 90(TM) system (copyright 1990, Gaussian, Inc.),
 the Gaussian 88(TM) system (copyright 1988, Gaussian, Inc.),
 the Gaussian 86(TM) system (copyright 1986, Carnegie Mellon
 University), and the Gaussian 82(TM) system (copyright 1983,
 Carnegie Mellon University). Gaussian is a federally registered
 trademark of Gaussian, Inc.
  
 This software contains proprietary and confidential information,
 including trade secrets, belonging to Gaussian, Inc.
  
 This software is provided under written license and may be
 used, copied, transmitted, or stored only in accord with that
 written license.
  
 The following legend is applicable only to US Government
 contracts under FAR:
  
                    RESTRICTED RIGHTS LEGEND
  
 Use, reproduction and disclosure by the US Government is
 subject to restrictions as set forth in subparagraphs (a)
 and (c) of the Commercial Computer Software - Restricted
 Rights clause in FAR 52.227-19.
  
 Gaussian, Inc.
 340 Quinnipiac St., Bldg. 40, Wallingford CT 06492
  
  
 ---------------------------------------------------------------
 Warning -- This program may not be used in any manner that
 competes with the business of Gaussian, Inc. or will provide
 assistance to any competitor of Gaussian, Inc.  The licensee
 of this program is prohibited from giving any competitor of
 Gaussian, Inc. access to this program.  By using this program,
 the user acknowledges that Gaussian, Inc. is engaged in the
 business of creating and licensing software in the field of
 computational chemistry and represents and warrants to the
 licensee that it is not a competitor of Gaussian, Inc. and that
 it will not use this program in any manner prohibited above.
 ---------------------------------------------------------------
  

 Cite this work as:
 Gaussian 16, Revision A.03,
 M. J. Frisch, G. W. Trucks, H. B. Schlegel, G. E. Scuseria, 
 M. A. Robb, J. R. Cheeseman, G. Scalmani, V. Barone, 
 G. A. Petersson, H. Nakatsuji, X. Li, M. Caricato, A. V. Marenich, 
 J. Bloino, B. G. Janesko, R. Gomperts, B. Mennucci, H. P. Hratchian, 
 J. V. Ortiz, A. F. Izmaylov, J. L. Sonnenberg, D. Williams-Young, 
 F. Ding, F. Lipparini, F. Egidi, J. Goings, B. Peng, A. Petrone, 
 T. Henderson, D. Ranasinghe, V. G. Zakrzewski, J. Gao, N. Rega, 
 G. Zheng, W. Liang, M. Hada, M. Ehara, K. Toyota, R. Fukuda, 
 J. Hasegawa, M. Ishida, T. Nakajima, Y. Honda, O. Kitao, H. Nakai, 
 T. Vreven, K. Throssell, J. A. Montgomery, Jr., J. E. Peralta, 
 F. Ogliaro, M. J. Bearpark, J. J. Heyd, E. N. Brothers, K. N. Kudin, 
 V. N. Staroverov, T. A. Keith, R. Kobayashi, J. Normand, 
 K. Raghavachari, A. P. Rendell, J. C. Burant, S. S. Iyengar, 
 J. Tomasi, M. Cossi, J. M. Millam, M. Klene, C. Adamo, R. Cammi, 
 J. W. Ochterski, R. L. Martin, K. Morokuma, O. Farkas, 
 J. B. Foresman, and D. J. Fox, Gaussian, Inc., Wallingford CT, 2016.
 
 ******************************************
 Gaussian 16:  ES64L-G16RevA.03 25-Dec-2016
                27-Jul-2019 
 ******************************************
 %nproc=4
 Will use up to    4 processors via shared memory.
 %Mem=3GB
 --------------------------
 # td=(NStates=1) B3LYP/SVP
 --------------------------
 1/38=1,172=1/1;
 2/12=2,17=6,18=5,40=1/2;
 3/5=18,7=101,11=9,25=1,30=1,74=-5/1,2,3,8;
 4//1;
 5/5=2,38=5/2;
 8/6=1,10=1,108=1/1;
 9/41=1,42=1,70=2/14;
 6/7=2,8=2,9=2,10=2/1;
 99/5=1,9=1/99;
 --
 TD
 --
 Symbolic Z-matrix:
 Charge =  0 Multiplicity = 1
 8                    -3.18579  -1.35062  -2.79502 
 8                     2.9588    3.17476   3.00135 
 8                     3.59019   1.59849   4.43921 
 8                     7.59775  -1.57833  -0.75548 
 8                     6.71338  -2.99387  -2.19999 
 8                    -2.52467   1.65667   1.53047 
 7                    -0.22541  -2.46815   0.97656 
 7                    -2.61485  -1.28002  -0.60662 
 7                     1.08193   0.02305  -0.7766 
 7                    -0.90515   1.56444  -0.17873 
 6                    -3.35071  -1.40304   0.68535 
 6                    -2.65291  -2.40506   1.60379 
 6                    -1.22285  -2.12595   1.83201 
 6                    -0.61749  -1.27218   2.84941 
 6                     0.67016  -1.16749   2.50686 
 6                     0.94077  -1.84557   1.33578 
 6                    -4.74104  -1.88882   0.1519 
 6                     1.71629  -0.25932   3.20011 
 6                    -4.78838  -2.05048  -1.1481 
 6                     2.19887  -1.78056   0.45512 
 6                     2.101    -0.93213  -0.63621 
 6                    -3.46668  -1.52932  -1.69855 
 6                     2.97255  -0.72842  -1.79978 
 6                    -1.3169   -0.55822   4.01153 
 6                    -5.82951  -2.09578   1.15744 
 6                     2.46165   0.33971  -2.47151 
 6                     1.79248   1.10431   2.63943 
 6                     1.27295   0.81822  -1.78507 
 6                     4.21779  -1.54134  -2.09802 
 6                    -5.87667  -2.54735  -2.11213 
 6                     5.41597  -1.12025  -1.29238 
 6                     3.16537   1.06686  -3.68039 
 6                     0.56438   1.93276  -1.95914 
 6                     2.81665   1.92908   3.42502 
 6                    -0.47284   2.38963  -1.16775 
 6                    -6.85408  -3.32055  -1.68611 
 6                     6.65234  -2.00123  -1.51879 
 6                    -1.36905   3.60511  -1.13003 
 6                    -2.24086   3.38634  -0.0896 
 6                    -1.91919   2.20237   0.51683 
 6                    -1.15423   4.58341  -2.05846 
 6                    -3.33438   4.37773   0.26916 
 6                    -1.92479   5.77545  -2.29936 
 1                    -3.39563  -0.36779   1.27738 
 1                    -2.65518  -3.45496   1.09018 
 1                    -3.21316  -2.42459   2.48618 
 1                    -0.21858  -2.85431   0.2116 
 1                    -1.86484  -0.61544  -0.70119 
 1                     1.59547  -0.13516   4.30475 
 1                     2.65788  -0.73423   3.03555 
 1                     2.91957  -2.70886   0.55374 
 1                    -2.17255  -1.18648   4.39261 
 1                    -0.45952  -0.24304   4.71503 
 1                    -1.9059    0.27319   3.48532 
 1                    -5.87851  -1.63985   2.04242 
 1                    -5.86803  -3.22321   1.65883 
 1                    -6.91887  -1.97487   0.8125 
 1                     2.0632    0.9272    1.55434 
 1                     0.90005   1.53055   2.79185 
 1                     0.32804   0.27335  -0.01574 
 1                     4.57836  -1.71938  -3.14622 
 1                     3.87481  -2.5702   -1.75049 
 1                    -5.83259  -2.12368  -3.11373 
 1                     4.91249  -1.21505  -0.21186 
 1                     5.73419  -0.04733  -1.57176 
 1                     3.85078   0.39585  -4.17416 
 1                     3.79668   1.91613  -3.26696 
 1                     2.39004   1.31915  -4.45387 
 1                     0.93041   2.71901  -2.84439 
 1                    -7.09796  -3.90886  -0.71268 
 1                    -7.74387  -3.5961   -2.35929 
 1                     3.70168   3.60518   3.60283 
 1                    -0.1591    4.71627  -2.63373 
 1                    -4.16676   4.36193  -0.56718 
 1                    -3.5929    3.87792   1.18473 
 1                    -3.01918   5.37417   0.68412 
 1                     8.15491  -2.35907  -0.87292 
 1                    -1.35969   6.64834  -3.01198 
 1                    -2.63507   6.2106   -1.64167 
 
 Stoichiometry    C33H36N4O6
 Framework group  C1[X(C33H36N4O6)]
 Deg. of freedom   231
 Full point group                 C1      NOp   1
 Largest Abelian subgroup         C1      NOp   1
 Largest concise Abelian subgroup C1      NOp   1
                         Standard orientation:                         
 ---------------------------------------------------------------------
 Center     Atomic      Atomic             Coordinates (Angstroms)
 Number     Number       Type             X           Y           Z
 ---------------------------------------------------------------------
      1          8           0       -3.151429   -1.604302   -2.698422
      2          8           0        2.940014    3.443825    2.709316
      3          8           0        3.532992    2.018377    4.311563
      4          8           0        7.594749   -1.704734   -0.461068
      5          8           0        6.720796   -3.253994   -1.768151
      6          8           0       -2.532754    1.825215    1.307376
      7          7           0       -0.263669   -2.352212    1.218084
      8          7           0       -2.615662   -1.314226   -0.519239
      9          7           0        1.095502   -0.063889   -0.758039
     10          7           0       -0.886481    1.545882   -0.355301
     11          6           0       -3.373639   -1.298545    0.765684
     12          6           0       -2.700390   -2.206521    1.793704
     13          6           0       -1.271677   -1.916494    2.016739
     14          6           0       -0.675004   -0.967644    2.951702
     15          6           0        0.618994   -0.908513    2.622440
     16          6           0        0.902293   -1.705083    1.531718
     17          6           0       -4.759583   -1.825731    0.260909
     18          6           0        1.662165    0.057848    3.237017
     19          6           0       -4.787208   -2.119380   -1.016344
     20          6           0        2.175160   -1.740326    0.670802
     21          6           0        2.103107   -1.007460   -0.503132
     22          6           0       -3.451858   -1.667546   -1.594414
     23          6           0        2.995418   -0.930769   -1.666277
     24          6           0       -1.386543   -0.133007    4.022454
     25          6           0       -5.866223   -1.920183    1.263466
     26          6           0        2.505624    0.066809   -2.452466
     27          6           0        1.760329    1.356214    2.541140
     28          6           0        1.310436    0.622262   -1.839147
     29          6           0        4.237655   -1.779520   -1.858298
     30          6           0       -5.864248   -2.704029   -1.943061
     31          6           0        5.426432   -1.287319   -1.079484
     32          6           0        3.235799    0.660820   -3.717121
     33          6           0        0.615320    1.718514   -2.138506
     34          6           0        2.779255    2.249248    3.255711
     35          6           0       -0.430337    2.262038   -1.415986
     36          6           0       -6.855713   -3.421966   -1.457031
     37          6           0        6.657996   -2.196336   -1.193256
     38          6           0       -1.315560    3.481839   -1.518261
     39          6           0       -2.206263    3.377538   -0.476055
     40          6           0       -1.905698    2.259505    0.253782
     41          6           0       -1.076415    4.358176   -2.538085
     42          6           0       -3.296123    4.408849   -0.239490
     43          6           0       -1.831688    5.525143   -2.912923
     44          1           0       -3.418472   -0.207769    1.247820
     45          1           0       -2.704147   -3.303471    1.390261
     46          1           0       -3.275127   -2.131214    2.663692
     47          1           0       -0.247984   -2.814766    0.496880
     48          1           0       -1.857989   -0.668616   -0.668400
     49          1           0        1.524501    0.295462    4.320912
     50          1           0        2.601812   -0.438650    3.138136
     51          1           0        2.885390   -2.659154    0.876279
     52          1           0       -2.254174   -0.712312    4.451043
     53          1           0       -0.537830    0.246000    4.704657
     54          1           0       -1.959024    0.644610    3.403878
     55          1           0       -5.925372   -1.375612    2.096176
     56          1           0       -5.923528   -2.989972    1.876853
     57          1           0       -6.948621   -1.826889    0.889276
     58          1           0        2.047054    1.066779    1.484689
     59          1           0        0.869582    1.802676    2.633765
     60          1           0        0.331681    0.268845   -0.039869
     61          1           0        4.613605   -2.066799   -2.876419
     62          1           0        3.879381   -2.764681   -1.413269
     63          1           0       -5.799831   -2.385580   -2.981848
     64          1           0        4.904510   -1.267024   -0.003754
     65          1           0        5.759260   -0.251151   -1.461667
     66          1           0        3.922842   -0.062502   -4.127764
     67          1           0        3.868237    1.543113   -3.381959
     68          1           0        2.475616    0.838481   -4.525575
     69          1           0        1.003134    2.407082   -3.093132
     70          1           0       -7.120978   -3.905548   -0.432854
     71          1           0       -7.736951   -3.758201   -2.113691
     72          1           0        3.677001    3.927888    3.276286
     73          1           0       -0.070824    4.423732   -3.106728
     74          1           0       -4.114840    4.313839   -1.084019
     75          1           0       -3.574241    4.007494    0.717831
     76          1           0       -2.978373    5.440111    0.076695
     77          1           0        8.146384   -2.497654   -0.488402
     78          1           0       -1.246843    6.316040   -3.701284
     79          1           0       -2.548484    6.030844   -2.315525
 ---------------------------------------------------------------------
 Rotational constants (GHZ):           0.0895630           0.0511807           0.0483518
 Standard basis: SVP (5D, 7F)
 There are   825 symmetry adapted cartesian basis functions of A   symmetry.
 There are   782 symmetry adapted basis functions of A   symmetry.
   782 basis functions,  1327 primitive gaussians,   825 cartesian basis functions
   155 alpha electrons      155 beta electrons
       nuclear repulsion energy      5203.6424520672 Hartrees.
 NAtoms=   79 NActive=   79 NUniq=   79 SFac= 1.00D+00 NAtFMM=   60 NAOKFM=T Big=T
 Integral buffers will be    131072 words long.
 Regular integral format.
 Two-electron integral symmetry is turned on.
 One-electron integrals computed using PRISM.
 NBasis=   782 RedAO= T EigKep=  3.19D-04  NBF=   782
 NBsUse=   782 1.00D-06 EigRej= -1.00D+00 NBFU=   782
 ExpMin= 1.22D-01 ExpMax= 2.27D+03 ExpMxC= 3.41D+02 IAcc=3 IRadAn=         5 AccDes= 0.00D+00
 Harris functional with IExCor=  402 and IRadAn=       5 diagonalized for initial guess.
 HarFok:  IExCor=  402 AccDes= 0.00D+00 IRadAn=         5 IDoV= 1 UseB2=F ITyADJ=14
 ICtDFT=  3500011 ScaDFX=  1.000000  1.000000  1.000000  1.000000
 FoFCou: FMM=F IPFlag=           0 FMFlag=      100000 FMFlg1=        2001
         NFxFlg=           0 DoJE=T BraDBF=F KetDBF=T FulRan=T
         wScrn=  0.000000 ICntrl=       500 IOpCl=  0 I1Cent=   200000004 NGrid=           0
         NMat0=    1 NMatS0=      1 NMatT0=    0 NMatD0=    1 NMtDS0=    0 NMtDT0=    0
 Petite list used in FoFCou.
 Requested convergence on RMS density matrix=1.00D-08 within 128 cycles.
 Requested convergence on MAX density matrix=1.00D-06.
 Requested convergence on             energy=1.00D-06.
 No special actions if energy rises.
 Integral accuracy reduced to 1.0D-05 until final iterations.
 EnCoef did     2 forward-backward iterations
 Initial convergence to 1.0D-05 achieved.  Increase integral accuracy.
 SCF Done:  E(RB3LYP) =  -1947.81031838     A.U. after   21 cycles
            NFock= 21  Conv=0.57D-08     -V/T= 2.0104
 DoSCS=F DFT=T ScalE2(SS,OS)=  1.000000  1.000000
 ExpMin= 1.22D-01 ExpMax= 2.27D+03 ExpMxC= 3.41D+02 IAcc=3 IRadAn=         5 AccDes= 0.00D+00
 HarFok:  IExCor=  205 AccDes= 0.00D+00 IRadAn=         5 IDoV=-2 UseB2=F ITyADJ=14
 ICtDFT= 12500011 ScaDFX=  1.000000  1.000000  1.000000  1.000000
 GSVD:  LWork=       -2193 too small for GESVD, short by        9890 words or        9890 for optimal perf.
 Range of M.O.s used for correlation:    44   782
 NBasis=   782 NAE=   155 NBE=   155 NFC=    43 NFV=     0
 NROrb=    739 NOA=   112 NOB=   112 NVA=   627 NVB=   627

 **** Warning!!: The smallest alpha delta epsilon is  0.49798781D-01

 Orbital symmetries:
       Occupied  (A) (A) (A) (A) (A) (A) (A) (A) (A) (A) (A) (A)
                 (A) (A) (A) (A) (A) (A) (A) (A) (A) (A) (A) (A)
                 (A) (A) (A) (A) (A) (A) (A) (A) (A) (A) (A) (A)
                 (A) (A) (A) (A) (A) (A) (A) (A) (A) (A) (A) (A)
                 (A) (A) (A) (A) (A) (A) (A) (A) (A) (A) (A) (A)
                 (A) (A) (A) (A) (A) (A) (A) (A) (A) (A) (A) (A)
                 (A) (A) (A) (A) (A) (A) (A) (A) (A) (A) (A) (A)
                 (A) (A) (A) (A) (A) (A) (A) (A) (A) (A) (A) (A)
                 (A) (A) (A) (A) (A) (A) (A) (A) (A) (A) (A) (A)
                 (A) (A) (A) (A) (A) (A) (A) (A) (A) (A) (A) (A)
                 (A) (A) (A) (A) (A) (A) (A) (A) (A) (A) (A) (A)
                 (A) (A) (A) (A) (A) (A) (A) (A) (A) (A) (A) (A)
                 (A) (A) (A) (A) (A) (A) (A) (A) (A) (A) (A)
       Virtual   (A) (A) (A) (A) (A) (A) (A) (A) (A) (A) (A) (A)
                 (A) (A) (A) (A) (A) (A) (A) (A) (A) (A) (A) (A)
                 (A) (A) (A) (A) (A) (A) (A) (A) (A) (A) (A) (A)
                 (A) (A) (A) (A) (A) (A) (A) (A) (A) (A) (A) (A)
                 (A) (A) (A) (A) (A) (A) (A) (A) (A) (A) (A) (A)
                 (A) (A) (A) (A) (A) (A) (A) (A) (A) (A) (A) (A)
                 (A) (A) (A) (A) (A) (A) (A) (A) (A) (A) (A) (A)
                 (A) (A) (A) (A) (A) (A) (A) (A) (A) (A) (A) (A)
                 (A) (A) (A) (A) (A) (A) (A) (A) (A) (A) (A) (A)
                 (A) (A) (A) (A) (A) (A) (A) (A) (A) (A) (A) (A)
                 (A) (A) (A) (A) (A) (A) (A) (A) (A) (A) (A) (A)
                 (A) (A) (A) (A) (A) (A) (A) (A) (A) (A) (A) (A)
                 (A) (A) (A) (A) (A) (A) (A) (A) (A) (A) (A) (A)
                 (A) (A) (A) (A) (A) (A) (A) (A) (A) (A) (A) (A)
                 (A) (A) (A) (A) (A) (A) (A) (A) (A) (A) (A) (A)
                 (A) (A) (A) (A) (A) (A) (A) (A) (A) (A) (A) (A)
                 (A) (A) (A) (A) (A) (A) (A) (A) (A) (A) (A) (A)
                 (A) (A) (A) (A) (A) (A) (A) (A) (A) (A) (A) (A)
                 (A) (A) (A) (A) (A) (A) (A) (A) (A) (A) (A) (A)
                 (A) (A) (A) (A) (A) (A) (A) (A) (A) (A) (A) (A)
                 (A) (A) (A) (A) (A) (A) (A) (A) (A) (A) (A) (A)
                 (A) (A) (A) (A) (A) (A) (A) (A) (A) (A) (A) (A)
                 (A) (A) (A) (A) (A) (A) (A) (A) (A) (A) (A) (A)
                 (A) (A) (A) (A) (A) (A) (A) (A) (A) (A) (A) (A)
                 (A) (A) (A) (A) (A) (A) (A) (A) (A) (A) (A) (A)
                 (A) (A) (A) (A) (A) (A) (A) (A) (A) (A) (A) (A)
                 (A) (A) (A) (A) (A) (A) (A) (A) (A) (A) (A) (A)
                 (A) (A) (A) (A) (A) (A) (A) (A) (A) (A) (A) (A)
                 (A) (A) (A) (A) (A) (A) (A) (A) (A) (A) (A) (A)
                 (A) (A) (A) (A) (A) (A) (A) (A) (A) (A) (A) (A)
                 (A) (A) (A) (A) (A) (A) (A) (A) (A) (A) (A) (A)
                 (A) (A) (A) (A) (A) (A) (A) (A) (A) (A) (A) (A)
                 (A) (A) (A) (A) (A) (A) (A) (A) (A) (A) (A) (A)
                 (A) (A) (A) (A) (A) (A) (A) (A) (A) (A) (A) (A)
                 (A) (A) (A) (A) (A) (A) (A) (A) (A) (A) (A) (A)
                 (A) (A) (A) (A) (A) (A) (A) (A) (A) (A) (A) (A)
                 (A) (A) (A) (A) (A) (A) (A) (A) (A) (A) (A) (A)
                 (A) (A) (A) (A) (A) (A) (A) (A) (A) (A) (A) (A)
                 (A) (A) (A) (A) (A) (A) (A) (A) (A) (A) (A) (A)
                 (A) (A) (A) (A) (A) (A) (A) (A) (A) (A) (A) (A)
                 (A) (A) (A) (A) (A) (A) (A) (A) (A) (A) (A) (A)
                 (A) (A) (A) (A) (A) (A) (A) (A) (A) (A) (A) (A)
                 (A) (A) (A) (A) (A) (A) (A) (A) (A) (A) (A) (A)
                 (A) (A) (A) (A) (A) (A) (A) (A) (A) (A) (A) (A)
                 (A) (A) (A) (A) (A) (A) (A) (A) (A) (A) (A) (A)
                 (A) (A) (A) (A) (A) (A) (A) (A) (A) (A) (A) (A)
                 (A) (A) (A) (A) (A) (A) (A) (A) (A) (A) (A) (A)
                 (A) (A) (A) (A) (A) (A) (A) (A) (A) (A) (A) (A)
                 (A) (A) (A) (A) (A) (A) (A) (A) (A) (A) (A) (A)
                 (A) (A) (A) (A) (A) (A) (A) (A) (A) (A) (A) (A)
                 (A) (A) (A) (A) (A) (A) (A) (A) (A) (A) (A) (A)
                 (A) (A) (A) (A) (A) (A) (A) (A) (A) (A) (A) (A)
                 (A) (A) (A)
     4 initial guesses have been made.
 Convergence on wavefunction:    0.001000000000000
 Iteration     1 Dimension     4 NMult     0 NNew      4
 CISAX will form     4 AO SS matrices at one time.
 Iteration     2 Dimension     6 NMult     4 NNew      2
 Iteration     3 Dimension     8 NMult     6 NNew      2
 Iteration     4 Dimension    10 NMult     8 NNew      2
 Iteration     5 Dimension    12 NMult    10 NNew      2
 Iteration     6 Dimension    14 NMult    12 NNew      2
 ***********************************************************************
 Excited states from <AA,BB:AA,BB> singles matrix:
 ***********************************************************************
 
 Ground to excited state transition densities written to RWF  633
 Ground to excited state transition electric dipole moments (Au):
       state          X           Y           Z        Dip. S.      Osc.
         1         0.0159     -0.0862      0.1057      0.0188      0.0003
 Ground to excited state transition velocity dipole moments (Au):
       state          X           Y           Z        Dip. S.      Osc.
         1         0.0004      0.0019     -0.0030      0.0000      0.0003
 Ground to excited state transition magnetic dipole moments (Au):
       state          X           Y           Z
         1         0.1375      0.1989      0.2165
 Ground to excited state transition velocity quadrupole moments (Au):
       state          XX          YY          ZZ          XY          XZ          YZ
         1         0.0036      0.0102     -0.0116     -0.0003     -0.0018     -0.0031
 <0|del|b> * <b|rxdel|0> + <0|del|b> * <b|delr+rdel|0>
 Rotatory Strengths (R) in cgs (10**-40 erg-esu-cm/Gauss)
       state          XX          YY          ZZ    R(velocity)    E-M Angle
         1        -3.5024     -7.9776      5.9139     -1.8554      100.23
 1/2[<0|r|b>*<b|rxdel|0> + (<0|rxdel|b>*<b|r|0>)*]
 Rotatory Strengths (R) in cgs (10**-40 erg-esu-cm/Gauss)
       state          XX          YY          ZZ     R(length)
         1        -1.5450     12.1257    -16.1774     -1.8655
  1/2[<0|del|b>*<b|r|0> + (<0|r|b>*<b|del|0>)*] (Au)
       state          X           Y           Z        Dip. S.   Osc.(frdel)
         1         0.0000     -0.0002     -0.0003      0.0005      0.0003

 Excitation energies and oscillator strengths:
 
 Excited State   1:      Singlet-A      0.7190 eV 1724.35 nm  f=0.0003  <S**2>=0.000
     155 ->156         0.70332
 This state for optimization and/or second-order correction.
 Total Energy, E(TD-HF/TD-DFT) =  -1947.78389484    
 Copying the excited state density for this state as the 1-particle RhoCI density.
 SavETr:  write IOETrn=   770 NScale= 10 NData=  16 NLR=1 NState=    1 LETran=      28.

 **********************************************************************

            Population analysis using the SCF density.

 **********************************************************************

 Orbital symmetries:
       Occupied  (A) (A) (A) (A) (A) (A) (A) (A) (A) (A) (A) (A)
                 (A) (A) (A) (A) (A) (A) (A) (A) (A) (A) (A) (A)
                 (A) (A) (A) (A) (A) (A) (A) (A) (A) (A) (A) (A)
                 (A) (A) (A) (A) (A) (A) (A) (A) (A) (A) (A) (A)
                 (A) (A) (A) (A) (A) (A) (A) (A) (A) (A) (A) (A)
                 (A) (A) (A) (A) (A) (A) (A) (A) (A) (A) (A) (A)
                 (A) (A) (A) (A) (A) (A) (A) (A) (A) (A) (A) (A)
                 (A) (A) (A) (A) (A) (A) (A) (A) (A) (A) (A) (A)
                 (A) (A) (A) (A) (A) (A) (A) (A) (A) (A) (A) (A)
                 (A) (A) (A) (A) (A) (A) (A) (A) (A) (A) (A) (A)
                 (A) (A) (A) (A) (A) (A) (A) (A) (A) (A) (A) (A)
                 (A) (A) (A) (A) (A) (A) (A) (A) (A) (A) (A) (A)
                 (A) (A) (A) (A) (A) (A) (A) (A) (A) (A) (A)
       Virtual   (A) (A) (A) (A) (A) (A) (A) (A) (A) (A) (A) (A)
                 (A) (A) (A) (A) (A) (A) (A) (A) (A) (A) (A) (A)
                 (A) (A) (A) (A) (A) (A) (A) (A) (A) (A) (A) (A)
                 (A) (A) (A) (A) (A) (A) (A) (A) (A) (A) (A) (A)
                 (A) (A) (A) (A) (A) (A) (A) (A) (A) (A) (A) (A)
                 (A) (A) (A) (A) (A) (A) (A) (A) (A) (A) (A) (A)
                 (A) (A) (A) (A) (A) (A) (A) (A) (A) (A) (A) (A)
                 (A) (A) (A) (A) (A) (A) (A) (A) (A) (A) (A) (A)
                 (A) (A) (A) (A) (A) (A) (A) (A) (A) (A) (A) (A)
                 (A) (A) (A) (A) (A) (A) (A) (A) (A) (A) (A) (A)
                 (A) (A) (A) (A) (A) (A) (A) (A) (A) (A) (A) (A)
                 (A) (A) (A) (A) (A) (A) (A) (A) (A) (A) (A) (A)
                 (A) (A) (A) (A) (A) (A) (A) (A) (A) (A) (A) (A)
                 (A) (A) (A) (A) (A) (A) (A) (A) (A) (A) (A) (A)
                 (A) (A) (A) (A) (A) (A) (A) (A) (A) (A) (A) (A)
                 (A) (A) (A) (A) (A) (A) (A) (A) (A) (A) (A) (A)
                 (A) (A) (A) (A) (A) (A) (A) (A) (A) (A) (A) (A)
                 (A) (A) (A) (A) (A) (A) (A) (A) (A) (A) (A) (A)
                 (A) (A) (A) (A) (A) (A) (A) (A) (A) (A) (A) (A)
                 (A) (A) (A) (A) (A) (A) (A) (A) (A) (A) (A) (A)
                 (A) (A) (A) (A) (A) (A) (A) (A) (A) (A) (A) (A)
                 (A) (A) (A) (A) (A) (A) (A) (A) (A) (A) (A) (A)
                 (A) (A) (A) (A) (A) (A) (A) (A) (A) (A) (A) (A)
                 (A) (A) (A) (A) (A) (A) (A) (A) (A) (A) (A) (A)
                 (A) (A) (A) (A) (A) (A) (A) (A) (A) (A) (A) (A)
                 (A) (A) (A) (A) (A) (A) (A) (A) (A) (A) (A) (A)
                 (A) (A) (A) (A) (A) (A) (A) (A) (A) (A) (A) (A)
                 (A) (A) (A) (A) (A) (A) (A) (A) (A) (A) (A) (A)
                 (A) (A) (A) (A) (A) (A) (A) (A) (A) (A) (A) (A)
                 (A) (A) (A) (A) (A) (A) (A) (A) (A) (A) (A) (A)
                 (A) (A) (A) (A) (A) (A) (A) (A) (A) (A) (A) (A)
                 (A) (A) (A) (A) (A) (A) (A) (A) (A) (A) (A) (A)
                 (A) (A) (A) (A) (A) (A) (A) (A) (A) (A) (A) (A)
                 (A) (A) (A) (A) (A) (A) (A) (A) (A) (A) (A) (A)
                 (A) (A) (A) (A) (A) (A) (A) (A) (A) (A) (A) (A)
                 (A) (A) (A) (A) (A) (A) (A) (A) (A) (A) (A) (A)
                 (A) (A) (A) (A) (A) (A) (A) (A) (A) (A) (A) (A)
                 (A) (A) (A) (A) (A) (A) (A) (A) (A) (A) (A) (A)
                 (A) (A) (A) (A) (A) (A) (A) (A) (A) (A) (A) (A)
                 (A) (A) (A) (A) (A) (A) (A) (A) (A) (A) (A) (A)
                 (A) (A) (A) (A) (A) (A) (A) (A) (A) (A) (A) (A)
                 (A) (A) (A) (A) (A) (A) (A) (A) (A) (A) (A) (A)
                 (A) (A) (A) (A) (A) (A) (A) (A) (A) (A) (A) (A)
                 (A) (A) (A) (A) (A) (A) (A) (A) (A) (A) (A) (A)
                 (A) (A) (A) (A) (A) (A) (A) (A) (A) (A) (A) (A)
                 (A) (A) (A) (A) (A) (A) (A) (A) (A) (A) (A) (A)
                 (A) (A) (A) (A) (A) (A) (A) (A) (A) (A) (A) (A)
                 (A) (A) (A) (A) (A) (A) (A) (A) (A) (A) (A) (A)
                 (A) (A) (A) (A) (A) (A) (A) (A) (A) (A) (A) (A)
                 (A) (A) (A) (A) (A) (A) (A) (A) (A) (A) (A) (A)
                 (A) (A) (A) (A) (A) (A) (A) (A) (A) (A) (A) (A)
                 (A) (A) (A) (A) (A) (A) (A) (A) (A) (A) (A) (A)
                 (A) (A) (A)
 The electronic state is 1-A.
 Alpha  occ. eigenvalues --  -19.20781 -19.18882 -19.14335 -19.11866 -19.11334
 Alpha  occ. eigenvalues --  -19.08740 -14.37876 -14.35997 -14.31585 -14.30915
 Alpha  occ. eigenvalues --  -10.33490 -10.32211 -10.27665 -10.26536 -10.26130
 Alpha  occ. eigenvalues --  -10.26088 -10.25175 -10.24211 -10.23172 -10.23146
 Alpha  occ. eigenvalues --  -10.22947 -10.22895 -10.22869 -10.22479 -10.22242
 Alpha  occ. eigenvalues --  -10.22118 -10.21989 -10.21718 -10.20815 -10.20358
 Alpha  occ. eigenvalues --  -10.20346 -10.20220 -10.20179 -10.19840 -10.19767
 Alpha  occ. eigenvalues --  -10.19436 -10.19269 -10.19046 -10.18361 -10.18331
 Alpha  occ. eigenvalues --  -10.17822 -10.16181 -10.16028  -1.15071  -1.08600
 Alpha  occ. eigenvalues --   -1.04559  -1.03156  -1.01706  -1.00051  -0.98589
 Alpha  occ. eigenvalues --   -0.94659  -0.93533  -0.90525  -0.84584  -0.82721
 Alpha  occ. eigenvalues --   -0.82045  -0.81651  -0.80023  -0.79354  -0.78662
 Alpha  occ. eigenvalues --   -0.77863  -0.76874  -0.75505  -0.74420  -0.72486
 Alpha  occ. eigenvalues --   -0.70420  -0.70053  -0.69678  -0.69352  -0.68281
 Alpha  occ. eigenvalues --   -0.67490  -0.65776  -0.63425  -0.61541  -0.60878
 Alpha  occ. eigenvalues --   -0.59787  -0.59109  -0.58152  -0.57531  -0.57195
 Alpha  occ. eigenvalues --   -0.56962  -0.56460  -0.56075  -0.53120  -0.52980
 Alpha  occ. eigenvalues --   -0.52387  -0.51934  -0.51517  -0.51040  -0.50614
 Alpha  occ. eigenvalues --   -0.50018  -0.49222  -0.48781  -0.48424  -0.47897
 Alpha  occ. eigenvalues --   -0.47665  -0.47243  -0.47138  -0.46537  -0.46090
 Alpha  occ. eigenvalues --   -0.45442  -0.45124  -0.44632  -0.43930  -0.43555
 Alpha  occ. eigenvalues --   -0.43401  -0.43102  -0.42879  -0.42755  -0.42250
 Alpha  occ. eigenvalues --   -0.42065  -0.41621  -0.41503  -0.41250  -0.40666
 Alpha  occ. eigenvalues --   -0.40537  -0.40282  -0.39909  -0.39682  -0.39430
 Alpha  occ. eigenvalues --   -0.39118  -0.38657  -0.38390  -0.38216  -0.37779
 Alpha  occ. eigenvalues --   -0.37394  -0.37314  -0.37051  -0.36879  -0.36159
 Alpha  occ. eigenvalues --   -0.35836  -0.35452  -0.35025  -0.34901  -0.34500
 Alpha  occ. eigenvalues --   -0.34353  -0.33788  -0.32880  -0.32665  -0.31178
 Alpha  occ. eigenvalues --   -0.30264  -0.30192  -0.29708  -0.29229  -0.28575
 Alpha  occ. eigenvalues --   -0.28008  -0.26464  -0.26121  -0.24894  -0.24269
 Alpha  occ. eigenvalues --   -0.24126  -0.23558  -0.23476  -0.22496  -0.18729
 Alpha virt. eigenvalues --   -0.13749  -0.08935  -0.03162  -0.02879  -0.01282
 Alpha virt. eigenvalues --   -0.01247   0.01705   0.02208   0.02757   0.03059
 Alpha virt. eigenvalues --    0.03830   0.04020   0.04454   0.04912   0.05193
 Alpha virt. eigenvalues --    0.05415   0.05833   0.06650   0.06754   0.07603
 Alpha virt. eigenvalues --    0.07762   0.08391   0.08611   0.09015   0.09093
 Alpha virt. eigenvalues --    0.09344   0.09810   0.10198   0.10269   0.10573
 Alpha virt. eigenvalues --    0.10963   0.11342   0.11505   0.11897   0.12462
 Alpha virt. eigenvalues --    0.12890   0.13244   0.13737   0.13900   0.14197
 Alpha virt. eigenvalues --    0.14451   0.14621   0.15250   0.15495   0.15804
 Alpha virt. eigenvalues --    0.15822   0.16409   0.16781   0.17472   0.17857
 Alpha virt. eigenvalues --    0.18577   0.19052   0.19141   0.19965   0.20316
 Alpha virt. eigenvalues --    0.21167   0.21373   0.21855   0.22409   0.22639
 Alpha virt. eigenvalues --    0.23089   0.23594   0.24361   0.24670   0.25046
 Alpha virt. eigenvalues --    0.25289   0.25464   0.26521   0.26761   0.26949
 Alpha virt. eigenvalues --    0.27346   0.28074   0.28463   0.28677   0.28961
 Alpha virt. eigenvalues --    0.29399   0.30011   0.30246   0.30974   0.31141
 Alpha virt. eigenvalues --    0.31605   0.31998   0.32660   0.33341   0.33910
 Alpha virt. eigenvalues --    0.34318   0.34680   0.35987   0.36394   0.36732
 Alpha virt. eigenvalues --    0.37730   0.38172   0.38467   0.38833   0.39334
 Alpha virt. eigenvalues --    0.39587   0.40270   0.40546   0.41423   0.41774
 Alpha virt. eigenvalues --    0.42070   0.42792   0.42996   0.43351   0.43597
 Alpha virt. eigenvalues --    0.44049   0.44197   0.44482   0.44696   0.45109
 Alpha virt. eigenvalues --    0.45265   0.46057   0.46165   0.46769   0.47093
 Alpha virt. eigenvalues --    0.47344   0.47645   0.47855   0.48427   0.48535
 Alpha virt. eigenvalues --    0.49033   0.49171   0.49720   0.49996   0.50243
 Alpha virt. eigenvalues --    0.50526   0.50959   0.51408   0.51595   0.52041
 Alpha virt. eigenvalues --    0.52287   0.52603   0.53324   0.53470   0.53581
 Alpha virt. eigenvalues --    0.53778   0.54097   0.54689   0.54834   0.55385
 Alpha virt. eigenvalues --    0.55918   0.56393   0.56575   0.57269   0.57581
 Alpha virt. eigenvalues --    0.58040   0.58526   0.58734   0.58892   0.59225
 Alpha virt. eigenvalues --    0.59424   0.59919   0.59975   0.60309   0.60595
 Alpha virt. eigenvalues --    0.60793   0.60995   0.61192   0.61720   0.62082
 Alpha virt. eigenvalues --    0.62322   0.62531   0.62850   0.63092   0.63362
 Alpha virt. eigenvalues --    0.63486   0.63877   0.64401   0.64552   0.64665
 Alpha virt. eigenvalues --    0.64880   0.65039   0.65208   0.65334   0.65589
 Alpha virt. eigenvalues --    0.65825   0.65930   0.66264   0.66683   0.66810
 Alpha virt. eigenvalues --    0.67111   0.67678   0.67789   0.67956   0.68466
 Alpha virt. eigenvalues --    0.68658   0.68792   0.69105   0.69527   0.69602
 Alpha virt. eigenvalues --    0.70314   0.70902   0.71047   0.71449   0.71686
 Alpha virt. eigenvalues --    0.72123   0.72529   0.72620   0.73142   0.73373
 Alpha virt. eigenvalues --    0.73704   0.74192   0.74360   0.75068   0.75269
 Alpha virt. eigenvalues --    0.75759   0.76317   0.76429   0.77116   0.77354
 Alpha virt. eigenvalues --    0.78035   0.78404   0.78918   0.79592   0.79710
 Alpha virt. eigenvalues --    0.80149   0.80540   0.81384   0.81718   0.82121
 Alpha virt. eigenvalues --    0.82942   0.83599   0.83914   0.84289   0.84754
 Alpha virt. eigenvalues --    0.85329   0.85725   0.86251   0.87035   0.87731
 Alpha virt. eigenvalues --    0.88063   0.88205   0.89321   0.89982   0.90787
 Alpha virt. eigenvalues --    0.92096   0.92343   0.92447   0.92789   0.93240
 Alpha virt. eigenvalues --    0.93992   0.94428   0.95124   0.95325   0.95997
 Alpha virt. eigenvalues --    0.96247   0.96887   0.97355   0.97837   0.98228
 Alpha virt. eigenvalues --    0.98707   0.99304   1.00691   1.01350   1.02094
 Alpha virt. eigenvalues --    1.02615   1.03639   1.04971   1.05280   1.05686
 Alpha virt. eigenvalues --    1.06754   1.07270   1.07943   1.08968   1.09728
 Alpha virt. eigenvalues --    1.10212   1.10828   1.11964   1.12433   1.12744
 Alpha virt. eigenvalues --    1.13616   1.13967   1.14309   1.14938   1.15162
 Alpha virt. eigenvalues --    1.15808   1.16803   1.17696   1.18110   1.18393
 Alpha virt. eigenvalues --    1.19026   1.20053   1.21237   1.21318   1.22269
 Alpha virt. eigenvalues --    1.22768   1.23205   1.23777   1.24152   1.24245
 Alpha virt. eigenvalues --    1.24959   1.25808   1.25889   1.26416   1.27434
 Alpha virt. eigenvalues --    1.28502   1.28833   1.29126   1.29707   1.30476
 Alpha virt. eigenvalues --    1.31266   1.31389   1.32209   1.32483   1.33853
 Alpha virt. eigenvalues --    1.34536   1.35114   1.35490   1.36378   1.37185
 Alpha virt. eigenvalues --    1.38106   1.38890   1.39414   1.39685   1.41304
 Alpha virt. eigenvalues --    1.41455   1.42645   1.43726   1.44201   1.45229
 Alpha virt. eigenvalues --    1.46430   1.46996   1.47578   1.47675   1.47864
 Alpha virt. eigenvalues --    1.48297   1.49236   1.49698   1.50230   1.50343
 Alpha virt. eigenvalues --    1.51812   1.52053   1.52383   1.52888   1.53295
 Alpha virt. eigenvalues --    1.53647   1.54246   1.55522   1.56055   1.56807
 Alpha virt. eigenvalues --    1.57429   1.57819   1.58336   1.58997   1.59252
 Alpha virt. eigenvalues --    1.59739   1.60422   1.60742   1.61276   1.61753
 Alpha virt. eigenvalues --    1.62318   1.62654   1.63112   1.63660   1.64155
 Alpha virt. eigenvalues --    1.65546   1.65610   1.66058   1.66307   1.67038
 Alpha virt. eigenvalues --    1.67153   1.67679   1.68119   1.68430   1.69121
 Alpha virt. eigenvalues --    1.69486   1.69783   1.70689   1.71196   1.71474
 Alpha virt. eigenvalues --    1.71943   1.72183   1.73231   1.73688   1.74288
 Alpha virt. eigenvalues --    1.74521   1.74763   1.75445   1.75842   1.76081
 Alpha virt. eigenvalues --    1.76245   1.76869   1.77258   1.77528   1.77869
 Alpha virt. eigenvalues --    1.78168   1.78547   1.79264   1.79438   1.79837
 Alpha virt. eigenvalues --    1.79938   1.80476   1.81236   1.81411   1.81821
 Alpha virt. eigenvalues --    1.82171   1.83003   1.83158   1.83258   1.83572
 Alpha virt. eigenvalues --    1.84024   1.84318   1.85221   1.85447   1.85783
 Alpha virt. eigenvalues --    1.86177   1.86904   1.87133   1.87432   1.87878
 Alpha virt. eigenvalues --    1.88353   1.88453   1.89388   1.89887   1.90095
 Alpha virt. eigenvalues --    1.90866   1.91235   1.91743   1.91889   1.92460
 Alpha virt. eigenvalues --    1.92946   1.93072   1.93776   1.94118   1.94681
 Alpha virt. eigenvalues --    1.94842   1.95440   1.96424   1.97263   1.97655
 Alpha virt. eigenvalues --    1.98042   1.98588   1.98874   1.99466   1.99641
 Alpha virt. eigenvalues --    2.00279   2.00688   2.00840   2.02226   2.02338
 Alpha virt. eigenvalues --    2.02739   2.04035   2.04219   2.04325   2.04659
 Alpha virt. eigenvalues --    2.05472   2.05736   2.06009   2.06729   2.06844
 Alpha virt. eigenvalues --    2.07092   2.07443   2.08253   2.08563   2.09144
 Alpha virt. eigenvalues --    2.10727   2.11019   2.12547   2.13015   2.13200
 Alpha virt. eigenvalues --    2.14220   2.14740   2.14914   2.15170   2.15664
 Alpha virt. eigenvalues --    2.16544   2.16699   2.17291   2.17991   2.18605
 Alpha virt. eigenvalues --    2.19372   2.19528   2.21575   2.22327   2.22858
 Alpha virt. eigenvalues --    2.23383   2.23978   2.24821   2.25132   2.25915
 Alpha virt. eigenvalues --    2.26367   2.27190   2.27538   2.28106   2.28465
 Alpha virt. eigenvalues --    2.29052   2.29594   2.30082   2.31062   2.31775
 Alpha virt. eigenvalues --    2.32012   2.33284   2.34034   2.34649   2.34925
 Alpha virt. eigenvalues --    2.35802   2.36999   2.37564   2.37722   2.39763
 Alpha virt. eigenvalues --    2.40126   2.41064   2.41214   2.42280   2.42492
 Alpha virt. eigenvalues --    2.42958   2.43183   2.43688   2.45067   2.45818
 Alpha virt. eigenvalues --    2.47313   2.47801   2.48878   2.48971   2.49799
 Alpha virt. eigenvalues --    2.50490   2.51303   2.51708   2.52274   2.52823
 Alpha virt. eigenvalues --    2.54969   2.55603   2.56602   2.56698   2.57297
 Alpha virt. eigenvalues --    2.58694   2.59801   2.60358   2.60789   2.61474
 Alpha virt. eigenvalues --    2.61869   2.62706   2.63406   2.64457   2.64971
 Alpha virt. eigenvalues --    2.65625   2.66145   2.66413   2.67356   2.67790
 Alpha virt. eigenvalues --    2.68721   2.68892   2.69175   2.69434   2.70856
 Alpha virt. eigenvalues --    2.71336   2.71972   2.72328   2.73620   2.74055
 Alpha virt. eigenvalues --    2.74484   2.76181   2.76759   2.76997   2.78557
 Alpha virt. eigenvalues --    2.78888   2.79291   2.79682   2.80094   2.80203
 Alpha virt. eigenvalues --    2.80725   2.81237   2.81707   2.81872   2.82652
 Alpha virt. eigenvalues --    2.83259   2.83843   2.84867   2.85149   2.85997
 Alpha virt. eigenvalues --    2.87936   2.88183   2.88968   2.89574   2.91314
 Alpha virt. eigenvalues --    2.92780   2.92812   2.93806   2.93903   2.94716
 Alpha virt. eigenvalues --    2.95392   2.96428   2.97045   2.98351   2.98634
 Alpha virt. eigenvalues --    2.99553   3.00055   3.01354   3.01829   3.03010
 Alpha virt. eigenvalues --    3.04475   3.05916   3.08408   3.09431   3.09639
 Alpha virt. eigenvalues --    3.10076   3.12581   3.13207   3.14353   3.15845
 Alpha virt. eigenvalues --    3.16852   3.19012   3.21387   3.22445   3.23037
 Alpha virt. eigenvalues --    3.23871   3.24533   3.27880   3.28287   3.29661
 Alpha virt. eigenvalues --    3.31213   3.38982   3.41237   3.43310   3.44639
 Alpha virt. eigenvalues --    3.45173   3.47823   3.50893   3.51383   3.57571
 Alpha virt. eigenvalues --    3.61784   3.62999   3.63559   3.68823   3.75126
 Alpha virt. eigenvalues --    3.78350   3.79907
          Condensed to atoms (all electrons):
 Mulliken charges:
               1
     1  O   -0.146333
     2  O   -0.188670
     3  O   -0.338252
     4  O   -0.096458
     5  O   -0.228597
     6  O   -0.282437
     7  N    0.108342
     8  N   -0.249292
     9  N   -0.095412
    10  N   -0.324929
    11  C    0.033593
    12  C    0.247335
    13  C   -0.132317
    14  C   -0.131472
    15  C   -0.078722
    16  C   -0.151805
    17  C   -0.122719
    18  C    0.076724
    19  C   -0.069459
    20  C   -0.124977
    21  C    0.114006
    22  C    0.101504
    23  C   -0.028750
    24  C    0.074525
    25  C    0.054612
    26  C   -0.164403
    27  C    0.082779
    28  C    0.135113
    29  C    0.060866
    30  C    0.056661
    31  C   -0.079402
    32  C    0.098465
    33  C   -0.155095
    34  C    0.154801
    35  C    0.070073
    36  C   -0.086068
    37  C    0.121936
    38  C    0.200559
    39  C   -0.174032
    40  C    0.178387
    41  C   -0.147886
    42  C    0.071978
    43  C   -0.069333
    44  H    0.078246
    45  H   -0.013177
    46  H   -0.037488
    47  H    0.005919
    48  H    0.119382
    49  H    0.014309
    50  H   -0.018910
    51  H    0.061249
    52  H    0.004677
    53  H    0.031253
    54  H    0.052106
    55  H   -0.029722
    56  H    0.023247
    57  H    0.028855
    58  H    0.048301
    59  H    0.005249
    60  H    0.235876
    61  H    0.031328
    62  H    0.022201
    63  H    0.018186
    64  H    0.073713
    65  H    0.051146
    66  H    0.010822
    67  H    0.050370
    68  H    0.044156
    69  H    0.024367
    70  H    0.043184
    71  H    0.021114
    72  H    0.220380
    73  H    0.038708
    74  H    0.066719
    75  H    0.010381
    76  H    0.040189
    77  H    0.162219
    78  H    0.051412
    79  H    0.034593
 Sum of Mulliken charges =  -0.00000
 Mulliken charges with hydrogens summed into heavy atoms:
               1
     1  O   -0.146333
     2  O    0.031709
     3  O   -0.338252
     4  O    0.065761
     5  O   -0.228597
     6  O   -0.282437
     7  N    0.114261
     8  N   -0.129909
     9  N    0.140464
    10  N   -0.324929
    11  C    0.111839
    12  C    0.196670
    13  C   -0.132317
    14  C   -0.131472
    15  C   -0.078722
    16  C   -0.151805
    17  C   -0.122719
    18  C    0.072123
    19  C   -0.069459
    20  C   -0.063728
    21  C    0.114006
    22  C    0.101504
    23  C   -0.028750
    24  C    0.162562
    25  C    0.076992
    26  C   -0.164403
    27  C    0.136329
    28  C    0.135113
    29  C    0.114396
    30  C    0.074847
    31  C    0.045457
    32  C    0.203813
    33  C   -0.130728
    34  C    0.154801
    35  C    0.070073
    36  C   -0.021770
    37  C    0.121936
    38  C    0.200559
    39  C   -0.174032
    40  C    0.178387
    41  C   -0.109178
    42  C    0.189266
    43  C    0.016672
 Electronic spatial extent (au):  <R**2>=          25709.7025
 Charge=             -0.0000 electrons
 Dipole moment (field-independent basis, Debye):
    X=              3.0491    Y=              2.9814    Z=             -2.6323  Tot=              5.0115
 Quadrupole moment (field-independent basis, Debye-Ang):
   XX=           -232.1577   YY=           -235.3098   ZZ=           -272.8635
   XY=              2.5863   XZ=            -20.8608   YZ=            -17.8901
 Traceless Quadrupole moment (field-independent basis, Debye-Ang):
   XX=             14.6193   YY=             11.4672   ZZ=            -26.0865
   XY=              2.5863   XZ=            -20.8608   YZ=            -17.8901
 Octapole moment (field-independent basis, Debye-Ang**2):
  XXX=            126.5739  YYY=            143.8257  ZZZ=            -69.7463  XYY=             -5.8431
  XXY=            -28.4458  XXZ=             13.2845  XZZ=             -4.5393  YZZ=             41.0397
  YYZ=             21.5041  XYZ=             -8.9915
 Hexadecapole moment (field-independent basis, Debye-Ang**3):
 XXXX=         -16889.8912 YYYY=          -7927.1048 ZZZZ=          -7416.1256 XXXY=             42.6756
 XXXZ=            -95.7386 YYYX=             45.9691 YYYZ=            -24.4128 ZZZX=           -452.3468
 ZZZY=             -2.3143 XXYY=          -4364.2619 XXZZ=          -4589.4437 YYZZ=          -2535.9688
 XXYZ=           -287.3887 YYXZ=            253.9293 ZZXY=             58.0900
 N-N= 5.203642452067D+03 E-N=-1.493627787081D+04  KE= 1.927786382339D+03
 1\1\GINC-PADAWAN\SP\RB3LYP TD-FC\SVP\C33H36N4O6\PADAWAN\27-Jul-2019\0\
 \# td=(NStates=1) B3LYP/SVP\\TD\\0,1\O,0,-3.1857854887,-1.3506201175,-
 2.7950201563\O,0,2.9587963344,3.1747591344,3.0013544063\O,0,3.59019332
 75,1.598486977,4.4392083644\O,0,7.5977483777,-1.5783339476,-0.75547630
 94\O,0,6.7133754939,-2.9938701819,-2.1999864467\O,0,-2.5246733738,1.65
 66711562,1.5304731078\N,0,-0.225408287,-2.4681531296,0.976562497\N,0,-
 2.6148535234,-1.2800231373,-0.6066228069\N,0,1.0819297424,0.023053215,
 -0.7766025975\N,0,-0.9051496605,1.5644418521,-0.1787287708\C,0,-3.3507
 102207,-1.4030378662,0.6853455085\C,0,-2.6529139175,-2.4050646527,1.60
 37856854\C,0,-1.2228479265,-2.125950409,1.8320111897\C,0,-0.6174915515
 ,-1.2721784095,2.8494129618\C,0,0.6701581284,-1.1674917502,2.506861880
 8\C,0,0.9407667629,-1.8455709918,1.3357783818\C,0,-4.7410390505,-1.888
 8245312,0.1519020775\C,0,1.71628622,-0.2593162612,3.2001121657\C,0,-4.
 7883751989,-2.0504837568,-1.14809515\C,0,2.1988678432,-1.7805562478,0.
 4551177905\C,0,2.1009961215,-0.9321251247,-0.6362075223\C,0,-3.4666813
 38,-1.5293248978,-1.6985471381\C,0,2.972548318,-0.7284235907,-1.799783
 8773\C,0,-1.3169002622,-0.558219679,4.011526661\C,0,-5.8295081749,-2.0
 957760579,1.1574367493\C,0,2.4616458215,0.3397113393,-2.4715117612\C,0
 ,1.7924786803,1.1043061226,2.6394305847\C,0,1.2729506616,0.8182184704,
 -1.7850746135\C,0,4.2177871278,-1.5413435635,-2.098019432\C,0,-5.87667
 20033,-2.5473468251,-2.1121346617\C,0,5.4159671477,-1.1202537706,-1.29
 23826552\C,0,3.1653666321,1.0668550881,-3.6803945487\C,0,0.564378862,1
 .9327584227,-1.9591376589\C,0,2.8166503053,1.9290824937,3.425017847\C,
 0,-0.4728411157,2.3896335956,-1.1677520631\C,0,-6.8540793344,-3.320545
 8187,-1.6861071694\C,0,6.6523448041,-2.0012283779,-1.5187925693\C,0,-1
 .3690455594,3.6051127445,-1.1300310778\C,0,-2.2408581752,3.3863391129,
 -0.0895968659\C,0,-1.9191941918,2.2023711706,0.5168306151\C,0,-1.15422
 54009,4.5834146017,-2.0584576138\C,0,-3.3343840749,4.3777282557,0.2691
 611558\C,0,-1.9247863698,5.7754529635,-2.2993636692\H,0,-3.395628056,-
 0.3677922691,1.2773819428\H,0,-2.6551771441,-3.4549606211,1.090179367\
 H,0,-3.2131611359,-2.424585903,2.4861780065\H,0,-0.2185771625,-2.85431
 41965,0.2115981698\H,0,-1.8648448742,-0.6154378473,-0.7011942218\H,0,1
 .5954675082,-0.1351649703,4.3047525744\H,0,2.6578831212,-0.7342253138,
 3.0355484842\H,0,2.919570771,-2.7088624691,0.553738427\H,0,-2.17254988
 43,-1.1864779218,4.3926063224\H,0,-0.4595157196,-0.2430385075,4.715027
 8593\H,0,-1.9058999038,0.2731897657,3.485317297\H,0,-5.8785086381,-1.6
 398521164,2.0424185349\H,0,-5.8680255633,-3.2232064252,1.6588287292\H,
 0,-6.9188692637,-1.9748731307,0.8124976115\H,0,2.0632024596,0.92720266
 22,1.5543430456\H,0,0.9000499565,1.5305452988,2.7918471584\H,0,0.32804
 10617,0.273351705,-0.0157436067\H,0,4.5783635556,-1.7193849975,-3.1462
 202239\H,0,3.8748083106,-2.5701987991,-1.7504921572\H,0,-5.8325853969,
 -2.1236832929,-3.1137348373\H,0,4.9124891702,-1.2150519851,-0.21185796
 21\H,0,5.7341948608,-0.0473317293,-1.5717616587\H,0,3.85078499,0.39584
 60767,-4.1741556451\H,0,3.7966754191,1.916132692,-3.2669590313\H,0,2.3
 900447938,1.3191464125,-4.4538685389\H,0,0.9304069507,2.7190133978,-2.
 8443853305\H,0,-7.097958882,-3.9088630702,-0.7126802892\H,0,-7.7438726
 522,-3.5961009406,-2.3592889824\H,0,3.7016838959,3.605179879,3.6028335
 376\H,0,-0.1590997888,4.7162729068,-2.6337312685\H,0,-4.1667552651,4.3
 619327751,-0.5671778693\H,0,-3.5928980395,3.8779225859,1.1847292843\H,
 0,-3.0191802342,5.3741677079,0.6841241823\H,0,8.1549111846,-2.35906906
 11,-0.8729179268\H,0,-1.3596888935,6.6483352906,-3.0119760498\H,0,-2.6
 350658595,6.210602436,-1.6416700745\\Version=ES64L-G16RevA.03\State=1-
 A\HF=-1947.8103184\RMSD=5.662e-09\PG=C01 [X(C33H36N4O6)]\\@


 IF YOU WISH TO UNDERSTAND THE FRAGRANCE OF THE ROSE, 
 OR THE TENACITY OF THE OAK; 
 IF YOU ARE NOT SATISFIED UNTIL YOU KNOW THE SECRET PATHS 
 BY WHICH THE SUNSHINE AND THE AIR ACHIEVE THESE WONDERS; 
 IF YOU WISH TO SEE THE PATTERN WHICH UNDERLIES ONE LARGE FIELD OF 
 HUMAN EXPERIENCE AND HUMAN MEASUREMENT, THEN TAKE UP CHEMISTRY.

                                         -- C. A. COULSON, 1973.
 Job cpu time:       0 days  4 hours 33 minutes 23.2 seconds.
 Elapsed time:       0 days  1 hours  8 minutes 26.7 seconds.
 File lengths (MBytes):  RWF=   2533 Int=      0 D2E=      0 Chk=     63 Scr=      1
 Normal termination of Gaussian 16 at Sat Jul 27 01:20:01 2019.
