 Entering Gaussian System, Link 0=g16
 Input=Geometria-74-.com
 Output=Geometria-74-.log
 Initial command:
 /usr/local/g16/l1.exe "/home/padawan/israel-mol/dihydrobiliverdin/spectra/emi/Gau-6400.inp" -scrdir="/home/padawan/israel-mol/dihydrobiliverdin/spectra/emi/"
 Entering Link 1 = /usr/local/g16/l1.exe PID=      6402.
  
 Copyright (c) 1988,1990,1992,1993,1995,1998,2003,2009,2016,
            Gaussian, Inc.  All Rights Reserved.
  
 This is part of the Gaussian(R) 16 program.  It is based on
 the Gaussian(R) 09 system (copyright 2009, Gaussian, Inc.),
 the Gaussian(R) 03 system (copyright 2003, Gaussian, Inc.),
 the Gaussian(R) 98 system (copyright 1998, Gaussian, Inc.),
 the Gaussian(R) 94 system (copyright 1995, Gaussian, Inc.),
 the Gaussian 92(TM) system (copyright 1992, Gaussian, Inc.),
 the Gaussian 90(TM) system (copyright 1990, Gaussian, Inc.),
 the Gaussian 88(TM) system (copyright 1988, Gaussian, Inc.),
 the Gaussian 86(TM) system (copyright 1986, Carnegie Mellon
 University), and the Gaussian 82(TM) system (copyright 1983,
 Carnegie Mellon University). Gaussian is a federally registered
 trademark of Gaussian, Inc.
  
 This software contains proprietary and confidential information,
 including trade secrets, belonging to Gaussian, Inc.
  
 This software is provided under written license and may be
 used, copied, transmitted, or stored only in accord with that
 written license.
  
 The following legend is applicable only to US Government
 contracts under FAR:
  
                    RESTRICTED RIGHTS LEGEND
  
 Use, reproduction and disclosure by the US Government is
 subject to restrictions as set forth in subparagraphs (a)
 and (c) of the Commercial Computer Software - Restricted
 Rights clause in FAR 52.227-19.
  
 Gaussian, Inc.
 340 Quinnipiac St., Bldg. 40, Wallingford CT 06492
  
  
 ---------------------------------------------------------------
 Warning -- This program may not be used in any manner that
 competes with the business of Gaussian, Inc. or will provide
 assistance to any competitor of Gaussian, Inc.  The licensee
 of this program is prohibited from giving any competitor of
 Gaussian, Inc. access to this program.  By using this program,
 the user acknowledges that Gaussian, Inc. is engaged in the
 business of creating and licensing software in the field of
 computational chemistry and represents and warrants to the
 licensee that it is not a competitor of Gaussian, Inc. and that
 it will not use this program in any manner prohibited above.
 ---------------------------------------------------------------
  

 Cite this work as:
 Gaussian 16, Revision A.03,
 M. J. Frisch, G. W. Trucks, H. B. Schlegel, G. E. Scuseria, 
 M. A. Robb, J. R. Cheeseman, G. Scalmani, V. Barone, 
 G. A. Petersson, H. Nakatsuji, X. Li, M. Caricato, A. V. Marenich, 
 J. Bloino, B. G. Janesko, R. Gomperts, B. Mennucci, H. P. Hratchian, 
 J. V. Ortiz, A. F. Izmaylov, J. L. Sonnenberg, D. Williams-Young, 
 F. Ding, F. Lipparini, F. Egidi, J. Goings, B. Peng, A. Petrone, 
 T. Henderson, D. Ranasinghe, V. G. Zakrzewski, J. Gao, N. Rega, 
 G. Zheng, W. Liang, M. Hada, M. Ehara, K. Toyota, R. Fukuda, 
 J. Hasegawa, M. Ishida, T. Nakajima, Y. Honda, O. Kitao, H. Nakai, 
 T. Vreven, K. Throssell, J. A. Montgomery, Jr., J. E. Peralta, 
 F. Ogliaro, M. J. Bearpark, J. J. Heyd, E. N. Brothers, K. N. Kudin, 
 V. N. Staroverov, T. A. Keith, R. Kobayashi, J. Normand, 
 K. Raghavachari, A. P. Rendell, J. C. Burant, S. S. Iyengar, 
 J. Tomasi, M. Cossi, J. M. Millam, M. Klene, C. Adamo, R. Cammi, 
 J. W. Ochterski, R. L. Martin, K. Morokuma, O. Farkas, 
 J. B. Foresman, and D. J. Fox, Gaussian, Inc., Wallingford CT, 2016.
 
 ******************************************
 Gaussian 16:  ES64L-G16RevA.03 25-Dec-2016
                16-Sep-2019 
 ******************************************
 %nproc=4
 Will use up to    4 processors via shared memory.
 %Mem=4GB
 --------------------------
 # td=(NStates=1) B3LYP/SVP
 --------------------------
 1/38=1,172=1/1;
 2/12=2,17=6,18=5,40=1/2;
 3/5=18,7=101,11=9,25=1,30=1,74=-5/1,2,3,8;
 4//1;
 5/5=2,38=5/2;
 8/6=1,10=1,108=1/1;
 9/41=1,42=1,70=2/14;
 6/7=2,8=2,9=2,10=2/1;
 99/5=1,9=1/99;
 --
 TD
 --
 Symbolic Z-matrix:
 Charge =  0 Multiplicity = 1
 8                    -5.25511   0.26194  -3.3748 
 8                     2.94598   2.84401   3.54927 
 8                     3.34868   0.76825   2.91434 
 8                     1.40521  -7.15372   1.51906 
 8                     0.83877  -7.06799  -0.63539 
 8                     1.71405   3.90771   0.21294 
 7                    -2.24481  -0.91846   0.5569 
 7                    -4.24252   0.59609  -1.29577 
 7                     1.82465  -0.73055  -0.3198 
 7                     2.58088   1.90865  -0.31184 
 6                    -4.63246   1.17295   0.01562 
 6                    -4.36276   0.26082   1.21046 
 6                    -2.86019  -0.03694   1.46043 
 6                    -1.93586   0.58355   2.18839 
 6                    -0.70249  -0.02724   1.87277 
 6                    -0.92051  -0.95307   0.81387 
 6                    -6.21457   1.32458  -0.15468 
 6                     0.61512   0.19201   2.59926 
 6                    -6.5135    0.9409   -1.44157 
 6                    -0.22694  -1.89244   0.17535 
 6                     1.11318  -1.86029  -0.2884 
 6                    -5.31386   0.50239  -2.15451 
 6                     1.9758   -2.99016  -0.76771 
 6                    -2.1272    1.69257   3.17492 
 6                    -7.02825   2.00599   0.93222 
 6                     3.10717  -2.35792  -1.27096 
 6                     1.17698   1.65803   2.65878 
 6                     3.05063  -0.9157   -0.98174 
 6                     1.56171  -4.4108   -0.8972 
 6                    -7.84146   0.91794  -2.07734 
 6                     1.77843  -5.1702    0.38005 
 6                     4.37467  -3.04495  -1.87783 
 6                     3.9222   -0.00694  -1.17738 
 6                     2.6206    1.61659   3.05995 
 6                     3.57315   1.41683  -1.03549 
 6                    -9.0796    0.88477  -1.53999 
 6                     1.32053  -6.48157   0.33208 
 6                     4.40281   2.6268   -1.54188 
 6                     3.64228   3.79548  -1.13484 
 6                     2.62932   3.23806  -0.29644 
 6                     5.5993    2.55285  -2.44882 
 6                     3.92909   5.26337  -1.32238 
 6                     6.3662    3.52033  -3.00852 
 1                    -4.20988   2.2018    0.48338 
 1                    -4.88527  -0.73972   1.11204 
 1                    -4.85116   0.82416   2.21786 
 1                    -2.69911  -1.52113  -0.11512 
 1                    -3.25106   0.55147  -1.67717 
 1                     0.43412  -0.1936    3.56216 
 1                     1.3914   -0.66878   2.23661 
 1                    -0.58987  -2.65042  -0.18573 
 1                    -3.01938   1.4061    3.40003 
 1                    -1.52204   1.48721   3.84498 
 1                    -1.81709   2.69987   2.85075 
 1                    -6.50545   2.8332    1.30679 
 1                    -7.41668   1.26187   1.61078 
 1                    -7.83691   2.68005   0.5608 
 1                     1.14753   2.18227   1.76365 
 1                     0.64072   2.20559   3.34441 
 1                     1.70157   0.23798  -0.14545 
 1                     2.09935  -4.99614  -1.76213 
 1                     0.43152  -4.47567  -1.17304 
 1                    -7.67996   0.77287  -3.10815 
 1                     1.32767  -4.51324   1.24653 
 1                     3.05538  -5.18981   0.81897 
 1                     4.30504  -4.04826  -2.04964 
 1                     5.21753  -2.86572  -1.25502 
 1                     4.65951  -2.41573  -2.8206 
 1                     4.93177  -0.39496  -1.63062 
 1                    -9.11341   0.90456  -0.50558 
 1                    -9.97845   0.68212  -2.14458 
 1                     3.99081   2.80611   3.47683 
 1                     5.72118   1.50783  -2.82391 
 1                     4.7091    5.66627  -1.09105 
 1                     4.07288   5.40871  -2.34285 
 1                     3.04896   5.77703  -0.9596 
 1                     1.01671  -8.06683   1.38249 
 1                     7.16193   3.27197  -3.52649 
 1                     6.45931   4.66702  -2.5453 
 
 Stoichiometry    C33H36N4O6
 Framework group  C1[X(C33H36N4O6)]
 Deg. of freedom   231
 Full point group                 C1      NOp   1
 Largest Abelian subgroup         C1      NOp   1
 Largest concise Abelian subgroup C1      NOp   1
                         Standard orientation:                         
 ---------------------------------------------------------------------
 Center     Atomic      Atomic             Coordinates (Angstroms)
 Number     Number       Type             X           Y           Z
 ---------------------------------------------------------------------
      1          8           0        5.263518   -0.154797   -3.366043
      2          8           0       -2.864599   -2.877700    3.590055
      3          8           0       -3.329075   -0.825023    2.923081
      4          8           0       -1.624276    7.129877    1.408220
      5          8           0       -1.052745    7.028409   -0.744203
      6          8           0       -1.596789   -3.954508    0.271415
      7          7           0        2.213869    0.993935    0.544656
      8          7           0        4.258833   -0.487613   -1.282968
      9          7           0       -1.846928    0.669606   -0.332392
     10          7           0       -2.523010   -1.990839   -0.284627
     11          6           0        4.664361   -1.032301    0.037417
     12          6           0        4.365675   -0.110591    1.217927
     13          6           0        2.854466    0.145354    1.462079
     14          6           0        1.948394   -0.491628    2.198705
     15          6           0        0.697516    0.076669    1.872755
     16          6           0        0.888792    0.992380    0.799984
     17          6           0        6.250554   -1.138578   -0.129246
     18          6           0       -0.613787   -0.171217    2.601442
     19          6           0        6.539389   -0.765745   -1.421616
     20          6           0        0.167952    1.900465    0.146581
     21          6           0       -1.169985    1.820695   -0.317717
     22          6           0        5.327950   -0.374677   -2.142171
     23          6           0       -2.065768    2.916493   -0.814984
     24          6           0        2.171917   -1.579135    3.202260
     25          6           0        7.083073   -1.778363    0.968625
     26          6           0       -3.176851    2.242688   -1.309411
     27          6           0       -1.131135   -1.652489    2.682950
     28          6           0       -3.077099    0.807432   -0.998094
     29          6           0       -1.694663    4.346864   -0.965876
     30          6           0        7.866858   -0.712335   -2.056574
     31          6           0       -1.935879    5.118793    0.299421
     32          6           0       -4.463776    2.881704   -1.927766
     33          6           0       -3.920537   -0.130166   -1.180505
     34          6           0       -2.575859   -1.648617    3.082260
     35          6           0       -3.528770   -1.540386   -1.016538
     36          6           0        9.102743   -0.633505   -1.518786
     37          6           0       -1.517787    6.442537    0.231744
     38          6           0       -4.320808   -2.782506   -1.505016
     39          6           0       -3.525809   -3.921282   -1.079507
     40          6           0       -2.531245   -3.320720   -0.248908
     41          6           0       -5.517829   -2.758663   -2.413955
     42          6           0       -3.767851   -5.399874   -1.244777
     43          6           0       -6.254396   -3.757344   -2.959397
     44          1           0        4.272485   -2.066200    0.520538
     45          1           0        4.857813    0.903671    1.104619
     46          1           0        4.869596   -0.643433    2.234236
     47          1           0        2.650590    1.599732   -0.136145
     48          1           0        3.266963   -0.478847   -1.665814
     49          1           0       -0.445762    0.234364    3.558468
     50          1           0       -1.415282    0.660049    2.225016
     51          1           0        0.508255    2.663476   -0.225772
     52          1           0        3.054740   -1.262401    3.423684
     53          1           0        1.559971   -1.381966    3.868603
     54          1           0        1.892826   -2.600203    2.893303
     55          1           0        6.585052   -2.615194    1.355399
     56          1           0        7.447954   -1.012544    1.636027
     57          1           0        7.912222   -2.433249    0.608241
     58          1           0       -1.084692   -2.189214    1.795983
     59          1           0       -0.579433   -2.173022    3.377324
     60          1           0       -1.694840   -0.291988   -0.143128
     61          1           0       -2.248648    4.902387   -1.840108
     62          1           0       -0.566604    4.441678   -1.241748
     63          1           0        7.702364   -0.587984   -3.089617
     64          1           0       -1.466577    4.489096    1.176228
     65          1           0       -3.213405    5.106460    0.736942
     66          1           0       -4.424292    3.883917   -2.114867
     67          1           0       -5.301627    2.686585   -1.302975
     68          1           0       -4.728245    2.229818   -2.861025
     69          1           0       -4.940798    0.220157   -1.640456
     70          1           0        9.135814   -0.636448   -0.484171
     71          1           0        9.995820   -0.413015   -2.125675
     72          1           0       -3.910003   -2.872545    3.516190
     73          1           0       -5.670768   -1.723667   -2.805110
     74          1           0       -4.535619   -5.822606   -1.007934
     75          1           0       -3.905875   -5.565074   -2.263011
     76          1           0       -2.873059   -5.881060   -0.873447
     77          1           0       -1.263393    8.052127    1.258002
     78          1           0       -7.056611   -3.541125   -3.481765
     79          1           0       -6.313380   -4.899117   -2.478747
 ---------------------------------------------------------------------
 Rotational constants (GHZ):           0.0727341           0.0464506           0.0357790
 Standard basis: SVP (5D, 7F)
 There are   825 symmetry adapted cartesian basis functions of A   symmetry.
 There are   782 symmetry adapted basis functions of A   symmetry.
   782 basis functions,  1327 primitive gaussians,   825 cartesian basis functions
   155 alpha electrons      155 beta electrons
       nuclear repulsion energy      4956.8261666383 Hartrees.
 NAtoms=   79 NActive=   79 NUniq=   79 SFac= 1.00D+00 NAtFMM=   60 NAOKFM=T Big=T
 Integral buffers will be    131072 words long.
 Regular integral format.
 Two-electron integral symmetry is turned on.
 One-electron integrals computed using PRISM.
 NBasis=   782 RedAO= T EigKep=  3.29D-04  NBF=   782
 NBsUse=   782 1.00D-06 EigRej= -1.00D+00 NBFU=   782
 ExpMin= 1.22D-01 ExpMax= 2.27D+03 ExpMxC= 3.41D+02 IAcc=3 IRadAn=         5 AccDes= 0.00D+00
 Harris functional with IExCor=  402 and IRadAn=       5 diagonalized for initial guess.
 HarFok:  IExCor=  402 AccDes= 0.00D+00 IRadAn=         5 IDoV= 1 UseB2=F ITyADJ=14
 ICtDFT=  3500011 ScaDFX=  1.000000  1.000000  1.000000  1.000000
 FoFCou: FMM=F IPFlag=           0 FMFlag=      100000 FMFlg1=        2001
         NFxFlg=           0 DoJE=T BraDBF=F KetDBF=T FulRan=T
         wScrn=  0.000000 ICntrl=       500 IOpCl=  0 I1Cent=   200000004 NGrid=           0
         NMat0=    1 NMatS0=      1 NMatT0=    0 NMatD0=    1 NMtDS0=    0 NMtDT0=    0
 Petite list used in FoFCou.
 Requested convergence on RMS density matrix=1.00D-08 within 128 cycles.
 Requested convergence on MAX density matrix=1.00D-06.
 Requested convergence on             energy=1.00D-06.
 No special actions if energy rises.
 Integral accuracy reduced to 1.0D-05 until final iterations.
 EnCoef did     3 forward-backward iterations
 Initial convergence to 1.0D-05 achieved.  Increase integral accuracy.
 SCF Done:  E(RB3LYP) =  -1947.73869739     A.U. after   19 cycles
            NFock= 19  Conv=0.57D-08     -V/T= 2.0096
 DoSCS=F DFT=T ScalE2(SS,OS)=  1.000000  1.000000
 ExpMin= 1.22D-01 ExpMax= 2.27D+03 ExpMxC= 3.41D+02 IAcc=3 IRadAn=         5 AccDes= 0.00D+00
 HarFok:  IExCor=  205 AccDes= 0.00D+00 IRadAn=         5 IDoV=-2 UseB2=F ITyADJ=14
 ICtDFT= 12500011 ScaDFX=  1.000000  1.000000  1.000000  1.000000
 GSVD:  LWork=       -2193 too small for GESVD, short by        9890 words or        9890 for optimal perf.
 Range of M.O.s used for correlation:    44   782
 NBasis=   782 NAE=   155 NBE=   155 NFC=    43 NFV=     0
 NROrb=    739 NOA=   112 NOB=   112 NVA=   627 NVB=   627

 **** Warning!!: The smallest alpha delta epsilon is  0.66985793D-01

 Orbital symmetries:
       Occupied  (A) (A) (A) (A) (A) (A) (A) (A) (A) (A) (A) (A)
                 (A) (A) (A) (A) (A) (A) (A) (A) (A) (A) (A) (A)
                 (A) (A) (A) (A) (A) (A) (A) (A) (A) (A) (A) (A)
                 (A) (A) (A) (A) (A) (A) (A) (A) (A) (A) (A) (A)
                 (A) (A) (A) (A) (A) (A) (A) (A) (A) (A) (A) (A)
                 (A) (A) (A) (A) (A) (A) (A) (A) (A) (A) (A) (A)
                 (A) (A) (A) (A) (A) (A) (A) (A) (A) (A) (A) (A)
                 (A) (A) (A) (A) (A) (A) (A) (A) (A) (A) (A) (A)
                 (A) (A) (A) (A) (A) (A) (A) (A) (A) (A) (A) (A)
                 (A) (A) (A) (A) (A) (A) (A) (A) (A) (A) (A) (A)
                 (A) (A) (A) (A) (A) (A) (A) (A) (A) (A) (A) (A)
                 (A) (A) (A) (A) (A) (A) (A) (A) (A) (A) (A) (A)
                 (A) (A) (A) (A) (A) (A) (A) (A) (A) (A) (A)
       Virtual   (A) (A) (A) (A) (A) (A) (A) (A) (A) (A) (A) (A)
                 (A) (A) (A) (A) (A) (A) (A) (A) (A) (A) (A) (A)
                 (A) (A) (A) (A) (A) (A) (A) (A) (A) (A) (A) (A)
                 (A) (A) (A) (A) (A) (A) (A) (A) (A) (A) (A) (A)
                 (A) (A) (A) (A) (A) (A) (A) (A) (A) (A) (A) (A)
                 (A) (A) (A) (A) (A) (A) (A) (A) (A) (A) (A) (A)
                 (A) (A) (A) (A) (A) (A) (A) (A) (A) (A) (A) (A)
                 (A) (A) (A) (A) (A) (A) (A) (A) (A) (A) (A) (A)
                 (A) (A) (A) (A) (A) (A) (A) (A) (A) (A) (A) (A)
                 (A) (A) (A) (A) (A) (A) (A) (A) (A) (A) (A) (A)
                 (A) (A) (A) (A) (A) (A) (A) (A) (A) (A) (A) (A)
                 (A) (A) (A) (A) (A) (A) (A) (A) (A) (A) (A) (A)
                 (A) (A) (A) (A) (A) (A) (A) (A) (A) (A) (A) (A)
                 (A) (A) (A) (A) (A) (A) (A) (A) (A) (A) (A) (A)
                 (A) (A) (A) (A) (A) (A) (A) (A) (A) (A) (A) (A)
                 (A) (A) (A) (A) (A) (A) (A) (A) (A) (A) (A) (A)
                 (A) (A) (A) (A) (A) (A) (A) (A) (A) (A) (A) (A)
                 (A) (A) (A) (A) (A) (A) (A) (A) (A) (A) (A) (A)
                 (A) (A) (A) (A) (A) (A) (A) (A) (A) (A) (A) (A)
                 (A) (A) (A) (A) (A) (A) (A) (A) (A) (A) (A) (A)
                 (A) (A) (A) (A) (A) (A) (A) (A) (A) (A) (A) (A)
                 (A) (A) (A) (A) (A) (A) (A) (A) (A) (A) (A) (A)
                 (A) (A) (A) (A) (A) (A) (A) (A) (A) (A) (A) (A)
                 (A) (A) (A) (A) (A) (A) (A) (A) (A) (A) (A) (A)
                 (A) (A) (A) (A) (A) (A) (A) (A) (A) (A) (A) (A)
                 (A) (A) (A) (A) (A) (A) (A) (A) (A) (A) (A) (A)
                 (A) (A) (A) (A) (A) (A) (A) (A) (A) (A) (A) (A)
                 (A) (A) (A) (A) (A) (A) (A) (A) (A) (A) (A) (A)
                 (A) (A) (A) (A) (A) (A) (A) (A) (A) (A) (A) (A)
                 (A) (A) (A) (A) (A) (A) (A) (A) (A) (A) (A) (A)
                 (A) (A) (A) (A) (A) (A) (A) (A) (A) (A) (A) (A)
                 (A) (A) (A) (A) (A) (A) (A) (A) (A) (A) (A) (A)
                 (A) (A) (A) (A) (A) (A) (A) (A) (A) (A) (A) (A)
                 (A) (A) (A) (A) (A) (A) (A) (A) (A) (A) (A) (A)
                 (A) (A) (A) (A) (A) (A) (A) (A) (A) (A) (A) (A)
                 (A) (A) (A) (A) (A) (A) (A) (A) (A) (A) (A) (A)
                 (A) (A) (A) (A) (A) (A) (A) (A) (A) (A) (A) (A)
                 (A) (A) (A) (A) (A) (A) (A) (A) (A) (A) (A) (A)
                 (A) (A) (A) (A) (A) (A) (A) (A) (A) (A) (A) (A)
                 (A) (A) (A) (A) (A) (A) (A) (A) (A) (A) (A) (A)
                 (A) (A) (A) (A) (A) (A) (A) (A) (A) (A) (A) (A)
                 (A) (A) (A) (A) (A) (A) (A) (A) (A) (A) (A) (A)
                 (A) (A) (A) (A) (A) (A) (A) (A) (A) (A) (A) (A)
                 (A) (A) (A) (A) (A) (A) (A) (A) (A) (A) (A) (A)
                 (A) (A) (A) (A) (A) (A) (A) (A) (A) (A) (A) (A)
                 (A) (A) (A) (A) (A) (A) (A) (A) (A) (A) (A) (A)
                 (A) (A) (A) (A) (A) (A) (A) (A) (A) (A) (A) (A)
                 (A) (A) (A) (A) (A) (A) (A) (A) (A) (A) (A) (A)
                 (A) (A) (A) (A) (A) (A) (A) (A) (A) (A) (A) (A)
                 (A) (A) (A) (A) (A) (A) (A) (A) (A) (A) (A) (A)
                 (A) (A) (A) (A) (A) (A) (A) (A) (A) (A) (A) (A)
                 (A) (A) (A) (A) (A) (A) (A) (A) (A) (A) (A) (A)
                 (A) (A) (A)
     4 initial guesses have been made.
 Convergence on wavefunction:    0.001000000000000
 Iteration     1 Dimension     4 NMult     0 NNew      4
 CISAX will form     4 AO SS matrices at one time.
 Iteration     2 Dimension     6 NMult     4 NNew      2
 Iteration     3 Dimension     8 NMult     6 NNew      2
 Iteration     4 Dimension    10 NMult     8 NNew      2
 Iteration     5 Dimension    12 NMult    10 NNew      2
 Iteration     6 Dimension    14 NMult    12 NNew      2
 Iteration     7 Dimension    16 NMult    14 NNew      2
 Iteration     8 Dimension    18 NMult    16 NNew      2
 ***********************************************************************
 Excited states from <AA,BB:AA,BB> singles matrix:
 ***********************************************************************
 
 Ground to excited state transition densities written to RWF  633
 Ground to excited state transition electric dipole moments (Au):
       state          X           Y           Z        Dip. S.      Osc.
         1         2.2780      1.4707      0.9475      8.2498      0.3637
 Ground to excited state transition velocity dipole moments (Au):
       state          X           Y           Z        Dip. S.      Osc.
         1        -0.1456     -0.0911     -0.0615      0.0333      0.3356
 Ground to excited state transition magnetic dipole moments (Au):
       state          X           Y           Z
         1        -0.6560      0.0726      1.4300
 Ground to excited state transition velocity quadrupole moments (Au):
       state          XX          YY          ZZ          XY          XZ          YZ
         1         0.2480      0.5440     -0.0670      0.6853      0.3093      0.2388
 <0|del|b> * <b|rxdel|0> + <0|del|b> * <b|delr+rdel|0>
 Rotatory Strengths (R) in cgs (10**-40 erg-esu-cm/Gauss)
       state          XX          YY          ZZ    R(velocity)    E-M Angle
         1      -580.8509     79.7568    510.5982      3.1680       89.82
 1/2[<0|r|b>*<b|rxdel|0> + (<0|rxdel|b>*<b|r|0>)*]
 Rotatory Strengths (R) in cgs (10**-40 erg-esu-cm/Gauss)
       state          XX          YY          ZZ     R(length)
         1      1056.7742    -75.5123   -958.1689      7.6976
  1/2[<0|del|b>*<b|r|0> + (<0|r|b>*<b|del|0>)*] (Au)
       state          X           Y           Z        Dip. S.   Osc.(frdel)
         1        -0.3317     -0.1340     -0.0583      0.5240      0.3493

 Excitation energies and oscillator strengths:
 
 Excited State   1:      Singlet-A      1.7994 eV  689.03 nm  f=0.3637  <S**2>=0.000
     155 ->156         0.70595
     155 <-156        -0.14810
 This state for optimization and/or second-order correction.
 Total Energy, E(TD-HF/TD-DFT) =  -1947.67257074    
 Copying the excited state density for this state as the 1-particle RhoCI density.
 SavETr:  write IOETrn=   770 NScale= 10 NData=  16 NLR=1 NState=    1 LETran=      28.

 **********************************************************************

            Population analysis using the SCF density.

 **********************************************************************

 Orbital symmetries:
       Occupied  (A) (A) (A) (A) (A) (A) (A) (A) (A) (A) (A) (A)
                 (A) (A) (A) (A) (A) (A) (A) (A) (A) (A) (A) (A)
                 (A) (A) (A) (A) (A) (A) (A) (A) (A) (A) (A) (A)
                 (A) (A) (A) (A) (A) (A) (A) (A) (A) (A) (A) (A)
                 (A) (A) (A) (A) (A) (A) (A) (A) (A) (A) (A) (A)
                 (A) (A) (A) (A) (A) (A) (A) (A) (A) (A) (A) (A)
                 (A) (A) (A) (A) (A) (A) (A) (A) (A) (A) (A) (A)
                 (A) (A) (A) (A) (A) (A) (A) (A) (A) (A) (A) (A)
                 (A) (A) (A) (A) (A) (A) (A) (A) (A) (A) (A) (A)
                 (A) (A) (A) (A) (A) (A) (A) (A) (A) (A) (A) (A)
                 (A) (A) (A) (A) (A) (A) (A) (A) (A) (A) (A) (A)
                 (A) (A) (A) (A) (A) (A) (A) (A) (A) (A) (A) (A)
                 (A) (A) (A) (A) (A) (A) (A) (A) (A) (A) (A)
       Virtual   (A) (A) (A) (A) (A) (A) (A) (A) (A) (A) (A) (A)
                 (A) (A) (A) (A) (A) (A) (A) (A) (A) (A) (A) (A)
                 (A) (A) (A) (A) (A) (A) (A) (A) (A) (A) (A) (A)
                 (A) (A) (A) (A) (A) (A) (A) (A) (A) (A) (A) (A)
                 (A) (A) (A) (A) (A) (A) (A) (A) (A) (A) (A) (A)
                 (A) (A) (A) (A) (A) (A) (A) (A) (A) (A) (A) (A)
                 (A) (A) (A) (A) (A) (A) (A) (A) (A) (A) (A) (A)
                 (A) (A) (A) (A) (A) (A) (A) (A) (A) (A) (A) (A)
                 (A) (A) (A) (A) (A) (A) (A) (A) (A) (A) (A) (A)
                 (A) (A) (A) (A) (A) (A) (A) (A) (A) (A) (A) (A)
                 (A) (A) (A) (A) (A) (A) (A) (A) (A) (A) (A) (A)
                 (A) (A) (A) (A) (A) (A) (A) (A) (A) (A) (A) (A)
                 (A) (A) (A) (A) (A) (A) (A) (A) (A) (A) (A) (A)
                 (A) (A) (A) (A) (A) (A) (A) (A) (A) (A) (A) (A)
                 (A) (A) (A) (A) (A) (A) (A) (A) (A) (A) (A) (A)
                 (A) (A) (A) (A) (A) (A) (A) (A) (A) (A) (A) (A)
                 (A) (A) (A) (A) (A) (A) (A) (A) (A) (A) (A) (A)
                 (A) (A) (A) (A) (A) (A) (A) (A) (A) (A) (A) (A)
                 (A) (A) (A) (A) (A) (A) (A) (A) (A) (A) (A) (A)
                 (A) (A) (A) (A) (A) (A) (A) (A) (A) (A) (A) (A)
                 (A) (A) (A) (A) (A) (A) (A) (A) (A) (A) (A) (A)
                 (A) (A) (A) (A) (A) (A) (A) (A) (A) (A) (A) (A)
                 (A) (A) (A) (A) (A) (A) (A) (A) (A) (A) (A) (A)
                 (A) (A) (A) (A) (A) (A) (A) (A) (A) (A) (A) (A)
                 (A) (A) (A) (A) (A) (A) (A) (A) (A) (A) (A) (A)
                 (A) (A) (A) (A) (A) (A) (A) (A) (A) (A) (A) (A)
                 (A) (A) (A) (A) (A) (A) (A) (A) (A) (A) (A) (A)
                 (A) (A) (A) (A) (A) (A) (A) (A) (A) (A) (A) (A)
                 (A) (A) (A) (A) (A) (A) (A) (A) (A) (A) (A) (A)
                 (A) (A) (A) (A) (A) (A) (A) (A) (A) (A) (A) (A)
                 (A) (A) (A) (A) (A) (A) (A) (A) (A) (A) (A) (A)
                 (A) (A) (A) (A) (A) (A) (A) (A) (A) (A) (A) (A)
                 (A) (A) (A) (A) (A) (A) (A) (A) (A) (A) (A) (A)
                 (A) (A) (A) (A) (A) (A) (A) (A) (A) (A) (A) (A)
                 (A) (A) (A) (A) (A) (A) (A) (A) (A) (A) (A) (A)
                 (A) (A) (A) (A) (A) (A) (A) (A) (A) (A) (A) (A)
                 (A) (A) (A) (A) (A) (A) (A) (A) (A) (A) (A) (A)
                 (A) (A) (A) (A) (A) (A) (A) (A) (A) (A) (A) (A)
                 (A) (A) (A) (A) (A) (A) (A) (A) (A) (A) (A) (A)
                 (A) (A) (A) (A) (A) (A) (A) (A) (A) (A) (A) (A)
                 (A) (A) (A) (A) (A) (A) (A) (A) (A) (A) (A) (A)
                 (A) (A) (A) (A) (A) (A) (A) (A) (A) (A) (A) (A)
                 (A) (A) (A) (A) (A) (A) (A) (A) (A) (A) (A) (A)
                 (A) (A) (A) (A) (A) (A) (A) (A) (A) (A) (A) (A)
                 (A) (A) (A) (A) (A) (A) (A) (A) (A) (A) (A) (A)
                 (A) (A) (A) (A) (A) (A) (A) (A) (A) (A) (A) (A)
                 (A) (A) (A) (A) (A) (A) (A) (A) (A) (A) (A) (A)
                 (A) (A) (A) (A) (A) (A) (A) (A) (A) (A) (A) (A)
                 (A) (A) (A) (A) (A) (A) (A) (A) (A) (A) (A) (A)
                 (A) (A) (A) (A) (A) (A) (A) (A) (A) (A) (A) (A)
                 (A) (A) (A) (A) (A) (A) (A) (A) (A) (A) (A) (A)
                 (A) (A) (A) (A) (A) (A) (A) (A) (A) (A) (A) (A)
                 (A) (A) (A)
 The electronic state is 1-A.
 Alpha  occ. eigenvalues --  -19.18041 -19.16099 -19.12989 -19.11722 -19.10132
 Alpha  occ. eigenvalues --  -19.10101 -14.37519 -14.36790 -14.35803 -14.29591
 Alpha  occ. eigenvalues --  -10.32310 -10.29258 -10.28818 -10.26637 -10.25869
 Alpha  occ. eigenvalues --  -10.25188 -10.24513 -10.23722 -10.23469 -10.23356
 Alpha  occ. eigenvalues --  -10.22894 -10.22650 -10.22635 -10.21855 -10.21780
 Alpha  occ. eigenvalues --  -10.21639 -10.21561 -10.21423 -10.20953 -10.20512
 Alpha  occ. eigenvalues --  -10.20436 -10.20288 -10.20140 -10.20085 -10.19400
 Alpha  occ. eigenvalues --  -10.19233 -10.19051 -10.18944 -10.18938 -10.18241
 Alpha  occ. eigenvalues --  -10.16985 -10.16628 -10.16583  -1.10280  -1.09204
 Alpha  occ. eigenvalues --   -1.01473  -1.01340  -1.00475  -0.99616  -0.99195
 Alpha  occ. eigenvalues --   -0.98476  -0.93135  -0.92900  -0.83678  -0.83068
 Alpha  occ. eigenvalues --   -0.82145  -0.81838  -0.79958  -0.79706  -0.78959
 Alpha  occ. eigenvalues --   -0.77699  -0.76786  -0.76060  -0.75214  -0.73598
 Alpha  occ. eigenvalues --   -0.72660  -0.72282  -0.70511  -0.69888  -0.69386
 Alpha  occ. eigenvalues --   -0.67347  -0.66416  -0.64171  -0.61675  -0.61089
 Alpha  occ. eigenvalues --   -0.60912  -0.59311  -0.58364  -0.57269  -0.56632
 Alpha  occ. eigenvalues --   -0.56309  -0.55785  -0.55287  -0.53801  -0.53583
 Alpha  occ. eigenvalues --   -0.53057  -0.52223  -0.51779  -0.51116  -0.50144
 Alpha  occ. eigenvalues --   -0.49056  -0.48698  -0.48262  -0.48155  -0.47967
 Alpha  occ. eigenvalues --   -0.47754  -0.47594  -0.46851  -0.46606  -0.46121
 Alpha  occ. eigenvalues --   -0.45979  -0.45461  -0.44951  -0.44777  -0.44092
 Alpha  occ. eigenvalues --   -0.43951  -0.43673  -0.43504  -0.43043  -0.42919
 Alpha  occ. eigenvalues --   -0.42762  -0.42423  -0.41955  -0.41504  -0.41287
 Alpha  occ. eigenvalues --   -0.41106  -0.40999  -0.40794  -0.40396  -0.40063
 Alpha  occ. eigenvalues --   -0.39770  -0.39259  -0.38974  -0.38911  -0.38791
 Alpha  occ. eigenvalues --   -0.38257  -0.37624  -0.37518  -0.37182  -0.37064
 Alpha  occ. eigenvalues --   -0.36840  -0.36552  -0.35405  -0.34396  -0.34012
 Alpha  occ. eigenvalues --   -0.33486  -0.33276  -0.32311  -0.32236  -0.31668
 Alpha  occ. eigenvalues --   -0.31623  -0.31208  -0.28911  -0.28731  -0.27500
 Alpha  occ. eigenvalues --   -0.27200  -0.26984  -0.26121  -0.25807  -0.25436
 Alpha  occ. eigenvalues --   -0.24598  -0.24546  -0.24114  -0.22538  -0.18277
 Alpha virt. eigenvalues --   -0.11578  -0.07153  -0.06232  -0.03103  -0.01675
 Alpha virt. eigenvalues --    0.00462   0.01788   0.02794   0.03146   0.03879
 Alpha virt. eigenvalues --    0.04149   0.04540   0.04691   0.05173   0.05298
 Alpha virt. eigenvalues --    0.05530   0.05743   0.06057   0.06535   0.07042
 Alpha virt. eigenvalues --    0.07342   0.08158   0.08342   0.08885   0.09051
 Alpha virt. eigenvalues --    0.09213   0.09833   0.10251   0.10338   0.10964
 Alpha virt. eigenvalues --    0.11063   0.11486   0.11775   0.12108   0.12417
 Alpha virt. eigenvalues --    0.12853   0.13200   0.13651   0.14375   0.14551
 Alpha virt. eigenvalues --    0.15186   0.15436   0.15800   0.16011   0.16463
 Alpha virt. eigenvalues --    0.16854   0.17063   0.17895   0.18159   0.18316
 Alpha virt. eigenvalues --    0.18500   0.19011   0.19779   0.20099   0.20260
 Alpha virt. eigenvalues --    0.20849   0.21434   0.21917   0.22365   0.22635
 Alpha virt. eigenvalues --    0.22989   0.23240   0.23841   0.24059   0.24247
 Alpha virt. eigenvalues --    0.24873   0.24949   0.25319   0.25743   0.26178
 Alpha virt. eigenvalues --    0.26637   0.27507   0.28029   0.28397   0.29209
 Alpha virt. eigenvalues --    0.29834   0.30706   0.30935   0.31636   0.31954
 Alpha virt. eigenvalues --    0.32115   0.32954   0.33844   0.34209   0.34875
 Alpha virt. eigenvalues --    0.34922   0.35242   0.35609   0.36135   0.36208
 Alpha virt. eigenvalues --    0.36726   0.37727   0.37742   0.37871   0.38592
 Alpha virt. eigenvalues --    0.39731   0.40056   0.40514   0.41432   0.41493
 Alpha virt. eigenvalues --    0.41987   0.42243   0.42629   0.42799   0.43175
 Alpha virt. eigenvalues --    0.43559   0.44037   0.44193   0.44395   0.44516
 Alpha virt. eigenvalues --    0.44978   0.45318   0.45670   0.46234   0.46643
 Alpha virt. eigenvalues --    0.47046   0.47506   0.47567   0.48297   0.48677
 Alpha virt. eigenvalues --    0.49066   0.49566   0.50010   0.50121   0.50368
 Alpha virt. eigenvalues --    0.50680   0.50774   0.50875   0.51141   0.51349
 Alpha virt. eigenvalues --    0.52145   0.52494   0.52604   0.52758   0.53357
 Alpha virt. eigenvalues --    0.53988   0.54224   0.54420   0.54657   0.55165
 Alpha virt. eigenvalues --    0.55469   0.56226   0.56626   0.56863   0.57284
 Alpha virt. eigenvalues --    0.57405   0.57724   0.58260   0.58821   0.59025
 Alpha virt. eigenvalues --    0.59263   0.59953   0.60210   0.60411   0.60830
 Alpha virt. eigenvalues --    0.61157   0.61269   0.61624   0.61844   0.62448
 Alpha virt. eigenvalues --    0.62871   0.63159   0.63348   0.63510   0.63653
 Alpha virt. eigenvalues --    0.63979   0.64163   0.64411   0.64506   0.64797
 Alpha virt. eigenvalues --    0.65071   0.65282   0.65425   0.66198   0.66666
 Alpha virt. eigenvalues --    0.67062   0.67299   0.67444   0.67640   0.67900
 Alpha virt. eigenvalues --    0.68008   0.68337   0.68603   0.68986   0.69172
 Alpha virt. eigenvalues --    0.69485   0.69530   0.69735   0.70214   0.70314
 Alpha virt. eigenvalues --    0.70597   0.70849   0.71108   0.71247   0.71918
 Alpha virt. eigenvalues --    0.72508   0.72810   0.73194   0.73583   0.73750
 Alpha virt. eigenvalues --    0.74488   0.74577   0.74851   0.75266   0.75441
 Alpha virt. eigenvalues --    0.75936   0.76414   0.76863   0.77078   0.77867
 Alpha virt. eigenvalues --    0.78199   0.78612   0.78802   0.78939   0.79470
 Alpha virt. eigenvalues --    0.79839   0.80161   0.80775   0.81479   0.81716
 Alpha virt. eigenvalues --    0.82137   0.82888   0.83450   0.83994   0.84770
 Alpha virt. eigenvalues --    0.85096   0.85763   0.86150   0.86642   0.87319
 Alpha virt. eigenvalues --    0.87654   0.87826   0.88602   0.89591   0.90555
 Alpha virt. eigenvalues --    0.90665   0.91305   0.92071   0.92476   0.92953
 Alpha virt. eigenvalues --    0.93284   0.94414   0.94693   0.94900   0.95497
 Alpha virt. eigenvalues --    0.96077   0.96904   0.97195   0.97647   0.97969
 Alpha virt. eigenvalues --    0.98224   0.98798   0.99714   1.00639   1.01719
 Alpha virt. eigenvalues --    1.02053   1.02748   1.03960   1.04417   1.04910
 Alpha virt. eigenvalues --    1.05675   1.06143   1.06662   1.07392   1.08029
 Alpha virt. eigenvalues --    1.08519   1.09666   1.10838   1.11303   1.12126
 Alpha virt. eigenvalues --    1.12809   1.13075   1.14210   1.14880   1.15748
 Alpha virt. eigenvalues --    1.16086   1.16998   1.17376   1.17977   1.18149
 Alpha virt. eigenvalues --    1.19143   1.19783   1.20511   1.21006   1.21418
 Alpha virt. eigenvalues --    1.22006   1.22558   1.23718   1.23900   1.24461
 Alpha virt. eigenvalues --    1.25124   1.25696   1.25938   1.26775   1.27660
 Alpha virt. eigenvalues --    1.27818   1.29185   1.29755   1.30470   1.31473
 Alpha virt. eigenvalues --    1.31558   1.32169   1.32579   1.32709   1.33623
 Alpha virt. eigenvalues --    1.34101   1.35496   1.35840   1.37038   1.37398
 Alpha virt. eigenvalues --    1.38257   1.39125   1.39562   1.40777   1.41809
 Alpha virt. eigenvalues --    1.42116   1.43705   1.44321   1.44916   1.45409
 Alpha virt. eigenvalues --    1.46546   1.46690   1.47257   1.47427   1.47759
 Alpha virt. eigenvalues --    1.49070   1.49528   1.49943   1.50505   1.51407
 Alpha virt. eigenvalues --    1.51965   1.52316   1.52866   1.53312   1.53496
 Alpha virt. eigenvalues --    1.54202   1.54662   1.55227   1.55818   1.56595
 Alpha virt. eigenvalues --    1.56710   1.57390   1.57735   1.57998   1.58234
 Alpha virt. eigenvalues --    1.58912   1.59488   1.60626   1.61615   1.61793
 Alpha virt. eigenvalues --    1.62353   1.63070   1.63478   1.63673   1.64489
 Alpha virt. eigenvalues --    1.64820   1.65057   1.65847   1.66732   1.66744
 Alpha virt. eigenvalues --    1.67156   1.67409   1.67721   1.68044   1.68161
 Alpha virt. eigenvalues --    1.69091   1.69700   1.70235   1.70769   1.71125
 Alpha virt. eigenvalues --    1.71424   1.72330   1.72784   1.73429   1.73973
 Alpha virt. eigenvalues --    1.74182   1.74270   1.74666   1.75484   1.75862
 Alpha virt. eigenvalues --    1.76006   1.76496   1.76959   1.77735   1.78129
 Alpha virt. eigenvalues --    1.78466   1.78906   1.79471   1.79864   1.80170
 Alpha virt. eigenvalues --    1.80475   1.80719   1.81356   1.81468   1.81861
 Alpha virt. eigenvalues --    1.82490   1.83026   1.83245   1.83754   1.83819
 Alpha virt. eigenvalues --    1.84066   1.84413   1.85427   1.85701   1.86302
 Alpha virt. eigenvalues --    1.86993   1.87261   1.87390   1.88269   1.88822
 Alpha virt. eigenvalues --    1.88952   1.89923   1.90021   1.91024   1.91891
 Alpha virt. eigenvalues --    1.92192   1.93213   1.93374   1.93441   1.94497
 Alpha virt. eigenvalues --    1.94727   1.95095   1.95470   1.96288   1.96815
 Alpha virt. eigenvalues --    1.97293   1.97453   1.98275   1.99364   1.99531
 Alpha virt. eigenvalues --    2.00333   2.00765   2.01002   2.01383   2.01734
 Alpha virt. eigenvalues --    2.02072   2.02805   2.03242   2.03735   2.04523
 Alpha virt. eigenvalues --    2.04926   2.05257   2.05949   2.06689   2.07239
 Alpha virt. eigenvalues --    2.07453   2.07651   2.08298   2.09180   2.09226
 Alpha virt. eigenvalues --    2.09582   2.10021   2.10241   2.10755   2.11627
 Alpha virt. eigenvalues --    2.12182   2.12740   2.13539   2.13569   2.14071
 Alpha virt. eigenvalues --    2.14303   2.14444   2.15044   2.15895   2.16485
 Alpha virt. eigenvalues --    2.17035   2.18154   2.18606   2.19819   2.20359
 Alpha virt. eigenvalues --    2.20908   2.21539   2.22193   2.23280   2.24080
 Alpha virt. eigenvalues --    2.24537   2.25206   2.25542   2.25727   2.27375
 Alpha virt. eigenvalues --    2.27463   2.28634   2.29149   2.29629   2.29807
 Alpha virt. eigenvalues --    2.30272   2.30659   2.32328   2.32870   2.33155
 Alpha virt. eigenvalues --    2.34436   2.35018   2.35365   2.36075   2.36542
 Alpha virt. eigenvalues --    2.37187   2.38658   2.39978   2.40302   2.41795
 Alpha virt. eigenvalues --    2.42139   2.42741   2.43616   2.44073   2.44359
 Alpha virt. eigenvalues --    2.44843   2.45194   2.45513   2.46324   2.47276
 Alpha virt. eigenvalues --    2.48669   2.49135   2.49410   2.50418   2.51318
 Alpha virt. eigenvalues --    2.52616   2.52737   2.54095   2.54522   2.55331
 Alpha virt. eigenvalues --    2.56386   2.57398   2.57815   2.58660   2.58759
 Alpha virt. eigenvalues --    2.59186   2.60290   2.60426   2.62070   2.62577
 Alpha virt. eigenvalues --    2.63362   2.63870   2.64659   2.65093   2.65364
 Alpha virt. eigenvalues --    2.65930   2.66948   2.67991   2.68696   2.69990
 Alpha virt. eigenvalues --    2.71150   2.71591   2.72051   2.72371   2.73113
 Alpha virt. eigenvalues --    2.73706   2.74499   2.74969   2.75104   2.75413
 Alpha virt. eigenvalues --    2.76419   2.77111   2.77656   2.78435   2.79474
 Alpha virt. eigenvalues --    2.80020   2.81165   2.82681   2.83176   2.83525
 Alpha virt. eigenvalues --    2.84920   2.85532   2.85748   2.86163   2.86913
 Alpha virt. eigenvalues --    2.87420   2.87441   2.87724   2.88781   2.89891
 Alpha virt. eigenvalues --    2.91104   2.91535   2.91779   2.92978   2.93251
 Alpha virt. eigenvalues --    2.93890   2.94186   2.96313   2.97177   2.98497
 Alpha virt. eigenvalues --    2.99415   2.99863   3.02145   3.03151   3.05347
 Alpha virt. eigenvalues --    3.06445   3.06873   3.07476   3.08510   3.09382
 Alpha virt. eigenvalues --    3.10120   3.10435   3.12594   3.12965   3.14471
 Alpha virt. eigenvalues --    3.15571   3.16910   3.17334   3.18527   3.20527
 Alpha virt. eigenvalues --    3.21075   3.21771   3.24264   3.25168   3.27200
 Alpha virt. eigenvalues --    3.29370   3.29896   3.32224   3.33016   3.34864
 Alpha virt. eigenvalues --    3.36233   3.38120   3.46011   3.47526   3.48660
 Alpha virt. eigenvalues --    3.50149   3.51911   3.52252   3.58065   3.59264
 Alpha virt. eigenvalues --    3.62768   3.65093   3.66260   3.72935   3.73869
 Alpha virt. eigenvalues --    3.74734   3.78662
          Condensed to atoms (all electrons):
 Mulliken charges:
               1
     1  O   -0.249609
     2  O   -0.238598
     3  O   -0.136875
     4  O   -0.215155
     5  O   -0.247871
     6  O   -0.233243
     7  N   -0.086390
     8  N   -0.214889
     9  N   -0.028063
    10  N   -0.202448
    11  C    0.064578
    12  C    0.065192
    13  C   -0.064238
    14  C   -0.203044
    15  C   -0.085744
    16  C    0.191613
    17  C   -0.171197
    18  C    0.022779
    19  C   -0.047789
    20  C   -0.022420
    21  C    0.017945
    22  C    0.165505
    23  C   -0.045483
    24  C    0.380923
    25  C    0.122336
    26  C   -0.139190
    27  C    0.120454
    28  C    0.127609
    29  C    0.037168
    30  C    0.003920
    31  C   -0.113063
    32  C    0.135463
    33  C   -0.131121
    34  C    0.072754
    35  C    0.056875
    36  C    0.021997
    37  C    0.164232
    38  C   -0.035371
    39  C   -0.178726
    40  C    0.102613
    41  C   -0.018347
    42  C    0.268682
    43  C   -0.011325
    44  H    0.048892
    45  H   -0.000778
    46  H    0.034300
    47  H    0.111410
    48  H    0.156685
    49  H   -0.011779
    50  H    0.033821
    51  H   -0.174918
    52  H   -0.062775
    53  H   -0.089337
    54  H    0.042286
    55  H    0.004357
    56  H    0.049963
    57  H    0.025164
    58  H    0.032465
    59  H   -0.021416
    60  H    0.119214
    61  H    0.047054
    62  H    0.049708
    63  H   -0.014990
    64  H    0.076945
    65  H    0.085801
    66  H   -0.006483
    67  H    0.018415
    68  H    0.028503
    69  H    0.014085
    70  H   -0.015367
    71  H    0.037353
    72  H    0.191844
    73  H    0.001662
    74  H   -0.068652
    75  H   -0.015693
    76  H    0.022569
    77  H    0.198590
    78  H   -0.014681
    79  H    0.043344
 Sum of Mulliken charges =  -0.00000
 Mulliken charges with hydrogens summed into heavy atoms:
               1
     1  O   -0.249609
     2  O   -0.046754
     3  O   -0.136875
     4  O   -0.016566
     5  O   -0.247871
     6  O   -0.233243
     7  N    0.025021
     8  N   -0.058204
     9  N    0.091151
    10  N   -0.202448
    11  C    0.113471
    12  C    0.098715
    13  C   -0.064238
    14  C   -0.203044
    15  C   -0.085744
    16  C    0.191613
    17  C   -0.171197
    18  C    0.044820
    19  C   -0.047789
    20  C   -0.197339
    21  C    0.017945
    22  C    0.165505
    23  C   -0.045483
    24  C    0.271097
    25  C    0.201821
    26  C   -0.139190
    27  C    0.131504
    28  C    0.127609
    29  C    0.133930
    30  C   -0.011071
    31  C    0.049683
    32  C    0.175897
    33  C   -0.117035
    34  C    0.072754
    35  C    0.056875
    36  C    0.043983
    37  C    0.164232
    38  C   -0.035371
    39  C   -0.178726
    40  C    0.102613
    41  C   -0.016685
    42  C    0.206905
    43  C    0.017338
 Electronic spatial extent (au):  <R**2>=          31469.6151
 Charge=             -0.0000 electrons
 Dipole moment (field-independent basis, Debye):
    X=             -0.4993    Y=              2.0529    Z=              2.9978  Tot=              3.6674
 Quadrupole moment (field-independent basis, Debye-Ang):
   XX=           -218.9631   YY=           -249.7165   ZZ=           -266.9089
   XY=             -4.5205   XZ=             34.8809   YZ=              7.0872
 Traceless Quadrupole moment (field-independent basis, Debye-Ang):
   XX=             26.2330   YY=             -4.5203   ZZ=            -21.7127
   XY=             -4.5205   XZ=             34.8809   YZ=              7.0872
 Octapole moment (field-independent basis, Debye-Ang**2):
  XXX=            -28.9944  YYY=             63.6881  ZZZ=             90.4021  XYY=            -64.2295
  XXY=            -61.1911  XXZ=             81.0481  XZZ=            -79.6101  YZZ=             -7.7364
  YYZ=             63.4545  XYZ=            -16.3376
 Hexadecapole moment (field-independent basis, Debye-Ang**3):
 XXXX=         -22459.8479 YYYY=         -12108.0257 ZZZZ=          -5269.0295 XXXY=             30.3472
 XXXZ=            736.4310 YYYX=            100.1289 YYYZ=            771.7318 ZZZX=            130.4213
 ZZZY=            -88.1496 XXYY=          -5709.8660 XXZZ=          -5100.9749 YYZZ=          -3084.9271
 XXYZ=           -130.5827 YYXZ=             50.9732 ZZXY=             56.0358
 N-N= 4.956826166638D+03 E-N=-1.444347426481D+04  KE= 1.929303690985D+03
 1\1\GINC-PADAWAN\SP\RB3LYP TD-FC\SVP\C33H36N4O6\PADAWAN\16-Sep-2019\0\
 \# td=(NStates=1) B3LYP/SVP\\TD\\0,1\O,0,-5.2551117412,0.2619416338,-3
 .3747972694\O,0,2.945984604,2.8440116559,3.5492710055\O,0,3.3486832169
 ,0.7682522242,2.9143433194\O,0,1.4052081603,-7.1537216423,1.5190604123
 \O,0,0.8387687649,-7.0679932229,-0.6353915221\O,0,1.7140484529,3.90771
 38942,0.2129408015\N,0,-2.2448140925,-0.9184602762,0.5569027069\N,0,-4
 .2425191333,0.5960872752,-1.2957679316\N,0,1.8246528569,-0.7305546285,
 -0.3198004576\N,0,2.5808836303,1.9086466102,-0.3118379305\C,0,-4.63245
 96372,1.1729487919,0.0156173615\C,0,-4.3627636692,0.2608162469,1.21045
 84035\C,0,-2.8601911147,-0.0369434376,1.4604280558\C,0,-1.935862683,0.
 5835533125,2.1883920088\C,0,-0.702486859,-0.0272381593,1.8727679544\C,
 0,-0.9205062384,-0.9530683657,0.8138732067\C,0,-6.2145738135,1.3245802
 473,-0.1546806835\C,0,0.6151201186,0.1920098775,2.599258946\C,0,-6.513
 5018647,0.9409033387,-1.4415698857\C,0,-0.22693895,-1.8924379807,0.175
 3496165\C,0,1.113178214,-1.8602855752,-0.2884004222\C,0,-5.3138619865,
 0.5023884535,-2.1545127628\C,0,1.9758016654,-2.9901595544,-0.767713780
 7\C,0,-2.1271984207,1.6925650134,3.1749218824\C,0,-7.0282503182,2.0059
 887281,0.9322172076\C,0,3.1071670504,-2.3579157428,-1.2709583409\C,0,1
 .1769837257,1.6580342968,2.6587795139\C,0,3.0506331386,-0.9157001956,-
 0.9817421624\C,0,1.5617099412,-4.4107970441,-0.897201437\C,0,-7.841460
 052,0.9179434319,-2.0773361214\C,0,1.7784254081,-5.1701979544,0.380054
 0009\C,0,4.3746730763,-3.0449529641,-1.877827014\C,0,3.9222030909,-0.0
 069412906,-1.1773824206\C,0,2.6206026815,1.6165892471,3.0599518951\C,0
 ,3.573151693,1.4168270942,-1.0354901163\C,0,-9.0796029437,0.8847706374
 ,-1.5399888142\C,0,1.3205271174,-6.4815748077,0.3320818672\C,0,4.40280
 91155,2.6267994348,-1.5418812712\C,0,3.6422834967,3.7954800717,-1.1348
 447788\C,0,2.6293245033,3.2380616573,-0.2964384065\C,0,5.5993035357,2.
 5528501256,-2.4488168368\C,0,3.9290885287,5.2633712129,-1.3223842518\C
 ,0,6.3661966773,3.5203277176,-3.0085153284\H,0,-4.2098754736,2.2018012
 602,0.4833813784\H,0,-4.8852731842,-0.7397154476,1.1120359478\H,0,-4.8
 511619561,0.8241564153,2.2178586956\H,0,-2.6991089508,-1.5211295085,-0
 .1151184336\H,0,-3.2510561029,0.5514670638,-1.6771652674\H,0,0.4341178
 465,-0.1935990479,3.5621557637\H,0,1.3914031497,-0.6687815456,2.236608
 7937\H,0,-0.5898676477,-2.6504225073,-0.1857335711\H,0,-3.0193820835,1
 .4061018743,3.4000299927\H,0,-1.5220434194,1.4872080847,3.8449828862\H
 ,0,-1.8170880899,2.6998738072,2.850752497\H,0,-6.5054539963,2.83320212
 37,1.3067929123\H,0,-7.4166814351,1.2618659958,1.6107780885\H,0,-7.836
 9096282,2.6800540885,0.5608045607\H,0,1.1475274611,2.1822702636,1.7636
 544327\H,0,0.6407171842,2.2055873807,3.3444102652\H,0,1.7015744838,0.2
 379844434,-0.1454499103\H,0,2.099347727,-4.9961434447,-1.7621308228\H,
 0,0.43152495,-4.4756674142,-1.173035787\H,0,-7.6799590577,0.7728675174
 ,-3.1081467529\H,0,1.3276749564,-4.513242504,1.2465322298\H,0,3.055381
 8083,-5.1898061851,0.8189697119\H,0,4.3050355659,-4.0482622784,-2.0496
 384249\H,0,5.2175328517,-2.8657154217,-1.2550191195\H,0,4.6595073838,-
 2.415733806,-2.8206011337\H,0,4.9317727968,-0.3949615907,-1.6306192376
 \H,0,-9.113414942,0.9045579113,-0.5055832481\H,0,-9.9784459782,0.68211
 96277,-2.1445805581\H,0,3.9908137679,2.8061139951,3.4768324489\H,0,5.7
 211755858,1.5078329325,-2.8239112061\H,0,4.70910161,5.6662693911,-1.09
 10477247\H,0,4.0728793104,5.4087076365,-2.3428468296\H,0,3.0489625659,
 5.7770273091,-0.9595977014\H,0,1.016708979,-8.0668278399,1.3824943043\
 H,0,7.1619286373,3.2719727372,-3.5264899223\H,0,6.4593078183,4.6670222
 144,-2.5452968822\\Version=ES64L-G16RevA.03\State=1-A\HF=-1947.7386974
 \RMSD=5.714e-09\PG=C01 [X(C33H36N4O6)]\\@


 SEEN ON A WALL AT THE UNIVERSITY OF ILLINOIS AT CHICAGO CIRCLE:

 TO DO IS TO BE  -- SOCRATES
 TO BE IS TO DO  -- SARTRE
 OO BE DO BE DO  -- SINATRA
 Job cpu time:       0 days 12 hours 29 minutes 15.7 seconds.
 Elapsed time:       0 days  3 hours  7 minutes 54.7 seconds.
 File lengths (MBytes):  RWF=   2533 Int=      0 D2E=      0 Chk=     63 Scr=      1
 Normal termination of Gaussian 16 at Mon Sep 16 20:21:36 2019.
