 Entering Gaussian System, Link 0=g16
 Input=Geometria-387-.com
 Output=Geometria-387-.log
 Initial command:
 /usr/local/g16/l1.exe "/home/padawan/israel-mol/dihydrobiliverdin/spectra/emi/Gau-8694.inp" -scrdir="/home/padawan/israel-mol/dihydrobiliverdin/spectra/emi/"
 Entering Link 1 = /usr/local/g16/l1.exe PID=      8696.
  
 Copyright (c) 1988,1990,1992,1993,1995,1998,2003,2009,2016,
            Gaussian, Inc.  All Rights Reserved.
  
 This is part of the Gaussian(R) 16 program.  It is based on
 the Gaussian(R) 09 system (copyright 2009, Gaussian, Inc.),
 the Gaussian(R) 03 system (copyright 2003, Gaussian, Inc.),
 the Gaussian(R) 98 system (copyright 1998, Gaussian, Inc.),
 the Gaussian(R) 94 system (copyright 1995, Gaussian, Inc.),
 the Gaussian 92(TM) system (copyright 1992, Gaussian, Inc.),
 the Gaussian 90(TM) system (copyright 1990, Gaussian, Inc.),
 the Gaussian 88(TM) system (copyright 1988, Gaussian, Inc.),
 the Gaussian 86(TM) system (copyright 1986, Carnegie Mellon
 University), and the Gaussian 82(TM) system (copyright 1983,
 Carnegie Mellon University). Gaussian is a federally registered
 trademark of Gaussian, Inc.
  
 This software contains proprietary and confidential information,
 including trade secrets, belonging to Gaussian, Inc.
  
 This software is provided under written license and may be
 used, copied, transmitted, or stored only in accord with that
 written license.
  
 The following legend is applicable only to US Government
 contracts under FAR:
  
                    RESTRICTED RIGHTS LEGEND
  
 Use, reproduction and disclosure by the US Government is
 subject to restrictions as set forth in subparagraphs (a)
 and (c) of the Commercial Computer Software - Restricted
 Rights clause in FAR 52.227-19.
  
 Gaussian, Inc.
 340 Quinnipiac St., Bldg. 40, Wallingford CT 06492
  
  
 ---------------------------------------------------------------
 Warning -- This program may not be used in any manner that
 competes with the business of Gaussian, Inc. or will provide
 assistance to any competitor of Gaussian, Inc.  The licensee
 of this program is prohibited from giving any competitor of
 Gaussian, Inc. access to this program.  By using this program,
 the user acknowledges that Gaussian, Inc. is engaged in the
 business of creating and licensing software in the field of
 computational chemistry and represents and warrants to the
 licensee that it is not a competitor of Gaussian, Inc. and that
 it will not use this program in any manner prohibited above.
 ---------------------------------------------------------------
  

 Cite this work as:
 Gaussian 16, Revision A.03,
 M. J. Frisch, G. W. Trucks, H. B. Schlegel, G. E. Scuseria, 
 M. A. Robb, J. R. Cheeseman, G. Scalmani, V. Barone, 
 G. A. Petersson, H. Nakatsuji, X. Li, M. Caricato, A. V. Marenich, 
 J. Bloino, B. G. Janesko, R. Gomperts, B. Mennucci, H. P. Hratchian, 
 J. V. Ortiz, A. F. Izmaylov, J. L. Sonnenberg, D. Williams-Young, 
 F. Ding, F. Lipparini, F. Egidi, J. Goings, B. Peng, A. Petrone, 
 T. Henderson, D. Ranasinghe, V. G. Zakrzewski, J. Gao, N. Rega, 
 G. Zheng, W. Liang, M. Hada, M. Ehara, K. Toyota, R. Fukuda, 
 J. Hasegawa, M. Ishida, T. Nakajima, Y. Honda, O. Kitao, H. Nakai, 
 T. Vreven, K. Throssell, J. A. Montgomery, Jr., J. E. Peralta, 
 F. Ogliaro, M. J. Bearpark, J. J. Heyd, E. N. Brothers, K. N. Kudin, 
 V. N. Staroverov, T. A. Keith, R. Kobayashi, J. Normand, 
 K. Raghavachari, A. P. Rendell, J. C. Burant, S. S. Iyengar, 
 J. Tomasi, M. Cossi, J. M. Millam, M. Klene, C. Adamo, R. Cammi, 
 J. W. Ochterski, R. L. Martin, K. Morokuma, O. Farkas, 
 J. B. Foresman, and D. J. Fox, Gaussian, Inc., Wallingford CT, 2016.
 
 ******************************************
 Gaussian 16:  ES64L-G16RevA.03 25-Dec-2016
                 5-Oct-2019 
 ******************************************
 %nproc=4
 Will use up to    4 processors via shared memory.
 %Mem=4GB
 --------------------------
 # td=(NStates=1) B3LYP/SVP
 --------------------------
 1/38=1,172=1/1;
 2/12=2,17=6,18=5,40=1/2;
 3/5=18,7=101,11=9,25=1,30=1,74=-5/1,2,3,8;
 4//1;
 5/5=2,38=5/2;
 8/6=1,10=1,108=1/1;
 9/41=1,42=1,70=2/14;
 6/7=2,8=2,9=2,10=2/1;
 99/5=1,9=1/99;
 --
 TD
 --
 Symbolic Z-matrix:
 Charge =  0 Multiplicity = 1
 8                    -5.44917   0.05949  -3.28555 
 8                     3.06549   3.02706   3.27185 
 8                     3.46322   0.88738   3.10476 
 8                     1.57887  -7.04067   1.58873 
 8                     0.61665  -7.0498   -0.44521 
 8                     1.74362   3.95916   0.11098 
 7                    -2.38299  -0.86448   0.57998 
 7                    -4.45041   0.5774   -1.20071 
 7                     1.80622  -0.6957   -0.55429 
 7                     2.54023   1.81714  -0.50197 
 6                    -4.85011   1.2046    0.0164 
 6                    -4.31645   0.32709   1.27217 
 6                    -2.92123   0.04765   1.32084 
 6                    -1.91414   0.71554   2.07179 
 6                    -0.73749   0.0192    1.87548 
 6                    -0.9797   -0.95388   0.78059 
 6                    -6.25725   1.24497  -0.13463 
 6                     0.55597   0.23581   2.56616 
 6                    -6.6888    0.77384  -1.41866 
 6                    -0.15007  -1.99102   0.15058 
 6                     1.1765   -1.8815   -0.42907 
 6                    -5.46995   0.44303  -2.13853 
 6                     1.9169   -2.99238  -1.0334 
 6                    -2.24042   1.75037   3.02549 
 6                    -7.08296   1.88384   0.87063 
 6                     3.13558  -2.35569  -1.53367 
 6                     1.08106   1.7042    2.62278 
 6                     3.04217  -0.91974  -1.17848 
 6                     1.56705  -4.37515  -1.03148 
 6                    -8.12383   0.55577  -1.96305 
 6                     1.69631  -5.06635   0.3825 
 6                     4.2169   -2.91614  -2.28135 
 6                     3.93527   0.0884   -1.50003 
 6                     2.61213   1.73366   3.01378 
 6                     3.7564    1.47222  -1.02714 
 6                    -9.23327   0.65048  -1.38965 
 6                     1.14288  -6.37687   0.33435 
 6                     4.69859   2.56531  -1.32595 
 6                     4.09067   3.72446  -0.82171 
 6                     2.73761   3.29906  -0.3461 
 6                     5.95635   2.42706  -2.00844 
 6                     4.39407   5.23699  -1.04904 
 6                     6.73879   3.39563  -2.44753 
 1                    -4.32809   2.21301   0.0217 
 1                    -4.97808  -0.45367   1.57542 
 1                    -4.60569   0.82685   2.09447 
 1                    -2.77063  -1.4496   -0.06349 
 1                    -3.46559   0.57383  -1.67201 
 1                     0.7647   -0.27827   3.58872 
 1                     1.45391  -0.41707   2.1625 
 1                    -0.62428  -2.94477   0.14765 
 1                    -3.29408   1.64795   3.23232 
 1                    -1.71972   1.58144   3.8989 
 1                    -1.89047   2.83153   2.85942 
 1                    -6.39321   2.81439   1.33562 
 1                    -7.36922   1.21879   1.85467 
 1                    -7.95983   2.16072   0.50991 
 1                     1.21433   2.22947   1.72321 
 1                     0.76191   2.31885   3.32022 
 1                     1.45585   0.18271  -0.22454 
 1                     2.32905  -4.83435  -1.81292 
 1                     0.59786  -4.56344  -1.47305 
 1                    -7.86615   0.39839  -2.9258 
 1                     1.26157  -4.50989   1.27193 
 1                     2.72032  -5.16637   0.5363 
 1                     4.17917  -4.03007  -2.17501 
 1                     5.19876  -2.68879  -1.75648 
 1                     4.33889  -2.7158   -3.24499 
 1                     4.92574  -0.32913  -1.99502 
 1                    -9.42373   0.65983  -0.21797 
 1                    -10.1575   0.60333  -1.95446 
 1                     4.12003   3.16409   3.35055 
 1                     6.12916   1.34566  -2.18668 
 1                     5.33134   5.29827  -0.57023 
 1                     4.6599    5.50209  -2.18809 
 1                     3.60482   6.1716   -0.71525 
 1                     1.16596  -8.01178   1.73289 
 1                     7.62871   3.04598  -2.97907 
 1                     6.20656   4.34898  -2.35352 
 
 Stoichiometry    C33H36N4O6
 Framework group  C1[X(C33H36N4O6)]
 Deg. of freedom   231
 Full point group                 C1      NOp   1
 Largest Abelian subgroup         C1      NOp   1
 Largest concise Abelian subgroup C1      NOp   1
                         Standard orientation:                         
 ---------------------------------------------------------------------
 Center     Atomic      Atomic             Coordinates (Angstroms)
 Number     Number       Type             X           Y           Z
 ---------------------------------------------------------------------
      1          8           0        5.449828   -0.092021   -3.285772
      2          8           0       -3.138559   -3.055559    3.176613
      3          8           0       -3.482673   -0.902348    3.078665
      4          8           0       -1.400360    7.020864    1.817750
      5          8           0       -0.437511    7.071430   -0.215283
      6          8           0       -1.839295   -3.918147   -0.013232
      7          7           0        2.406344    0.783332    0.608897
      8          7           0        4.437723   -0.651663   -1.218225
      9          7           0       -1.785381    0.755827   -0.528296
     10          7           0       -2.581942   -1.738278   -0.556546
     11          6           0        4.821213   -1.327511   -0.022123
     12          6           0        4.309201   -0.477827    1.261494
     13          6           0        2.921377   -0.165332    1.319774
     14          6           0        1.897663   -0.831690    2.049294
     15          6           0        0.738841   -0.100222    1.876038
     16          6           0        1.005660    0.901241    0.812929
     17          6           0        6.226955   -1.398129   -0.175016
     18          6           0       -0.559869   -0.306589    2.559978
     19          6           0        6.670583   -0.896829   -1.443412
     20          6           0        0.202410    1.978519    0.217008
     21          6           0       -1.126287    1.920881   -0.365260
     22          6           0        5.460622   -0.512686   -2.151705
     23          6           0       -1.838492    3.068785   -0.933175
     24          6           0        2.197664   -1.904514    2.969036
     25          6           0        7.036101   -2.089445    0.808779
     26          6           0       -3.072526    2.479161   -1.453125
     27          6           0       -1.121491   -1.762463    2.569543
     28          6           0       -3.015136    1.030641   -1.144382
     29          6           0       -1.454220    4.441612   -0.886910
     30          6           0        8.110799   -0.697256   -1.981165
     31          6           0       -1.566661    5.089943    0.548654
     32          6           0       -4.139249    3.090224   -2.181874
     33          6           0       -3.933028    0.055996   -1.497810
     34          6           0       -2.652952   -1.766249    2.960096
     35          6           0       -3.788936   -1.346370   -1.069786
     36          6           0        9.217329   -0.838054   -1.411619
     37          6           0       -0.980656    6.387110    0.542458
     38          6           0       -4.758030   -2.405403   -1.403195
     39          6           0       -4.179425   -3.595004   -0.936811
     40          6           0       -2.816323   -3.219055   -0.448375
     41          6           0       -6.011709   -2.213879   -2.080307
     42          6           0       -4.520427   -5.091379   -1.212565
     43          6           0       -6.817949   -3.147967   -2.549984
     44          1           0        4.274163   -2.322217   -0.049049
     45          1           0        4.990024    0.275999    1.589414
     46          1           0        4.585582   -1.010859    2.067141
     47          1           0        2.808698    1.378996   -0.015582
     48          1           0        3.453460   -0.608332   -1.688721
     49          1           0       -0.756044    0.179361    3.598654
     50          1           0       -1.441078    0.381169    2.177961
     51          1           0        0.700294    2.919732    0.244565
     52          1           0        3.253482   -1.835148    3.178579
     53          1           0        1.681048   -1.750833    3.847671
     54          1           0        1.820873   -2.970687    2.768417
     55          1           0        6.323170   -3.016968    1.243886
     56          1           0        7.338543   -1.463779    1.813587
     57          1           0        7.905912   -2.376389    0.438930
     58          1           0       -1.267528   -2.255017    1.653597
     59          1           0       -0.818028   -2.407025    3.246692
     60          1           0       -1.457173   -0.141219   -0.227147
     61          1           0       -2.204243    4.944610   -1.652806
     62          1           0       -0.480478    4.619747   -1.322626
     63          1           0        7.857462   -0.502583   -2.938226
     64          1           0       -1.146264    4.494461    1.419512
     65          1           0       -2.587907    5.210510    0.706061
     66          1           0       -4.073751    4.198864   -2.039753
     67          1           0       -5.126666    2.870686   -1.664146
     68          1           0       -4.265870    2.924121   -3.151414
     69          1           0       -4.912587    0.513843   -1.978640
     70          1           0        9.407088   -0.889876   -0.240936
     71          1           0       10.142649   -0.795849   -1.975041
     72          1           0       -4.196220   -3.168672    3.251341
     73          1           0       -6.157390   -1.123323   -2.223560
     74          1           0       -5.459109   -5.144617   -0.735544
     75          1           0       -4.792404   -5.312951   -2.359440
     76          1           0       -3.754885   -6.055667   -0.909400
     77          1           0       -0.963382    7.976217    1.992908
     78          1           0       -7.698666   -2.759276   -3.069582
     79          1           0       -6.309728   -4.116849   -2.486953
 ---------------------------------------------------------------------
 Rotational constants (GHZ):           0.0746842           0.0446408           0.0346700
 Standard basis: SVP (5D, 7F)
 There are   825 symmetry adapted cartesian basis functions of A   symmetry.
 There are   782 symmetry adapted basis functions of A   symmetry.
   782 basis functions,  1327 primitive gaussians,   825 cartesian basis functions
   155 alpha electrons      155 beta electrons
       nuclear repulsion energy      4917.7921713980 Hartrees.
 NAtoms=   79 NActive=   79 NUniq=   79 SFac= 1.00D+00 NAtFMM=   60 NAOKFM=T Big=T
 Integral buffers will be    131072 words long.
 Regular integral format.
 Two-electron integral symmetry is turned on.
 One-electron integrals computed using PRISM.
 NBasis=   782 RedAO= T EigKep=  4.20D-04  NBF=   782
 NBsUse=   782 1.00D-06 EigRej= -1.00D+00 NBFU=   782
 ExpMin= 1.22D-01 ExpMax= 2.27D+03 ExpMxC= 3.41D+02 IAcc=3 IRadAn=         5 AccDes= 0.00D+00
 Harris functional with IExCor=  402 and IRadAn=       5 diagonalized for initial guess.
 HarFok:  IExCor=  402 AccDes= 0.00D+00 IRadAn=         5 IDoV= 1 UseB2=F ITyADJ=14
 ICtDFT=  3500011 ScaDFX=  1.000000  1.000000  1.000000  1.000000
 FoFCou: FMM=F IPFlag=           0 FMFlag=      100000 FMFlg1=        2001
         NFxFlg=           0 DoJE=T BraDBF=F KetDBF=T FulRan=T
         wScrn=  0.000000 ICntrl=       500 IOpCl=  0 I1Cent=   200000004 NGrid=           0
         NMat0=    1 NMatS0=      1 NMatT0=    0 NMatD0=    1 NMtDS0=    0 NMtDT0=    0
 Petite list used in FoFCou.
 Requested convergence on RMS density matrix=1.00D-08 within 128 cycles.
 Requested convergence on MAX density matrix=1.00D-06.
 Requested convergence on             energy=1.00D-06.
 No special actions if energy rises.
 Integral accuracy reduced to 1.0D-05 until final iterations.
 Initial convergence to 1.0D-05 achieved.  Increase integral accuracy.
 SCF Done:  E(RB3LYP) =  -1947.78071146     A.U. after   18 cycles
            NFock= 18  Conv=0.43D-08     -V/T= 2.0103
 DoSCS=F DFT=T ScalE2(SS,OS)=  1.000000  1.000000
 ExpMin= 1.22D-01 ExpMax= 2.27D+03 ExpMxC= 3.41D+02 IAcc=3 IRadAn=         5 AccDes= 0.00D+00
 HarFok:  IExCor=  205 AccDes= 0.00D+00 IRadAn=         5 IDoV=-2 UseB2=F ITyADJ=14
 ICtDFT= 12500011 ScaDFX=  1.000000  1.000000  1.000000  1.000000
 GSVD:  LWork=       -2193 too small for GESVD, short by        9890 words or        9890 for optimal perf.
 Range of M.O.s used for correlation:    44   782
 NBasis=   782 NAE=   155 NBE=   155 NFC=    43 NFV=     0
 NROrb=    739 NOA=   112 NOB=   112 NVA=   627 NVB=   627

 **** Warning!!: The smallest alpha delta epsilon is  0.68067834D-01

 Orbital symmetries:
       Occupied  (A) (A) (A) (A) (A) (A) (A) (A) (A) (A) (A) (A)
                 (A) (A) (A) (A) (A) (A) (A) (A) (A) (A) (A) (A)
                 (A) (A) (A) (A) (A) (A) (A) (A) (A) (A) (A) (A)
                 (A) (A) (A) (A) (A) (A) (A) (A) (A) (A) (A) (A)
                 (A) (A) (A) (A) (A) (A) (A) (A) (A) (A) (A) (A)
                 (A) (A) (A) (A) (A) (A) (A) (A) (A) (A) (A) (A)
                 (A) (A) (A) (A) (A) (A) (A) (A) (A) (A) (A) (A)
                 (A) (A) (A) (A) (A) (A) (A) (A) (A) (A) (A) (A)
                 (A) (A) (A) (A) (A) (A) (A) (A) (A) (A) (A) (A)
                 (A) (A) (A) (A) (A) (A) (A) (A) (A) (A) (A) (A)
                 (A) (A) (A) (A) (A) (A) (A) (A) (A) (A) (A) (A)
                 (A) (A) (A) (A) (A) (A) (A) (A) (A) (A) (A) (A)
                 (A) (A) (A) (A) (A) (A) (A) (A) (A) (A) (A)
       Virtual   (A) (A) (A) (A) (A) (A) (A) (A) (A) (A) (A) (A)
                 (A) (A) (A) (A) (A) (A) (A) (A) (A) (A) (A) (A)
                 (A) (A) (A) (A) (A) (A) (A) (A) (A) (A) (A) (A)
                 (A) (A) (A) (A) (A) (A) (A) (A) (A) (A) (A) (A)
                 (A) (A) (A) (A) (A) (A) (A) (A) (A) (A) (A) (A)
                 (A) (A) (A) (A) (A) (A) (A) (A) (A) (A) (A) (A)
                 (A) (A) (A) (A) (A) (A) (A) (A) (A) (A) (A) (A)
                 (A) (A) (A) (A) (A) (A) (A) (A) (A) (A) (A) (A)
                 (A) (A) (A) (A) (A) (A) (A) (A) (A) (A) (A) (A)
                 (A) (A) (A) (A) (A) (A) (A) (A) (A) (A) (A) (A)
                 (A) (A) (A) (A) (A) (A) (A) (A) (A) (A) (A) (A)
                 (A) (A) (A) (A) (A) (A) (A) (A) (A) (A) (A) (A)
                 (A) (A) (A) (A) (A) (A) (A) (A) (A) (A) (A) (A)
                 (A) (A) (A) (A) (A) (A) (A) (A) (A) (A) (A) (A)
                 (A) (A) (A) (A) (A) (A) (A) (A) (A) (A) (A) (A)
                 (A) (A) (A) (A) (A) (A) (A) (A) (A) (A) (A) (A)
                 (A) (A) (A) (A) (A) (A) (A) (A) (A) (A) (A) (A)
                 (A) (A) (A) (A) (A) (A) (A) (A) (A) (A) (A) (A)
                 (A) (A) (A) (A) (A) (A) (A) (A) (A) (A) (A) (A)
                 (A) (A) (A) (A) (A) (A) (A) (A) (A) (A) (A) (A)
                 (A) (A) (A) (A) (A) (A) (A) (A) (A) (A) (A) (A)
                 (A) (A) (A) (A) (A) (A) (A) (A) (A) (A) (A) (A)
                 (A) (A) (A) (A) (A) (A) (A) (A) (A) (A) (A) (A)
                 (A) (A) (A) (A) (A) (A) (A) (A) (A) (A) (A) (A)
                 (A) (A) (A) (A) (A) (A) (A) (A) (A) (A) (A) (A)
                 (A) (A) (A) (A) (A) (A) (A) (A) (A) (A) (A) (A)
                 (A) (A) (A) (A) (A) (A) (A) (A) (A) (A) (A) (A)
                 (A) (A) (A) (A) (A) (A) (A) (A) (A) (A) (A) (A)
                 (A) (A) (A) (A) (A) (A) (A) (A) (A) (A) (A) (A)
                 (A) (A) (A) (A) (A) (A) (A) (A) (A) (A) (A) (A)
                 (A) (A) (A) (A) (A) (A) (A) (A) (A) (A) (A) (A)
                 (A) (A) (A) (A) (A) (A) (A) (A) (A) (A) (A) (A)
                 (A) (A) (A) (A) (A) (A) (A) (A) (A) (A) (A) (A)
                 (A) (A) (A) (A) (A) (A) (A) (A) (A) (A) (A) (A)
                 (A) (A) (A) (A) (A) (A) (A) (A) (A) (A) (A) (A)
                 (A) (A) (A) (A) (A) (A) (A) (A) (A) (A) (A) (A)
                 (A) (A) (A) (A) (A) (A) (A) (A) (A) (A) (A) (A)
                 (A) (A) (A) (A) (A) (A) (A) (A) (A) (A) (A) (A)
                 (A) (A) (A) (A) (A) (A) (A) (A) (A) (A) (A) (A)
                 (A) (A) (A) (A) (A) (A) (A) (A) (A) (A) (A) (A)
                 (A) (A) (A) (A) (A) (A) (A) (A) (A) (A) (A) (A)
                 (A) (A) (A) (A) (A) (A) (A) (A) (A) (A) (A) (A)
                 (A) (A) (A) (A) (A) (A) (A) (A) (A) (A) (A) (A)
                 (A) (A) (A) (A) (A) (A) (A) (A) (A) (A) (A) (A)
                 (A) (A) (A) (A) (A) (A) (A) (A) (A) (A) (A) (A)
                 (A) (A) (A) (A) (A) (A) (A) (A) (A) (A) (A) (A)
                 (A) (A) (A) (A) (A) (A) (A) (A) (A) (A) (A) (A)
                 (A) (A) (A) (A) (A) (A) (A) (A) (A) (A) (A) (A)
                 (A) (A) (A) (A) (A) (A) (A) (A) (A) (A) (A) (A)
                 (A) (A) (A) (A) (A) (A) (A) (A) (A) (A) (A) (A)
                 (A) (A) (A) (A) (A) (A) (A) (A) (A) (A) (A) (A)
                 (A) (A) (A) (A) (A) (A) (A) (A) (A) (A) (A) (A)
                 (A) (A) (A)
     4 initial guesses have been made.
 Convergence on wavefunction:    0.001000000000000
 Iteration     1 Dimension     4 NMult     0 NNew      4
 CISAX will form     4 AO SS matrices at one time.
 Iteration     2 Dimension     6 NMult     4 NNew      2
 Iteration     3 Dimension     8 NMult     6 NNew      2
 Iteration     4 Dimension    10 NMult     8 NNew      2
 Iteration     5 Dimension    12 NMult    10 NNew      2
 Iteration     6 Dimension    14 NMult    12 NNew      2
 Iteration     7 Dimension    16 NMult    14 NNew      2
 ***********************************************************************
 Excited states from <AA,BB:AA,BB> singles matrix:
 ***********************************************************************
 
 Ground to excited state transition densities written to RWF  633
 Ground to excited state transition electric dipole moments (Au):
       state          X           Y           Z        Dip. S.      Osc.
         1         2.5594      1.1922      0.8650      8.7201      0.3768
 Ground to excited state transition velocity dipole moments (Au):
       state          X           Y           Z        Dip. S.      Osc.
         1        -0.1588     -0.0689     -0.0562      0.0331      0.3410
 Ground to excited state transition magnetic dipole moments (Au):
       state          X           Y           Z
         1        -0.7126      0.0571      1.3775
 Ground to excited state transition velocity quadrupole moments (Au):
       state          XX          YY          ZZ          XY          XZ          YZ
         1         0.2862      0.3876     -0.0785      0.6336      0.3146      0.2059
 <0|del|b> * <b|rxdel|0> + <0|del|b> * <b|delr+rdel|0>
 Rotatory Strengths (R) in cgs (10**-40 erg-esu-cm/Gauss)
       state          XX          YY          ZZ    R(velocity)    E-M Angle
         1      -519.9518    210.9246    656.1782    115.7170       83.53
 1/2[<0|r|b>*<b|rxdel|0> + (<0|rxdel|b>*<b|r|0>)*]
 Rotatory Strengths (R) in cgs (10**-40 erg-esu-cm/Gauss)
       state          XX          YY          ZZ     R(length)
         1      1289.7140    -48.1562   -842.6281    132.9766
  1/2[<0|del|b>*<b|r|0> + (<0|r|b>*<b|del|0>)*] (Au)
       state          X           Y           Z        Dip. S.   Osc.(frdel)
         1        -0.4066     -0.0822     -0.0486      0.5374      0.3583

 Excitation energies and oscillator strengths:
 
 Excited State   1:      Singlet-A      1.7636 eV  703.00 nm  f=0.3768  <S**2>=0.000
     155 ->156         0.70310
     155 <-156        -0.13356
 This state for optimization and/or second-order correction.
 Total Energy, E(TD-HF/TD-DFT) =  -1947.71589914    
 Copying the excited state density for this state as the 1-particle RhoCI density.
 SavETr:  write IOETrn=   770 NScale= 10 NData=  16 NLR=1 NState=    1 LETran=      28.

 **********************************************************************

            Population analysis using the SCF density.

 **********************************************************************

 Orbital symmetries:
       Occupied  (A) (A) (A) (A) (A) (A) (A) (A) (A) (A) (A) (A)
                 (A) (A) (A) (A) (A) (A) (A) (A) (A) (A) (A) (A)
                 (A) (A) (A) (A) (A) (A) (A) (A) (A) (A) (A) (A)
                 (A) (A) (A) (A) (A) (A) (A) (A) (A) (A) (A) (A)
                 (A) (A) (A) (A) (A) (A) (A) (A) (A) (A) (A) (A)
                 (A) (A) (A) (A) (A) (A) (A) (A) (A) (A) (A) (A)
                 (A) (A) (A) (A) (A) (A) (A) (A) (A) (A) (A) (A)
                 (A) (A) (A) (A) (A) (A) (A) (A) (A) (A) (A) (A)
                 (A) (A) (A) (A) (A) (A) (A) (A) (A) (A) (A) (A)
                 (A) (A) (A) (A) (A) (A) (A) (A) (A) (A) (A) (A)
                 (A) (A) (A) (A) (A) (A) (A) (A) (A) (A) (A) (A)
                 (A) (A) (A) (A) (A) (A) (A) (A) (A) (A) (A) (A)
                 (A) (A) (A) (A) (A) (A) (A) (A) (A) (A) (A)
       Virtual   (A) (A) (A) (A) (A) (A) (A) (A) (A) (A) (A) (A)
                 (A) (A) (A) (A) (A) (A) (A) (A) (A) (A) (A) (A)
                 (A) (A) (A) (A) (A) (A) (A) (A) (A) (A) (A) (A)
                 (A) (A) (A) (A) (A) (A) (A) (A) (A) (A) (A) (A)
                 (A) (A) (A) (A) (A) (A) (A) (A) (A) (A) (A) (A)
                 (A) (A) (A) (A) (A) (A) (A) (A) (A) (A) (A) (A)
                 (A) (A) (A) (A) (A) (A) (A) (A) (A) (A) (A) (A)
                 (A) (A) (A) (A) (A) (A) (A) (A) (A) (A) (A) (A)
                 (A) (A) (A) (A) (A) (A) (A) (A) (A) (A) (A) (A)
                 (A) (A) (A) (A) (A) (A) (A) (A) (A) (A) (A) (A)
                 (A) (A) (A) (A) (A) (A) (A) (A) (A) (A) (A) (A)
                 (A) (A) (A) (A) (A) (A) (A) (A) (A) (A) (A) (A)
                 (A) (A) (A) (A) (A) (A) (A) (A) (A) (A) (A) (A)
                 (A) (A) (A) (A) (A) (A) (A) (A) (A) (A) (A) (A)
                 (A) (A) (A) (A) (A) (A) (A) (A) (A) (A) (A) (A)
                 (A) (A) (A) (A) (A) (A) (A) (A) (A) (A) (A) (A)
                 (A) (A) (A) (A) (A) (A) (A) (A) (A) (A) (A) (A)
                 (A) (A) (A) (A) (A) (A) (A) (A) (A) (A) (A) (A)
                 (A) (A) (A) (A) (A) (A) (A) (A) (A) (A) (A) (A)
                 (A) (A) (A) (A) (A) (A) (A) (A) (A) (A) (A) (A)
                 (A) (A) (A) (A) (A) (A) (A) (A) (A) (A) (A) (A)
                 (A) (A) (A) (A) (A) (A) (A) (A) (A) (A) (A) (A)
                 (A) (A) (A) (A) (A) (A) (A) (A) (A) (A) (A) (A)
                 (A) (A) (A) (A) (A) (A) (A) (A) (A) (A) (A) (A)
                 (A) (A) (A) (A) (A) (A) (A) (A) (A) (A) (A) (A)
                 (A) (A) (A) (A) (A) (A) (A) (A) (A) (A) (A) (A)
                 (A) (A) (A) (A) (A) (A) (A) (A) (A) (A) (A) (A)
                 (A) (A) (A) (A) (A) (A) (A) (A) (A) (A) (A) (A)
                 (A) (A) (A) (A) (A) (A) (A) (A) (A) (A) (A) (A)
                 (A) (A) (A) (A) (A) (A) (A) (A) (A) (A) (A) (A)
                 (A) (A) (A) (A) (A) (A) (A) (A) (A) (A) (A) (A)
                 (A) (A) (A) (A) (A) (A) (A) (A) (A) (A) (A) (A)
                 (A) (A) (A) (A) (A) (A) (A) (A) (A) (A) (A) (A)
                 (A) (A) (A) (A) (A) (A) (A) (A) (A) (A) (A) (A)
                 (A) (A) (A) (A) (A) (A) (A) (A) (A) (A) (A) (A)
                 (A) (A) (A) (A) (A) (A) (A) (A) (A) (A) (A) (A)
                 (A) (A) (A) (A) (A) (A) (A) (A) (A) (A) (A) (A)
                 (A) (A) (A) (A) (A) (A) (A) (A) (A) (A) (A) (A)
                 (A) (A) (A) (A) (A) (A) (A) (A) (A) (A) (A) (A)
                 (A) (A) (A) (A) (A) (A) (A) (A) (A) (A) (A) (A)
                 (A) (A) (A) (A) (A) (A) (A) (A) (A) (A) (A) (A)
                 (A) (A) (A) (A) (A) (A) (A) (A) (A) (A) (A) (A)
                 (A) (A) (A) (A) (A) (A) (A) (A) (A) (A) (A) (A)
                 (A) (A) (A) (A) (A) (A) (A) (A) (A) (A) (A) (A)
                 (A) (A) (A) (A) (A) (A) (A) (A) (A) (A) (A) (A)
                 (A) (A) (A) (A) (A) (A) (A) (A) (A) (A) (A) (A)
                 (A) (A) (A) (A) (A) (A) (A) (A) (A) (A) (A) (A)
                 (A) (A) (A) (A) (A) (A) (A) (A) (A) (A) (A) (A)
                 (A) (A) (A) (A) (A) (A) (A) (A) (A) (A) (A) (A)
                 (A) (A) (A) (A) (A) (A) (A) (A) (A) (A) (A) (A)
                 (A) (A) (A) (A) (A) (A) (A) (A) (A) (A) (A) (A)
                 (A) (A) (A) (A) (A) (A) (A) (A) (A) (A) (A) (A)
                 (A) (A) (A)
 The electronic state is 1-A.
 Alpha  occ. eigenvalues --  -19.14902 -19.14868 -19.14807 -19.10951 -19.10825
 Alpha  occ. eigenvalues --  -19.09904 -14.38674 -14.36527 -14.35474 -14.30038
 Alpha  occ. eigenvalues --  -10.32371 -10.30306 -10.27888 -10.27462 -10.25315
 Alpha  occ. eigenvalues --  -10.24747 -10.24693 -10.24008 -10.23404 -10.22537
 Alpha  occ. eigenvalues --  -10.22093 -10.22053 -10.22042 -10.21968 -10.21963
 Alpha  occ. eigenvalues --  -10.21876 -10.21844 -10.21720 -10.21694 -10.21390
 Alpha  occ. eigenvalues --  -10.20625 -10.20509 -10.20508 -10.20438 -10.20315
 Alpha  occ. eigenvalues --  -10.19890 -10.19890 -10.19826 -10.19650 -10.19224
 Alpha  occ. eigenvalues --  -10.18557 -10.18405 -10.18375  -1.09788  -1.05824
 Alpha  occ. eigenvalues --   -1.02747  -1.00387  -0.98522  -0.97946  -0.96885
 Alpha  occ. eigenvalues --   -0.96049  -0.95071  -0.90139  -0.83877  -0.82395
 Alpha  occ. eigenvalues --   -0.81823  -0.81586  -0.81254  -0.80589  -0.78679
 Alpha  occ. eigenvalues --   -0.78055  -0.76719  -0.75906  -0.74656  -0.73677
 Alpha  occ. eigenvalues --   -0.72170  -0.71733  -0.70469  -0.69681  -0.69397
 Alpha  occ. eigenvalues --   -0.67774  -0.66653  -0.64252  -0.61215  -0.60977
 Alpha  occ. eigenvalues --   -0.59101  -0.58114  -0.57446  -0.57088  -0.56652
 Alpha  occ. eigenvalues --   -0.55870  -0.55821  -0.55522  -0.55054  -0.54374
 Alpha  occ. eigenvalues --   -0.52554  -0.51777  -0.51316  -0.50889  -0.49920
 Alpha  occ. eigenvalues --   -0.49286  -0.48564  -0.48084  -0.48041  -0.47887
 Alpha  occ. eigenvalues --   -0.47423  -0.47086  -0.46633  -0.45961  -0.45920
 Alpha  occ. eigenvalues --   -0.45054  -0.44488  -0.44426  -0.44335  -0.43997
 Alpha  occ. eigenvalues --   -0.43176  -0.43101  -0.42976  -0.42766  -0.42338
 Alpha  occ. eigenvalues --   -0.42147  -0.41951  -0.41742  -0.41206  -0.41098
 Alpha  occ. eigenvalues --   -0.40620  -0.40542  -0.40509  -0.40273  -0.39970
 Alpha  occ. eigenvalues --   -0.39583  -0.39256  -0.39120  -0.39087  -0.38811
 Alpha  occ. eigenvalues --   -0.38466  -0.38269  -0.37871  -0.37670  -0.36789
 Alpha  occ. eigenvalues --   -0.36480  -0.36291  -0.35347  -0.35036  -0.34499
 Alpha  occ. eigenvalues --   -0.33999  -0.33626  -0.32360  -0.31532  -0.31321
 Alpha  occ. eigenvalues --   -0.30919  -0.29534  -0.28932  -0.28689  -0.27979
 Alpha  occ. eigenvalues --   -0.26437  -0.25624  -0.25507  -0.25449  -0.24878
 Alpha  occ. eigenvalues --   -0.24275  -0.24136  -0.23526  -0.22408  -0.18403
 Alpha virt. eigenvalues --   -0.11596  -0.07589  -0.06542  -0.00958  -0.00800
 Alpha virt. eigenvalues --    0.00599   0.01659   0.02519   0.02983   0.03148
 Alpha virt. eigenvalues --    0.03688   0.03978   0.04206   0.04466   0.04747
 Alpha virt. eigenvalues --    0.04989   0.05385   0.06107   0.06329   0.06692
 Alpha virt. eigenvalues --    0.07013   0.07350   0.08073   0.08553   0.08867
 Alpha virt. eigenvalues --    0.09428   0.09510   0.09629   0.09930   0.10196
 Alpha virt. eigenvalues --    0.10772   0.11261   0.11306   0.11494   0.11942
 Alpha virt. eigenvalues --    0.12180   0.12708   0.13442   0.13942   0.14277
 Alpha virt. eigenvalues --    0.14499   0.14847   0.14975   0.15150   0.16162
 Alpha virt. eigenvalues --    0.16549   0.16956   0.17475   0.17834   0.18013
 Alpha virt. eigenvalues --    0.18584   0.18791   0.19273   0.19741   0.19884
 Alpha virt. eigenvalues --    0.20019   0.20588   0.20951   0.21832   0.22366
 Alpha virt. eigenvalues --    0.22880   0.23273   0.23466   0.23852   0.24512
 Alpha virt. eigenvalues --    0.24865   0.25218   0.25766   0.25984   0.26457
 Alpha virt. eigenvalues --    0.26709   0.27345   0.28134   0.28269   0.29141
 Alpha virt. eigenvalues --    0.29776   0.30053   0.30374   0.30547   0.30932
 Alpha virt. eigenvalues --    0.31640   0.32215   0.32360   0.33152   0.33844
 Alpha virt. eigenvalues --    0.33996   0.34271   0.34613   0.34961   0.35102
 Alpha virt. eigenvalues --    0.36270   0.37108   0.37241   0.38092   0.38323
 Alpha virt. eigenvalues --    0.38723   0.39498   0.40532   0.41077   0.41450
 Alpha virt. eigenvalues --    0.41734   0.42298   0.42647   0.42836   0.43403
 Alpha virt. eigenvalues --    0.43658   0.43749   0.44451   0.44800   0.45027
 Alpha virt. eigenvalues --    0.45362   0.45657   0.46316   0.46483   0.46889
 Alpha virt. eigenvalues --    0.47212   0.47389   0.48286   0.48588   0.48659
 Alpha virt. eigenvalues --    0.48920   0.48984   0.49461   0.49587   0.49940
 Alpha virt. eigenvalues --    0.50116   0.50658   0.50858   0.50864   0.51258
 Alpha virt. eigenvalues --    0.51436   0.51813   0.52228   0.52641   0.52867
 Alpha virt. eigenvalues --    0.53026   0.53918   0.54014   0.54281   0.54766
 Alpha virt. eigenvalues --    0.55044   0.55172   0.55471   0.56123   0.56668
 Alpha virt. eigenvalues --    0.57255   0.57451   0.58103   0.58440   0.58708
 Alpha virt. eigenvalues --    0.58944   0.59301   0.59652   0.59947   0.60015
 Alpha virt. eigenvalues --    0.60852   0.61277   0.61485   0.61778   0.62173
 Alpha virt. eigenvalues --    0.62542   0.63056   0.63364   0.63602   0.63830
 Alpha virt. eigenvalues --    0.64147   0.64390   0.64577   0.64668   0.65034
 Alpha virt. eigenvalues --    0.65314   0.65490   0.65679   0.65869   0.65951
 Alpha virt. eigenvalues --    0.66330   0.66603   0.66818   0.67297   0.67785
 Alpha virt. eigenvalues --    0.67847   0.68159   0.68818   0.68912   0.69092
 Alpha virt. eigenvalues --    0.69131   0.69569   0.69679   0.70171   0.70564
 Alpha virt. eigenvalues --    0.70841   0.71255   0.71400   0.71585   0.71812
 Alpha virt. eigenvalues --    0.72205   0.72294   0.72689   0.72908   0.73319
 Alpha virt. eigenvalues --    0.73544   0.74104   0.74476   0.74938   0.75323
 Alpha virt. eigenvalues --    0.75559   0.76031   0.76314   0.76581   0.76977
 Alpha virt. eigenvalues --    0.77736   0.77944   0.78041   0.78924   0.79001
 Alpha virt. eigenvalues --    0.79342   0.80019   0.80300   0.81169   0.82243
 Alpha virt. eigenvalues --    0.82390   0.82691   0.83212   0.83552   0.84279
 Alpha virt. eigenvalues --    0.85112   0.85661   0.86158   0.86706   0.87321
 Alpha virt. eigenvalues --    0.88000   0.88753   0.89195   0.89449   0.90300
 Alpha virt. eigenvalues --    0.90731   0.91250   0.91917   0.92320   0.93155
 Alpha virt. eigenvalues --    0.93726   0.94776   0.95212   0.95916   0.96381
 Alpha virt. eigenvalues --    0.96605   0.96876   0.97367   0.97943   0.98608
 Alpha virt. eigenvalues --    0.98750   0.98961   1.00131   1.00925   1.01081
 Alpha virt. eigenvalues --    1.01959   1.02899   1.03376   1.04773   1.05578
 Alpha virt. eigenvalues --    1.05986   1.06675   1.07826   1.08365   1.08994
 Alpha virt. eigenvalues --    1.09358   1.09706   1.10085   1.10679   1.11019
 Alpha virt. eigenvalues --    1.11671   1.12642   1.13737   1.14002   1.15049
 Alpha virt. eigenvalues --    1.15785   1.15989   1.16423   1.16978   1.17739
 Alpha virt. eigenvalues --    1.18748   1.19150   1.20893   1.21697   1.22419
 Alpha virt. eigenvalues --    1.22806   1.23064   1.23955   1.24141   1.24607
 Alpha virt. eigenvalues --    1.25529   1.26036   1.26800   1.27132   1.27686
 Alpha virt. eigenvalues --    1.27970   1.28450   1.29269   1.29533   1.30236
 Alpha virt. eigenvalues --    1.30431   1.31591   1.31901   1.33277   1.33655
 Alpha virt. eigenvalues --    1.34011   1.34565   1.34697   1.35157   1.36487
 Alpha virt. eigenvalues --    1.37195   1.37561   1.38700   1.40086   1.40440
 Alpha virt. eigenvalues --    1.40805   1.42032   1.42421   1.42903   1.43935
 Alpha virt. eigenvalues --    1.45282   1.45711   1.46842   1.47324   1.47879
 Alpha virt. eigenvalues --    1.48514   1.48601   1.49217   1.50022   1.50749
 Alpha virt. eigenvalues --    1.51866   1.52086   1.52716   1.52932   1.53472
 Alpha virt. eigenvalues --    1.53567   1.53980   1.54392   1.54654   1.55241
 Alpha virt. eigenvalues --    1.56228   1.56563   1.58455   1.58567   1.59271
 Alpha virt. eigenvalues --    1.60108   1.60294   1.60465   1.60531   1.61410
 Alpha virt. eigenvalues --    1.61828   1.62890   1.63154   1.63872   1.64426
 Alpha virt. eigenvalues --    1.64978   1.65594   1.65703   1.65969   1.66714
 Alpha virt. eigenvalues --    1.66749   1.67471   1.67784   1.68277   1.68659
 Alpha virt. eigenvalues --    1.69144   1.69598   1.70227   1.70502   1.70931
 Alpha virt. eigenvalues --    1.71459   1.71880   1.72103   1.72414   1.73032
 Alpha virt. eigenvalues --    1.73315   1.73737   1.74296   1.74486   1.74830
 Alpha virt. eigenvalues --    1.75195   1.75384   1.75980   1.76491   1.77041
 Alpha virt. eigenvalues --    1.77567   1.78149   1.78781   1.79197   1.79418
 Alpha virt. eigenvalues --    1.79849   1.80151   1.80864   1.80997   1.81515
 Alpha virt. eigenvalues --    1.81695   1.82163   1.82682   1.83286   1.83488
 Alpha virt. eigenvalues --    1.83618   1.83953   1.84551   1.85173   1.85971
 Alpha virt. eigenvalues --    1.86281   1.86974   1.87466   1.87750   1.88162
 Alpha virt. eigenvalues --    1.88425   1.88982   1.89234   1.89645   1.90407
 Alpha virt. eigenvalues --    1.90795   1.91531   1.92297   1.92479   1.92684
 Alpha virt. eigenvalues --    1.92944   1.93450   1.93798   1.94270   1.94957
 Alpha virt. eigenvalues --    1.95392   1.95652   1.96491   1.97281   1.97946
 Alpha virt. eigenvalues --    1.98582   1.99013   1.99676   2.00088   2.00578
 Alpha virt. eigenvalues --    2.00769   2.01020   2.01138   2.01508   2.02236
 Alpha virt. eigenvalues --    2.02898   2.03246   2.03708   2.03927   2.04785
 Alpha virt. eigenvalues --    2.05553   2.05803   2.06205   2.06846   2.07659
 Alpha virt. eigenvalues --    2.08511   2.09504   2.09906   2.11395   2.11917
 Alpha virt. eigenvalues --    2.12203   2.12631   2.12961   2.13501   2.13551
 Alpha virt. eigenvalues --    2.13919   2.14947   2.15341   2.15765   2.16467
 Alpha virt. eigenvalues --    2.17549   2.17720   2.17906   2.18872   2.19736
 Alpha virt. eigenvalues --    2.20434   2.20622   2.21026   2.21403   2.22099
 Alpha virt. eigenvalues --    2.22924   2.23903   2.24756   2.24937   2.26251
 Alpha virt. eigenvalues --    2.27112   2.28081   2.29117   2.29564   2.30532
 Alpha virt. eigenvalues --    2.31293   2.31346   2.32453   2.33127   2.33355
 Alpha virt. eigenvalues --    2.34911   2.35008   2.35723   2.36206   2.36679
 Alpha virt. eigenvalues --    2.37261   2.38140   2.38655   2.39260   2.39953
 Alpha virt. eigenvalues --    2.40111   2.40221   2.41620   2.42517   2.42593
 Alpha virt. eigenvalues --    2.43946   2.44370   2.44607   2.45124   2.46055
 Alpha virt. eigenvalues --    2.46716   2.48063   2.48529   2.49347   2.49679
 Alpha virt. eigenvalues --    2.51057   2.51582   2.52701   2.53592   2.54496
 Alpha virt. eigenvalues --    2.55592   2.56250   2.57015   2.58338   2.58451
 Alpha virt. eigenvalues --    2.59100   2.59770   2.60611   2.61002   2.61393
 Alpha virt. eigenvalues --    2.61802   2.62440   2.63404   2.63775   2.64883
 Alpha virt. eigenvalues --    2.65471   2.65484   2.65711   2.66607   2.67778
 Alpha virt. eigenvalues --    2.68791   2.69466   2.70175   2.70480   2.71337
 Alpha virt. eigenvalues --    2.71627   2.72119   2.72400   2.73124   2.73298
 Alpha virt. eigenvalues --    2.73833   2.74530   2.75045   2.75917   2.76754
 Alpha virt. eigenvalues --    2.77451   2.77622   2.78810   2.79719   2.80000
 Alpha virt. eigenvalues --    2.80090   2.80875   2.82329   2.82677   2.82795
 Alpha virt. eigenvalues --    2.83546   2.86269   2.87679   2.87904   2.88576
 Alpha virt. eigenvalues --    2.89332   2.90333   2.90565   2.91674   2.92534
 Alpha virt. eigenvalues --    2.93002   2.93218   2.94005   2.94133   2.95377
 Alpha virt. eigenvalues --    2.96225   2.97542   2.99203   2.99636   3.00468
 Alpha virt. eigenvalues --    3.01807   3.02612   3.03625   3.04330   3.05923
 Alpha virt. eigenvalues --    3.07169   3.08590   3.09691   3.09799   3.11471
 Alpha virt. eigenvalues --    3.13325   3.14482   3.15154   3.16588   3.16901
 Alpha virt. eigenvalues --    3.17672   3.19199   3.19749   3.20843   3.21137
 Alpha virt. eigenvalues --    3.21912   3.24401   3.24976   3.25009   3.27224
 Alpha virt. eigenvalues --    3.31801   3.36156   3.38810   3.41335   3.47645
 Alpha virt. eigenvalues --    3.52222   3.53540   3.54640   3.55018   3.57023
 Alpha virt. eigenvalues --    3.59680   3.60764   3.60897   3.64441   3.68527
 Alpha virt. eigenvalues --    3.68561   3.70914
          Condensed to atoms (all electrons):
 Mulliken charges:
               1
     1  O   -0.221172
     2  O   -0.296112
     3  O   -0.220732
     4  O   -0.364633
     5  O   -0.131852
     6  O   -0.245857
     7  N    0.042319
     8  N   -0.258484
     9  N   -0.032651
    10  N   -0.328921
    11  C    0.139278
    12  C    0.279551
    13  C   -0.125037
    14  C   -0.125294
    15  C    0.011667
    16  C    0.008180
    17  C   -0.196082
    18  C   -0.043883
    19  C   -0.110607
    20  C   -0.097129
    21  C    0.060589
    22  C    0.133136
    23  C   -0.072589
    24  C    0.144146
    25  C    0.064594
    26  C   -0.123940
    27  C    0.147661
    28  C    0.111555
    29  C    0.045412
    30  C    0.142902
    31  C    0.054143
    32  C    0.126586
    33  C   -0.142901
    34  C    0.088455
    35  C    0.120078
    36  C   -0.047772
    37  C    0.135758
    38  C    0.017969
    39  C   -0.171262
    40  C    0.187379
    41  C   -0.030188
    42  C    0.002418
    43  C    0.042901
    44  H    0.039083
    45  H   -0.023143
    46  H   -0.090282
    47  H    0.077902
    48  H    0.152407
    49  H    0.022364
    50  H    0.025579
    51  H   -0.019482
    52  H   -0.010443
    53  H   -0.019254
    54  H    0.036506
    55  H    0.042714
    56  H    0.045167
    57  H   -0.010704
    58  H    0.045061
    59  H   -0.025421
    60  H    0.144889
    61  H    0.030645
    62  H    0.023508
    63  H   -0.040254
    64  H    0.074903
    65  H    0.032333
    66  H    0.002170
    67  H    0.028240
    68  H    0.006101
    69  H    0.012300
    70  H    0.040318
    71  H    0.025242
    72  H    0.224525
    73  H   -0.020525
    74  H    0.024105
    75  H    0.063406
    76  H    0.081853
    77  H    0.211325
    78  H    0.030805
    79  H   -0.003520
 Sum of Mulliken charges =  -0.00000
 Mulliken charges with hydrogens summed into heavy atoms:
               1
     1  O   -0.221172
     2  O   -0.071587
     3  O   -0.220732
     4  O   -0.153308
     5  O   -0.131852
     6  O   -0.245857
     7  N    0.120221
     8  N   -0.106077
     9  N    0.112239
    10  N   -0.328921
    11  C    0.178361
    12  C    0.166126
    13  C   -0.125037
    14  C   -0.125294
    15  C    0.011667
    16  C    0.008180
    17  C   -0.196082
    18  C    0.004059
    19  C   -0.110607
    20  C   -0.116611
    21  C    0.060589
    22  C    0.133136
    23  C   -0.072589
    24  C    0.150954
    25  C    0.141771
    26  C   -0.123940
    27  C    0.167300
    28  C    0.111555
    29  C    0.099564
    30  C    0.102648
    31  C    0.161379
    32  C    0.163096
    33  C   -0.130601
    34  C    0.088455
    35  C    0.120078
    36  C    0.017788
    37  C    0.135758
    38  C    0.017969
    39  C   -0.171262
    40  C    0.187379
    41  C   -0.050713
    42  C    0.171782
    43  C    0.070186
 Electronic spatial extent (au):  <R**2>=          32152.6866
 Charge=             -0.0000 electrons
 Dipole moment (field-independent basis, Debye):
    X=             -0.1100    Y=              1.2790    Z=              1.9594  Tot=              2.3425
 Quadrupole moment (field-independent basis, Debye-Ang):
   XX=           -217.5726   YY=           -250.5343   ZZ=           -263.2503
   XY=             -5.1252   XZ=             39.9583   YZ=              2.5400
 Traceless Quadrupole moment (field-independent basis, Debye-Ang):
   XX=             26.2131   YY=             -6.7486   ZZ=            -19.4646
   XY=             -5.1252   XZ=             39.9583   YZ=              2.5400
 Octapole moment (field-independent basis, Debye-Ang**2):
  XXX=             -8.7101  YYY=             36.2596  ZZZ=             70.8128  XYY=            -63.7778
  XXY=            -85.3740  XXZ=             51.4354  XZZ=            -72.4546  YZZ=             -3.2497
  YYZ=             43.8042  XYZ=             16.2964
 Hexadecapole moment (field-independent basis, Debye-Ang**3):
 XXXX=         -23481.2713 YYYY=         -12341.5212 ZZZZ=          -4974.9540 XXXY=            -81.6426
 XXXZ=            818.2620 YYYX=            170.9184 YYYZ=            644.1866 ZZZX=            181.8389
 ZZZY=            -68.3243 XXYY=          -6046.8348 XXZZ=          -5268.8598 YYZZ=          -2791.6010
 XXYZ=           -110.3248 YYXZ=            108.2251 ZZXY=             59.4882
 N-N= 4.917792171398D+03 E-N=-1.436471432958D+04  KE= 1.927850105085D+03
 1\1\GINC-PADAWAN\SP\RB3LYP TD-FC\SVP\C33H36N4O6\PADAWAN\05-Oct-2019\0\
 \# td=(NStates=1) B3LYP/SVP\\TD\\0,1\O,0,-5.4491711471,0.0594913887,-3
 .2855483445\O,0,3.0654865542,3.0270599607,3.2718532637\O,0,3.463224671
 1,0.8873841374,3.1047623613\O,0,1.5788655261,-7.0406703371,1.588727379
 \O,0,0.6166465527,-7.0498014037,-0.4452125042\O,0,1.7436214102,3.95915
 90387,0.1109806055\N,0,-2.3829879099,-0.8644848787,0.5799750141\N,0,-4
 .4504099224,0.577395406,-1.2007084256\N,0,1.8062210137,-0.6957011431,-
 0.554293907\N,0,2.5402295649,1.8171374592,-0.5019669434\C,0,-4.8501114
 023,1.2046019572,0.0163974395\C,0,-4.3164490377,0.3270928746,1.2721745
 752\C,0,-2.9212272183,0.0476450212,1.3208440974\C,0,-1.9141405108,0.71
 55365109,2.0717903486\C,0,-0.7374903593,0.0191964841,1.8754782254\C,0,
 -0.979702158,-0.9538784467,0.7805898784\C,0,-6.2572480809,1.2449722865
 ,-0.1346286783\C,0,0.555974204,0.2358142579,2.5661556357\C,0,-6.688799
 3944,0.7738366321,-1.4186575945\C,0,-0.1500712632,-1.9910178387,0.1505
 771392\C,0,1.1765045467,-1.8814976964,-0.4290744896\C,0,-5.4699475951,
 0.443032518,-2.1385311646\C,0,1.9168957748,-2.9923797764,-1.0334003493
 \C,0,-2.2404197429,1.750370794,3.0254869389\C,0,-7.0829557888,1.883836
 5129,0.870631049\C,0,3.1355798917,-2.3556855198,-1.5336746126\C,0,1.08
 10641337,1.7041989133,2.6227759135\C,0,3.0421722925,-0.9197405997,-1.1
 784818364\C,0,1.5670504752,-4.3751534797,-1.0314848654\C,0,-8.12382828
 88,0.5557672143,-1.9630546933\C,0,1.6963071963,-5.0663475694,0.3825042
 459\C,0,4.2168972987,-2.9161400828,-2.281347366\C,0,3.935274398,0.0883
 982433,-1.5000346859\C,0,2.6121318344,1.7336609543,3.0137772776\C,0,3.
 7564000178,1.4722226338,-1.0271392812\C,0,-9.2332683102,0.650477208,-1
 .3896537807\C,0,1.1428793526,-6.3768743376,0.3343520942\C,0,4.69858869
 35,2.5653132862,-1.3259496781\C,0,4.0906683352,3.72446297,-0.821713465
 6\C,0,2.7376053313,3.2990577569,-0.346103373\C,0,5.9563492402,2.427057
 5464,-2.0084427994\C,0,4.3940650263,5.2369885747,-1.0490369171\C,0,6.7
 38793937,3.3956252473,-2.4475292298\H,0,-4.3280872948,2.2130123813,0.0
 216952098\H,0,-4.9780824651,-0.4536668428,1.5754222864\H,0,-4.60568740
 86,0.8268466844,2.0944663563\H,0,-2.7706261025,-1.4496023557,-0.063493
 2711\H,0,-3.4655875561,0.5738293,-1.6720147524\H,0,0.7647009048,-0.278
 2675148,3.5887184199\H,0,1.4539094003,-0.417066374,2.1625013829\H,0,-0
 .624281089,-2.9447719422,0.1476497673\H,0,-3.2940795533,1.6479460587,3
 .232323222\H,0,-1.7197231874,1.5814375077,3.8988982777\H,0,-1.89046542
 76,2.8315269725,2.8594233641\H,0,-6.3932127722,2.8143902425,1.33561579
 46\H,0,-7.3692166887,1.2187916884,1.8546724779\H,0,-7.9598319204,2.160
 7221553,0.5099094711\H,0,1.2143341418,2.2294749841,1.7232103883\H,0,0.
 7619093034,2.3188487069,3.320217846\H,0,1.4558499114,0.1827089159,-0.2
 245378191\H,0,2.3290506973,-4.8343472651,-1.8129159013\H,0,0.597861583
 7,-4.5634361911,-1.473045788\H,0,-7.8661476766,0.3983900696,-2.9257985
 181\H,0,1.2615683457,-4.5098921689,1.2719347701\H,0,2.7203183019,-5.16
 63738419,0.536301445\H,0,4.1791729796,-4.0300704592,-2.1750109622\H,0,
 5.1987609745,-2.688787729,-1.7564792655\H,0,4.3388853216,-2.715803813,
 -3.244993573\H,0,4.9257421937,-0.329125007,-1.9950156773\H,0,-9.423725
 9731,0.6598334388,-0.2179744872\H,0,-10.157503884,0.6033317489,-1.9544
 615462\H,0,4.1200266892,3.1640897927,3.3505498207\H,0,6.1291563838,1.3
 456567149,-2.1866774827\H,0,5.3313438342,5.2982725915,-0.5702256425\H,
 0,4.6598980123,5.5020869744,-2.188091354\H,0,3.6048181514,6.1715967661
 ,-0.7152532669\H,0,1.1659639045,-8.0117823353,1.7328893438\H,0,7.62870
 53149,3.0459801379,-2.9790651798\H,0,6.2065625438,4.3489804102,-2.3535
 177043\\Version=ES64L-G16RevA.03\State=1-A\HF=-1947.7807115\RMSD=4.347
 e-09\PG=C01 [X(C33H36N4O6)]\\@


 READER, WHETHER YOU BE DILETTANTE OR PROFESSOR ... SHOW YOURSELF TO BE
 MORE HUMAN THAN CRITICAL, AND THEN YOUR PLEASURE WILL INCREASE.
                                           -- DOMENICO SCARLATTI (1738)
 Job cpu time:       0 days 10 hours 31 minutes 43.8 seconds.
 Elapsed time:       0 days  2 hours 38 minutes 37.1 seconds.
 File lengths (MBytes):  RWF=   2533 Int=      0 D2E=      0 Chk=     63 Scr=      1
 Normal termination of Gaussian 16 at Sat Oct  5 08:06:08 2019.
