 Entering Gaussian System, Link 0=g16
 Input=Geometria-403-.com
 Output=Geometria-403-.log
 Initial command:
 /usr/local/g16/l1.exe "/home/padawan/israel-mol/dihydrobiliverdin/spectra/emi/Gau-12229.inp" -scrdir="/home/padawan/israel-mol/dihydrobiliverdin/spectra/emi/"
 Entering Link 1 = /usr/local/g16/l1.exe PID=     12231.
  
 Copyright (c) 1988,1990,1992,1993,1995,1998,2003,2009,2016,
            Gaussian, Inc.  All Rights Reserved.
  
 This is part of the Gaussian(R) 16 program.  It is based on
 the Gaussian(R) 09 system (copyright 2009, Gaussian, Inc.),
 the Gaussian(R) 03 system (copyright 2003, Gaussian, Inc.),
 the Gaussian(R) 98 system (copyright 1998, Gaussian, Inc.),
 the Gaussian(R) 94 system (copyright 1995, Gaussian, Inc.),
 the Gaussian 92(TM) system (copyright 1992, Gaussian, Inc.),
 the Gaussian 90(TM) system (copyright 1990, Gaussian, Inc.),
 the Gaussian 88(TM) system (copyright 1988, Gaussian, Inc.),
 the Gaussian 86(TM) system (copyright 1986, Carnegie Mellon
 University), and the Gaussian 82(TM) system (copyright 1983,
 Carnegie Mellon University). Gaussian is a federally registered
 trademark of Gaussian, Inc.
  
 This software contains proprietary and confidential information,
 including trade secrets, belonging to Gaussian, Inc.
  
 This software is provided under written license and may be
 used, copied, transmitted, or stored only in accord with that
 written license.
  
 The following legend is applicable only to US Government
 contracts under FAR:
  
                    RESTRICTED RIGHTS LEGEND
  
 Use, reproduction and disclosure by the US Government is
 subject to restrictions as set forth in subparagraphs (a)
 and (c) of the Commercial Computer Software - Restricted
 Rights clause in FAR 52.227-19.
  
 Gaussian, Inc.
 340 Quinnipiac St., Bldg. 40, Wallingford CT 06492
  
  
 ---------------------------------------------------------------
 Warning -- This program may not be used in any manner that
 competes with the business of Gaussian, Inc. or will provide
 assistance to any competitor of Gaussian, Inc.  The licensee
 of this program is prohibited from giving any competitor of
 Gaussian, Inc. access to this program.  By using this program,
 the user acknowledges that Gaussian, Inc. is engaged in the
 business of creating and licensing software in the field of
 computational chemistry and represents and warrants to the
 licensee that it is not a competitor of Gaussian, Inc. and that
 it will not use this program in any manner prohibited above.
 ---------------------------------------------------------------
  

 Cite this work as:
 Gaussian 16, Revision A.03,
 M. J. Frisch, G. W. Trucks, H. B. Schlegel, G. E. Scuseria, 
 M. A. Robb, J. R. Cheeseman, G. Scalmani, V. Barone, 
 G. A. Petersson, H. Nakatsuji, X. Li, M. Caricato, A. V. Marenich, 
 J. Bloino, B. G. Janesko, R. Gomperts, B. Mennucci, H. P. Hratchian, 
 J. V. Ortiz, A. F. Izmaylov, J. L. Sonnenberg, D. Williams-Young, 
 F. Ding, F. Lipparini, F. Egidi, J. Goings, B. Peng, A. Petrone, 
 T. Henderson, D. Ranasinghe, V. G. Zakrzewski, J. Gao, N. Rega, 
 G. Zheng, W. Liang, M. Hada, M. Ehara, K. Toyota, R. Fukuda, 
 J. Hasegawa, M. Ishida, T. Nakajima, Y. Honda, O. Kitao, H. Nakai, 
 T. Vreven, K. Throssell, J. A. Montgomery, Jr., J. E. Peralta, 
 F. Ogliaro, M. J. Bearpark, J. J. Heyd, E. N. Brothers, K. N. Kudin, 
 V. N. Staroverov, T. A. Keith, R. Kobayashi, J. Normand, 
 K. Raghavachari, A. P. Rendell, J. C. Burant, S. S. Iyengar, 
 J. Tomasi, M. Cossi, J. M. Millam, M. Klene, C. Adamo, R. Cammi, 
 J. W. Ochterski, R. L. Martin, K. Morokuma, O. Farkas, 
 J. B. Foresman, and D. J. Fox, Gaussian, Inc., Wallingford CT, 2016.
 
 ******************************************
 Gaussian 16:  ES64L-G16RevA.03 25-Dec-2016
                 7-Oct-2019 
 ******************************************
 %nproc=4
 Will use up to    4 processors via shared memory.
 %Mem=4GB
 --------------------------
 # td=(NStates=1) B3LYP/SVP
 --------------------------
 1/38=1,172=1/1;
 2/12=2,17=6,18=5,40=1/2;
 3/5=18,7=101,11=9,25=1,30=1,74=-5/1,2,3,8;
 4//1;
 5/5=2,38=5/2;
 8/6=1,10=1,108=1/1;
 9/41=1,42=1,70=2/14;
 6/7=2,8=2,9=2,10=2/1;
 99/5=1,9=1/99;
 --
 TD
 --
 Symbolic Z-matrix:
 Charge =  0 Multiplicity = 1
 8                    -5.36466   0.08097  -3.2258 
 8                     3.07051   2.81664   3.04546 
 8                     3.3434    0.58719   2.71323 
 8                     1.57649  -7.13001   1.50152 
 8                     0.63074  -6.84008  -0.39645 
 8                     1.60951   3.86753   0.0091 
 7                    -2.31855  -0.98496   0.56026 
 7                    -4.37451   0.84331  -1.24827 
 7                     1.80534  -0.74587  -0.38932 
 7                     2.54834   1.83684  -0.47126 
 6                    -4.75464   1.29171   0.00287 
 6                    -4.35795   0.30446   1.14606 
 6                    -2.95919  -0.00144   1.40666 
 6                    -1.91106   0.48935   2.19446 
 6                    -0.69306  -0.04676   1.81278 
 6                    -0.95941  -1.07901   0.78089 
 6                    -6.25793   1.37533  -0.15252 
 6                     0.54916   0.06456   2.60954 
 6                    -6.61011   1.05354  -1.33106 
 6                    -0.13918  -2.09652   0.19244 
 6                     1.09332  -1.88585  -0.20419 
 6                    -5.40554   0.61663  -2.10207 
 6                     1.98241  -2.89816  -0.92161 
 6                    -2.08294   1.56296   3.25331 
 6                    -7.01043   1.92657   0.89507 
 6                     3.13085  -2.40103  -1.27839 
 6                     1.09661   1.48727   2.57861 
 6                     2.97299  -1.01697  -0.88794 
 6                     1.71722  -4.47423  -0.99924 
 6                    -7.92408   0.77513  -2.04212 
 6                     1.91824  -5.04779   0.48958 
 6                     4.47559  -2.93811  -1.72706 
 6                     3.93561   0.14449  -1.22368 
 6                     2.59949   1.50592   2.74386 
 6                     3.6927    1.47197  -1.06573 
 6                    -9.09318   0.96648  -1.53716 
 6                     1.30867  -6.39906   0.42951 
 6                     4.60365   2.74277  -1.40244 
 6                     3.78724   3.83028  -1.01772 
 6                     2.54136   3.28049  -0.44016 
 6                     5.7077    2.62263  -2.13669 
 6                     4.07194   5.33098  -1.1829 
 6                     6.56606   3.56532  -2.62064 
 1                    -4.37987   2.40108   0.20981 
 1                    -5.13837  -0.54836   0.94987 
 1                    -4.75285   0.6321    2.07091 
 1                    -2.86693  -1.36882  -0.29057 
 1                    -3.52256   1.0272   -1.68995 
 1                     0.17334  -0.2238    3.57864 
 1                     1.40864  -0.61761   2.20707 
 1                    -0.5276   -2.94676  -0.07614 
 1                    -3.3908    1.4739    3.65019 
 1                    -1.4639    1.37417   4.10002 
 1                    -1.99874   2.69729   2.85062 
 1                    -6.44519   2.43945   1.89361 
 1                    -7.47842   0.88812   1.30577 
 1                    -7.82343   2.37841   0.51408 
 1                     0.79869   2.25589   1.68207 
 1                     0.77449   2.21428   3.47796 
 1                     1.66493   0.16923  -0.25423 
 1                     2.23251  -5.04294  -1.84088 
 1                     0.39902  -4.51489  -1.00661 
 1                    -7.63229   0.43548  -2.92613 
 1                     1.43424  -4.23927   1.10387 
 1                     3.04096  -5.12667   0.70295 
 1                     4.30088  -3.9752   -1.68597 
 1                     5.47849  -2.47023  -1.31389 
 1                     4.48529  -2.66905  -2.88605 
 1                     4.83147  -0.42794  -1.67601 
 1                    -9.20635   1.28738  -0.49713 
 1                    -9.97501   0.77489  -2.16239 
 1                     4.06637   2.77664   2.54372 
 1                     6.16978   1.56837  -2.39144 
 1                     5.09549   5.50642  -0.6413 
 1                     4.34662   5.74421  -2.19822 
 1                     3.10814   5.90494  -0.86294 
 1                     1.00379  -7.87825   1.17683 
 1                     7.4541    3.24189  -3.33233 
 1                     6.34112   4.61184  -2.35714 
 
 Stoichiometry    C33H36N4O6
 Framework group  C1[X(C33H36N4O6)]
 Deg. of freedom   231
 Full point group                 C1      NOp   1
 Largest Abelian subgroup         C1      NOp   1
 Largest concise Abelian subgroup C1      NOp   1
                         Standard orientation:                         
 ---------------------------------------------------------------------
 Center     Atomic      Atomic             Coordinates (Angstroms)
 Number     Number       Type             X           Y           Z
 ---------------------------------------------------------------------
      1          8           0        5.366506   -0.080470   -3.222807
      2          8           0       -3.010507   -2.770934    3.145218
      3          8           0       -3.330650   -0.560969    2.734324
      4          8           0       -1.727871    7.144275    1.249134
      5          8           0       -0.775589    6.807449   -0.637790
      6          8           0       -1.526558   -3.897456    0.147350
      7          7           0        2.297252    1.053939    0.524471
      8          7           0        4.392183   -0.793137   -1.219065
      9          7           0       -1.820331    0.693717   -0.414200
     10          7           0       -2.508214   -1.905484   -0.404248
     11          6           0        4.781378   -1.188736    0.047007
     12          6           0        4.363433   -0.170255    1.154680
     13          6           0        2.958402    0.114877    1.404903
     14          6           0        1.920703   -0.369869    2.210066
     15          6           0        0.691691    0.126364    1.810173
     16          6           0        0.936351    1.126831    0.742234
     17          6           0        6.286150   -1.245821   -0.105990
     18          6           0       -0.548125    0.016961    2.610930
     19          6           0        6.631773   -0.958588   -1.295348
     20          6           0        0.094849    2.105177    0.118467
     21          6           0       -1.132767    1.854425   -0.269902
     22          6           0        5.418421   -0.574980   -2.080816
     23          6           0       -2.042969    2.821546   -1.022341
     24          6           0        2.115054   -1.401385    3.306213
     25          6           0        7.049881   -1.743473    0.960142
     26          6           0       -3.180465    2.287779   -1.360769
     27          6           0       -1.065179   -1.417270    2.630677
     28          6           0       -2.993323    0.922093   -0.921597
     29          6           0       -1.811324    4.399161   -1.155889
     30          6           0        7.939740   -0.677668   -2.016417
     31          6           0       -2.024957    5.020705    0.311769
     32          6           0       -4.536188    2.779910   -1.827591
     33          6           0       -3.930932   -0.270744   -1.215535
     34          6           0       -2.567378   -1.462005    2.797154
     35          6           0       -3.659895   -1.586327   -1.010762
     36          6           0        9.112496   -0.826102   -1.505512
     37          6           0       -1.444239    6.381655    0.203581
     38          6           0       -4.543507   -2.887340   -1.301819
     39          6           0       -3.704272   -3.942932   -0.879176
     40          6           0       -2.470541   -3.346647   -0.322016
     41          6           0       -5.649642   -2.816793   -2.039370
     42          6           0       -3.956948   -5.454251   -0.990948
     43          6           0       -6.487604   -3.794083   -2.489231
     44          1           0        4.430221   -2.297794    0.293301
     45          1           0        5.125597    0.691476    0.928044
     46          1           0        4.764926   -0.456443    2.090384
     47          1           0        2.837601    1.418990   -0.339670
     48          1           0        3.544473   -1.010639   -1.653565
     49          1           0       -0.178818    0.347405    3.569033
     50          1           0       -1.421795    0.666005    2.184920
     51          1           0        0.465184    2.953436   -0.180249
     52          1           0        3.420597   -1.270525    3.699100
     53          1           0        1.491872   -1.195910    4.145977
     54          1           0        2.055111   -2.550807    2.944010
     55          1           0        6.495368   -2.232552    1.976479
     56          1           0        7.495555   -0.681404    1.333573
     57          1           0        7.872423   -2.191144    0.595035
     58          1           0       -0.750713   -2.210668    1.761796
     59          1           0       -0.727953   -2.104942    3.555081
     60          1           0       -1.660534   -0.212822   -0.246836
     61          1           0       -2.338338    4.926599   -2.016919
     62          1           0       -0.494291    4.467552   -1.165282
     63          1           0        7.641071   -0.375841   -2.911772
     64          1           0       -1.524058    4.244934    0.954099
     65          1           0       -3.149167    5.083210    0.522704
     66          1           0       -4.383576    3.821288   -1.823353
     67          1           0       -5.529034    2.305739   -1.397647
     68          1           0       -4.539804    2.469802   -2.976310
     69          1           0       -4.838622    0.266128   -1.687472
     70          1           0        9.232145   -1.107465   -0.454819
     71          1           0        9.990236   -0.638080   -2.137535
     72          1           0       -4.006843   -2.769925    2.642819
     73          1           0       -6.133954   -1.782288   -2.331112
     74          1           0       -4.976700   -5.632119   -0.443017
     75          1           0       -4.222460   -5.908950   -1.990867
     76          1           0       -2.981255   -5.995892   -0.651279
     77          1           0       -1.171115    7.892548    0.897884
     78          1           0       -7.382104   -3.515028   -3.211542
     79          1           0       -6.240540   -4.825583   -2.188917
 ---------------------------------------------------------------------
 Rotational constants (GHZ):           0.0755215           0.0462225           0.0353078
 Standard basis: SVP (5D, 7F)
 There are   825 symmetry adapted cartesian basis functions of A   symmetry.
 There are   782 symmetry adapted basis functions of A   symmetry.
   782 basis functions,  1327 primitive gaussians,   825 cartesian basis functions
   155 alpha electrons      155 beta electrons
       nuclear repulsion energy      4971.3016959021 Hartrees.
 NAtoms=   79 NActive=   79 NUniq=   79 SFac= 1.00D+00 NAtFMM=   60 NAOKFM=T Big=T
 Integral buffers will be    131072 words long.
 Regular integral format.
 Two-electron integral symmetry is turned on.
 One-electron integrals computed using PRISM.
 NBasis=   782 RedAO= T EigKep=  3.77D-04  NBF=   782
 NBsUse=   782 1.00D-06 EigRej= -1.00D+00 NBFU=   782
 ExpMin= 1.22D-01 ExpMax= 2.27D+03 ExpMxC= 3.41D+02 IAcc=3 IRadAn=         5 AccDes= 0.00D+00
 Harris functional with IExCor=  402 and IRadAn=       5 diagonalized for initial guess.
 HarFok:  IExCor=  402 AccDes= 0.00D+00 IRadAn=         5 IDoV= 1 UseB2=F ITyADJ=14
 ICtDFT=  3500011 ScaDFX=  1.000000  1.000000  1.000000  1.000000
 FoFCou: FMM=F IPFlag=           0 FMFlag=      100000 FMFlg1=        2001
         NFxFlg=           0 DoJE=T BraDBF=F KetDBF=T FulRan=T
         wScrn=  0.000000 ICntrl=       500 IOpCl=  0 I1Cent=   200000004 NGrid=           0
         NMat0=    1 NMatS0=      1 NMatT0=    0 NMatD0=    1 NMtDS0=    0 NMtDT0=    0
 Petite list used in FoFCou.
 Requested convergence on RMS density matrix=1.00D-08 within 128 cycles.
 Requested convergence on MAX density matrix=1.00D-06.
 Requested convergence on             energy=1.00D-06.
 No special actions if energy rises.
 Integral accuracy reduced to 1.0D-05 until final iterations.
 Initial convergence to 1.0D-05 achieved.  Increase integral accuracy.
 SCF Done:  E(RB3LYP) =  -1947.74177383     A.U. after   16 cycles
            NFock= 16  Conv=0.79D-08     -V/T= 2.0102
 DoSCS=F DFT=T ScalE2(SS,OS)=  1.000000  1.000000
 ExpMin= 1.22D-01 ExpMax= 2.27D+03 ExpMxC= 3.41D+02 IAcc=3 IRadAn=         5 AccDes= 0.00D+00
 HarFok:  IExCor=  205 AccDes= 0.00D+00 IRadAn=         5 IDoV=-2 UseB2=F ITyADJ=14
 ICtDFT= 12500011 ScaDFX=  1.000000  1.000000  1.000000  1.000000
 GSVD:  LWork=       -2193 too small for GESVD, short by        9890 words or        9890 for optimal perf.
 Range of M.O.s used for correlation:    44   782
 NBasis=   782 NAE=   155 NBE=   155 NFC=    43 NFV=     0
 NROrb=    739 NOA=   112 NOB=   112 NVA=   627 NVB=   627

 **** Warning!!: The smallest alpha delta epsilon is  0.83558801D-01

 Orbital symmetries:
       Occupied  (A) (A) (A) (A) (A) (A) (A) (A) (A) (A) (A) (A)
                 (A) (A) (A) (A) (A) (A) (A) (A) (A) (A) (A) (A)
                 (A) (A) (A) (A) (A) (A) (A) (A) (A) (A) (A) (A)
                 (A) (A) (A) (A) (A) (A) (A) (A) (A) (A) (A) (A)
                 (A) (A) (A) (A) (A) (A) (A) (A) (A) (A) (A) (A)
                 (A) (A) (A) (A) (A) (A) (A) (A) (A) (A) (A) (A)
                 (A) (A) (A) (A) (A) (A) (A) (A) (A) (A) (A) (A)
                 (A) (A) (A) (A) (A) (A) (A) (A) (A) (A) (A) (A)
                 (A) (A) (A) (A) (A) (A) (A) (A) (A) (A) (A) (A)
                 (A) (A) (A) (A) (A) (A) (A) (A) (A) (A) (A) (A)
                 (A) (A) (A) (A) (A) (A) (A) (A) (A) (A) (A) (A)
                 (A) (A) (A) (A) (A) (A) (A) (A) (A) (A) (A) (A)
                 (A) (A) (A) (A) (A) (A) (A) (A) (A) (A) (A)
       Virtual   (A) (A) (A) (A) (A) (A) (A) (A) (A) (A) (A) (A)
                 (A) (A) (A) (A) (A) (A) (A) (A) (A) (A) (A) (A)
                 (A) (A) (A) (A) (A) (A) (A) (A) (A) (A) (A) (A)
                 (A) (A) (A) (A) (A) (A) (A) (A) (A) (A) (A) (A)
                 (A) (A) (A) (A) (A) (A) (A) (A) (A) (A) (A) (A)
                 (A) (A) (A) (A) (A) (A) (A) (A) (A) (A) (A) (A)
                 (A) (A) (A) (A) (A) (A) (A) (A) (A) (A) (A) (A)
                 (A) (A) (A) (A) (A) (A) (A) (A) (A) (A) (A) (A)
                 (A) (A) (A) (A) (A) (A) (A) (A) (A) (A) (A) (A)
                 (A) (A) (A) (A) (A) (A) (A) (A) (A) (A) (A) (A)
                 (A) (A) (A) (A) (A) (A) (A) (A) (A) (A) (A) (A)
                 (A) (A) (A) (A) (A) (A) (A) (A) (A) (A) (A) (A)
                 (A) (A) (A) (A) (A) (A) (A) (A) (A) (A) (A) (A)
                 (A) (A) (A) (A) (A) (A) (A) (A) (A) (A) (A) (A)
                 (A) (A) (A) (A) (A) (A) (A) (A) (A) (A) (A) (A)
                 (A) (A) (A) (A) (A) (A) (A) (A) (A) (A) (A) (A)
                 (A) (A) (A) (A) (A) (A) (A) (A) (A) (A) (A) (A)
                 (A) (A) (A) (A) (A) (A) (A) (A) (A) (A) (A) (A)
                 (A) (A) (A) (A) (A) (A) (A) (A) (A) (A) (A) (A)
                 (A) (A) (A) (A) (A) (A) (A) (A) (A) (A) (A) (A)
                 (A) (A) (A) (A) (A) (A) (A) (A) (A) (A) (A) (A)
                 (A) (A) (A) (A) (A) (A) (A) (A) (A) (A) (A) (A)
                 (A) (A) (A) (A) (A) (A) (A) (A) (A) (A) (A) (A)
                 (A) (A) (A) (A) (A) (A) (A) (A) (A) (A) (A) (A)
                 (A) (A) (A) (A) (A) (A) (A) (A) (A) (A) (A) (A)
                 (A) (A) (A) (A) (A) (A) (A) (A) (A) (A) (A) (A)
                 (A) (A) (A) (A) (A) (A) (A) (A) (A) (A) (A) (A)
                 (A) (A) (A) (A) (A) (A) (A) (A) (A) (A) (A) (A)
                 (A) (A) (A) (A) (A) (A) (A) (A) (A) (A) (A) (A)
                 (A) (A) (A) (A) (A) (A) (A) (A) (A) (A) (A) (A)
                 (A) (A) (A) (A) (A) (A) (A) (A) (A) (A) (A) (A)
                 (A) (A) (A) (A) (A) (A) (A) (A) (A) (A) (A) (A)
                 (A) (A) (A) (A) (A) (A) (A) (A) (A) (A) (A) (A)
                 (A) (A) (A) (A) (A) (A) (A) (A) (A) (A) (A) (A)
                 (A) (A) (A) (A) (A) (A) (A) (A) (A) (A) (A) (A)
                 (A) (A) (A) (A) (A) (A) (A) (A) (A) (A) (A) (A)
                 (A) (A) (A) (A) (A) (A) (A) (A) (A) (A) (A) (A)
                 (A) (A) (A) (A) (A) (A) (A) (A) (A) (A) (A) (A)
                 (A) (A) (A) (A) (A) (A) (A) (A) (A) (A) (A) (A)
                 (A) (A) (A) (A) (A) (A) (A) (A) (A) (A) (A) (A)
                 (A) (A) (A) (A) (A) (A) (A) (A) (A) (A) (A) (A)
                 (A) (A) (A) (A) (A) (A) (A) (A) (A) (A) (A) (A)
                 (A) (A) (A) (A) (A) (A) (A) (A) (A) (A) (A) (A)
                 (A) (A) (A) (A) (A) (A) (A) (A) (A) (A) (A) (A)
                 (A) (A) (A) (A) (A) (A) (A) (A) (A) (A) (A) (A)
                 (A) (A) (A) (A) (A) (A) (A) (A) (A) (A) (A) (A)
                 (A) (A) (A) (A) (A) (A) (A) (A) (A) (A) (A) (A)
                 (A) (A) (A) (A) (A) (A) (A) (A) (A) (A) (A) (A)
                 (A) (A) (A) (A) (A) (A) (A) (A) (A) (A) (A) (A)
                 (A) (A) (A) (A) (A) (A) (A) (A) (A) (A) (A) (A)
                 (A) (A) (A) (A) (A) (A) (A) (A) (A) (A) (A) (A)
                 (A) (A) (A) (A) (A) (A) (A) (A) (A) (A) (A) (A)
                 (A) (A) (A)
     4 initial guesses have been made.
 Convergence on wavefunction:    0.001000000000000
 Iteration     1 Dimension     4 NMult     0 NNew      4
 CISAX will form     4 AO SS matrices at one time.
 Iteration     2 Dimension     6 NMult     4 NNew      2
 Iteration     3 Dimension     8 NMult     6 NNew      2
 Iteration     4 Dimension    10 NMult     8 NNew      2
 Iteration     5 Dimension    12 NMult    10 NNew      2
 Iteration     6 Dimension    14 NMult    12 NNew      2
 ***********************************************************************
 Excited states from <AA,BB:AA,BB> singles matrix:
 ***********************************************************************
 
 Ground to excited state transition densities written to RWF  633
 Ground to excited state transition electric dipole moments (Au):
       state          X           Y           Z        Dip. S.      Osc.
         1        -2.2259     -1.4619     -0.7920      7.7189      0.3802
 Ground to excited state transition velocity dipole moments (Au):
       state          X           Y           Z        Dip. S.      Osc.
         1         0.1598      0.0988      0.0579      0.0386      0.3487
 Ground to excited state transition magnetic dipole moments (Au):
       state          X           Y           Z
         1         0.6422     -0.0453     -1.3802
 Ground to excited state transition velocity quadrupole moments (Au):
       state          XX          YY          ZZ          XY          XZ          YZ
         1        -0.4873     -0.4083      0.0437     -0.8016     -0.3644     -0.2656
 <0|del|b> * <b|rxdel|0> + <0|del|b> * <b|delr+rdel|0>
 Rotatory Strengths (R) in cgs (10**-40 erg-esu-cm/Gauss)
       state          XX          YY          ZZ    R(velocity)    E-M Angle
         1      -453.8008    127.5391    500.3667     58.0350       86.52
 1/2[<0|r|b>*<b|rxdel|0> + (<0|rxdel|b>*<b|r|0>)*]
 Rotatory Strengths (R) in cgs (10**-40 erg-esu-cm/Gauss)
       state          XX          YY          ZZ     R(length)
         1      1010.8069    -46.8562   -772.9949     63.6520
  1/2[<0|del|b>*<b|r|0> + (<0|r|b>*<b|del|0>)*] (Au)
       state          X           Y           Z        Dip. S.   Osc.(frdel)
         1        -0.3556     -0.1445     -0.0459      0.5459      0.3640

 Excitation energies and oscillator strengths:
 
 Excited State   1:      Singlet-A      2.0105 eV  616.69 nm  f=0.3802  <S**2>=0.000
     155 ->156         0.69690
 This state for optimization and/or second-order correction.
 Total Energy, E(TD-HF/TD-DFT) =  -1947.66788960    
 Copying the excited state density for this state as the 1-particle RhoCI density.
 SavETr:  write IOETrn=   770 NScale= 10 NData=  16 NLR=1 NState=    1 LETran=      28.

 **********************************************************************

            Population analysis using the SCF density.

 **********************************************************************

 Orbital symmetries:
       Occupied  (A) (A) (A) (A) (A) (A) (A) (A) (A) (A) (A) (A)
                 (A) (A) (A) (A) (A) (A) (A) (A) (A) (A) (A) (A)
                 (A) (A) (A) (A) (A) (A) (A) (A) (A) (A) (A) (A)
                 (A) (A) (A) (A) (A) (A) (A) (A) (A) (A) (A) (A)
                 (A) (A) (A) (A) (A) (A) (A) (A) (A) (A) (A) (A)
                 (A) (A) (A) (A) (A) (A) (A) (A) (A) (A) (A) (A)
                 (A) (A) (A) (A) (A) (A) (A) (A) (A) (A) (A) (A)
                 (A) (A) (A) (A) (A) (A) (A) (A) (A) (A) (A) (A)
                 (A) (A) (A) (A) (A) (A) (A) (A) (A) (A) (A) (A)
                 (A) (A) (A) (A) (A) (A) (A) (A) (A) (A) (A) (A)
                 (A) (A) (A) (A) (A) (A) (A) (A) (A) (A) (A) (A)
                 (A) (A) (A) (A) (A) (A) (A) (A) (A) (A) (A) (A)
                 (A) (A) (A) (A) (A) (A) (A) (A) (A) (A) (A)
       Virtual   (A) (A) (A) (A) (A) (A) (A) (A) (A) (A) (A) (A)
                 (A) (A) (A) (A) (A) (A) (A) (A) (A) (A) (A) (A)
                 (A) (A) (A) (A) (A) (A) (A) (A) (A) (A) (A) (A)
                 (A) (A) (A) (A) (A) (A) (A) (A) (A) (A) (A) (A)
                 (A) (A) (A) (A) (A) (A) (A) (A) (A) (A) (A) (A)
                 (A) (A) (A) (A) (A) (A) (A) (A) (A) (A) (A) (A)
                 (A) (A) (A) (A) (A) (A) (A) (A) (A) (A) (A) (A)
                 (A) (A) (A) (A) (A) (A) (A) (A) (A) (A) (A) (A)
                 (A) (A) (A) (A) (A) (A) (A) (A) (A) (A) (A) (A)
                 (A) (A) (A) (A) (A) (A) (A) (A) (A) (A) (A) (A)
                 (A) (A) (A) (A) (A) (A) (A) (A) (A) (A) (A) (A)
                 (A) (A) (A) (A) (A) (A) (A) (A) (A) (A) (A) (A)
                 (A) (A) (A) (A) (A) (A) (A) (A) (A) (A) (A) (A)
                 (A) (A) (A) (A) (A) (A) (A) (A) (A) (A) (A) (A)
                 (A) (A) (A) (A) (A) (A) (A) (A) (A) (A) (A) (A)
                 (A) (A) (A) (A) (A) (A) (A) (A) (A) (A) (A) (A)
                 (A) (A) (A) (A) (A) (A) (A) (A) (A) (A) (A) (A)
                 (A) (A) (A) (A) (A) (A) (A) (A) (A) (A) (A) (A)
                 (A) (A) (A) (A) (A) (A) (A) (A) (A) (A) (A) (A)
                 (A) (A) (A) (A) (A) (A) (A) (A) (A) (A) (A) (A)
                 (A) (A) (A) (A) (A) (A) (A) (A) (A) (A) (A) (A)
                 (A) (A) (A) (A) (A) (A) (A) (A) (A) (A) (A) (A)
                 (A) (A) (A) (A) (A) (A) (A) (A) (A) (A) (A) (A)
                 (A) (A) (A) (A) (A) (A) (A) (A) (A) (A) (A) (A)
                 (A) (A) (A) (A) (A) (A) (A) (A) (A) (A) (A) (A)
                 (A) (A) (A) (A) (A) (A) (A) (A) (A) (A) (A) (A)
                 (A) (A) (A) (A) (A) (A) (A) (A) (A) (A) (A) (A)
                 (A) (A) (A) (A) (A) (A) (A) (A) (A) (A) (A) (A)
                 (A) (A) (A) (A) (A) (A) (A) (A) (A) (A) (A) (A)
                 (A) (A) (A) (A) (A) (A) (A) (A) (A) (A) (A) (A)
                 (A) (A) (A) (A) (A) (A) (A) (A) (A) (A) (A) (A)
                 (A) (A) (A) (A) (A) (A) (A) (A) (A) (A) (A) (A)
                 (A) (A) (A) (A) (A) (A) (A) (A) (A) (A) (A) (A)
                 (A) (A) (A) (A) (A) (A) (A) (A) (A) (A) (A) (A)
                 (A) (A) (A) (A) (A) (A) (A) (A) (A) (A) (A) (A)
                 (A) (A) (A) (A) (A) (A) (A) (A) (A) (A) (A) (A)
                 (A) (A) (A) (A) (A) (A) (A) (A) (A) (A) (A) (A)
                 (A) (A) (A) (A) (A) (A) (A) (A) (A) (A) (A) (A)
                 (A) (A) (A) (A) (A) (A) (A) (A) (A) (A) (A) (A)
                 (A) (A) (A) (A) (A) (A) (A) (A) (A) (A) (A) (A)
                 (A) (A) (A) (A) (A) (A) (A) (A) (A) (A) (A) (A)
                 (A) (A) (A) (A) (A) (A) (A) (A) (A) (A) (A) (A)
                 (A) (A) (A) (A) (A) (A) (A) (A) (A) (A) (A) (A)
                 (A) (A) (A) (A) (A) (A) (A) (A) (A) (A) (A) (A)
                 (A) (A) (A) (A) (A) (A) (A) (A) (A) (A) (A) (A)
                 (A) (A) (A) (A) (A) (A) (A) (A) (A) (A) (A) (A)
                 (A) (A) (A) (A) (A) (A) (A) (A) (A) (A) (A) (A)
                 (A) (A) (A) (A) (A) (A) (A) (A) (A) (A) (A) (A)
                 (A) (A) (A) (A) (A) (A) (A) (A) (A) (A) (A) (A)
                 (A) (A) (A) (A) (A) (A) (A) (A) (A) (A) (A) (A)
                 (A) (A) (A) (A) (A) (A) (A) (A) (A) (A) (A) (A)
                 (A) (A) (A) (A) (A) (A) (A) (A) (A) (A) (A) (A)
                 (A) (A) (A)
 The electronic state is 1-A.
 Alpha  occ. eigenvalues --  -19.18576 -19.15400 -19.13959 -19.11921 -19.10482
 Alpha  occ. eigenvalues --  -19.09766 -14.38711 -14.37136 -14.35411 -14.28138
 Alpha  occ. eigenvalues --  -10.32319 -10.30099 -10.28442 -10.25932 -10.25447
 Alpha  occ. eigenvalues --  -10.25235 -10.24974 -10.24145 -10.23738 -10.23413
 Alpha  occ. eigenvalues --  -10.22751 -10.22736 -10.22551 -10.22529 -10.22248
 Alpha  occ. eigenvalues --  -10.22070 -10.22039 -10.21095 -10.20878 -10.20854
 Alpha  occ. eigenvalues --  -10.20777 -10.20597 -10.20581 -10.20543 -10.20424
 Alpha  occ. eigenvalues --  -10.20024 -10.19700 -10.19616 -10.19575 -10.19553
 Alpha  occ. eigenvalues --  -10.19035 -10.18753 -10.18638  -1.14128  -1.06481
 Alpha  occ. eigenvalues --   -1.03115  -1.02561  -1.02440  -1.02219  -0.96788
 Alpha  occ. eigenvalues --   -0.96757  -0.96041  -0.90266  -0.84626  -0.84143
 Alpha  occ. eigenvalues --   -0.83219  -0.81645  -0.80952  -0.80081  -0.78824
 Alpha  occ. eigenvalues --   -0.77792  -0.76028  -0.75748  -0.73973  -0.73194
 Alpha  occ. eigenvalues --   -0.72110  -0.71193  -0.68924  -0.68511  -0.68250
 Alpha  occ. eigenvalues --   -0.66874  -0.66191  -0.64123  -0.61985  -0.61771
 Alpha  occ. eigenvalues --   -0.60399  -0.59338  -0.58041  -0.57531  -0.56920
 Alpha  occ. eigenvalues --   -0.55706  -0.55232  -0.54371  -0.53717  -0.52805
 Alpha  occ. eigenvalues --   -0.52158  -0.51771  -0.51105  -0.50844  -0.50670
 Alpha  occ. eigenvalues --   -0.50050  -0.49593  -0.49260  -0.48350  -0.48340
 Alpha  occ. eigenvalues --   -0.47768  -0.47101  -0.46785  -0.46341  -0.46065
 Alpha  occ. eigenvalues --   -0.45960  -0.44998  -0.44725  -0.44499  -0.44249
 Alpha  occ. eigenvalues --   -0.43841  -0.43043  -0.42903  -0.42811  -0.42632
 Alpha  occ. eigenvalues --   -0.42433  -0.41996  -0.41613  -0.41540  -0.41288
 Alpha  occ. eigenvalues --   -0.41140  -0.40698  -0.40649  -0.39903  -0.39749
 Alpha  occ. eigenvalues --   -0.39526  -0.39269  -0.38912  -0.38627  -0.38217
 Alpha  occ. eigenvalues --   -0.37903  -0.37492  -0.37039  -0.36832  -0.36509
 Alpha  occ. eigenvalues --   -0.35862  -0.35657  -0.35120  -0.34481  -0.34099
 Alpha  occ. eigenvalues --   -0.33919  -0.33696  -0.33319  -0.32133  -0.31929
 Alpha  occ. eigenvalues --   -0.31722  -0.30437  -0.30011  -0.29593  -0.27463
 Alpha  occ. eigenvalues --   -0.27135  -0.26984  -0.26925  -0.26033  -0.25068
 Alpha  occ. eigenvalues --   -0.25022  -0.23937  -0.22951  -0.21641  -0.18924
 Alpha virt. eigenvalues --   -0.10568  -0.07087  -0.04687  -0.00927   0.00039
 Alpha virt. eigenvalues --    0.00664   0.01097   0.01258   0.01811   0.02108
 Alpha virt. eigenvalues --    0.02992   0.03757   0.04113   0.04470   0.04522
 Alpha virt. eigenvalues --    0.05259   0.05411   0.05448   0.05705   0.06262
 Alpha virt. eigenvalues --    0.06624   0.06943   0.07507   0.08102   0.08226
 Alpha virt. eigenvalues --    0.08715   0.09023   0.09229   0.09832   0.10000
 Alpha virt. eigenvalues --    0.10546   0.10581   0.11376   0.11408   0.11963
 Alpha virt. eigenvalues --    0.12140   0.12605   0.13056   0.13210   0.14033
 Alpha virt. eigenvalues --    0.14315   0.15021   0.15412   0.15541   0.16094
 Alpha virt. eigenvalues --    0.16327   0.16709   0.16893   0.16995   0.17584
 Alpha virt. eigenvalues --    0.17939   0.18357   0.18975   0.19550   0.19590
 Alpha virt. eigenvalues --    0.20805   0.20987   0.21455   0.21985   0.22464
 Alpha virt. eigenvalues --    0.22681   0.23156   0.23446   0.23688   0.24175
 Alpha virt. eigenvalues --    0.24508   0.25258   0.25760   0.26026   0.26227
 Alpha virt. eigenvalues --    0.26690   0.26866   0.27964   0.28592   0.28857
 Alpha virt. eigenvalues --    0.29330   0.29702   0.30036   0.30503   0.31619
 Alpha virt. eigenvalues --    0.32386   0.32535   0.32966   0.33204   0.33440
 Alpha virt. eigenvalues --    0.34374   0.34669   0.35333   0.35946   0.36138
 Alpha virt. eigenvalues --    0.36410   0.36896   0.37851   0.38115   0.38361
 Alpha virt. eigenvalues --    0.38863   0.39828   0.40634   0.40969   0.41267
 Alpha virt. eigenvalues --    0.42255   0.42450   0.42710   0.43008   0.43136
 Alpha virt. eigenvalues --    0.43618   0.44217   0.44432   0.44672   0.44890
 Alpha virt. eigenvalues --    0.45181   0.45528   0.45916   0.45966   0.46834
 Alpha virt. eigenvalues --    0.47308   0.47477   0.47993   0.48270   0.48392
 Alpha virt. eigenvalues --    0.48446   0.48598   0.49322   0.49516   0.49726
 Alpha virt. eigenvalues --    0.50093   0.50712   0.50891   0.51215   0.51362
 Alpha virt. eigenvalues --    0.52005   0.52283   0.52857   0.53043   0.53325
 Alpha virt. eigenvalues --    0.53667   0.53913   0.54339   0.54397   0.54828
 Alpha virt. eigenvalues --    0.55316   0.55614   0.55934   0.56393   0.56697
 Alpha virt. eigenvalues --    0.57258   0.57401   0.57983   0.58630   0.58810
 Alpha virt. eigenvalues --    0.59135   0.59391   0.59953   0.60073   0.60138
 Alpha virt. eigenvalues --    0.60666   0.60813   0.61315   0.61515   0.61740
 Alpha virt. eigenvalues --    0.61988   0.62200   0.62410   0.62527   0.62745
 Alpha virt. eigenvalues --    0.63072   0.63530   0.63585   0.63863   0.64212
 Alpha virt. eigenvalues --    0.64323   0.64500   0.64830   0.64993   0.65699
 Alpha virt. eigenvalues --    0.65996   0.66249   0.66522   0.66873   0.66959
 Alpha virt. eigenvalues --    0.67240   0.67465   0.67885   0.68170   0.68428
 Alpha virt. eigenvalues --    0.69017   0.69125   0.69234   0.69573   0.69790
 Alpha virt. eigenvalues --    0.70098   0.70463   0.70888   0.71161   0.71351
 Alpha virt. eigenvalues --    0.71475   0.71810   0.72193   0.72332   0.73143
 Alpha virt. eigenvalues --    0.73586   0.74131   0.74204   0.74642   0.74742
 Alpha virt. eigenvalues --    0.74973   0.75489   0.75686   0.76034   0.76696
 Alpha virt. eigenvalues --    0.77063   0.77226   0.77470   0.78409   0.78459
 Alpha virt. eigenvalues --    0.78714   0.79431   0.79850   0.81010   0.81893
 Alpha virt. eigenvalues --    0.82269   0.82362   0.83162   0.84165   0.84441
 Alpha virt. eigenvalues --    0.85018   0.85411   0.85695   0.87185   0.87563
 Alpha virt. eigenvalues --    0.87727   0.88480   0.88965   0.89326   0.89472
 Alpha virt. eigenvalues --    0.90242   0.90944   0.92041   0.92127   0.92569
 Alpha virt. eigenvalues --    0.93966   0.94545   0.94916   0.95597   0.96113
 Alpha virt. eigenvalues --    0.96759   0.97103   0.97900   0.98503   0.98991
 Alpha virt. eigenvalues --    0.99483   0.99806   1.00110   1.00672   1.01046
 Alpha virt. eigenvalues --    1.02432   1.03152   1.03264   1.04934   1.05040
 Alpha virt. eigenvalues --    1.05751   1.06307   1.07129   1.08318   1.08507
 Alpha virt. eigenvalues --    1.08986   1.09765   1.09987   1.10957   1.11292
 Alpha virt. eigenvalues --    1.11410   1.12462   1.13683   1.14343   1.14854
 Alpha virt. eigenvalues --    1.15556   1.15812   1.15920   1.16775   1.16988
 Alpha virt. eigenvalues --    1.18013   1.18691   1.19322   1.19824   1.20980
 Alpha virt. eigenvalues --    1.22443   1.22862   1.23268   1.23340   1.24960
 Alpha virt. eigenvalues --    1.25839   1.26482   1.26561   1.27273   1.27489
 Alpha virt. eigenvalues --    1.28243   1.28690   1.29684   1.30415   1.30793
 Alpha virt. eigenvalues --    1.31367   1.32069   1.32905   1.33435   1.33754
 Alpha virt. eigenvalues --    1.35568   1.36460   1.36891   1.37458   1.37893
 Alpha virt. eigenvalues --    1.38562   1.38758   1.39221   1.39790   1.40455
 Alpha virt. eigenvalues --    1.41356   1.42145   1.43473   1.44009   1.44397
 Alpha virt. eigenvalues --    1.45188   1.45691   1.45917   1.46449   1.46717
 Alpha virt. eigenvalues --    1.46797   1.47407   1.47659   1.48822   1.49429
 Alpha virt. eigenvalues --    1.49889   1.50338   1.50954   1.51580   1.52038
 Alpha virt. eigenvalues --    1.52487   1.52586   1.54063   1.54511   1.54689
 Alpha virt. eigenvalues --    1.55227   1.55548   1.56115   1.56972   1.57392
 Alpha virt. eigenvalues --    1.58355   1.58891   1.59807   1.60123   1.60675
 Alpha virt. eigenvalues --    1.61020   1.61829   1.62614   1.63388   1.63896
 Alpha virt. eigenvalues --    1.64719   1.65371   1.65504   1.65859   1.65963
 Alpha virt. eigenvalues --    1.66485   1.66986   1.67378   1.67635   1.68158
 Alpha virt. eigenvalues --    1.68661   1.68886   1.69481   1.69686   1.70116
 Alpha virt. eigenvalues --    1.70256   1.70760   1.71173   1.71637   1.72106
 Alpha virt. eigenvalues --    1.72469   1.72881   1.73463   1.74117   1.74481
 Alpha virt. eigenvalues --    1.74925   1.75081   1.75747   1.76247   1.76489
 Alpha virt. eigenvalues --    1.76912   1.77227   1.77433   1.78181   1.78534
 Alpha virt. eigenvalues --    1.78838   1.78917   1.79658   1.79947   1.80561
 Alpha virt. eigenvalues --    1.80673   1.80775   1.80985   1.81874   1.82076
 Alpha virt. eigenvalues --    1.82456   1.82935   1.83626   1.83681   1.83865
 Alpha virt. eigenvalues --    1.84205   1.84719   1.84903   1.85529   1.86607
 Alpha virt. eigenvalues --    1.86947   1.87592   1.88052   1.88620   1.89092
 Alpha virt. eigenvalues --    1.89274   1.90176   1.90392   1.90640   1.91012
 Alpha virt. eigenvalues --    1.91372   1.91858   1.92562   1.93256   1.93835
 Alpha virt. eigenvalues --    1.95008   1.95479   1.95567   1.95830   1.96317
 Alpha virt. eigenvalues --    1.96510   1.97429   1.98288   1.98603   1.99195
 Alpha virt. eigenvalues --    1.99579   1.99996   2.00854   2.01397   2.01467
 Alpha virt. eigenvalues --    2.01662   2.02526   2.03187   2.03714   2.03846
 Alpha virt. eigenvalues --    2.04401   2.04785   2.05134   2.05939   2.06090
 Alpha virt. eigenvalues --    2.06887   2.07204   2.07349   2.07703   2.08834
 Alpha virt. eigenvalues --    2.09941   2.10323   2.11309   2.11415   2.12870
 Alpha virt. eigenvalues --    2.13367   2.13704   2.13852   2.14493   2.14870
 Alpha virt. eigenvalues --    2.15307   2.15853   2.16050   2.16279   2.17553
 Alpha virt. eigenvalues --    2.18363   2.19472   2.19980   2.20952   2.21370
 Alpha virt. eigenvalues --    2.21731   2.22265   2.22550   2.23366   2.23810
 Alpha virt. eigenvalues --    2.24808   2.25704   2.26597   2.27094   2.27922
 Alpha virt. eigenvalues --    2.28571   2.28906   2.29528   2.30070   2.30434
 Alpha virt. eigenvalues --    2.31251   2.31644   2.32371   2.32803   2.34291
 Alpha virt. eigenvalues --    2.34686   2.35353   2.36116   2.37002   2.37345
 Alpha virt. eigenvalues --    2.37803   2.38510   2.40659   2.40969   2.41463
 Alpha virt. eigenvalues --    2.41875   2.43271   2.43632   2.43981   2.44413
 Alpha virt. eigenvalues --    2.45379   2.45748   2.45829   2.47753   2.48441
 Alpha virt. eigenvalues --    2.49183   2.49785   2.52123   2.52846   2.53310
 Alpha virt. eigenvalues --    2.53744   2.54319   2.54355   2.55254   2.55851
 Alpha virt. eigenvalues --    2.57278   2.58194   2.58894   2.59304   2.59746
 Alpha virt. eigenvalues --    2.61685   2.62225   2.62893   2.63478   2.64113
 Alpha virt. eigenvalues --    2.64210   2.64512   2.64801   2.65758   2.66178
 Alpha virt. eigenvalues --    2.66443   2.67656   2.68405   2.68977   2.69454
 Alpha virt. eigenvalues --    2.70579   2.71158   2.72232   2.72398   2.73436
 Alpha virt. eigenvalues --    2.73744   2.74275   2.74917   2.76781   2.77333
 Alpha virt. eigenvalues --    2.77836   2.78038   2.78725   2.79322   2.79609
 Alpha virt. eigenvalues --    2.80224   2.81272   2.81338   2.82623   2.83464
 Alpha virt. eigenvalues --    2.83604   2.84670   2.84929   2.85484   2.85726
 Alpha virt. eigenvalues --    2.86731   2.87230   2.87813   2.89898   2.89946
 Alpha virt. eigenvalues --    2.90873   2.93118   2.93612   2.94509   2.94763
 Alpha virt. eigenvalues --    2.95257   2.96685   2.97142   2.97860   2.99960
 Alpha virt. eigenvalues --    3.01267   3.02424   3.02674   3.03301   3.03506
 Alpha virt. eigenvalues --    3.05219   3.06361   3.08152   3.08746   3.10129
 Alpha virt. eigenvalues --    3.11591   3.12608   3.15388   3.16216   3.18595
 Alpha virt. eigenvalues --    3.19935   3.20918   3.21424   3.23129   3.23663
 Alpha virt. eigenvalues --    3.24420   3.25081   3.25407   3.30286   3.31535
 Alpha virt. eigenvalues --    3.33485   3.39791   3.41576   3.43369   3.44777
 Alpha virt. eigenvalues --    3.45700   3.51696   3.54326   3.58061   3.58662
 Alpha virt. eigenvalues --    3.65866   3.66790   3.67135   3.68049   3.70306
 Alpha virt. eigenvalues --    3.75744   3.78920
          Condensed to atoms (all electrons):
 Mulliken charges:
               1
     1  O   -0.253681
     2  O   -0.316889
     3  O   -0.190653
     4  O   -0.164735
     5  O   -0.190769
     6  O   -0.176168
     7  N   -0.156990
     8  N   -0.105166
     9  N    0.124706
    10  N   -0.327094
    11  C    0.063427
    12  C    0.145776
    13  C    0.000748
    14  C   -0.109650
    15  C   -0.096681
    16  C    0.057235
    17  C   -0.231060
    18  C    0.098949
    19  C   -0.070734
    20  C   -0.002375
    21  C    0.137972
    22  C    0.117041
    23  C   -0.120639
    24  C    0.001956
    25  C    0.061262
    26  C   -0.075069
    27  C   -0.118867
    28  C   -0.096937
    29  C   -0.076623
    30  C    0.120155
    31  C   -0.021279
    32  C    0.091855
    33  C   -0.089929
    34  C    0.161619
    35  C    0.128618
    36  C   -0.002601
    37  C    0.125426
    38  C    0.162642
    39  C   -0.190819
    40  C    0.137388
    41  C   -0.136296
    42  C    0.012148
    43  C   -0.058089
    44  H    0.036414
    45  H    0.009776
    46  H   -0.029052
    47  H    0.150157
    48  H    0.111775
    49  H    0.019037
    50  H    0.049375
    51  H   -0.097248
    52  H    0.013806
    53  H    0.024607
    54  H    0.070072
    55  H    0.066045
    56  H    0.044669
    57  H    0.010737
    58  H    0.113349
    59  H    0.044875
    60  H    0.063994
    61  H    0.058121
    62  H    0.056648
    63  H   -0.059645
    64  H    0.070285
    65  H    0.055915
    66  H   -0.001934
    67  H    0.082923
    68  H    0.044091
    69  H   -0.025649
    70  H    0.005683
    71  H    0.027315
    72  H    0.231041
    73  H    0.015633
    74  H    0.045821
    75  H    0.038709
    76  H    0.056959
    77  H    0.167778
    78  H    0.051328
    79  H    0.007459
 Sum of Mulliken charges =  -0.00000
 Mulliken charges with hydrogens summed into heavy atoms:
               1
     1  O   -0.253681
     2  O   -0.085848
     3  O   -0.190653
     4  O    0.003044
     5  O   -0.190769
     6  O   -0.176168
     7  N   -0.006833
     8  N    0.006609
     9  N    0.188701
    10  N   -0.327094
    11  C    0.099841
    12  C    0.126500
    13  C    0.000748
    14  C   -0.109650
    15  C   -0.096681
    16  C    0.057235
    17  C   -0.231060
    18  C    0.167362
    19  C   -0.070734
    20  C   -0.099623
    21  C    0.137972
    22  C    0.117041
    23  C   -0.120639
    24  C    0.110441
    25  C    0.182712
    26  C   -0.075069
    27  C    0.039357
    28  C   -0.096937
    29  C    0.038146
    30  C    0.060510
    31  C    0.104921
    32  C    0.216935
    33  C   -0.115578
    34  C    0.161619
    35  C    0.128618
    36  C    0.030397
    37  C    0.125426
    38  C    0.162642
    39  C   -0.190819
    40  C    0.137388
    41  C   -0.120662
    42  C    0.153637
    43  C    0.000697
 Electronic spatial extent (au):  <R**2>=          31478.5319
 Charge=             -0.0000 electrons
 Dipole moment (field-independent basis, Debye):
    X=              0.3502    Y=              2.6172    Z=              1.2852  Tot=              2.9367
 Quadrupole moment (field-independent basis, Debye-Ang):
   XX=           -223.9326   YY=           -248.2781   ZZ=           -270.1172
   XY=            -11.7239   XZ=             38.4169   YZ=              3.9446
 Traceless Quadrupole moment (field-independent basis, Debye-Ang):
   XX=             23.5100   YY=             -0.8355   ZZ=            -22.6746
   XY=            -11.7239   XZ=             38.4169   YZ=              3.9446
 Octapole moment (field-independent basis, Debye-Ang**2):
  XXX=             -5.0449  YYY=             93.3095  ZZZ=             50.4046  XYY=            -61.4402
  XXY=            -53.6134  XXZ=             40.1975  XZZ=            -51.8771  YZZ=             -0.4708
  YYZ=             -1.5748  XYZ=             -0.9668
 Hexadecapole moment (field-independent basis, Debye-Ang**3):
 XXXX=         -23345.9022 YYYY=         -12124.4695 ZZZZ=          -4844.1085 XXXY=           -177.2570
 XXXZ=            791.7179 YYYX=             17.8419 YYYZ=            372.6966 ZZZX=            190.7682
 ZZZY=            -24.0091 XXYY=          -5978.6034 XXZZ=          -5258.8026 YYZZ=          -3034.0694
 XXYZ=            -72.0254 YYXZ=            170.4449 ZZXY=            -35.0361
 N-N= 4.971301695902D+03 E-N=-1.447123645594D+04  KE= 1.927998980329D+03
 1\1\GINC-PADAWAN\SP\RB3LYP TD-FC\SVP\C33H36N4O6\PADAWAN\07-Oct-2019\0\
 \# td=(NStates=1) B3LYP/SVP\\TD\\0,1\O,0,-5.3646626963,0.080973537,-3.
 2258023699\O,0,3.0705070562,2.8166389186,3.0454606245\O,0,3.3434026889
 ,0.5871941184,2.7132332084\O,0,1.576485288,-7.130009271,1.5015186582\O
 ,0,0.6307379618,-6.8400804316,-0.3964476277\O,0,1.6095079989,3.8675298
 758,0.0091004174\N,0,-2.3185514662,-0.9849569259,0.5602630429\N,0,-4.3
 745123326,0.8433119977,-1.2482731821\N,0,1.8053409257,-0.7458661596,-0
 .3893174093\N,0,2.5483403759,1.8368394294,-0.4712638731\C,0,-4.7546418
 554,1.2917106681,0.0028660864\C,0,-4.3579531881,0.3044606114,1.1460619
 639\C,0,-2.9591910147,-0.0014398873,1.4066626793\C,0,-1.9110602027,0.4
 893538926,2.1944626159\C,0,-0.6930559159,-0.0467601115,1.8127819558\C,
 0,-0.9594101288,-1.07901096,0.7808899084\C,0,-6.2579281489,1.375325321
 8,-0.1525204674\C,0,0.549163523,0.0645571322,2.6095399741\C,0,-6.61011
 15257,1.0535446029,-1.3310588346\C,0,-0.1391801741,-2.0965183887,0.192
 4413256\C,0,1.0933162278,-1.8858481314,-0.2041920014\C,0,-5.4055411544
 ,0.6166298777,-2.1020675183\C,0,1.9824123264,-2.8981603544,-0.92160917
 02\C,0,-2.0829439953,1.5629620531,3.2533097212\C,0,-7.0104285361,1.926
 5707863,0.8950734932\C,0,3.1308494186,-2.4010300542,-1.278389084\C,0,1
 .0966056879,1.4872672201,2.578611497\C,0,2.9729853738,-1.0169703226,-0
 .8879427825\C,0,1.7172154917,-4.4742333877,-0.9992416411\C,0,-7.924078
 3138,0.7751291505,-2.0421226001\C,0,1.9182393895,-5.0477857132,0.48958
 4954\C,0,4.4755931683,-2.93811228,-1.7270619375\C,0,3.935614432,0.1444
 938529,-1.2236770501\C,0,2.5994905703,1.50591818,2.7438602859\C,0,3.69
 27036482,1.4719726088,-1.0657331406\C,0,-9.0931843018,0.9664788082,-1.
 5371585312\C,0,1.3086659313,-6.3990565559,0.4295116102\C,0,4.603649199
 5,2.742771032,-1.4024373268\C,0,3.7872379922,3.8302835521,-1.017723066
 6\C,0,2.5413557064,3.2804858997,-0.440162779\C,0,5.7077043757,2.622627
 1033,-2.1366856237\C,0,4.0719428141,5.3309779736,-1.1829003034\C,0,6.5
 660566633,3.565322217,-2.6206365406\H,0,-4.3798724733,2.4010811882,0.2
 098140217\H,0,-5.1383684937,-0.5483563117,0.9498697312\H,0,-4.75285212
 51,0.6320972094,2.0709140011\H,0,-2.8669257325,-1.3688242779,-0.290565
 9784\H,0,-3.5225632536,1.0272046376,-1.6899465456\H,0,0.1733417689,-0.
 2238020682,3.5786374118\H,0,1.4086448739,-0.617606428,2.2070658394\H,0
 ,-0.527601421,-2.9467621412,-0.076142612\H,0,-3.3907992252,1.473898654
 ,3.6501850082\H,0,-1.4638976049,1.3741667806,4.1000183897\H,0,-1.99873
 62547,2.6972935492,2.850622484\H,0,-6.4451879697,2.4394527488,1.893611
 5942\H,0,-7.4784176088,0.8881186211,1.3057675875\H,0,-7.82342828,2.378
 4139245,0.5140798882\H,0,0.7986925777,2.2558876254,1.6820662739\H,0,0.
 7744905616,2.2142782498,3.4779636206\H,0,1.6649308195,0.1692275678,-0.
 2542307884\H,0,2.2325110433,-5.0429381242,-1.8408786976\H,0,0.39902169
 97,-4.5148913366,-1.0066091443\H,0,-7.6322942912,0.435483779,-2.926128
 5511\H,0,1.4342356125,-4.2392651062,1.1038679634\H,0,3.0409603661,-5.1
 266698715,0.7029481097\H,0,4.3008751498,-3.9752049727,-1.6859720583\H,
 0,5.4784889473,-2.4702258728,-1.3138850061\H,0,4.4852899621,-2.6690491
 375,-2.8860476784\H,0,4.8314727668,-0.427944889,-1.6760137771\H,0,-9.2
 063542359,1.2873761931,-0.497132403\H,0,-9.9750056342,0.7748889046,-2.
 1623923392\H,0,4.0663713236,2.7766410478,2.5437191376\H,0,6.1697804462
 ,1.5683689861,-2.3914379588\H,0,5.0954902488,5.5064234065,-0.641302750
 2\H,0,4.3466166842,5.7442111868,-2.1982223671\H,0,3.1081384834,5.90494
 01004,-0.8629380354\H,0,1.0037876869,-7.878248982,1.1768337383\H,0,7.4
 540978542,3.2418897289,-3.3323305064\H,0,6.3411159991,4.6118366959,-2.
 3571380663\\Version=ES64L-G16RevA.03\State=1-A\HF=-1947.7417738\RMSD=7
 .938e-09\PG=C01 [X(C33H36N4O6)]\\@


 A COMPLEXITY IS MERELY A DISARRANGEMENT OF SIMPLICITIES.

                                    -- G. O. ABELL IN "EXPLORATION OF THE UNIVERSE"
 Job cpu time:       0 days  9 hours 35 minutes  2.1 seconds.
 Elapsed time:       0 days  2 hours 24 minutes 11.2 seconds.
 File lengths (MBytes):  RWF=   2533 Int=      0 D2E=      0 Chk=     63 Scr=      1
 Normal termination of Gaussian 16 at Mon Oct  7 22:27:34 2019.
