 Entering Gaussian System, Link 0=g16
 Input=Geometria-83-.com
 Output=Geometria-83-.log
 Initial command:
 /usr/local/g16/l1.exe "/home/padawan/israel-mol/dihydrobiliverdin/spectra/emi/Gau-19543.inp" -scrdir="/home/padawan/israel-mol/dihydrobiliverdin/spectra/emi/"
 Entering Link 1 = /usr/local/g16/l1.exe PID=     19545.
  
 Copyright (c) 1988,1990,1992,1993,1995,1998,2003,2009,2016,
            Gaussian, Inc.  All Rights Reserved.
  
 This is part of the Gaussian(R) 16 program.  It is based on
 the Gaussian(R) 09 system (copyright 2009, Gaussian, Inc.),
 the Gaussian(R) 03 system (copyright 2003, Gaussian, Inc.),
 the Gaussian(R) 98 system (copyright 1998, Gaussian, Inc.),
 the Gaussian(R) 94 system (copyright 1995, Gaussian, Inc.),
 the Gaussian 92(TM) system (copyright 1992, Gaussian, Inc.),
 the Gaussian 90(TM) system (copyright 1990, Gaussian, Inc.),
 the Gaussian 88(TM) system (copyright 1988, Gaussian, Inc.),
 the Gaussian 86(TM) system (copyright 1986, Carnegie Mellon
 University), and the Gaussian 82(TM) system (copyright 1983,
 Carnegie Mellon University). Gaussian is a federally registered
 trademark of Gaussian, Inc.
  
 This software contains proprietary and confidential information,
 including trade secrets, belonging to Gaussian, Inc.
  
 This software is provided under written license and may be
 used, copied, transmitted, or stored only in accord with that
 written license.
  
 The following legend is applicable only to US Government
 contracts under FAR:
  
                    RESTRICTED RIGHTS LEGEND
  
 Use, reproduction and disclosure by the US Government is
 subject to restrictions as set forth in subparagraphs (a)
 and (c) of the Commercial Computer Software - Restricted
 Rights clause in FAR 52.227-19.
  
 Gaussian, Inc.
 340 Quinnipiac St., Bldg. 40, Wallingford CT 06492
  
  
 ---------------------------------------------------------------
 Warning -- This program may not be used in any manner that
 competes with the business of Gaussian, Inc. or will provide
 assistance to any competitor of Gaussian, Inc.  The licensee
 of this program is prohibited from giving any competitor of
 Gaussian, Inc. access to this program.  By using this program,
 the user acknowledges that Gaussian, Inc. is engaged in the
 business of creating and licensing software in the field of
 computational chemistry and represents and warrants to the
 licensee that it is not a competitor of Gaussian, Inc. and that
 it will not use this program in any manner prohibited above.
 ---------------------------------------------------------------
  

 Cite this work as:
 Gaussian 16, Revision A.03,
 M. J. Frisch, G. W. Trucks, H. B. Schlegel, G. E. Scuseria, 
 M. A. Robb, J. R. Cheeseman, G. Scalmani, V. Barone, 
 G. A. Petersson, H. Nakatsuji, X. Li, M. Caricato, A. V. Marenich, 
 J. Bloino, B. G. Janesko, R. Gomperts, B. Mennucci, H. P. Hratchian, 
 J. V. Ortiz, A. F. Izmaylov, J. L. Sonnenberg, D. Williams-Young, 
 F. Ding, F. Lipparini, F. Egidi, J. Goings, B. Peng, A. Petrone, 
 T. Henderson, D. Ranasinghe, V. G. Zakrzewski, J. Gao, N. Rega, 
 G. Zheng, W. Liang, M. Hada, M. Ehara, K. Toyota, R. Fukuda, 
 J. Hasegawa, M. Ishida, T. Nakajima, Y. Honda, O. Kitao, H. Nakai, 
 T. Vreven, K. Throssell, J. A. Montgomery, Jr., J. E. Peralta, 
 F. Ogliaro, M. J. Bearpark, J. J. Heyd, E. N. Brothers, K. N. Kudin, 
 V. N. Staroverov, T. A. Keith, R. Kobayashi, J. Normand, 
 K. Raghavachari, A. P. Rendell, J. C. Burant, S. S. Iyengar, 
 J. Tomasi, M. Cossi, J. M. Millam, M. Klene, C. Adamo, R. Cammi, 
 J. W. Ochterski, R. L. Martin, K. Morokuma, O. Farkas, 
 J. B. Foresman, and D. J. Fox, Gaussian, Inc., Wallingford CT, 2016.
 
 ******************************************
 Gaussian 16:  ES64L-G16RevA.03 25-Dec-2016
                25-Jul-2019 
 ******************************************
 %nproc=4
 Will use up to    4 processors via shared memory.
 %Mem=3GB
 --------------------------
 # td=(NStates=1) B3LYP/SVP
 --------------------------
 1/38=1,172=1/1;
 2/12=2,17=6,18=5,40=1/2;
 3/5=18,7=101,11=9,25=1,30=1,74=-5/1,2,3,8;
 4//1;
 5/5=2,38=5/2;
 8/6=1,10=1,108=1/1;
 9/41=1,42=1,70=2/14;
 6/7=2,8=2,9=2,10=2/1;
 99/5=1,9=1/99;
 --
 TD
 --
 Symbolic Z-matrix:
 Charge =  0 Multiplicity = 1
 8                    -3.24685  -1.28439  -2.8311 
 8                     2.98458   3.25433   2.9811 
 8                     3.50598   1.53312   4.4409 
 8                     7.6643   -1.71054  -0.74035 
 8                     6.72794  -2.82077  -2.51706 
 8                    -2.65083   1.59375   1.51069 
 7                    -0.25713  -2.52208   1.06071 
 7                    -2.6219   -1.25819  -0.61349 
 7                     1.16567   0.02353  -0.64465 
 7                    -1.01302   1.40889  -0.0998 
 6                    -3.31376  -1.34056   0.68476 
 6                    -2.61599  -2.43265   1.55222 
 6                    -1.23987  -2.13973   1.82793 
 6                    -0.77342  -1.07774   2.71227 
 6                     0.74361  -1.04417   2.51812 
 6                     0.9822   -1.8563    1.39427 
 6                    -4.69234  -1.78782   0.1964 
 6                     1.8063   -0.2643    3.14589 
 6                    -4.79167  -1.9997   -1.09756 
 6                     2.09861  -1.95305   0.3865 
 6                     2.08434  -0.98066  -0.58872 
 6                    -3.47082  -1.42157  -1.68004 
 6                     2.97016  -0.74094  -1.64493 
 6                    -1.34321  -0.43046   3.86993 
 6                    -5.82563  -2.06286   1.22066 
 6                     2.57454   0.35707  -2.39109 
 6                     1.92504   1.25118   2.67338 
 6                     1.38987   0.83381  -1.7456 
 6                     4.0962   -1.57463  -1.98254 
 6                    -5.85026  -2.37801  -2.00714 
 6                     5.5628   -1.12729  -1.30086 
 6                     3.24524   0.9611   -3.65414 
 6                     0.59059   1.9471   -1.87099 
 6                     2.89019   1.90823   3.48381 
 6                    -0.63638   2.21653  -1.20349 
 6                    -6.88056  -3.23195  -1.8458 
 6                     6.71512  -2.02414  -1.54095 
 6                    -1.30851   3.55289  -1.06737 
 6                    -2.26658   3.30879  -0.16694 
 6                    -2.03775   2.01525   0.47165 
 6                    -1.19053   4.58435  -2.09766 
 6                    -3.49017   4.19646   0.28595 
 6                    -1.88924   5.76696  -2.31529 
 1                    -3.24201  -0.52119   1.28425 
 1                    -2.65188  -3.48737   1.21104 
 1                    -3.20922  -2.88715   2.4804 
 1                    -0.33301  -2.96593   0.18997 
 1                    -1.85525  -0.48309  -0.66038 
 1                     1.80536  -0.43497   4.19501 
 1                     2.58149  -0.81265   2.55804 
 1                     2.84101  -2.6905    0.69977 
 1                    -2.10026  -0.89867   4.75071 
 1                    -0.54519   0.065     4.56509 
 1                    -1.86857   0.45636   3.28103 
 1                    -5.84694  -1.41194   2.00043 
 1                    -5.47047  -3.11859   1.61676 
 1                    -6.8616   -2.26189   0.87264 
 1                     2.20401   1.43007   1.6909 
 1                     0.88016   1.6596    2.76704 
 1                     0.45331   0.36318  -0.04177 
 1                     4.14988  -1.64069  -3.04206 
 1                     3.98197  -2.58518  -1.75635 
 1                    -5.80928  -1.89617  -2.96432 
 1                     5.28261  -1.2189   -0.22183 
 1                     5.77192  -0.04651  -1.5106 
 1                     3.70247   0.21118  -4.38337 
 1                     3.71747   1.91313  -3.19613 
 1                     2.32417   1.55708  -4.29435 
 1                     0.68731   2.63459  -2.7341 
 1                    -6.79374  -3.79289  -0.89156 
 1                    -7.23983  -3.73163  -2.66251 
 1                     3.48654   3.86452   3.77551 
 1                    -0.23381   4.5981   -2.63797 
 1                    -4.2118    4.38144  -0.71932 
 1                    -4.0515    3.59464   1.02759 
 1                    -3.08563   5.12149   0.66021 
 1                     8.32435  -2.39636  -0.74274 
 1                    -1.446     6.28544  -3.07302 
 1                    -2.83553   6.09804  -1.79272 
 
 Stoichiometry    C33H36N4O6
 Framework group  C1[X(C33H36N4O6)]
 Deg. of freedom   231
 Full point group                 C1      NOp   1
 Largest Abelian subgroup         C1      NOp   1
 Largest concise Abelian subgroup C1      NOp   1
                         Standard orientation:                         
 ---------------------------------------------------------------------
 Center     Atomic      Atomic             Coordinates (Angstroms)
 Number     Number       Type             X           Y           Z
 ---------------------------------------------------------------------
      1          8           0       -3.192222   -1.730108   -2.648620
      2          8           0        2.923227    3.702175    2.480126
      3          8           0        3.425062    2.234748    4.200662
      4          8           0        7.682634   -1.757642   -0.337195
      5          8           0        6.780670   -3.138709   -1.932557
      6          8           0       -2.680529    1.797758    1.196182
      7          7           0       -0.265931   -2.323349    1.438114
      8          7           0       -2.605655   -1.352203   -0.452677
      9          7           0        1.177661   -0.068765   -0.622382
     10          7           0       -1.014628    1.371981   -0.338014
     11          6           0       -3.319492   -1.233757    0.830796
     12          6           0       -2.633187   -2.171867    1.870488
     13          6           0       -1.262989   -1.831099    2.119403
     14          6           0       -0.815330   -0.640632    2.833441
     15          6           0        0.704694   -0.628946    2.661481
     16          6           0        0.965278   -1.606082    1.683307
     17          6           0       -4.687986   -1.760368    0.396117
     18          6           0        1.753845    0.246157    3.176335
     19          6           0       -4.764309   -2.173435   -0.849928
     20          6           0        2.099190   -1.853274    0.721812
     21          6           0        2.098532   -1.046226   -0.394202
     22          6           0       -3.435534   -1.686123   -1.494148
     23          6           0        3.001615   -0.970112   -1.460198
     24          6           0       -1.407105    0.177043    3.865447
     25          6           0       -5.837835   -1.877854    1.432044
     26          6           0        2.615300   -0.005293   -2.376062
     27          6           0        1.875733    1.669290    2.473579
     28          6           0        1.418133    0.559853   -1.833135
     29          6           0        4.136042   -1.839758   -1.643985
     30          6           0       -5.805830   -2.696208   -1.706098
     31          6           0        5.589203   -1.282191   -1.016978
     32          6           0        3.305675    0.396840   -3.707101
     33          6           0        0.617477    1.634855   -2.145078
     34          6           0        2.824613    2.451206    3.186496
     35          6           0       -0.621686    1.998473   -1.548537
     36          6           0       -6.835947   -3.520320   -1.429587
     37          6           0        6.748426   -2.198743   -1.094113
     38          6           0       -1.300449    3.335602   -1.635223
     39          6           0       -2.273081    3.230265   -0.723549
     40          6           0       -2.051031    2.054467    0.114066
     41          6           0       -1.168129    4.193128   -2.812710
     42          6           0       -3.507199    4.170754   -0.436015
     43          6           0       -1.866872    5.322697   -3.224964
     44          1           0       -3.260777   -0.329980    1.295186
     45          1           0       -2.659726   -3.267285    1.698746
     46          1           0       -3.240821   -2.478468    2.848642
     47          1           0       -0.325340   -2.898894    0.646804
     48          1           0       -1.840861   -0.589543   -0.608130
     49          1           0        1.735398    0.242376    4.239086
     50          1           0        2.540843   -0.383101    2.694831
     51          1           0        2.838507   -2.527933    1.159279
     52          1           0       -2.177671   -0.151515    4.796251
     53          1           0       -0.622810    0.780278    4.487179
     54          1           0       -1.925147    0.957212    3.135916
     55          1           0       -5.874709   -1.112673    2.099380
     56          1           0       -5.486082   -2.856128    1.994928
     57          1           0       -6.867003   -2.135236    1.102585
     58          1           0        2.170990    1.693304    1.479923
     59          1           0        0.828055    2.081124    2.484648
     60          1           0        0.453916    0.357114   -0.092195
     61          1           0        4.208177   -2.071092   -2.678931
     62          1           0        4.021248   -2.802904   -1.263723
     63          1           0       -5.749955   -2.370453   -2.726292
     64          1           0        5.290765   -1.204849    0.058275
     65          1           0        5.798349   -0.246539   -1.390465
     66          1           0        3.777855   -0.455580   -4.301777
     67          1           0        3.766809    1.411782   -3.396660
     68          1           0        2.393810    0.879372   -4.448116
     69          1           0        0.726792    2.178814   -3.103791
     70          1           0       -6.763731   -3.923897   -0.397749
     71          1           0       -7.179453   -4.144211   -2.163437
     72          1           0        3.409425    4.432540    3.176948
     73          1           0       -0.202293    4.127533   -3.332612
     74          1           0       -4.212010    4.191251   -1.469635
     75          1           0       -4.079244    3.689564    0.381622
     76          1           0       -3.112203    5.145479   -0.205148
     77          1           0        8.344880   -2.431391   -0.220894
     78          1           0       -1.412346    5.718353   -4.047347
     79          1           0       -2.823098    5.726107   -2.776594
 ---------------------------------------------------------------------
 Rotational constants (GHZ):           0.0914092           0.0509192           0.0483597
 Standard basis: SVP (5D, 7F)
 There are   825 symmetry adapted cartesian basis functions of A   symmetry.
 There are   782 symmetry adapted basis functions of A   symmetry.
   782 basis functions,  1327 primitive gaussians,   825 cartesian basis functions
   155 alpha electrons      155 beta electrons
       nuclear repulsion energy      5213.9912088005 Hartrees.
 NAtoms=   79 NActive=   79 NUniq=   79 SFac= 1.00D+00 NAtFMM=   60 NAOKFM=T Big=T
 Integral buffers will be    131072 words long.
 Regular integral format.
 Two-electron integral symmetry is turned on.
 One-electron integrals computed using PRISM.
 NBasis=   782 RedAO= T EigKep=  3.35D-04  NBF=   782
 NBsUse=   782 1.00D-06 EigRej= -1.00D+00 NBFU=   782
 ExpMin= 1.22D-01 ExpMax= 2.27D+03 ExpMxC= 3.41D+02 IAcc=3 IRadAn=         5 AccDes= 0.00D+00
 Harris functional with IExCor=  402 and IRadAn=       5 diagonalized for initial guess.
 HarFok:  IExCor=  402 AccDes= 0.00D+00 IRadAn=         5 IDoV= 1 UseB2=F ITyADJ=14
 ICtDFT=  3500011 ScaDFX=  1.000000  1.000000  1.000000  1.000000
 FoFCou: FMM=F IPFlag=           0 FMFlag=      100000 FMFlg1=        2001
         NFxFlg=           0 DoJE=T BraDBF=F KetDBF=T FulRan=T
         wScrn=  0.000000 ICntrl=       500 IOpCl=  0 I1Cent=   200000004 NGrid=           0
         NMat0=    1 NMatS0=      1 NMatT0=    0 NMatD0=    1 NMtDS0=    0 NMtDT0=    0
 Petite list used in FoFCou.
 Requested convergence on RMS density matrix=1.00D-08 within 128 cycles.
 Requested convergence on MAX density matrix=1.00D-06.
 Requested convergence on             energy=1.00D-06.
 No special actions if energy rises.
 Integral accuracy reduced to 1.0D-05 until final iterations.
 EnCoef did     2 forward-backward iterations
 Initial convergence to 1.0D-05 achieved.  Increase integral accuracy.
 SCF Done:  E(RB3LYP) =  -1947.80071713     A.U. after   22 cycles
            NFock= 22  Conv=0.47D-08     -V/T= 2.0104
 DoSCS=F DFT=T ScalE2(SS,OS)=  1.000000  1.000000
 ExpMin= 1.22D-01 ExpMax= 2.27D+03 ExpMxC= 3.41D+02 IAcc=3 IRadAn=         5 AccDes= 0.00D+00
 HarFok:  IExCor=  205 AccDes= 0.00D+00 IRadAn=         5 IDoV=-2 UseB2=F ITyADJ=14
 ICtDFT= 12500011 ScaDFX=  1.000000  1.000000  1.000000  1.000000
 GSVD:  LWork=       -2193 too small for GESVD, short by        9890 words or        9890 for optimal perf.
 Range of M.O.s used for correlation:    44   782
 NBasis=   782 NAE=   155 NBE=   155 NFC=    43 NFV=     0
 NROrb=    739 NOA=   112 NOB=   112 NVA=   627 NVB=   627

 **** Warning!!: The smallest alpha delta epsilon is  0.46652999D-01

 Orbital symmetries:
       Occupied  (A) (A) (A) (A) (A) (A) (A) (A) (A) (A) (A) (A)
                 (A) (A) (A) (A) (A) (A) (A) (A) (A) (A) (A) (A)
                 (A) (A) (A) (A) (A) (A) (A) (A) (A) (A) (A) (A)
                 (A) (A) (A) (A) (A) (A) (A) (A) (A) (A) (A) (A)
                 (A) (A) (A) (A) (A) (A) (A) (A) (A) (A) (A) (A)
                 (A) (A) (A) (A) (A) (A) (A) (A) (A) (A) (A) (A)
                 (A) (A) (A) (A) (A) (A) (A) (A) (A) (A) (A) (A)
                 (A) (A) (A) (A) (A) (A) (A) (A) (A) (A) (A) (A)
                 (A) (A) (A) (A) (A) (A) (A) (A) (A) (A) (A) (A)
                 (A) (A) (A) (A) (A) (A) (A) (A) (A) (A) (A) (A)
                 (A) (A) (A) (A) (A) (A) (A) (A) (A) (A) (A) (A)
                 (A) (A) (A) (A) (A) (A) (A) (A) (A) (A) (A) (A)
                 (A) (A) (A) (A) (A) (A) (A) (A) (A) (A) (A)
       Virtual   (A) (A) (A) (A) (A) (A) (A) (A) (A) (A) (A) (A)
                 (A) (A) (A) (A) (A) (A) (A) (A) (A) (A) (A) (A)
                 (A) (A) (A) (A) (A) (A) (A) (A) (A) (A) (A) (A)
                 (A) (A) (A) (A) (A) (A) (A) (A) (A) (A) (A) (A)
                 (A) (A) (A) (A) (A) (A) (A) (A) (A) (A) (A) (A)
                 (A) (A) (A) (A) (A) (A) (A) (A) (A) (A) (A) (A)
                 (A) (A) (A) (A) (A) (A) (A) (A) (A) (A) (A) (A)
                 (A) (A) (A) (A) (A) (A) (A) (A) (A) (A) (A) (A)
                 (A) (A) (A) (A) (A) (A) (A) (A) (A) (A) (A) (A)
                 (A) (A) (A) (A) (A) (A) (A) (A) (A) (A) (A) (A)
                 (A) (A) (A) (A) (A) (A) (A) (A) (A) (A) (A) (A)
                 (A) (A) (A) (A) (A) (A) (A) (A) (A) (A) (A) (A)
                 (A) (A) (A) (A) (A) (A) (A) (A) (A) (A) (A) (A)
                 (A) (A) (A) (A) (A) (A) (A) (A) (A) (A) (A) (A)
                 (A) (A) (A) (A) (A) (A) (A) (A) (A) (A) (A) (A)
                 (A) (A) (A) (A) (A) (A) (A) (A) (A) (A) (A) (A)
                 (A) (A) (A) (A) (A) (A) (A) (A) (A) (A) (A) (A)
                 (A) (A) (A) (A) (A) (A) (A) (A) (A) (A) (A) (A)
                 (A) (A) (A) (A) (A) (A) (A) (A) (A) (A) (A) (A)
                 (A) (A) (A) (A) (A) (A) (A) (A) (A) (A) (A) (A)
                 (A) (A) (A) (A) (A) (A) (A) (A) (A) (A) (A) (A)
                 (A) (A) (A) (A) (A) (A) (A) (A) (A) (A) (A) (A)
                 (A) (A) (A) (A) (A) (A) (A) (A) (A) (A) (A) (A)
                 (A) (A) (A) (A) (A) (A) (A) (A) (A) (A) (A) (A)
                 (A) (A) (A) (A) (A) (A) (A) (A) (A) (A) (A) (A)
                 (A) (A) (A) (A) (A) (A) (A) (A) (A) (A) (A) (A)
                 (A) (A) (A) (A) (A) (A) (A) (A) (A) (A) (A) (A)
                 (A) (A) (A) (A) (A) (A) (A) (A) (A) (A) (A) (A)
                 (A) (A) (A) (A) (A) (A) (A) (A) (A) (A) (A) (A)
                 (A) (A) (A) (A) (A) (A) (A) (A) (A) (A) (A) (A)
                 (A) (A) (A) (A) (A) (A) (A) (A) (A) (A) (A) (A)
                 (A) (A) (A) (A) (A) (A) (A) (A) (A) (A) (A) (A)
                 (A) (A) (A) (A) (A) (A) (A) (A) (A) (A) (A) (A)
                 (A) (A) (A) (A) (A) (A) (A) (A) (A) (A) (A) (A)
                 (A) (A) (A) (A) (A) (A) (A) (A) (A) (A) (A) (A)
                 (A) (A) (A) (A) (A) (A) (A) (A) (A) (A) (A) (A)
                 (A) (A) (A) (A) (A) (A) (A) (A) (A) (A) (A) (A)
                 (A) (A) (A) (A) (A) (A) (A) (A) (A) (A) (A) (A)
                 (A) (A) (A) (A) (A) (A) (A) (A) (A) (A) (A) (A)
                 (A) (A) (A) (A) (A) (A) (A) (A) (A) (A) (A) (A)
                 (A) (A) (A) (A) (A) (A) (A) (A) (A) (A) (A) (A)
                 (A) (A) (A) (A) (A) (A) (A) (A) (A) (A) (A) (A)
                 (A) (A) (A) (A) (A) (A) (A) (A) (A) (A) (A) (A)
                 (A) (A) (A) (A) (A) (A) (A) (A) (A) (A) (A) (A)
                 (A) (A) (A) (A) (A) (A) (A) (A) (A) (A) (A) (A)
                 (A) (A) (A) (A) (A) (A) (A) (A) (A) (A) (A) (A)
                 (A) (A) (A) (A) (A) (A) (A) (A) (A) (A) (A) (A)
                 (A) (A) (A) (A) (A) (A) (A) (A) (A) (A) (A) (A)
                 (A) (A) (A) (A) (A) (A) (A) (A) (A) (A) (A) (A)
                 (A) (A) (A) (A) (A) (A) (A) (A) (A) (A) (A) (A)
                 (A) (A) (A) (A) (A) (A) (A) (A) (A) (A) (A) (A)
                 (A) (A) (A) (A) (A) (A) (A) (A) (A) (A) (A) (A)
                 (A) (A) (A)
     4 initial guesses have been made.
 Convergence on wavefunction:    0.001000000000000
 Iteration     1 Dimension     4 NMult     0 NNew      4
 CISAX will form     4 AO SS matrices at one time.
 Iteration     2 Dimension     6 NMult     4 NNew      2
 Iteration     3 Dimension     8 NMult     6 NNew      2
 Iteration     4 Dimension    10 NMult     8 NNew      2
 Iteration     5 Dimension    12 NMult    10 NNew      2
 ***********************************************************************
 Excited states from <AA,BB:AA,BB> singles matrix:
 ***********************************************************************
 
 Ground to excited state transition densities written to RWF  633
 Ground to excited state transition electric dipole moments (Au):
       state          X           Y           Z        Dip. S.      Osc.
         1        -0.2372     -0.1905      0.3365      0.2058      0.0031
 Ground to excited state transition velocity dipole moments (Au):
       state          X           Y           Z        Dip. S.      Osc.
         1         0.0038      0.0059     -0.0090      0.0001      0.0039
 Ground to excited state transition magnetic dipole moments (Au):
       state          X           Y           Z
         1        -0.0444     -0.1538     -0.0992
 Ground to excited state transition velocity quadrupole moments (Au):
       state          XX          YY          ZZ          XY          XZ          YZ
         1         0.0087     -0.0066     -0.0286     -0.0352      0.0027      0.0074
 <0|del|b> * <b|rxdel|0> + <0|del|b> * <b|delr+rdel|0>
 Rotatory Strengths (R) in cgs (10**-40 erg-esu-cm/Gauss)
       state          XX          YY          ZZ    R(velocity)    E-M Angle
         1         4.5383      6.9491    -17.2827     -1.9317       94.87
 1/2[<0|r|b>*<b|rxdel|0> + (<0|rxdel|b>*<b|r|0>)*]
 Rotatory Strengths (R) in cgs (10**-40 erg-esu-cm/Gauss)
       state          XX          YY          ZZ     R(length)
         1        -7.4416    -20.7273     23.6141     -1.5183
  1/2[<0|del|b>*<b|r|0> + (<0|r|b>*<b|del|0>)*] (Au)
       state          X           Y           Z        Dip. S.   Osc.(frdel)
         1        -0.0009     -0.0011     -0.0030      0.0050      0.0034

 Excitation energies and oscillator strengths:
 
 Excited State   1:      Singlet-A      0.6055 eV 2047.79 nm  f=0.0031  <S**2>=0.000
     155 ->156         0.70445
 This state for optimization and/or second-order correction.
 Total Energy, E(TD-HF/TD-DFT) =  -1947.77846715    
 Copying the excited state density for this state as the 1-particle RhoCI density.
 SavETr:  write IOETrn=   770 NScale= 10 NData=  16 NLR=1 NState=    1 LETran=      28.

 **********************************************************************

            Population analysis using the SCF density.

 **********************************************************************

 Orbital symmetries:
       Occupied  (A) (A) (A) (A) (A) (A) (A) (A) (A) (A) (A) (A)
                 (A) (A) (A) (A) (A) (A) (A) (A) (A) (A) (A) (A)
                 (A) (A) (A) (A) (A) (A) (A) (A) (A) (A) (A) (A)
                 (A) (A) (A) (A) (A) (A) (A) (A) (A) (A) (A) (A)
                 (A) (A) (A) (A) (A) (A) (A) (A) (A) (A) (A) (A)
                 (A) (A) (A) (A) (A) (A) (A) (A) (A) (A) (A) (A)
                 (A) (A) (A) (A) (A) (A) (A) (A) (A) (A) (A) (A)
                 (A) (A) (A) (A) (A) (A) (A) (A) (A) (A) (A) (A)
                 (A) (A) (A) (A) (A) (A) (A) (A) (A) (A) (A) (A)
                 (A) (A) (A) (A) (A) (A) (A) (A) (A) (A) (A) (A)
                 (A) (A) (A) (A) (A) (A) (A) (A) (A) (A) (A) (A)
                 (A) (A) (A) (A) (A) (A) (A) (A) (A) (A) (A) (A)
                 (A) (A) (A) (A) (A) (A) (A) (A) (A) (A) (A)
       Virtual   (A) (A) (A) (A) (A) (A) (A) (A) (A) (A) (A) (A)
                 (A) (A) (A) (A) (A) (A) (A) (A) (A) (A) (A) (A)
                 (A) (A) (A) (A) (A) (A) (A) (A) (A) (A) (A) (A)
                 (A) (A) (A) (A) (A) (A) (A) (A) (A) (A) (A) (A)
                 (A) (A) (A) (A) (A) (A) (A) (A) (A) (A) (A) (A)
                 (A) (A) (A) (A) (A) (A) (A) (A) (A) (A) (A) (A)
                 (A) (A) (A) (A) (A) (A) (A) (A) (A) (A) (A) (A)
                 (A) (A) (A) (A) (A) (A) (A) (A) (A) (A) (A) (A)
                 (A) (A) (A) (A) (A) (A) (A) (A) (A) (A) (A) (A)
                 (A) (A) (A) (A) (A) (A) (A) (A) (A) (A) (A) (A)
                 (A) (A) (A) (A) (A) (A) (A) (A) (A) (A) (A) (A)
                 (A) (A) (A) (A) (A) (A) (A) (A) (A) (A) (A) (A)
                 (A) (A) (A) (A) (A) (A) (A) (A) (A) (A) (A) (A)
                 (A) (A) (A) (A) (A) (A) (A) (A) (A) (A) (A) (A)
                 (A) (A) (A) (A) (A) (A) (A) (A) (A) (A) (A) (A)
                 (A) (A) (A) (A) (A) (A) (A) (A) (A) (A) (A) (A)
                 (A) (A) (A) (A) (A) (A) (A) (A) (A) (A) (A) (A)
                 (A) (A) (A) (A) (A) (A) (A) (A) (A) (A) (A) (A)
                 (A) (A) (A) (A) (A) (A) (A) (A) (A) (A) (A) (A)
                 (A) (A) (A) (A) (A) (A) (A) (A) (A) (A) (A) (A)
                 (A) (A) (A) (A) (A) (A) (A) (A) (A) (A) (A) (A)
                 (A) (A) (A) (A) (A) (A) (A) (A) (A) (A) (A) (A)
                 (A) (A) (A) (A) (A) (A) (A) (A) (A) (A) (A) (A)
                 (A) (A) (A) (A) (A) (A) (A) (A) (A) (A) (A) (A)
                 (A) (A) (A) (A) (A) (A) (A) (A) (A) (A) (A) (A)
                 (A) (A) (A) (A) (A) (A) (A) (A) (A) (A) (A) (A)
                 (A) (A) (A) (A) (A) (A) (A) (A) (A) (A) (A) (A)
                 (A) (A) (A) (A) (A) (A) (A) (A) (A) (A) (A) (A)
                 (A) (A) (A) (A) (A) (A) (A) (A) (A) (A) (A) (A)
                 (A) (A) (A) (A) (A) (A) (A) (A) (A) (A) (A) (A)
                 (A) (A) (A) (A) (A) (A) (A) (A) (A) (A) (A) (A)
                 (A) (A) (A) (A) (A) (A) (A) (A) (A) (A) (A) (A)
                 (A) (A) (A) (A) (A) (A) (A) (A) (A) (A) (A) (A)
                 (A) (A) (A) (A) (A) (A) (A) (A) (A) (A) (A) (A)
                 (A) (A) (A) (A) (A) (A) (A) (A) (A) (A) (A) (A)
                 (A) (A) (A) (A) (A) (A) (A) (A) (A) (A) (A) (A)
                 (A) (A) (A) (A) (A) (A) (A) (A) (A) (A) (A) (A)
                 (A) (A) (A) (A) (A) (A) (A) (A) (A) (A) (A) (A)
                 (A) (A) (A) (A) (A) (A) (A) (A) (A) (A) (A) (A)
                 (A) (A) (A) (A) (A) (A) (A) (A) (A) (A) (A) (A)
                 (A) (A) (A) (A) (A) (A) (A) (A) (A) (A) (A) (A)
                 (A) (A) (A) (A) (A) (A) (A) (A) (A) (A) (A) (A)
                 (A) (A) (A) (A) (A) (A) (A) (A) (A) (A) (A) (A)
                 (A) (A) (A) (A) (A) (A) (A) (A) (A) (A) (A) (A)
                 (A) (A) (A) (A) (A) (A) (A) (A) (A) (A) (A) (A)
                 (A) (A) (A) (A) (A) (A) (A) (A) (A) (A) (A) (A)
                 (A) (A) (A) (A) (A) (A) (A) (A) (A) (A) (A) (A)
                 (A) (A) (A) (A) (A) (A) (A) (A) (A) (A) (A) (A)
                 (A) (A) (A) (A) (A) (A) (A) (A) (A) (A) (A) (A)
                 (A) (A) (A) (A) (A) (A) (A) (A) (A) (A) (A) (A)
                 (A) (A) (A) (A) (A) (A) (A) (A) (A) (A) (A) (A)
                 (A) (A) (A) (A) (A) (A) (A) (A) (A) (A) (A) (A)
                 (A) (A) (A)
 The electronic state is 1-A.
 Alpha  occ. eigenvalues --  -19.21825 -19.16733 -19.13499 -19.13342 -19.11426
 Alpha  occ. eigenvalues --  -19.08407 -14.37363 -14.36366 -14.32622 -14.31116
 Alpha  occ. eigenvalues --  -10.33879 -10.31405 -10.27299 -10.27146 -10.26319
 Alpha  occ. eigenvalues --  -10.26233 -10.26099 -10.24814 -10.23868 -10.23440
 Alpha  occ. eigenvalues --  -10.22942 -10.22531 -10.21846 -10.21786 -10.21691
 Alpha  occ. eigenvalues --  -10.21491 -10.21094 -10.21013 -10.20965 -10.20937
 Alpha  occ. eigenvalues --  -10.20894 -10.20219 -10.19862 -10.19856 -10.19321
 Alpha  occ. eigenvalues --  -10.19001 -10.18739 -10.18725 -10.18361 -10.17915
 Alpha  occ. eigenvalues --  -10.17334 -10.17275 -10.16768  -1.14377  -1.06845
 Alpha  occ. eigenvalues --   -1.02300  -1.01413  -1.00680  -1.00609  -0.97808
 Alpha  occ. eigenvalues --   -0.96748  -0.93308  -0.91574  -0.84867  -0.83360
 Alpha  occ. eigenvalues --   -0.81309  -0.81040  -0.79822  -0.78836  -0.78486
 Alpha  occ. eigenvalues --   -0.76903  -0.76181  -0.75598  -0.74568  -0.73639
 Alpha  occ. eigenvalues --   -0.71645  -0.70899  -0.70491  -0.69054  -0.67876
 Alpha  occ. eigenvalues --   -0.66415  -0.66334  -0.64062  -0.63563  -0.61730
 Alpha  occ. eigenvalues --   -0.60253  -0.59478  -0.58162  -0.57813  -0.55989
 Alpha  occ. eigenvalues --   -0.55753  -0.54932  -0.54016  -0.53499  -0.53022
 Alpha  occ. eigenvalues --   -0.51983  -0.51680  -0.51393  -0.50881  -0.50363
 Alpha  occ. eigenvalues --   -0.49946  -0.49176  -0.48984  -0.48758  -0.48609
 Alpha  occ. eigenvalues --   -0.47731  -0.47371  -0.47015  -0.46770  -0.46651
 Alpha  occ. eigenvalues --   -0.45387  -0.44774  -0.44510  -0.44064  -0.43852
 Alpha  occ. eigenvalues --   -0.43741  -0.43538  -0.42892  -0.42634  -0.41985
 Alpha  occ. eigenvalues --   -0.41528  -0.41465  -0.41323  -0.40979  -0.40541
 Alpha  occ. eigenvalues --   -0.40007  -0.39873  -0.39826  -0.39469  -0.39180
 Alpha  occ. eigenvalues --   -0.39145  -0.38903  -0.38671  -0.38385  -0.37967
 Alpha  occ. eigenvalues --   -0.37540  -0.37111  -0.37018  -0.36885  -0.36670
 Alpha  occ. eigenvalues --   -0.36425  -0.35615  -0.35301  -0.34410  -0.34086
 Alpha  occ. eigenvalues --   -0.33774  -0.33500  -0.32729  -0.32127  -0.31331
 Alpha  occ. eigenvalues --   -0.29757  -0.29442  -0.29315  -0.28796  -0.28582
 Alpha  occ. eigenvalues --   -0.28456  -0.27464  -0.25805  -0.24985  -0.24355
 Alpha  occ. eigenvalues --   -0.23639  -0.23118  -0.22605  -0.22127  -0.18606
 Alpha virt. eigenvalues --   -0.13941  -0.08364  -0.03348  -0.03145  -0.02230
 Alpha virt. eigenvalues --   -0.00440   0.01721   0.01976   0.02369   0.02828
 Alpha virt. eigenvalues --    0.03192   0.03505   0.04056   0.04589   0.05096
 Alpha virt. eigenvalues --    0.05280   0.05616   0.05862   0.06821   0.06928
 Alpha virt. eigenvalues --    0.07804   0.07939   0.08403   0.08424   0.09136
 Alpha virt. eigenvalues --    0.09658   0.10070   0.10238   0.10676   0.10997
 Alpha virt. eigenvalues --    0.11302   0.11361   0.11832   0.12397   0.12562
 Alpha virt. eigenvalues --    0.13009   0.13275   0.13404   0.13657   0.14118
 Alpha virt. eigenvalues --    0.14472   0.14852   0.15200   0.15462   0.15536
 Alpha virt. eigenvalues --    0.15993   0.16482   0.16746   0.17501   0.17897
 Alpha virt. eigenvalues --    0.18352   0.19031   0.19647   0.19822   0.20343
 Alpha virt. eigenvalues --    0.20748   0.20947   0.21460   0.21873   0.22533
 Alpha virt. eigenvalues --    0.22860   0.23096   0.23535   0.24095   0.24686
 Alpha virt. eigenvalues --    0.25142   0.25260   0.26409   0.26635   0.27643
 Alpha virt. eigenvalues --    0.28051   0.28781   0.28892   0.29319   0.29510
 Alpha virt. eigenvalues --    0.30095   0.30505   0.31308   0.31606   0.32425
 Alpha virt. eigenvalues --    0.32785   0.32844   0.33721   0.34428   0.34867
 Alpha virt. eigenvalues --    0.35052   0.35906   0.36152   0.37035   0.37446
 Alpha virt. eigenvalues --    0.37707   0.38476   0.38634   0.39330   0.39442
 Alpha virt. eigenvalues --    0.39898   0.40388   0.40833   0.41275   0.42046
 Alpha virt. eigenvalues --    0.42185   0.42637   0.43257   0.43430   0.43796
 Alpha virt. eigenvalues --    0.43987   0.44532   0.44750   0.44894   0.45101
 Alpha virt. eigenvalues --    0.45646   0.45882   0.45994   0.46510   0.46589
 Alpha virt. eigenvalues --    0.47017   0.47553   0.47840   0.48292   0.48526
 Alpha virt. eigenvalues --    0.48790   0.48903   0.49299   0.49484   0.49828
 Alpha virt. eigenvalues --    0.49957   0.50724   0.50831   0.51151   0.51711
 Alpha virt. eigenvalues --    0.51765   0.52506   0.52884   0.53154   0.53323
 Alpha virt. eigenvalues --    0.53712   0.53882   0.54428   0.54605   0.54695
 Alpha virt. eigenvalues --    0.55161   0.55495   0.56218   0.56280   0.56782
 Alpha virt. eigenvalues --    0.57642   0.57754   0.58061   0.58521   0.58716
 Alpha virt. eigenvalues --    0.58973   0.59292   0.59582   0.60012   0.60041
 Alpha virt. eigenvalues --    0.60305   0.60582   0.61691   0.61804   0.62020
 Alpha virt. eigenvalues --    0.62402   0.62488   0.62707   0.63020   0.63357
 Alpha virt. eigenvalues --    0.63544   0.63619   0.64459   0.64665   0.64965
 Alpha virt. eigenvalues --    0.65221   0.65433   0.65557   0.65659   0.65790
 Alpha virt. eigenvalues --    0.66034   0.66415   0.66871   0.67136   0.67417
 Alpha virt. eigenvalues --    0.67506   0.67920   0.68189   0.68404   0.68551
 Alpha virt. eigenvalues --    0.68704   0.69207   0.69454   0.69601   0.70317
 Alpha virt. eigenvalues --    0.70590   0.70848   0.71274   0.71525   0.71585
 Alpha virt. eigenvalues --    0.71756   0.72283   0.72737   0.72954   0.73223
 Alpha virt. eigenvalues --    0.73465   0.73707   0.73865   0.74344   0.75486
 Alpha virt. eigenvalues --    0.75676   0.75908   0.76419   0.76835   0.77188
 Alpha virt. eigenvalues --    0.77308   0.77439   0.78020   0.78372   0.78849
 Alpha virt. eigenvalues --    0.79043   0.79431   0.80058   0.80594   0.80694
 Alpha virt. eigenvalues --    0.81761   0.82998   0.83346   0.83668   0.84006
 Alpha virt. eigenvalues --    0.84135   0.84520   0.85460   0.85780   0.86217
 Alpha virt. eigenvalues --    0.86510   0.87199   0.88335   0.88721   0.89090
 Alpha virt. eigenvalues --    0.89627   0.90048   0.90852   0.91481   0.92026
 Alpha virt. eigenvalues --    0.92496   0.93173   0.93712   0.94175   0.94613
 Alpha virt. eigenvalues --    0.94982   0.95531   0.96159   0.96543   0.96978
 Alpha virt. eigenvalues --    0.97611   0.98744   0.99239   0.99734   1.00308
 Alpha virt. eigenvalues --    1.00961   1.01417   1.02497   1.03704   1.05453
 Alpha virt. eigenvalues --    1.06569   1.07001   1.07502   1.08245   1.08295
 Alpha virt. eigenvalues --    1.09678   1.10037   1.10523   1.10918   1.11399
 Alpha virt. eigenvalues --    1.12630   1.12771   1.14200   1.14584   1.15208
 Alpha virt. eigenvalues --    1.15619   1.16389   1.16957   1.18071   1.18451
 Alpha virt. eigenvalues --    1.19134   1.19319   1.19726   1.20386   1.20905
 Alpha virt. eigenvalues --    1.21703   1.22665   1.22848   1.23684   1.24631
 Alpha virt. eigenvalues --    1.24771   1.26303   1.26672   1.28053   1.28452
 Alpha virt. eigenvalues --    1.29375   1.29479   1.29962   1.31240   1.31463
 Alpha virt. eigenvalues --    1.32222   1.33117   1.34232   1.34463   1.35114
 Alpha virt. eigenvalues --    1.35260   1.35866   1.36213   1.36852   1.37142
 Alpha virt. eigenvalues --    1.38432   1.39432   1.39589   1.40724   1.40962
 Alpha virt. eigenvalues --    1.41344   1.42409   1.43477   1.43719   1.45704
 Alpha virt. eigenvalues --    1.46220   1.46959   1.47643   1.47752   1.48695
 Alpha virt. eigenvalues --    1.48894   1.49891   1.50529   1.50839   1.51267
 Alpha virt. eigenvalues --    1.51741   1.52020   1.53094   1.53136   1.53405
 Alpha virt. eigenvalues --    1.54145   1.54696   1.55726   1.57164   1.57632
 Alpha virt. eigenvalues --    1.58092   1.58579   1.58845   1.59242   1.59335
 Alpha virt. eigenvalues --    1.59900   1.60841   1.60965   1.61391   1.62004
 Alpha virt. eigenvalues --    1.62251   1.63365   1.63384   1.64109   1.64438
 Alpha virt. eigenvalues --    1.64758   1.65107   1.65296   1.65857   1.66619
 Alpha virt. eigenvalues --    1.66971   1.67269   1.68149   1.68395   1.69009
 Alpha virt. eigenvalues --    1.69522   1.70235   1.70607   1.71220   1.71908
 Alpha virt. eigenvalues --    1.72076   1.72278   1.73033   1.73771   1.74098
 Alpha virt. eigenvalues --    1.74128   1.74722   1.74818   1.75112   1.75634
 Alpha virt. eigenvalues --    1.76238   1.76547   1.76750   1.77077   1.77440
 Alpha virt. eigenvalues --    1.77619   1.77954   1.78586   1.78987   1.79940
 Alpha virt. eigenvalues --    1.80420   1.80743   1.80923   1.81608   1.82137
 Alpha virt. eigenvalues --    1.82620   1.82751   1.83531   1.83645   1.84030
 Alpha virt. eigenvalues --    1.84851   1.85099   1.85452   1.85860   1.86091
 Alpha virt. eigenvalues --    1.87126   1.87236   1.88092   1.88265   1.88943
 Alpha virt. eigenvalues --    1.89352   1.89691   1.90405   1.90584   1.91161
 Alpha virt. eigenvalues --    1.91684   1.92439   1.92625   1.93054   1.93602
 Alpha virt. eigenvalues --    1.94127   1.94204   1.95231   1.95464   1.96241
 Alpha virt. eigenvalues --    1.96783   1.97117   1.97361   1.98156   1.98278
 Alpha virt. eigenvalues --    1.98589   1.99131   1.99792   2.00549   2.00971
 Alpha virt. eigenvalues --    2.01456   2.01713   2.02127   2.02663   2.03500
 Alpha virt. eigenvalues --    2.03867   2.04153   2.04619   2.05130   2.05853
 Alpha virt. eigenvalues --    2.06605   2.06910   2.07060   2.07650   2.07786
 Alpha virt. eigenvalues --    2.08254   2.09115   2.09821   2.10786   2.11526
 Alpha virt. eigenvalues --    2.11787   2.12017   2.12743   2.13731   2.14439
 Alpha virt. eigenvalues --    2.14633   2.15208   2.16351   2.16604   2.17185
 Alpha virt. eigenvalues --    2.17481   2.18001   2.19558   2.19899   2.20425
 Alpha virt. eigenvalues --    2.20955   2.21143   2.21642   2.22213   2.23459
 Alpha virt. eigenvalues --    2.24223   2.24434   2.25099   2.25990   2.26459
 Alpha virt. eigenvalues --    2.26619   2.27452   2.27653   2.28232   2.28470
 Alpha virt. eigenvalues --    2.30378   2.30676   2.31433   2.31710   2.32545
 Alpha virt. eigenvalues --    2.33084   2.33463   2.34218   2.35124   2.35468
 Alpha virt. eigenvalues --    2.36253   2.36418   2.36968   2.37499   2.38279
 Alpha virt. eigenvalues --    2.39266   2.39838   2.40060   2.40731   2.40837
 Alpha virt. eigenvalues --    2.42439   2.42686   2.43542   2.44967   2.45099
 Alpha virt. eigenvalues --    2.45798   2.46419   2.47013   2.48769   2.48839
 Alpha virt. eigenvalues --    2.49510   2.49822   2.51126   2.53075   2.54260
 Alpha virt. eigenvalues --    2.55028   2.56026   2.57121   2.57433   2.58300
 Alpha virt. eigenvalues --    2.59137   2.60045   2.61630   2.62000   2.62731
 Alpha virt. eigenvalues --    2.63392   2.63512   2.63789   2.64276   2.64548
 Alpha virt. eigenvalues --    2.65298   2.65970   2.66177   2.67104   2.67865
 Alpha virt. eigenvalues --    2.68157   2.68655   2.69585   2.70360   2.71132
 Alpha virt. eigenvalues --    2.71408   2.72365   2.73033   2.73954   2.74298
 Alpha virt. eigenvalues --    2.74799   2.75654   2.76426   2.76959   2.77559
 Alpha virt. eigenvalues --    2.78050   2.78361   2.79665   2.80908   2.81172
 Alpha virt. eigenvalues --    2.82808   2.82909   2.84097   2.85102   2.85592
 Alpha virt. eigenvalues --    2.86168   2.86966   2.87300   2.87947   2.88245
 Alpha virt. eigenvalues --    2.90039   2.90743   2.91186   2.91703   2.91933
 Alpha virt. eigenvalues --    2.92723   2.93975   2.94610   2.95231   2.95794
 Alpha virt. eigenvalues --    2.97136   2.97294   2.98442   2.99496   3.00270
 Alpha virt. eigenvalues --    3.01046   3.02814   3.03265   3.04397   3.04875
 Alpha virt. eigenvalues --    3.06799   3.07660   3.08138   3.10496   3.11243
 Alpha virt. eigenvalues --    3.11725   3.12181   3.13394   3.14262   3.14580
 Alpha virt. eigenvalues --    3.15671   3.17039   3.17444   3.19149   3.19672
 Alpha virt. eigenvalues --    3.21173   3.23109   3.23676   3.24695   3.28673
 Alpha virt. eigenvalues --    3.32052   3.34620   3.34876   3.42270   3.43666
 Alpha virt. eigenvalues --    3.44023   3.48332   3.51285   3.55983   3.57580
 Alpha virt. eigenvalues --    3.61726   3.63242   3.65092   3.66028   3.67628
 Alpha virt. eigenvalues --    3.72141   3.76816
          Condensed to atoms (all electrons):
 Mulliken charges:
               1
     1  O   -0.189156
     2  O   -0.336986
     3  O   -0.194828
     4  O   -0.091721
     5  O   -0.273641
     6  O   -0.271359
     7  N   -0.005120
     8  N   -0.262500
     9  N   -0.062547
    10  N   -0.309134
    11  C    0.230258
    12  C    0.119059
    13  C   -0.098594
    14  C   -0.074157
    15  C   -0.141087
    16  C   -0.078663
    17  C   -0.190523
    18  C    0.120552
    19  C   -0.029626
    20  C   -0.145208
    21  C    0.221923
    22  C    0.117204
    23  C   -0.093071
    24  C   -0.074656
    25  C    0.091695
    26  C   -0.098574
    27  C    0.027640
    28  C    0.130557
    29  C    0.140743
    30  C   -0.046109
    31  C   -0.037642
    32  C    0.019205
    33  C   -0.094422
    34  C    0.168595
    35  C    0.081277
    36  C    0.002786
    37  C    0.136174
    38  C    0.032799
    39  C   -0.162896
    40  C    0.161972
    41  C   -0.062062
    42  C    0.053447
    43  C    0.004485
    44  H   -0.001854
    45  H   -0.042244
    46  H    0.006956
    47  H    0.093138
    48  H    0.166129
    49  H    0.023723
    50  H   -0.007652
    51  H    0.034112
    52  H    0.032952
    53  H    0.008107
    54  H    0.074308
    55  H   -0.001006
    56  H    0.030977
    57  H    0.028044
    58  H    0.010919
    59  H    0.072852
    60  H    0.156265
    61  H   -0.001623
    62  H   -0.017088
    63  H    0.001061
    64  H    0.036122
    65  H    0.059972
    66  H    0.078991
    67  H    0.060809
    68  H    0.044294
    69  H   -0.000614
    70  H    0.005990
    71  H    0.004709
    72  H    0.229082
    73  H    0.007476
    74  H    0.054285
    75  H    0.045750
    76  H    0.039541
    77  H    0.180079
    78  H    0.006571
    79  H    0.042778
 Sum of Mulliken charges =  -0.00000
 Mulliken charges with hydrogens summed into heavy atoms:
               1
     1  O   -0.189156
     2  O   -0.107904
     3  O   -0.194828
     4  O    0.088359
     5  O   -0.273641
     6  O   -0.271359
     7  N    0.088019
     8  N   -0.096371
     9  N    0.093717
    10  N   -0.309134
    11  C    0.228404
    12  C    0.083770
    13  C   -0.098594
    14  C   -0.074157
    15  C   -0.141087
    16  C   -0.078663
    17  C   -0.190523
    18  C    0.136622
    19  C   -0.029626
    20  C   -0.111096
    21  C    0.221923
    22  C    0.117204
    23  C   -0.093071
    24  C    0.040711
    25  C    0.149711
    26  C   -0.098574
    27  C    0.111411
    28  C    0.130557
    29  C    0.122032
    30  C   -0.045049
    31  C    0.058452
    32  C    0.203299
    33  C   -0.095036
    34  C    0.168595
    35  C    0.081277
    36  C    0.013485
    37  C    0.136174
    38  C    0.032799
    39  C   -0.162896
    40  C    0.161972
    41  C   -0.054586
    42  C    0.193023
    43  C    0.053834
 Electronic spatial extent (au):  <R**2>=          25617.1835
 Charge=             -0.0000 electrons
 Dipole moment (field-independent basis, Debye):
    X=              5.7476    Y=              2.2376    Z=             -1.1740  Tot=              6.2786
 Quadrupole moment (field-independent basis, Debye-Ang):
   XX=           -238.0581   YY=           -238.2777   ZZ=           -265.8358
   XY=             -4.9948   XZ=            -10.6597   YZ=            -21.2106
 Traceless Quadrupole moment (field-independent basis, Debye-Ang):
   XX=              9.3324   YY=              9.1129   ZZ=            -18.4453
   XY=             -4.9948   XZ=            -10.6597   YZ=            -21.2106
 Octapole moment (field-independent basis, Debye-Ang**2):
  XXX=            330.8672  YYY=             98.5001  ZZZ=            -46.6406  XYY=             -0.2794
  XXY=            -10.2889  XXZ=             74.6642  XZZ=              4.8851  YZZ=             60.3879
  YYZ=             33.2693  XYZ=            -17.2441
 Hexadecapole moment (field-independent basis, Debye-Ang**3):
 XXXX=         -17182.7154 YYYY=          -7744.6800 ZZZZ=          -7109.2027 XXXY=           -563.1512
 XXXZ=            301.0231 YYYX=             92.6125 YYYZ=             42.0059 ZZZX=           -294.2868
 ZZZY=            -12.1941 XXYY=          -4393.3485 XXZZ=          -4677.0039 YYZZ=          -2382.8274
 XXYZ=           -437.0865 YYXZ=            352.1020 ZZXY=             80.8666
 N-N= 5.213991208801D+03 E-N=-1.495718883066D+04  KE= 1.927785551482D+03
 1\1\GINC-PADAWAN\SP\RB3LYP TD-FC\SVP\C33H36N4O6\PADAWAN\25-Jul-2019\0\
 \# td=(NStates=1) B3LYP/SVP\\TD\\0,1\O,0,-3.2468515954,-1.2843934948,-
 2.8311037647\O,0,2.9845789127,3.2543270912,2.9811023811\O,0,3.50598490
 67,1.5331204403,4.4408985335\O,0,7.6642950324,-1.7105371679,-0.7403547
 973\O,0,6.7279369501,-2.8207728722,-2.5170581539\O,0,-2.6508259891,1.5
 937548646,1.5106911296\N,0,-0.2571314593,-2.5220785222,1.0607109119\N,
 0,-2.6219042284,-1.2581909541,-0.6134934939\N,0,1.1656681162,0.0235332
 63,-0.6446494021\N,0,-1.0130204475,1.4088862965,-0.099800878\C,0,-3.31
 37565254,-1.3405616186,0.6847554494\C,0,-2.6159902251,-2.4326474109,1.
 5522205289\C,0,-1.2398696287,-2.1397317872,1.8279307817\C,0,-0.7734171
 44,-1.0777389656,2.7122692474\C,0,0.7436054731,-1.0441694179,2.5181230
 069\C,0,0.9822009063,-1.8563020649,1.3942742314\C,0,-4.692344181,-1.78
 78244311,0.196396527\C,0,1.8062952209,-0.2642967593,3.1458867432\C,0,-
 4.791665528,-1.9996986783,-1.0975600965\C,0,2.0986078172,-1.9530534975
 ,0.3865009288\C,0,2.0843444563,-0.9806599782,-0.5887227738\C,0,-3.4708
 217521,-1.4215741227,-1.6800352869\C,0,2.970158079,-0.7409448428,-1.64
 49283917\C,0,-1.3432128935,-0.4304569027,3.8699325016\C,0,-5.825627786
 9,-2.0628627666,1.2206630719\C,0,2.5745371106,0.3570730755,-2.39109371
 94\C,0,1.9250419366,1.2511808101,2.67338398\C,0,1.3898723537,0.8338100
 296,-1.7456006661\C,0,4.0962049696,-1.5746268918,-1.9825378839\C,0,-5.
 850259362,-2.3780098914,-2.0071441626\C,0,5.5628018312,-1.1272944746,-
 1.3008635033\C,0,3.2452446199,0.9611045131,-3.6541419234\C,0,0.5905914
 832,1.9470998569,-1.870988844\C,0,2.8901876591,1.9082304085,3.48381372
 66\C,0,-0.6363774693,2.2165262848,-1.2034856365\C,0,-6.8805619827,-3.2
 319469588,-1.845803139\C,0,6.7151210817,-2.0241406692,-1.5409547855\C,
 0,-1.3085095058,3.552887522,-1.0673748122\C,0,-2.2665807475,3.30879135
 81,-0.1669446007\C,0,-2.037746047,2.0152524587,0.4716460966\C,0,-1.190
 5290313,4.5843546957,-2.0976615342\C,0,-3.4901696535,4.1964601289,0.28
 5952835\C,0,-1.8892428155,5.7669621144,-2.3152852613\H,0,-3.2420126945
 ,-0.5211876087,1.2842526299\H,0,-2.6518768141,-3.4873738624,1.21104145
 32\H,0,-3.2092207419,-2.8871521596,2.4803974284\H,0,-0.3330086057,-2.9
 659253576,0.1899660066\H,0,-1.8552539151,-0.483094613,-0.6603801404\H,
 0,1.8053584972,-0.4349749513,4.1950116003\H,0,2.5814854814,-0.81265315
 66,2.5580407335\H,0,2.8410129152,-2.690500633,0.6997730305\H,0,-2.1002
 626556,-0.8986691409,4.750712133\H,0,-0.5451942874,0.0650022966,4.5650
 928658\H,0,-1.8685661704,0.4563580825,3.281026868\H,0,-5.8469354807,-1
 .4119393251,2.0004343364\H,0,-5.4704658073,-3.1185859632,1.6167645228\
 H,0,-6.8616035372,-2.2618918326,0.8726436261\H,0,2.2040065401,1.430072
 9492,1.690896701\H,0,0.8801579673,1.6595982041,2.7670446782\H,0,0.4533
 13589,0.3631806879,-0.0417662089\H,0,4.1498807073,-1.6406871277,-3.042
 0598079\H,0,3.9819690267,-2.5851802972,-1.7563527433\H,0,-5.8092830667
 ,-1.8961705417,-2.9643198958\H,0,5.2826061819,-1.2189023701,-0.2218289
 592\H,0,5.7719186332,-0.0465116473,-1.5105955421\H,0,3.7024701585,0.21
 11776099,-4.3833665662\H,0,3.7174674983,1.9131323919,-3.1961319486\H,0
 ,2.3241682061,1.5570802059,-4.2943525873\H,0,0.6873126413,2.634594956,
 -2.7341043024\H,0,-6.7937384599,-3.792891473,-0.891558177\H,0,-7.23983
 22481,-3.7316344939,-2.6625093044\H,0,3.4865423817,3.8645158126,3.7755
 108053\H,0,-0.2338072595,4.5981010896,-2.6379716926\H,0,-4.2117997696,
 4.3814447263,-0.7193230838\H,0,-4.0515039001,3.594644258,1.0275935708\
 H,0,-3.0856268789,5.1214924403,0.6602117911\H,0,8.3243481283,-2.396362
 7905,-0.7427449095\H,0,-1.4459975244,6.285439001,-3.0730221544\H,0,-2.
 8355259055,6.0980411799,-1.792715179\\Version=ES64L-G16RevA.03\State=1
 -A\HF=-1947.8007171\RMSD=4.710e-09\PG=C01 [X(C33H36N4O6)]\\@


 IN-LAWS ARE LIKE SEEDS. YOU DON'T NEED THEM
 BUT THEY COME WITH THE TOMATO.
 Job cpu time:       0 days  4 hours 20 minutes 38.1 seconds.
 Elapsed time:       0 days  1 hours  5 minutes 19.0 seconds.
 File lengths (MBytes):  RWF=   2533 Int=      0 D2E=      0 Chk=     63 Scr=      1
 Normal termination of Gaussian 16 at Thu Jul 25 05:50:47 2019.
