 Entering Gaussian System, Link 0=g16
 Input=Geometria-393-.com
 Output=Geometria-393-.log
 Initial command:
 /usr/local/g16/l1.exe "/home/padawan/israel-mol/dihydrobiliverdin/spectra/emi/Gau-3498.inp" -scrdir="/home/padawan/israel-mol/dihydrobiliverdin/spectra/emi/"
 Entering Link 1 = /usr/local/g16/l1.exe PID=      3500.
  
 Copyright (c) 1988,1990,1992,1993,1995,1998,2003,2009,2016,
            Gaussian, Inc.  All Rights Reserved.
  
 This is part of the Gaussian(R) 16 program.  It is based on
 the Gaussian(R) 09 system (copyright 2009, Gaussian, Inc.),
 the Gaussian(R) 03 system (copyright 2003, Gaussian, Inc.),
 the Gaussian(R) 98 system (copyright 1998, Gaussian, Inc.),
 the Gaussian(R) 94 system (copyright 1995, Gaussian, Inc.),
 the Gaussian 92(TM) system (copyright 1992, Gaussian, Inc.),
 the Gaussian 90(TM) system (copyright 1990, Gaussian, Inc.),
 the Gaussian 88(TM) system (copyright 1988, Gaussian, Inc.),
 the Gaussian 86(TM) system (copyright 1986, Carnegie Mellon
 University), and the Gaussian 82(TM) system (copyright 1983,
 Carnegie Mellon University). Gaussian is a federally registered
 trademark of Gaussian, Inc.
  
 This software contains proprietary and confidential information,
 including trade secrets, belonging to Gaussian, Inc.
  
 This software is provided under written license and may be
 used, copied, transmitted, or stored only in accord with that
 written license.
  
 The following legend is applicable only to US Government
 contracts under FAR:
  
                    RESTRICTED RIGHTS LEGEND
  
 Use, reproduction and disclosure by the US Government is
 subject to restrictions as set forth in subparagraphs (a)
 and (c) of the Commercial Computer Software - Restricted
 Rights clause in FAR 52.227-19.
  
 Gaussian, Inc.
 340 Quinnipiac St., Bldg. 40, Wallingford CT 06492
  
  
 ---------------------------------------------------------------
 Warning -- This program may not be used in any manner that
 competes with the business of Gaussian, Inc. or will provide
 assistance to any competitor of Gaussian, Inc.  The licensee
 of this program is prohibited from giving any competitor of
 Gaussian, Inc. access to this program.  By using this program,
 the user acknowledges that Gaussian, Inc. is engaged in the
 business of creating and licensing software in the field of
 computational chemistry and represents and warrants to the
 licensee that it is not a competitor of Gaussian, Inc. and that
 it will not use this program in any manner prohibited above.
 ---------------------------------------------------------------
  

 Cite this work as:
 Gaussian 16, Revision A.03,
 M. J. Frisch, G. W. Trucks, H. B. Schlegel, G. E. Scuseria, 
 M. A. Robb, J. R. Cheeseman, G. Scalmani, V. Barone, 
 G. A. Petersson, H. Nakatsuji, X. Li, M. Caricato, A. V. Marenich, 
 J. Bloino, B. G. Janesko, R. Gomperts, B. Mennucci, H. P. Hratchian, 
 J. V. Ortiz, A. F. Izmaylov, J. L. Sonnenberg, D. Williams-Young, 
 F. Ding, F. Lipparini, F. Egidi, J. Goings, B. Peng, A. Petrone, 
 T. Henderson, D. Ranasinghe, V. G. Zakrzewski, J. Gao, N. Rega, 
 G. Zheng, W. Liang, M. Hada, M. Ehara, K. Toyota, R. Fukuda, 
 J. Hasegawa, M. Ishida, T. Nakajima, Y. Honda, O. Kitao, H. Nakai, 
 T. Vreven, K. Throssell, J. A. Montgomery, Jr., J. E. Peralta, 
 F. Ogliaro, M. J. Bearpark, J. J. Heyd, E. N. Brothers, K. N. Kudin, 
 V. N. Staroverov, T. A. Keith, R. Kobayashi, J. Normand, 
 K. Raghavachari, A. P. Rendell, J. C. Burant, S. S. Iyengar, 
 J. Tomasi, M. Cossi, J. M. Millam, M. Klene, C. Adamo, R. Cammi, 
 J. W. Ochterski, R. L. Martin, K. Morokuma, O. Farkas, 
 J. B. Foresman, and D. J. Fox, Gaussian, Inc., Wallingford CT, 2016.
 
 ******************************************
 Gaussian 16:  ES64L-G16RevA.03 25-Dec-2016
                 7-Oct-2019 
 ******************************************
 %nproc=4
 Will use up to    4 processors via shared memory.
 %Mem=4GB
 --------------------------
 # td=(NStates=1) B3LYP/SVP
 --------------------------
 1/38=1,172=1/1;
 2/12=2,17=6,18=5,40=1/2;
 3/5=18,7=101,11=9,25=1,30=1,74=-5/1,2,3,8;
 4//1;
 5/5=2,38=5/2;
 8/6=1,10=1,108=1/1;
 9/41=1,42=1,70=2/14;
 6/7=2,8=2,9=2,10=2/1;
 99/5=1,9=1/99;
 --
 TD
 --
 Symbolic Z-matrix:
 Charge =  0 Multiplicity = 1
 8                    -5.39702  -0.00706  -3.27551 
 8                     3.00089   2.94057   3.3341 
 8                     3.44426   0.72894   3.03321 
 8                     1.46605  -6.94136   1.78046 
 8                     0.88218  -7.08444  -0.56307 
 8                     1.73499   3.9703    0.16512 
 7                    -2.40669  -0.95774   0.62854 
 7                    -4.29454   0.73632  -1.21803 
 7                     1.79101  -0.72715  -0.4312 
 7                     2.62148   1.88244  -0.61383 
 6                    -4.75589   1.14964   0.06592 
 6                    -4.36546   0.30207   1.32396 
 6                    -2.86804   0.03057   1.39976 
 6                    -1.91824   0.65289   2.12025 
 6                    -0.68805  -0.00557   1.79421 
 6                    -0.95919  -1.02216   0.85992 
 6                    -6.24858   1.34355  -0.16362 
 6                     0.66058   0.1649    2.48369 
 6                    -6.65941   0.82611  -1.36209 
 6                    -0.20234  -2.01075   0.15387 
 6                     1.06923  -1.87792  -0.38771 
 6                    -5.3236    0.46731  -2.09615 
 6                     1.83485  -2.92276  -1.04485 
 6                    -2.06647   1.66082   3.19575 
 6                    -7.12886   1.92422   0.92133 
 6                     3.12984  -2.39142  -1.38698 
 6                     1.15374   1.57065   2.69454 
 6                     3.03289  -0.94856  -1.07583 
 6                     1.3734   -4.35311  -1.03738 
 6                    -7.8904    0.69552  -2.14043 
 6                     1.68235  -4.9975    0.30621 
 6                     4.35409  -3.01624  -2.01716 
 6                     3.9416    0.10394  -1.46024 
 6                     2.66374   1.63263   3.12539 
 6                     3.72296   1.49873  -1.22934 
 6                    -9.09704   0.84007  -1.55317 
 6                     1.26188  -6.4011    0.36946 
 6                     4.521     2.70528  -1.45611 
 6                     3.79725   3.76857  -1.04268 
 6                     2.5637    3.3219   -0.43299 
 6                     5.76246   2.45782  -2.14473 
 6                     4.23401   5.31072  -1.05897 
 6                     6.63321   3.38833  -2.58416 
 1                    -4.21352   2.31069   0.058 
 1                    -4.93487  -0.64685   1.04976 
 1                    -4.81803   0.92811   2.04106 
 1                    -2.78979  -1.64172   0.10995 
 1                    -3.30353   0.7038   -1.59613 
 1                     0.71659  -0.33926   3.60951 
 1                     1.43609  -0.30273   1.86055 
 1                    -0.72487  -2.94372  -0.32486 
 1                    -2.99323   1.69261   3.60962 
 1                    -1.42838   1.35219   4.25447 
 1                    -1.78407   2.5759    2.97456 
 1                    -6.69588   2.48936   1.84454 
 1                    -7.84026   1.00114   1.48546 
 1                    -7.86528   2.75297   0.35306 
 1                     1.11958   2.0839    1.68914 
 1                     0.56898   2.15889   3.37507 
 1                     1.63805   0.32126  -0.16087 
 1                     2.02476  -4.91533  -1.75633 
 1                     0.21282  -4.44824  -1.33587 
 1                    -7.77373   0.26086  -3.13677 
 1                     1.07534  -4.4923    1.05558 
 1                     2.75725  -4.79093   0.42591 
 1                     4.07714  -4.02145  -2.23578 
 1                     5.23347  -2.9757   -0.98722 
 1                     4.49022  -2.35706  -3.01439 
 1                     4.63799  -0.20112  -2.05748 
 1                    -9.40617   1.19052  -0.48715 
 1                    -9.98178   0.61319  -2.26902 
 1                     4.05172   2.95372   3.56232 
 1                     5.89611   1.30805  -2.33844 
 1                     5.13018   5.31158  -0.53896 
 1                     4.29704   5.65871  -2.06561 
 1                     3.42126   5.73472  -0.41781 
 1                     1.39429  -7.90842   1.71053 
 1                     7.58535   3.24255  -2.88887 
 1                     6.66629   4.46     -2.2651 
 
 Stoichiometry    C33H36N4O6
 Framework group  C1[X(C33H36N4O6)]
 Deg. of freedom   231
 Full point group                 C1      NOp   1
 Largest Abelian subgroup         C1      NOp   1
 Largest concise Abelian subgroup C1      NOp   1
                         Standard orientation:                         
 ---------------------------------------------------------------------
 Center     Atomic      Atomic             Coordinates (Angstroms)
 Number     Number       Type             X           Y           Z
 ---------------------------------------------------------------------
      1          8           0        5.408793    0.002203   -3.258522
      2          8           0       -3.028524   -2.951849    3.297810
      3          8           0       -3.457966   -0.735194    3.014163
      4          8           0       -1.430815    6.933682    1.832987
      5          8           0       -0.838177    7.093122   -0.507286
      6          8           0       -1.757916   -3.962188    0.124473
      7          7           0        2.410845    0.937407    0.643419
      8          7           0        4.295035   -0.752044   -1.211104
      9          7           0       -1.784511    0.740381   -0.432254
     10          7           0       -2.629563   -1.862670   -0.639732
     11          6           0        4.749608   -1.178882    0.070839
     12          6           0        4.359868   -0.339693    1.334692
     13          6           0        2.863807   -0.060074    1.407786
     14          6           0        1.907955   -0.682874    2.119800
     15          6           0        0.682733   -0.014489    1.795241
     16          6           0        0.962969    1.008346    0.870496
     17          6           0        6.241907   -1.379598   -0.155350
     18          6           0       -0.669198   -0.182859    2.478742
     19          6           0        6.659808   -0.854475   -1.348019
     20          6           0        0.214293    2.007285    0.170313
     21          6           0       -1.056187    1.886486   -0.376615
     22          6           0        5.328616   -0.481669   -2.083470
     23          6           0       -1.813461    2.941312   -1.027445
     24          6           0        2.046657   -1.700701    3.187230
     25          6           0        7.115105   -1.974556    0.927580
     26          6           0       -3.110363    2.420475   -1.378382
     27          6           0       -1.171258   -1.587423    2.676045
     28          6           0       -3.022888    0.974501   -1.079133
     29          6           0       -1.343707    4.368817   -1.006323
     30          6           0        7.894179   -0.724535   -2.121110
     31          6           0       -1.653441    5.003639    0.341625
     32          6           0       -4.328806    3.057760   -2.007339
     33          6           0       -3.936407   -0.069375   -1.475469
     34          6           0       -2.683042   -1.644192    3.101303
     35          6           0       -3.726692   -1.467318   -1.255650
     36          6           0        9.097957   -0.881103   -1.531064
     37          6           0       -1.225014    6.404163    0.418154
     38          6           0       -4.530987   -2.667214   -1.495291
     39          6           0       -3.814856   -3.738181   -1.088451
     40          6           0       -2.580794   -3.303915   -0.470892
     41          6           0       -5.768640   -2.406680   -2.185930
     42          6           0       -4.260546   -5.277550   -1.119253
     43          6           0       -6.643311   -3.328331   -2.636132
     44          1           0        4.200499   -2.336630    0.051278
     45          1           0        4.935724    0.608151    1.070436
     46          1           0        4.806339   -0.974404    2.047978
     47          1           0        2.799682    1.623481    0.131923
     48          1           0        3.305516   -0.710526   -1.592221
     49          1           0       -0.726074    0.312098    3.608597
     50          1           0       -1.439843    0.294555    1.856998
     51          1           0        0.743881    2.941187   -0.298751
     52          1           0        2.971805   -1.741415    3.603907
     53          1           0        1.406794   -1.397289    4.246386
     54          1           0        1.759678   -2.612210    2.957363
     55          1           0        6.675711   -2.544920    1.844523
     56          1           0        7.829963   -1.060457    1.501874
     57          1           0        7.848602   -2.802782    0.354788
     58          1           0       -1.136687   -2.092362    1.666451
     59          1           0       -0.592248   -2.184812    3.353522
     60          1           0       -1.638585   -0.311159   -0.170297
     61          1           0       -1.989335    4.940889   -1.722666
     62          1           0       -0.181589    4.459663   -1.300125
     63          1           0        7.783418   -0.280797   -3.114117
     64          1           0       -1.051937    4.488581    1.088723
     65          1           0       -2.729934    4.802366    0.455984
     66          1           0       -4.045259    4.063139   -2.216514
     67          1           0       -5.211897    3.013677   -0.980724
     68          1           0       -4.465396    2.407830   -3.010561
     69          1           0       -4.628985    0.244795   -2.072430
     70          1           0        9.401421   -1.242347   -0.467022
     71          1           0        9.986419   -0.653383   -2.242011
     72          1           0       -4.080180   -2.960764    3.522400
     73          1           0       -5.894927   -1.254554   -2.370354
     74          1           0       -5.158468   -5.277556   -0.602270
     75          1           0       -4.322194   -5.616660   -2.129008
     76          1           0       -3.452462   -5.711712   -0.478998
     77          1           0       -1.353171    7.900862    1.771484
     78          1           0       -7.593544   -3.174400   -2.942770
     79          1           0       -6.683719   -4.402441   -2.326260
 ---------------------------------------------------------------------
 Rotational constants (GHZ):           0.0740231           0.0454527           0.0353125
 Standard basis: SVP (5D, 7F)
 There are   825 symmetry adapted cartesian basis functions of A   symmetry.
 There are   782 symmetry adapted basis functions of A   symmetry.
   782 basis functions,  1327 primitive gaussians,   825 cartesian basis functions
   155 alpha electrons      155 beta electrons
       nuclear repulsion energy      4922.5723171021 Hartrees.
 NAtoms=   79 NActive=   79 NUniq=   79 SFac= 1.00D+00 NAtFMM=   60 NAOKFM=T Big=T
 Integral buffers will be    131072 words long.
 Regular integral format.
 Two-electron integral symmetry is turned on.
 One-electron integrals computed using PRISM.
 NBasis=   782 RedAO= T EigKep=  2.93D-04  NBF=   782
 NBsUse=   782 1.00D-06 EigRej= -1.00D+00 NBFU=   782
 ExpMin= 1.22D-01 ExpMax= 2.27D+03 ExpMxC= 3.41D+02 IAcc=3 IRadAn=         5 AccDes= 0.00D+00
 Harris functional with IExCor=  402 and IRadAn=       5 diagonalized for initial guess.
 HarFok:  IExCor=  402 AccDes= 0.00D+00 IRadAn=         5 IDoV= 1 UseB2=F ITyADJ=14
 ICtDFT=  3500011 ScaDFX=  1.000000  1.000000  1.000000  1.000000
 FoFCou: FMM=F IPFlag=           0 FMFlag=      100000 FMFlg1=        2001
         NFxFlg=           0 DoJE=T BraDBF=F KetDBF=T FulRan=T
         wScrn=  0.000000 ICntrl=       500 IOpCl=  0 I1Cent=   200000004 NGrid=           0
         NMat0=    1 NMatS0=      1 NMatT0=    0 NMatD0=    1 NMtDS0=    0 NMtDT0=    0
 Petite list used in FoFCou.
 Requested convergence on RMS density matrix=1.00D-08 within 128 cycles.
 Requested convergence on MAX density matrix=1.00D-06.
 Requested convergence on             energy=1.00D-06.
 No special actions if energy rises.
 Integral accuracy reduced to 1.0D-05 until final iterations.
 Initial convergence to 1.0D-05 achieved.  Increase integral accuracy.
 SCF Done:  E(RB3LYP) =  -1947.81979717     A.U. after   17 cycles
            NFock= 17  Conv=0.60D-08     -V/T= 2.0112
 DoSCS=F DFT=T ScalE2(SS,OS)=  1.000000  1.000000
 ExpMin= 1.22D-01 ExpMax= 2.27D+03 ExpMxC= 3.41D+02 IAcc=3 IRadAn=         5 AccDes= 0.00D+00
 HarFok:  IExCor=  205 AccDes= 0.00D+00 IRadAn=         5 IDoV=-2 UseB2=F ITyADJ=14
 ICtDFT= 12500011 ScaDFX=  1.000000  1.000000  1.000000  1.000000
 GSVD:  LWork=       -2193 too small for GESVD, short by        9890 words or        9890 for optimal perf.
 Range of M.O.s used for correlation:    44   782
 NBasis=   782 NAE=   155 NBE=   155 NFC=    43 NFV=     0
 NROrb=    739 NOA=   112 NOB=   112 NVA=   627 NVB=   627

 **** Warning!!: The smallest alpha delta epsilon is  0.74432294D-01

 Orbital symmetries:
       Occupied  (A) (A) (A) (A) (A) (A) (A) (A) (A) (A) (A) (A)
                 (A) (A) (A) (A) (A) (A) (A) (A) (A) (A) (A) (A)
                 (A) (A) (A) (A) (A) (A) (A) (A) (A) (A) (A) (A)
                 (A) (A) (A) (A) (A) (A) (A) (A) (A) (A) (A) (A)
                 (A) (A) (A) (A) (A) (A) (A) (A) (A) (A) (A) (A)
                 (A) (A) (A) (A) (A) (A) (A) (A) (A) (A) (A) (A)
                 (A) (A) (A) (A) (A) (A) (A) (A) (A) (A) (A) (A)
                 (A) (A) (A) (A) (A) (A) (A) (A) (A) (A) (A) (A)
                 (A) (A) (A) (A) (A) (A) (A) (A) (A) (A) (A) (A)
                 (A) (A) (A) (A) (A) (A) (A) (A) (A) (A) (A) (A)
                 (A) (A) (A) (A) (A) (A) (A) (A) (A) (A) (A) (A)
                 (A) (A) (A) (A) (A) (A) (A) (A) (A) (A) (A) (A)
                 (A) (A) (A) (A) (A) (A) (A) (A) (A) (A) (A)
       Virtual   (A) (A) (A) (A) (A) (A) (A) (A) (A) (A) (A) (A)
                 (A) (A) (A) (A) (A) (A) (A) (A) (A) (A) (A) (A)
                 (A) (A) (A) (A) (A) (A) (A) (A) (A) (A) (A) (A)
                 (A) (A) (A) (A) (A) (A) (A) (A) (A) (A) (A) (A)
                 (A) (A) (A) (A) (A) (A) (A) (A) (A) (A) (A) (A)
                 (A) (A) (A) (A) (A) (A) (A) (A) (A) (A) (A) (A)
                 (A) (A) (A) (A) (A) (A) (A) (A) (A) (A) (A) (A)
                 (A) (A) (A) (A) (A) (A) (A) (A) (A) (A) (A) (A)
                 (A) (A) (A) (A) (A) (A) (A) (A) (A) (A) (A) (A)
                 (A) (A) (A) (A) (A) (A) (A) (A) (A) (A) (A) (A)
                 (A) (A) (A) (A) (A) (A) (A) (A) (A) (A) (A) (A)
                 (A) (A) (A) (A) (A) (A) (A) (A) (A) (A) (A) (A)
                 (A) (A) (A) (A) (A) (A) (A) (A) (A) (A) (A) (A)
                 (A) (A) (A) (A) (A) (A) (A) (A) (A) (A) (A) (A)
                 (A) (A) (A) (A) (A) (A) (A) (A) (A) (A) (A) (A)
                 (A) (A) (A) (A) (A) (A) (A) (A) (A) (A) (A) (A)
                 (A) (A) (A) (A) (A) (A) (A) (A) (A) (A) (A) (A)
                 (A) (A) (A) (A) (A) (A) (A) (A) (A) (A) (A) (A)
                 (A) (A) (A) (A) (A) (A) (A) (A) (A) (A) (A) (A)
                 (A) (A) (A) (A) (A) (A) (A) (A) (A) (A) (A) (A)
                 (A) (A) (A) (A) (A) (A) (A) (A) (A) (A) (A) (A)
                 (A) (A) (A) (A) (A) (A) (A) (A) (A) (A) (A) (A)
                 (A) (A) (A) (A) (A) (A) (A) (A) (A) (A) (A) (A)
                 (A) (A) (A) (A) (A) (A) (A) (A) (A) (A) (A) (A)
                 (A) (A) (A) (A) (A) (A) (A) (A) (A) (A) (A) (A)
                 (A) (A) (A) (A) (A) (A) (A) (A) (A) (A) (A) (A)
                 (A) (A) (A) (A) (A) (A) (A) (A) (A) (A) (A) (A)
                 (A) (A) (A) (A) (A) (A) (A) (A) (A) (A) (A) (A)
                 (A) (A) (A) (A) (A) (A) (A) (A) (A) (A) (A) (A)
                 (A) (A) (A) (A) (A) (A) (A) (A) (A) (A) (A) (A)
                 (A) (A) (A) (A) (A) (A) (A) (A) (A) (A) (A) (A)
                 (A) (A) (A) (A) (A) (A) (A) (A) (A) (A) (A) (A)
                 (A) (A) (A) (A) (A) (A) (A) (A) (A) (A) (A) (A)
                 (A) (A) (A) (A) (A) (A) (A) (A) (A) (A) (A) (A)
                 (A) (A) (A) (A) (A) (A) (A) (A) (A) (A) (A) (A)
                 (A) (A) (A) (A) (A) (A) (A) (A) (A) (A) (A) (A)
                 (A) (A) (A) (A) (A) (A) (A) (A) (A) (A) (A) (A)
                 (A) (A) (A) (A) (A) (A) (A) (A) (A) (A) (A) (A)
                 (A) (A) (A) (A) (A) (A) (A) (A) (A) (A) (A) (A)
                 (A) (A) (A) (A) (A) (A) (A) (A) (A) (A) (A) (A)
                 (A) (A) (A) (A) (A) (A) (A) (A) (A) (A) (A) (A)
                 (A) (A) (A) (A) (A) (A) (A) (A) (A) (A) (A) (A)
                 (A) (A) (A) (A) (A) (A) (A) (A) (A) (A) (A) (A)
                 (A) (A) (A) (A) (A) (A) (A) (A) (A) (A) (A) (A)
                 (A) (A) (A) (A) (A) (A) (A) (A) (A) (A) (A) (A)
                 (A) (A) (A) (A) (A) (A) (A) (A) (A) (A) (A) (A)
                 (A) (A) (A) (A) (A) (A) (A) (A) (A) (A) (A) (A)
                 (A) (A) (A) (A) (A) (A) (A) (A) (A) (A) (A) (A)
                 (A) (A) (A) (A) (A) (A) (A) (A) (A) (A) (A) (A)
                 (A) (A) (A) (A) (A) (A) (A) (A) (A) (A) (A) (A)
                 (A) (A) (A) (A) (A) (A) (A) (A) (A) (A) (A) (A)
                 (A) (A) (A) (A) (A) (A) (A) (A) (A) (A) (A) (A)
                 (A) (A) (A)
     4 initial guesses have been made.
 Convergence on wavefunction:    0.001000000000000
 Iteration     1 Dimension     4 NMult     0 NNew      4
 CISAX will form     4 AO SS matrices at one time.
 Iteration     2 Dimension     6 NMult     4 NNew      2
 Iteration     3 Dimension     8 NMult     6 NNew      2
 Iteration     4 Dimension    10 NMult     8 NNew      2
 Iteration     5 Dimension    12 NMult    10 NNew      2
 Iteration     6 Dimension    14 NMult    12 NNew      2
 Iteration     7 Dimension    16 NMult    14 NNew      2
 ***********************************************************************
 Excited states from <AA,BB:AA,BB> singles matrix:
 ***********************************************************************
 
 Ground to excited state transition densities written to RWF  633
 Ground to excited state transition electric dipole moments (Au):
       state          X           Y           Z        Dip. S.      Osc.
         1        -2.4098     -1.3941     -0.9745      8.7003      0.4055
 Ground to excited state transition velocity dipole moments (Au):
       state          X           Y           Z        Dip. S.      Osc.
         1         0.1607      0.0876      0.0669      0.0380      0.3620
 Ground to excited state transition magnetic dipole moments (Au):
       state          X           Y           Z
         1         0.6863     -0.0326     -1.3141
 Ground to excited state transition velocity quadrupole moments (Au):
       state          XX          YY          ZZ          XY          XZ          YZ
         1        -0.5169     -0.3227      0.0578     -0.7170     -0.4033     -0.2495
 <0|del|b> * <b|rxdel|0> + <0|del|b> * <b|delr+rdel|0>
 Rotatory Strengths (R) in cgs (10**-40 erg-esu-cm/Gauss)
       state          XX          YY          ZZ    R(velocity)    E-M Angle
         1      -522.4200    153.0372    567.2188     65.9453       86.12
 1/2[<0|r|b>*<b|rxdel|0> + (<0|rxdel|b>*<b|r|0>)*]
 Rotatory Strengths (R) in cgs (10**-40 erg-esu-cm/Gauss)
       state          XX          YY          ZZ     R(length)
         1      1169.5909    -32.0939   -905.6461     77.2836
  1/2[<0|del|b>*<b|r|0> + (<0|r|b>*<b|del|0>)*] (Au)
       state          X           Y           Z        Dip. S.   Osc.(frdel)
         1        -0.3872     -0.1222     -0.0652      0.5745      0.3830

 Excitation energies and oscillator strengths:
 
 Excited State   1:      Singlet-A      1.9026 eV  651.66 nm  f=0.4055  <S**2>=0.000
     154 ->156         0.13444
     155 ->156         0.69237
     155 <-156        -0.12743
 This state for optimization and/or second-order correction.
 Total Energy, E(TD-HF/TD-DFT) =  -1947.74987788    
 Copying the excited state density for this state as the 1-particle RhoCI density.
 SavETr:  write IOETrn=   770 NScale= 10 NData=  16 NLR=1 NState=    1 LETran=      28.

 **********************************************************************

            Population analysis using the SCF density.

 **********************************************************************

 Orbital symmetries:
       Occupied  (A) (A) (A) (A) (A) (A) (A) (A) (A) (A) (A) (A)
                 (A) (A) (A) (A) (A) (A) (A) (A) (A) (A) (A) (A)
                 (A) (A) (A) (A) (A) (A) (A) (A) (A) (A) (A) (A)
                 (A) (A) (A) (A) (A) (A) (A) (A) (A) (A) (A) (A)
                 (A) (A) (A) (A) (A) (A) (A) (A) (A) (A) (A) (A)
                 (A) (A) (A) (A) (A) (A) (A) (A) (A) (A) (A) (A)
                 (A) (A) (A) (A) (A) (A) (A) (A) (A) (A) (A) (A)
                 (A) (A) (A) (A) (A) (A) (A) (A) (A) (A) (A) (A)
                 (A) (A) (A) (A) (A) (A) (A) (A) (A) (A) (A) (A)
                 (A) (A) (A) (A) (A) (A) (A) (A) (A) (A) (A) (A)
                 (A) (A) (A) (A) (A) (A) (A) (A) (A) (A) (A) (A)
                 (A) (A) (A) (A) (A) (A) (A) (A) (A) (A) (A) (A)
                 (A) (A) (A) (A) (A) (A) (A) (A) (A) (A) (A)
       Virtual   (A) (A) (A) (A) (A) (A) (A) (A) (A) (A) (A) (A)
                 (A) (A) (A) (A) (A) (A) (A) (A) (A) (A) (A) (A)
                 (A) (A) (A) (A) (A) (A) (A) (A) (A) (A) (A) (A)
                 (A) (A) (A) (A) (A) (A) (A) (A) (A) (A) (A) (A)
                 (A) (A) (A) (A) (A) (A) (A) (A) (A) (A) (A) (A)
                 (A) (A) (A) (A) (A) (A) (A) (A) (A) (A) (A) (A)
                 (A) (A) (A) (A) (A) (A) (A) (A) (A) (A) (A) (A)
                 (A) (A) (A) (A) (A) (A) (A) (A) (A) (A) (A) (A)
                 (A) (A) (A) (A) (A) (A) (A) (A) (A) (A) (A) (A)
                 (A) (A) (A) (A) (A) (A) (A) (A) (A) (A) (A) (A)
                 (A) (A) (A) (A) (A) (A) (A) (A) (A) (A) (A) (A)
                 (A) (A) (A) (A) (A) (A) (A) (A) (A) (A) (A) (A)
                 (A) (A) (A) (A) (A) (A) (A) (A) (A) (A) (A) (A)
                 (A) (A) (A) (A) (A) (A) (A) (A) (A) (A) (A) (A)
                 (A) (A) (A) (A) (A) (A) (A) (A) (A) (A) (A) (A)
                 (A) (A) (A) (A) (A) (A) (A) (A) (A) (A) (A) (A)
                 (A) (A) (A) (A) (A) (A) (A) (A) (A) (A) (A) (A)
                 (A) (A) (A) (A) (A) (A) (A) (A) (A) (A) (A) (A)
                 (A) (A) (A) (A) (A) (A) (A) (A) (A) (A) (A) (A)
                 (A) (A) (A) (A) (A) (A) (A) (A) (A) (A) (A) (A)
                 (A) (A) (A) (A) (A) (A) (A) (A) (A) (A) (A) (A)
                 (A) (A) (A) (A) (A) (A) (A) (A) (A) (A) (A) (A)
                 (A) (A) (A) (A) (A) (A) (A) (A) (A) (A) (A) (A)
                 (A) (A) (A) (A) (A) (A) (A) (A) (A) (A) (A) (A)
                 (A) (A) (A) (A) (A) (A) (A) (A) (A) (A) (A) (A)
                 (A) (A) (A) (A) (A) (A) (A) (A) (A) (A) (A) (A)
                 (A) (A) (A) (A) (A) (A) (A) (A) (A) (A) (A) (A)
                 (A) (A) (A) (A) (A) (A) (A) (A) (A) (A) (A) (A)
                 (A) (A) (A) (A) (A) (A) (A) (A) (A) (A) (A) (A)
                 (A) (A) (A) (A) (A) (A) (A) (A) (A) (A) (A) (A)
                 (A) (A) (A) (A) (A) (A) (A) (A) (A) (A) (A) (A)
                 (A) (A) (A) (A) (A) (A) (A) (A) (A) (A) (A) (A)
                 (A) (A) (A) (A) (A) (A) (A) (A) (A) (A) (A) (A)
                 (A) (A) (A) (A) (A) (A) (A) (A) (A) (A) (A) (A)
                 (A) (A) (A) (A) (A) (A) (A) (A) (A) (A) (A) (A)
                 (A) (A) (A) (A) (A) (A) (A) (A) (A) (A) (A) (A)
                 (A) (A) (A) (A) (A) (A) (A) (A) (A) (A) (A) (A)
                 (A) (A) (A) (A) (A) (A) (A) (A) (A) (A) (A) (A)
                 (A) (A) (A) (A) (A) (A) (A) (A) (A) (A) (A) (A)
                 (A) (A) (A) (A) (A) (A) (A) (A) (A) (A) (A) (A)
                 (A) (A) (A) (A) (A) (A) (A) (A) (A) (A) (A) (A)
                 (A) (A) (A) (A) (A) (A) (A) (A) (A) (A) (A) (A)
                 (A) (A) (A) (A) (A) (A) (A) (A) (A) (A) (A) (A)
                 (A) (A) (A) (A) (A) (A) (A) (A) (A) (A) (A) (A)
                 (A) (A) (A) (A) (A) (A) (A) (A) (A) (A) (A) (A)
                 (A) (A) (A) (A) (A) (A) (A) (A) (A) (A) (A) (A)
                 (A) (A) (A) (A) (A) (A) (A) (A) (A) (A) (A) (A)
                 (A) (A) (A) (A) (A) (A) (A) (A) (A) (A) (A) (A)
                 (A) (A) (A) (A) (A) (A) (A) (A) (A) (A) (A) (A)
                 (A) (A) (A) (A) (A) (A) (A) (A) (A) (A) (A) (A)
                 (A) (A) (A) (A) (A) (A) (A) (A) (A) (A) (A) (A)
                 (A) (A) (A) (A) (A) (A) (A) (A) (A) (A) (A) (A)
                 (A) (A) (A)
 The electronic state is 1-A.
 Alpha  occ. eigenvalues --  -19.17619 -19.16825 -19.15765 -19.12093 -19.11729
 Alpha  occ. eigenvalues --  -19.09832 -14.38339 -14.36842 -14.36557 -14.28491
 Alpha  occ. eigenvalues --  -10.33863 -10.30931 -10.28822 -10.26911 -10.26666
 Alpha  occ. eigenvalues --  -10.25294 -10.24436 -10.24138 -10.24064 -10.23844
 Alpha  occ. eigenvalues --  -10.23822 -10.22967 -10.22839 -10.22822 -10.22524
 Alpha  occ. eigenvalues --  -10.22335 -10.22232 -10.22057 -10.21928 -10.21203
 Alpha  occ. eigenvalues --  -10.20825 -10.20446 -10.20367 -10.20227 -10.20026
 Alpha  occ. eigenvalues --  -10.19657 -10.19376 -10.19308 -10.19286 -10.19106
 Alpha  occ. eigenvalues --  -10.19026 -10.18699 -10.18343  -1.07442  -1.07170
 Alpha  occ. eigenvalues --   -1.02496  -0.99926  -0.99266  -0.99252  -0.99240
 Alpha  occ. eigenvalues --   -0.97148  -0.94061  -0.92454  -0.83364  -0.82459
 Alpha  occ. eigenvalues --   -0.81839  -0.81444  -0.79883  -0.79634  -0.78235
 Alpha  occ. eigenvalues --   -0.77267  -0.76573  -0.75351  -0.74149  -0.72933
 Alpha  occ. eigenvalues --   -0.72081  -0.69977  -0.69546  -0.69096  -0.67797
 Alpha  occ. eigenvalues --   -0.66291  -0.65868  -0.64401  -0.61417  -0.60393
 Alpha  occ. eigenvalues --   -0.59892  -0.59113  -0.57817  -0.57679  -0.57100
 Alpha  occ. eigenvalues --   -0.56419  -0.55412  -0.54229  -0.53860  -0.53314
 Alpha  occ. eigenvalues --   -0.52215  -0.51407  -0.50876  -0.50718  -0.50106
 Alpha  occ. eigenvalues --   -0.49491  -0.48214  -0.47779  -0.47296  -0.47164
 Alpha  occ. eigenvalues --   -0.46955  -0.46771  -0.46610  -0.45944  -0.45758
 Alpha  occ. eigenvalues --   -0.45543  -0.44615  -0.44234  -0.43889  -0.43858
 Alpha  occ. eigenvalues --   -0.43763  -0.43570  -0.42831  -0.42636  -0.42347
 Alpha  occ. eigenvalues --   -0.41940  -0.41798  -0.41702  -0.41320  -0.41078
 Alpha  occ. eigenvalues --   -0.40677  -0.40616  -0.40264  -0.40121  -0.39953
 Alpha  occ. eigenvalues --   -0.39473  -0.39463  -0.39115  -0.38836  -0.37755
 Alpha  occ. eigenvalues --   -0.37681  -0.37239  -0.37134  -0.37029  -0.36803
 Alpha  occ. eigenvalues --   -0.36233  -0.36008  -0.35509  -0.35096  -0.34620
 Alpha  occ. eigenvalues --   -0.34244  -0.33570  -0.33246  -0.32352  -0.31604
 Alpha  occ. eigenvalues --   -0.31514  -0.31363  -0.29998  -0.29139  -0.27587
 Alpha  occ. eigenvalues --   -0.27232  -0.26139  -0.25650  -0.25390  -0.24726
 Alpha  occ. eigenvalues --   -0.24552  -0.23808  -0.23717  -0.22429  -0.19011
 Alpha virt. eigenvalues --   -0.11568  -0.07485  -0.05858  -0.03023  -0.00787
 Alpha virt. eigenvalues --    0.00299   0.00932   0.01139   0.01445   0.02392
 Alpha virt. eigenvalues --    0.03200   0.03291   0.03556   0.03989   0.04186
 Alpha virt. eigenvalues --    0.05001   0.05153   0.05797   0.06528   0.06841
 Alpha virt. eigenvalues --    0.07152   0.07411   0.07497   0.07744   0.07940
 Alpha virt. eigenvalues --    0.08890   0.09259   0.09926   0.10216   0.10347
 Alpha virt. eigenvalues --    0.10735   0.10798   0.11439   0.11706   0.11987
 Alpha virt. eigenvalues --    0.12291   0.12801   0.13476   0.13841   0.14096
 Alpha virt. eigenvalues --    0.14242   0.14765   0.14930   0.15165   0.15651
 Alpha virt. eigenvalues --    0.15925   0.16228   0.16321   0.16565   0.17169
 Alpha virt. eigenvalues --    0.17484   0.18055   0.18560   0.18923   0.19070
 Alpha virt. eigenvalues --    0.19938   0.20719   0.21105   0.21370   0.21970
 Alpha virt. eigenvalues --    0.21999   0.22460   0.22824   0.23032   0.23967
 Alpha virt. eigenvalues --    0.24292   0.24917   0.25053   0.25521   0.26399
 Alpha virt. eigenvalues --    0.27089   0.27590   0.27745   0.28148   0.28543
 Alpha virt. eigenvalues --    0.28835   0.29602   0.29963   0.30431   0.30629
 Alpha virt. eigenvalues --    0.30663   0.31402   0.31831   0.32747   0.33620
 Alpha virt. eigenvalues --    0.34259   0.34880   0.35150   0.36135   0.36360
 Alpha virt. eigenvalues --    0.36757   0.37333   0.37515   0.38363   0.38961
 Alpha virt. eigenvalues --    0.39234   0.40329   0.40667   0.41086   0.41651
 Alpha virt. eigenvalues --    0.41815   0.42101   0.42266   0.42805   0.43083
 Alpha virt. eigenvalues --    0.43378   0.43814   0.44066   0.44408   0.44957
 Alpha virt. eigenvalues --    0.45104   0.45333   0.45485   0.45649   0.46151
 Alpha virt. eigenvalues --    0.46763   0.46894   0.47259   0.47584   0.47808
 Alpha virt. eigenvalues --    0.48468   0.48601   0.48961   0.49158   0.49448
 Alpha virt. eigenvalues --    0.49852   0.50136   0.50204   0.50695   0.51154
 Alpha virt. eigenvalues --    0.51307   0.51545   0.51713   0.52570   0.52855
 Alpha virt. eigenvalues --    0.53100   0.53578   0.53782   0.54323   0.54787
 Alpha virt. eigenvalues --    0.55151   0.55616   0.56175   0.56373   0.56768
 Alpha virt. eigenvalues --    0.57644   0.57715   0.57782   0.58024   0.58372
 Alpha virt. eigenvalues --    0.58631   0.58990   0.59290   0.59553   0.59793
 Alpha virt. eigenvalues --    0.60259   0.60502   0.60674   0.60898   0.61202
 Alpha virt. eigenvalues --    0.61378   0.61569   0.61807   0.61963   0.62797
 Alpha virt. eigenvalues --    0.62903   0.63475   0.63653   0.63850   0.64249
 Alpha virt. eigenvalues --    0.64602   0.64830   0.64964   0.65008   0.65722
 Alpha virt. eigenvalues --    0.65797   0.66190   0.66433   0.66764   0.67075
 Alpha virt. eigenvalues --    0.67157   0.67307   0.67533   0.67855   0.67959
 Alpha virt. eigenvalues --    0.68427   0.68583   0.68855   0.68958   0.69418
 Alpha virt. eigenvalues --    0.69781   0.70050   0.70427   0.70673   0.70712
 Alpha virt. eigenvalues --    0.71078   0.71324   0.71525   0.71871   0.72531
 Alpha virt. eigenvalues --    0.72691   0.72827   0.73379   0.73752   0.74414
 Alpha virt. eigenvalues --    0.74839   0.75058   0.75210   0.75775   0.76080
 Alpha virt. eigenvalues --    0.76620   0.77293   0.77675   0.78130   0.78478
 Alpha virt. eigenvalues --    0.78637   0.79849   0.80370   0.80417   0.81128
 Alpha virt. eigenvalues --    0.81352   0.81955   0.82733   0.83548   0.83729
 Alpha virt. eigenvalues --    0.84481   0.84756   0.84999   0.85324   0.85885
 Alpha virt. eigenvalues --    0.86544   0.87200   0.87884   0.88287   0.88602
 Alpha virt. eigenvalues --    0.90417   0.90525   0.90982   0.91442   0.92201
 Alpha virt. eigenvalues --    0.92833   0.93831   0.94811   0.95314   0.95537
 Alpha virt. eigenvalues --    0.95915   0.96219   0.97350   0.97796   0.98386
 Alpha virt. eigenvalues --    0.98572   0.99449   1.00008   1.01071   1.01442
 Alpha virt. eigenvalues --    1.02251   1.02664   1.03027   1.04225   1.05148
 Alpha virt. eigenvalues --    1.05222   1.06554   1.06627   1.08157   1.08583
 Alpha virt. eigenvalues --    1.08994   1.09863   1.10396   1.11241   1.12088
 Alpha virt. eigenvalues --    1.12204   1.12644   1.13200   1.14239   1.14408
 Alpha virt. eigenvalues --    1.14575   1.15771   1.15995   1.16537   1.17150
 Alpha virt. eigenvalues --    1.17929   1.18686   1.20408   1.20786   1.21529
 Alpha virt. eigenvalues --    1.22029   1.22356   1.22760   1.23749   1.24885
 Alpha virt. eigenvalues --    1.25024   1.26016   1.26662   1.27089   1.27255
 Alpha virt. eigenvalues --    1.27747   1.28385   1.28800   1.29753   1.30384
 Alpha virt. eigenvalues --    1.30900   1.31430   1.32009   1.32684   1.33472
 Alpha virt. eigenvalues --    1.33679   1.34043   1.34961   1.36102   1.37448
 Alpha virt. eigenvalues --    1.38216   1.38586   1.39595   1.40504   1.41049
 Alpha virt. eigenvalues --    1.41349   1.41518   1.42014   1.42306   1.43001
 Alpha virt. eigenvalues --    1.44389   1.44499   1.45194   1.45948   1.46134
 Alpha virt. eigenvalues --    1.46609   1.47328   1.48025   1.48240   1.48427
 Alpha virt. eigenvalues --    1.50176   1.50911   1.50922   1.51835   1.52665
 Alpha virt. eigenvalues --    1.53088   1.53292   1.53722   1.54129   1.55158
 Alpha virt. eigenvalues --    1.55323   1.55727   1.56111   1.56570   1.57366
 Alpha virt. eigenvalues --    1.57934   1.59119   1.59626   1.60346   1.60552
 Alpha virt. eigenvalues --    1.61741   1.62753   1.62992   1.63352   1.63938
 Alpha virt. eigenvalues --    1.64146   1.64662   1.64995   1.65592   1.65962
 Alpha virt. eigenvalues --    1.66452   1.66855   1.67543   1.67998   1.68334
 Alpha virt. eigenvalues --    1.68691   1.68776   1.69073   1.69596   1.69802
 Alpha virt. eigenvalues --    1.70250   1.70534   1.71049   1.71167   1.71746
 Alpha virt. eigenvalues --    1.72154   1.72728   1.73254   1.73670   1.73989
 Alpha virt. eigenvalues --    1.74689   1.74870   1.75400   1.75786   1.75909
 Alpha virt. eigenvalues --    1.76315   1.76935   1.77493   1.77713   1.78142
 Alpha virt. eigenvalues --    1.78705   1.79073   1.79430   1.79634   1.80492
 Alpha virt. eigenvalues --    1.81016   1.81207   1.81899   1.81944   1.82285
 Alpha virt. eigenvalues --    1.82354   1.82880   1.83183   1.83677   1.84082
 Alpha virt. eigenvalues --    1.84275   1.84687   1.85207   1.85592   1.86480
 Alpha virt. eigenvalues --    1.86501   1.86863   1.87083   1.87967   1.88787
 Alpha virt. eigenvalues --    1.88986   1.90082   1.90171   1.90792   1.91007
 Alpha virt. eigenvalues --    1.91664   1.92227   1.92725   1.93067   1.93295
 Alpha virt. eigenvalues --    1.93984   1.94148   1.94340   1.94960   1.95280
 Alpha virt. eigenvalues --    1.95591   1.95938   1.96835   1.97130   1.97862
 Alpha virt. eigenvalues --    1.98531   1.98685   1.99220   2.00661   2.00939
 Alpha virt. eigenvalues --    2.01137   2.01960   2.02377   2.03049   2.03210
 Alpha virt. eigenvalues --    2.04405   2.04730   2.05653   2.05890   2.06548
 Alpha virt. eigenvalues --    2.07654   2.08422   2.08633   2.09314   2.09889
 Alpha virt. eigenvalues --    2.10227   2.10418   2.10964   2.11524   2.12274
 Alpha virt. eigenvalues --    2.12585   2.13173   2.13982   2.14393   2.14901
 Alpha virt. eigenvalues --    2.15111   2.15825   2.16685   2.17245   2.18301
 Alpha virt. eigenvalues --    2.18928   2.19154   2.19697   2.19873   2.20113
 Alpha virt. eigenvalues --    2.20330   2.21096   2.21572   2.22972   2.23845
 Alpha virt. eigenvalues --    2.24244   2.25043   2.25771   2.26854   2.27098
 Alpha virt. eigenvalues --    2.28109   2.28821   2.29264   2.29617   2.30261
 Alpha virt. eigenvalues --    2.30748   2.31419   2.32183   2.32363   2.33263
 Alpha virt. eigenvalues --    2.33829   2.34929   2.35443   2.36161   2.36684
 Alpha virt. eigenvalues --    2.37470   2.38880   2.39153   2.39354   2.40305
 Alpha virt. eigenvalues --    2.42150   2.42477   2.43438   2.43966   2.44042
 Alpha virt. eigenvalues --    2.45214   2.46373   2.46931   2.47883   2.48075
 Alpha virt. eigenvalues --    2.49603   2.50506   2.50872   2.51332   2.52415
 Alpha virt. eigenvalues --    2.53592   2.54375   2.54545   2.54755   2.55195
 Alpha virt. eigenvalues --    2.55728   2.57666   2.58194   2.58962   2.59888
 Alpha virt. eigenvalues --    2.61370   2.61602   2.61915   2.62384   2.63769
 Alpha virt. eigenvalues --    2.64224   2.64401   2.64683   2.65970   2.66929
 Alpha virt. eigenvalues --    2.67487   2.68014   2.68641   2.69350   2.69842
 Alpha virt. eigenvalues --    2.70958   2.71472   2.71695   2.71912   2.72587
 Alpha virt. eigenvalues --    2.73333   2.73820   2.74260   2.75070   2.75646
 Alpha virt. eigenvalues --    2.76514   2.77509   2.78334   2.78685   2.79020
 Alpha virt. eigenvalues --    2.79311   2.80044   2.80511   2.81495   2.81873
 Alpha virt. eigenvalues --    2.82511   2.82924   2.84389   2.84840   2.84920
 Alpha virt. eigenvalues --    2.85217   2.86370   2.88550   2.89005   2.89420
 Alpha virt. eigenvalues --    2.89897   2.90302   2.91327   2.92985   2.93847
 Alpha virt. eigenvalues --    2.94414   2.94875   2.95178   2.96657   2.97838
 Alpha virt. eigenvalues --    3.00596   3.01290   3.01628   3.04027   3.04685
 Alpha virt. eigenvalues --    3.05899   3.07075   3.07396   3.07897   3.08160
 Alpha virt. eigenvalues --    3.10228   3.10504   3.12867   3.12970   3.13764
 Alpha virt. eigenvalues --    3.14866   3.16223   3.16879   3.18619   3.18979
 Alpha virt. eigenvalues --    3.19635   3.23698   3.23741   3.24555   3.27600
 Alpha virt. eigenvalues --    3.29858   3.31255   3.36574   3.41353   3.41402
 Alpha virt. eigenvalues --    3.45412   3.45708   3.46262   3.55464   3.57959
 Alpha virt. eigenvalues --    3.58157   3.62387   3.63475   3.65474   3.66979
 Alpha virt. eigenvalues --    3.69622   3.73806
          Condensed to atoms (all electrons):
 Mulliken charges:
               1
     1  O   -0.288476
     2  O   -0.242189
     3  O   -0.212226
     4  O   -0.300931
     5  O   -0.196123
     6  O   -0.187859
     7  N   -0.047272
     8  N   -0.208207
     9  N   -0.124903
    10  N   -0.337481
    11  C    0.010016
    12  C    0.267396
    13  C   -0.052316
    14  C   -0.122234
    15  C   -0.073678
    16  C    0.078702
    17  C   -0.151772
    18  C    0.049949
    19  C   -0.031366
    20  C   -0.086588
    21  C    0.072206
    22  C    0.163601
    23  C   -0.092078
    24  C    0.156023
    25  C   -0.086913
    26  C   -0.153000
    27  C   -0.048099
    28  C    0.086544
    29  C    0.012106
    30  C    0.015463
    31  C    0.048549
    32  C    0.035160
    33  C   -0.001206
    34  C    0.150901
    35  C    0.080907
    36  C   -0.074324
    37  C    0.189246
    38  C    0.093507
    39  C   -0.269074
    40  C    0.186670
    41  C   -0.039849
    42  C    0.140256
    43  C   -0.004394
    44  H    0.038169
    45  H    0.003963
    46  H   -0.019684
    47  H    0.079154
    48  H    0.158957
    49  H    0.032378
    50  H    0.011949
    51  H    0.007443
    52  H   -0.030054
    53  H    0.027842
    54  H    0.000385
    55  H    0.046354
    56  H    0.061861
    57  H    0.071453
    58  H    0.073286
    59  H    0.010083
    60  H    0.181796
    61  H    0.019785
    62  H    0.048413
    63  H    0.030040
    64  H    0.041120
    65  H    0.057837
    66  H    0.011911
    67  H    0.080419
    68  H    0.078244
    69  H   -0.115571
    70  H    0.051007
    71  H    0.035162
    72  H    0.216719
    73  H    0.024456
    74  H    0.010719
    75  H    0.031122
    76  H    0.031161
    77  H    0.181327
    78  H   -0.011541
    79  H    0.017693
 Sum of Mulliken charges =  -0.00000
 Mulliken charges with hydrogens summed into heavy atoms:
               1
     1  O   -0.288476
     2  O   -0.025470
     3  O   -0.212226
     4  O   -0.119604
     5  O   -0.196123
     6  O   -0.187859
     7  N    0.031882
     8  N   -0.049251
     9  N    0.056893
    10  N   -0.337481
    11  C    0.048185
    12  C    0.251675
    13  C   -0.052316
    14  C   -0.122234
    15  C   -0.073678
    16  C    0.078702
    17  C   -0.151772
    18  C    0.094277
    19  C   -0.031366
    20  C   -0.079146
    21  C    0.072206
    22  C    0.163601
    23  C   -0.092078
    24  C    0.154196
    25  C    0.092755
    26  C   -0.153000
    27  C    0.035270
    28  C    0.086544
    29  C    0.080303
    30  C    0.045503
    31  C    0.147506
    32  C    0.205734
    33  C   -0.116777
    34  C    0.150901
    35  C    0.080907
    36  C    0.011844
    37  C    0.189246
    38  C    0.093507
    39  C   -0.269074
    40  C    0.186670
    41  C   -0.015393
    42  C    0.213258
    43  C    0.001758
 Electronic spatial extent (au):  <R**2>=          31773.6058
 Charge=              0.0000 electrons
 Dipole moment (field-independent basis, Debye):
    X=             -0.4074    Y=              1.3054    Z=              3.1214  Tot=              3.4078
 Quadrupole moment (field-independent basis, Debye-Ang):
   XX=           -224.8613   YY=           -252.9205   ZZ=           -263.8264
   XY=             -5.9378   XZ=             31.6921   YZ=             -1.8314
 Traceless Quadrupole moment (field-independent basis, Debye-Ang):
   XX=             22.3414   YY=             -5.7178   ZZ=            -16.6237
   XY=             -5.9378   XZ=             31.6921   YZ=             -1.8314
 Octapole moment (field-independent basis, Debye-Ang**2):
  XXX=            -56.9962  YYY=             67.4765  ZZZ=             97.0834  XYY=            -78.1917
  XXY=            -84.3781  XXZ=             96.0192  XZZ=            -80.1601  YZZ=            -30.6951
  YYZ=             56.9349  XYZ=              6.1320
 Hexadecapole moment (field-independent basis, Debye-Ang**3):
 XXXX=         -23522.7674 YYYY=         -12411.0593 ZZZZ=          -5070.4820 XXXY=            138.1194
 XXXZ=            584.9826 YYYX=            -86.4656 YYYZ=            630.5947 ZZZX=             42.7067
 ZZZY=           -171.9772 XXYY=          -5820.1535 XXZZ=          -5225.9027 YYZZ=          -2937.1471
 XXYZ=           -159.4267 YYXZ=             -9.4359 ZZXY=             80.3704
 N-N= 4.922572317102D+03 E-N=-1.437284695313D+04  KE= 1.926294995890D+03
 1\1\GINC-PADAWAN\SP\RB3LYP TD-FC\SVP\C33H36N4O6\PADAWAN\07-Oct-2019\0\
 \# td=(NStates=1) B3LYP/SVP\\TD\\0,1\O,0,-5.3970159316,-0.0070552659,-
 3.2755073404\O,0,3.0008900945,2.9405713118,3.3340994883\O,0,3.44426277
 49,0.7289382928,3.0332052056\O,0,1.4660542449,-6.9413604061,1.78045655
 2\O,0,0.8821831063,-7.0844448681,-0.5630742903\O,0,1.7349905472,3.9703
 001528,0.165116019\N,0,-2.4066902801,-0.9577442046,0.6285398706\N,0,-4
 .2945443358,0.7363212986,-1.2180301578\N,0,1.7910094925,-0.7271542884,
 -0.4312015978\N,0,2.6214776897,1.8824439899,-0.6138281295\C,0,-4.75589
 19804,1.1496364606,0.065922392\C,0,-4.3654639392,0.3020703723,1.323959
 7537\C,0,-2.8680418998,0.030573314,1.3997619892\C,0,-1.9182409208,0.65
 28902462,2.1202451941\C,0,-0.6880454148,-0.0055659921,1.7942100986\C,0
 ,-0.9591901068,-1.0221552744,0.8599178112\C,0,-6.2485772138,1.34355214
 45,-0.1636215776\C,0,0.6605846651,0.1648971662,2.4836873888\C,0,-6.659
 4064551,0.8261118596,-1.3620919379\C,0,-0.2023364897,-2.0107498119,0.1
 538674682\C,0,1.0692338196,-1.8779173383,-0.3877103532\C,0,-5.32360296
 06,0.4673149462,-2.0961469262\C,0,1.83484757,-2.9227628147,-1.04485149
 44\C,0,-2.0664723481,1.6608218391,3.1957539656\C,0,-7.1288603792,1.924
 2205513,0.9213261185\C,0,3.1298393176,-2.3914190931,-1.3869799431\C,0,
 1.1537414014,1.570645558,2.6945430902\C,0,3.0328913644,-0.9485634819,-
 1.0758315714\C,0,1.3734011103,-4.3531112755,-1.0373754544\C,0,-7.89040
 49465,0.6955211897,-2.140432431\C,0,1.6823458002,-4.9975006847,0.30620
 66162\C,0,4.3540910181,-3.0162400928,-2.0171609474\C,0,3.9415950301,0.
 1039397975,-1.4602407065\C,0,2.6637369949,1.6326308513,3.1253884387\C,
 0,3.7229566735,1.498725284,-1.2293395013\C,0,-9.0970446879,0.840066166
 9,-1.5531701323\C,0,1.2618812528,-6.4010967599,0.3694556046\C,0,4.5210
 009347,2.7052772826,-1.4561126944\C,0,3.7972489933,3.7685673804,-1.042
 6755619\C,0,2.5636979406,3.3219000411,-0.4329920619\C,0,5.7624598513,2
 .4578206227,-2.1447264277\C,0,4.2340090207,5.3107159474,-1.0589679102\
 C,0,6.6332133789,3.3883345183,-2.5841628932\H,0,-4.2135158377,2.310692
 1493,0.0579988402\H,0,-4.9348681437,-0.6468461607,1.0497597202\H,0,-4.
 8180286428,0.9281068104,2.0410610158\H,0,-2.7897880187,-1.6417215677,0
 .1099540736\H,0,-3.3035313504,0.7038022973,-1.5961271636\H,0,0.7165860
 933,-0.3392636144,3.6095104991\H,0,1.4360876182,-0.3027349409,1.860551
 1879\H,0,-0.724871148,-2.9437218372,-0.3248574834\H,0,-2.9932294682,1.
 6926105252,3.6096209518\H,0,-1.4283840535,1.3521945834,4.2544738353\H,
 0,-1.7840747886,2.5759014099,2.9745648783\H,0,-6.6958830392,2.48935773
 93,1.8445366867\H,0,-7.8402637934,1.0011399232,1.4854555563\H,0,-7.865
 2824654,2.7529713802,0.3530637866\H,0,1.1195846669,2.0839004266,1.6891
 36981\H,0,0.5689800105,2.1588927113,3.3750733315\H,0,1.6380481312,0.32
 12627713,-0.1608714524\H,0,2.0247602682,-4.9153253629,-1.7563302427\H,
 0,0.2128230798,-4.448244672,-1.3358720706\H,0,-7.7737284346,0.26085631
 62,-3.1367696152\H,0,1.0753397229,-4.4923004097,1.0555831349\H,0,2.757
 2519953,-4.7909262971,0.4259104059\H,0,4.0771427766,-4.0214495972,-2.2
 357770388\H,0,5.2334744458,-2.9756964198,-0.9872223398\H,0,4.490220455
 1,-2.3570579384,-3.0143905127\H,0,4.6379934188,-0.2011222067,-2.057481
 9239\H,0,-9.4061742179,1.1905165072,-0.4871514049\H,0,-9.9817763112,0.
 613192735,-2.2690230023\H,0,4.0517198585,2.9537187556,3.5623209978\H,0
 ,5.8961130795,1.3080529545,-2.3384426593\H,0,5.1301837182,5.3115839226
 ,-0.5389625162\H,0,4.2970417267,5.658712637,-2.0656091058\H,0,3.421259
 7956,5.7347230787,-0.417813523\H,0,1.3942867368,-7.9084219993,1.710527
 1076\H,0,7.5853509795,3.2425497949,-2.8888661599\H,0,6.6662885164,4.46
 00015124,-2.2650988624\\Version=ES64L-G16RevA.03\State=1-A\HF=-1947.81
 97972\RMSD=5.956e-09\PG=C01 [X(C33H36N4O6)]\\@


 A SCIENTIST IS SOMEONE WHOSE CURIOSITY SURVIVES
 EDUCATION'S ASSAULTS ON IT.
                          - SIR HERMANN BONDI
 Job cpu time:       0 days 10 hours 31 minutes 21.3 seconds.
 Elapsed time:       0 days  2 hours 38 minutes 18.5 seconds.
 File lengths (MBytes):  RWF=   2533 Int=      0 D2E=      0 Chk=     63 Scr=      1
 Normal termination of Gaussian 16 at Mon Oct  7 09:26:57 2019.
