 Entering Gaussian System, Link 0=g16
 Input=Geometria-149-.com
 Output=Geometria-149-.log
 Initial command:
 /usr/local/g16/l1.exe "/home/padawan/israel-mol/dihydrobiliverdin/spectra/emi/Gau-5985.inp" -scrdir="/home/padawan/israel-mol/dihydrobiliverdin/spectra/emi/"
 Entering Link 1 = /usr/local/g16/l1.exe PID=      5987.
  
 Copyright (c) 1988,1990,1992,1993,1995,1998,2003,2009,2016,
            Gaussian, Inc.  All Rights Reserved.
  
 This is part of the Gaussian(R) 16 program.  It is based on
 the Gaussian(R) 09 system (copyright 2009, Gaussian, Inc.),
 the Gaussian(R) 03 system (copyright 2003, Gaussian, Inc.),
 the Gaussian(R) 98 system (copyright 1998, Gaussian, Inc.),
 the Gaussian(R) 94 system (copyright 1995, Gaussian, Inc.),
 the Gaussian 92(TM) system (copyright 1992, Gaussian, Inc.),
 the Gaussian 90(TM) system (copyright 1990, Gaussian, Inc.),
 the Gaussian 88(TM) system (copyright 1988, Gaussian, Inc.),
 the Gaussian 86(TM) system (copyright 1986, Carnegie Mellon
 University), and the Gaussian 82(TM) system (copyright 1983,
 Carnegie Mellon University). Gaussian is a federally registered
 trademark of Gaussian, Inc.
  
 This software contains proprietary and confidential information,
 including trade secrets, belonging to Gaussian, Inc.
  
 This software is provided under written license and may be
 used, copied, transmitted, or stored only in accord with that
 written license.
  
 The following legend is applicable only to US Government
 contracts under FAR:
  
                    RESTRICTED RIGHTS LEGEND
  
 Use, reproduction and disclosure by the US Government is
 subject to restrictions as set forth in subparagraphs (a)
 and (c) of the Commercial Computer Software - Restricted
 Rights clause in FAR 52.227-19.
  
 Gaussian, Inc.
 340 Quinnipiac St., Bldg. 40, Wallingford CT 06492
  
  
 ---------------------------------------------------------------
 Warning -- This program may not be used in any manner that
 competes with the business of Gaussian, Inc. or will provide
 assistance to any competitor of Gaussian, Inc.  The licensee
 of this program is prohibited from giving any competitor of
 Gaussian, Inc. access to this program.  By using this program,
 the user acknowledges that Gaussian, Inc. is engaged in the
 business of creating and licensing software in the field of
 computational chemistry and represents and warrants to the
 licensee that it is not a competitor of Gaussian, Inc. and that
 it will not use this program in any manner prohibited above.
 ---------------------------------------------------------------
  

 Cite this work as:
 Gaussian 16, Revision A.03,
 M. J. Frisch, G. W. Trucks, H. B. Schlegel, G. E. Scuseria, 
 M. A. Robb, J. R. Cheeseman, G. Scalmani, V. Barone, 
 G. A. Petersson, H. Nakatsuji, X. Li, M. Caricato, A. V. Marenich, 
 J. Bloino, B. G. Janesko, R. Gomperts, B. Mennucci, H. P. Hratchian, 
 J. V. Ortiz, A. F. Izmaylov, J. L. Sonnenberg, D. Williams-Young, 
 F. Ding, F. Lipparini, F. Egidi, J. Goings, B. Peng, A. Petrone, 
 T. Henderson, D. Ranasinghe, V. G. Zakrzewski, J. Gao, N. Rega, 
 G. Zheng, W. Liang, M. Hada, M. Ehara, K. Toyota, R. Fukuda, 
 J. Hasegawa, M. Ishida, T. Nakajima, Y. Honda, O. Kitao, H. Nakai, 
 T. Vreven, K. Throssell, J. A. Montgomery, Jr., J. E. Peralta, 
 F. Ogliaro, M. J. Bearpark, J. J. Heyd, E. N. Brothers, K. N. Kudin, 
 V. N. Staroverov, T. A. Keith, R. Kobayashi, J. Normand, 
 K. Raghavachari, A. P. Rendell, J. C. Burant, S. S. Iyengar, 
 J. Tomasi, M. Cossi, J. M. Millam, M. Klene, C. Adamo, R. Cammi, 
 J. W. Ochterski, R. L. Martin, K. Morokuma, O. Farkas, 
 J. B. Foresman, and D. J. Fox, Gaussian, Inc., Wallingford CT, 2016.
 
 ******************************************
 Gaussian 16:  ES64L-G16RevA.03 25-Dec-2016
                21-Sep-2019 
 ******************************************
 %nproc=4
 Will use up to    4 processors via shared memory.
 %Mem=4GB
 --------------------------
 # td=(NStates=1) B3LYP/SVP
 --------------------------
 1/38=1,172=1/1;
 2/12=2,17=6,18=5,40=1/2;
 3/5=18,7=101,11=9,25=1,30=1,74=-5/1,2,3,8;
 4//1;
 5/5=2,38=5/2;
 8/6=1,10=1,108=1/1;
 9/41=1,42=1,70=2/14;
 6/7=2,8=2,9=2,10=2/1;
 99/5=1,9=1/99;
 --
 TD
 --
 Symbolic Z-matrix:
 Charge =  0 Multiplicity = 1
 8                    -5.3982    0.22571  -3.29456 
 8                     3.01356   2.97728   3.15297 
 8                     3.34945   0.77961   3.04116 
 8                     1.65711  -7.22149   1.44599 
 8                     0.42083  -6.92006  -0.39283 
 8                     1.80336   3.94692  -0.10663 
 7                    -2.40881  -0.9135    0.72283 
 7                    -4.4085    0.62363  -1.22736 
 7                     1.87832  -0.68015  -0.40958 
 7                     2.72583   1.87815  -0.4426 
 6                    -4.82257   1.05167  -0.00633 
 6                    -4.53818   0.10899   1.30704 
 6                    -2.98961  -0.07097   1.46642 
 6                    -2.04688   0.55833   2.15596 
 6                    -0.68331   0.11433   1.82084 
 6                    -1.01084  -0.87129   0.73708 
 6                    -6.31633   1.20912  -0.12819 
 6                     0.53243   0.25897   2.47522 
 6                    -6.72558   0.79571  -1.41822 
 6                    -0.18362  -1.81627   0.11985 
 6                     1.09055  -1.76913  -0.33834 
 6                    -5.5141    0.47711  -2.10074 
 6                     1.96938  -2.89255  -0.91573 
 6                    -2.28473   1.76402   3.16227 
 6                    -7.18792   1.7745    0.95356 
 6                     3.11752  -2.27695  -1.40844 
 6                     1.13608   1.75567   2.52294 
 6                     3.09551  -0.86006  -1.19506 
 6                     1.56789  -4.32421  -0.99356 
 6                    -7.99244   0.67296  -2.00974 
 6                     1.9711   -5.15389   0.3539 
 6                     4.17992  -3.02216  -2.14174 
 6                     3.9833    0.10876  -1.25278 
 6                     2.61302   1.70262   2.89456 
 6                     3.80468   1.41418  -1.04143 
 6                    -9.20421   0.67523  -1.34989 
 6                     1.20527  -6.44957   0.3919 
 6                     4.68832   2.58199  -1.43806 
 6                     4.0597    3.77236  -1.01705 
 6                     2.76905   3.29163  -0.44004 
 6                     5.95075   2.4481   -2.06341 
 6                     4.45981   5.21244  -1.06557 
 6                     6.77435   3.44235  -2.41935 
 1                    -4.23477   2.0615    0.25083 
 1                    -5.16396  -0.66469   0.88014 
 1                    -4.88465   0.56084   2.13918 
 1                    -2.65566  -1.37802  -0.12192 
 1                    -3.50855   0.74733  -1.61804 
 1                     0.55123  -0.02984   3.70663 
 1                     1.29989  -0.23619   1.91224 
 1                    -0.696    -2.71383  -0.0151 
 1                    -3.37592   2.25718   3.05086 
 1                    -2.20265   1.45699   4.40711 
 1                    -1.53261   2.60849   2.79984 
 1                    -6.62377   2.41359   1.69045 
 1                    -7.70994   1.04267   1.46724 
 1                    -7.90906   2.41168   0.53437 
 1                     0.96361   2.03284   1.43541 
 1                     0.59479   2.45196   3.24078 
 1                     1.57591   0.20681  -0.08493 
 1                     2.16016  -4.7847   -1.9109 
 1                     0.48605  -4.55059  -1.18916 
 1                    -8.02924   0.43128  -3.01368 
 1                     1.69874  -4.49073   1.24957 
 1                     3.08862  -5.26619   0.48972 
 1                     3.87054  -3.87774  -2.56622 
 1                     5.22751  -3.24404  -1.57418 
 1                     4.38508  -2.49968  -3.12837 
 1                     4.79454  -0.16308  -1.94246 
 1                    -9.45201   0.81112  -0.24445 
 1                    -10.23253   0.73393  -1.86835 
 1                     3.94694   2.90853   3.49915 
 1                     6.23187   1.45089  -2.38106 
 1                     5.28067   5.47906  -0.18649 
 1                     4.62335   5.55609  -2.17989 
 1                     3.36498   5.79944  -0.83935 
 1                     0.72372  -7.92565   1.52898 
 1                     7.81602   3.19983  -2.48956 
 1                     6.34885   4.55421  -2.28802 
 
 Stoichiometry    C33H36N4O6
 Framework group  C1[X(C33H36N4O6)]
 Deg. of freedom   231
 Full point group                 C1      NOp   1
 Largest Abelian subgroup         C1      NOp   1
 Largest concise Abelian subgroup C1      NOp   1
                         Standard orientation:                         
 ---------------------------------------------------------------------
 Center     Atomic      Atomic             Coordinates (Angstroms)
 Number     Number       Type             X           Y           Z
 ---------------------------------------------------------------------
      1          8           0        5.367734   -0.325258   -3.328808
      2          8           0       -3.072010   -2.933772    3.141575
      3          8           0       -3.353374   -0.727330    3.054771
      4          8           0       -1.470516    7.245398    1.532722
      5          8           0       -0.253084    6.932634   -0.316755
      6          8           0       -1.905814   -3.898804   -0.135388
      7          7           0        2.431683    0.845745    0.718659
      8          7           0        4.380631   -0.720169   -1.259791
      9          7           0       -1.866578    0.731638   -0.389583
     10          7           0       -2.778120   -1.804186   -0.444047
     11          6           0        4.791071   -1.171322   -0.045881
     12          6           0        4.538182   -0.235784    1.278988
     13          6           0        2.995582   -0.018867    1.449813
     14          6           0        2.041477   -0.631663    2.138569
     15          6           0        0.687503   -0.150187    1.816543
     16          6           0        1.033198    0.838348    0.741111
     17          6           0        6.279673   -1.364768   -0.178607
     18          6           0       -0.527590   -0.271308    2.476880
     19          6           0        6.691507   -0.948089   -1.466761
     20          6           0        0.226290    1.810191    0.138910
     21          6           0       -1.051353    1.799766   -0.311857
     22          6           0        5.484371   -0.592095   -2.138413
     23          6           0       -1.905161    2.950856   -0.872052
     24          6           0        2.254990   -1.853506    3.130758
     25          6           0        7.143203   -1.963174    0.891772
     26          6           0       -3.071263    2.369397   -1.364050
     27          6           0       -1.168266   -1.752878    2.512717
     28          6           0       -3.083507    0.950228   -1.165603
     29          6           0       -1.468384    4.372774   -0.937428
     30          6           0        7.957512   -0.850794   -2.064795
     31          6           0       -1.842690    5.197965    0.421084
     32          6           0       -4.118983    3.148655   -2.082952
     33          6           0       -3.995627    0.004564   -1.227930
     34          6           0       -2.641188   -1.666853    2.893998
     35          6           0       -3.848537   -1.307073   -1.031319
     36          6           0        9.172732   -0.890340   -1.412513
     37          6           0       -1.044407    6.473626    0.467857
     38          6           0       -4.763494   -2.448173   -1.434637
     39          6           0       -4.162420   -3.658268   -1.029965
     40          6           0       -2.856736   -3.216085   -0.455966
     41          6           0       -6.025854   -2.276150   -2.050733
     42          6           0       -4.598783   -5.087300   -1.091025
     43          6           0       -6.876206   -3.245678   -2.411922
     44          1           0        4.179679   -2.168807    0.204365
     45          1           0        5.180616    0.526484    0.856324
     46          1           0        4.878135   -0.704934    2.104213
     47          1           0        2.685094    1.312858   -0.122708
     48          1           0        3.475572   -0.817188   -1.646165
     49          1           0       -0.531850    0.004833    3.711332
     50          1           0       -1.285722    0.248808    1.923853
     51          1           0        0.760189    2.696038    0.010163
     52          1           0        3.332792   -2.372578    3.007457
     53          1           0        2.188002   -1.557704    4.379215
     54          1           0        1.479804   -2.675029    2.764194
     55          1           0        6.567586   -2.595728    1.625432
     56          1           0        7.686438   -1.250108    1.409823
     57          1           0        7.845652   -2.613712    0.461508
     58          1           0       -1.009240   -2.022740    1.421314
     59          1           0       -0.640358   -2.470038    3.219896
     60          1           0       -1.584579   -0.165992   -0.076084
     61          1           0       -2.054352    4.857612   -1.846228
     62          1           0       -0.382387    4.574102   -1.137340
     63          1           0        7.994420   -0.599503   -3.066365
     64          1           0       -1.581734    4.518766    1.308087
     65          1           0       -2.956211    5.336731    0.564974
     66          1           0       -3.790775    4.000672   -2.500386
     67          1           0       -5.157303    3.390638   -1.506637
     68          1           0       -4.343009    2.641939   -3.073689
     69          1           0       -4.803869    0.303882   -1.909707
     70          1           0        9.423594   -1.044073   -0.310102
     71          1           0       10.196175   -0.969243   -1.937911
     72          1           0       -4.001306   -2.845377    3.494224
     73          1           0       -6.283768   -1.268916   -2.356217
     74          1           0       -5.420844   -5.342609   -0.209712
     75          1           0       -4.777484   -5.414948   -2.207838
     76          1           0       -3.517691   -5.703850   -0.877714
     77          1           0       -0.519292    7.925092    1.617274
     78          1           0       -7.911875   -2.976459   -2.473153
     79          1           0       -6.477935   -4.369156   -2.294837
 ---------------------------------------------------------------------
 Rotational constants (GHZ):           0.0751639           0.0444759           0.0344893
 Standard basis: SVP (5D, 7F)
 There are   825 symmetry adapted cartesian basis functions of A   symmetry.
 There are   782 symmetry adapted basis functions of A   symmetry.
   782 basis functions,  1327 primitive gaussians,   825 cartesian basis functions
   155 alpha electrons      155 beta electrons
       nuclear repulsion energy      4925.8626976491 Hartrees.
 NAtoms=   79 NActive=   79 NUniq=   79 SFac= 1.00D+00 NAtFMM=   60 NAOKFM=T Big=T
 Integral buffers will be    131072 words long.
 Regular integral format.
 Two-electron integral symmetry is turned on.
 One-electron integrals computed using PRISM.
 NBasis=   782 RedAO= T EigKep=  3.62D-04  NBF=   782
 NBsUse=   782 1.00D-06 EigRej= -1.00D+00 NBFU=   782
 ExpMin= 1.22D-01 ExpMax= 2.27D+03 ExpMxC= 3.41D+02 IAcc=3 IRadAn=         5 AccDes= 0.00D+00
 Harris functional with IExCor=  402 and IRadAn=       5 diagonalized for initial guess.
 HarFok:  IExCor=  402 AccDes= 0.00D+00 IRadAn=         5 IDoV= 1 UseB2=F ITyADJ=14
 ICtDFT=  3500011 ScaDFX=  1.000000  1.000000  1.000000  1.000000
 FoFCou: FMM=F IPFlag=           0 FMFlag=      100000 FMFlg1=        2001
         NFxFlg=           0 DoJE=T BraDBF=F KetDBF=T FulRan=T
         wScrn=  0.000000 ICntrl=       500 IOpCl=  0 I1Cent=   200000004 NGrid=           0
         NMat0=    1 NMatS0=      1 NMatT0=    0 NMatD0=    1 NMtDS0=    0 NMtDT0=    0
 Petite list used in FoFCou.
 Requested convergence on RMS density matrix=1.00D-08 within 128 cycles.
 Requested convergence on MAX density matrix=1.00D-06.
 Requested convergence on             energy=1.00D-06.
 No special actions if energy rises.
 Integral accuracy reduced to 1.0D-05 until final iterations.
 Initial convergence to 1.0D-05 achieved.  Increase integral accuracy.
 SCF Done:  E(RB3LYP) =  -1947.81447671     A.U. after   17 cycles
            NFock= 17  Conv=0.39D-08     -V/T= 2.0105
 DoSCS=F DFT=T ScalE2(SS,OS)=  1.000000  1.000000
 ExpMin= 1.22D-01 ExpMax= 2.27D+03 ExpMxC= 3.41D+02 IAcc=3 IRadAn=         5 AccDes= 0.00D+00
 HarFok:  IExCor=  205 AccDes= 0.00D+00 IRadAn=         5 IDoV=-2 UseB2=F ITyADJ=14
 ICtDFT= 12500011 ScaDFX=  1.000000  1.000000  1.000000  1.000000
 GSVD:  LWork=       -2193 too small for GESVD, short by        9890 words or        9890 for optimal perf.
 Range of M.O.s used for correlation:    44   782
 NBasis=   782 NAE=   155 NBE=   155 NFC=    43 NFV=     0
 NROrb=    739 NOA=   112 NOB=   112 NVA=   627 NVB=   627

 **** Warning!!: The smallest alpha delta epsilon is  0.76256374D-01

 Orbital symmetries:
       Occupied  (A) (A) (A) (A) (A) (A) (A) (A) (A) (A) (A) (A)
                 (A) (A) (A) (A) (A) (A) (A) (A) (A) (A) (A) (A)
                 (A) (A) (A) (A) (A) (A) (A) (A) (A) (A) (A) (A)
                 (A) (A) (A) (A) (A) (A) (A) (A) (A) (A) (A) (A)
                 (A) (A) (A) (A) (A) (A) (A) (A) (A) (A) (A) (A)
                 (A) (A) (A) (A) (A) (A) (A) (A) (A) (A) (A) (A)
                 (A) (A) (A) (A) (A) (A) (A) (A) (A) (A) (A) (A)
                 (A) (A) (A) (A) (A) (A) (A) (A) (A) (A) (A) (A)
                 (A) (A) (A) (A) (A) (A) (A) (A) (A) (A) (A) (A)
                 (A) (A) (A) (A) (A) (A) (A) (A) (A) (A) (A) (A)
                 (A) (A) (A) (A) (A) (A) (A) (A) (A) (A) (A) (A)
                 (A) (A) (A) (A) (A) (A) (A) (A) (A) (A) (A) (A)
                 (A) (A) (A) (A) (A) (A) (A) (A) (A) (A) (A)
       Virtual   (A) (A) (A) (A) (A) (A) (A) (A) (A) (A) (A) (A)
                 (A) (A) (A) (A) (A) (A) (A) (A) (A) (A) (A) (A)
                 (A) (A) (A) (A) (A) (A) (A) (A) (A) (A) (A) (A)
                 (A) (A) (A) (A) (A) (A) (A) (A) (A) (A) (A) (A)
                 (A) (A) (A) (A) (A) (A) (A) (A) (A) (A) (A) (A)
                 (A) (A) (A) (A) (A) (A) (A) (A) (A) (A) (A) (A)
                 (A) (A) (A) (A) (A) (A) (A) (A) (A) (A) (A) (A)
                 (A) (A) (A) (A) (A) (A) (A) (A) (A) (A) (A) (A)
                 (A) (A) (A) (A) (A) (A) (A) (A) (A) (A) (A) (A)
                 (A) (A) (A) (A) (A) (A) (A) (A) (A) (A) (A) (A)
                 (A) (A) (A) (A) (A) (A) (A) (A) (A) (A) (A) (A)
                 (A) (A) (A) (A) (A) (A) (A) (A) (A) (A) (A) (A)
                 (A) (A) (A) (A) (A) (A) (A) (A) (A) (A) (A) (A)
                 (A) (A) (A) (A) (A) (A) (A) (A) (A) (A) (A) (A)
                 (A) (A) (A) (A) (A) (A) (A) (A) (A) (A) (A) (A)
                 (A) (A) (A) (A) (A) (A) (A) (A) (A) (A) (A) (A)
                 (A) (A) (A) (A) (A) (A) (A) (A) (A) (A) (A) (A)
                 (A) (A) (A) (A) (A) (A) (A) (A) (A) (A) (A) (A)
                 (A) (A) (A) (A) (A) (A) (A) (A) (A) (A) (A) (A)
                 (A) (A) (A) (A) (A) (A) (A) (A) (A) (A) (A) (A)
                 (A) (A) (A) (A) (A) (A) (A) (A) (A) (A) (A) (A)
                 (A) (A) (A) (A) (A) (A) (A) (A) (A) (A) (A) (A)
                 (A) (A) (A) (A) (A) (A) (A) (A) (A) (A) (A) (A)
                 (A) (A) (A) (A) (A) (A) (A) (A) (A) (A) (A) (A)
                 (A) (A) (A) (A) (A) (A) (A) (A) (A) (A) (A) (A)
                 (A) (A) (A) (A) (A) (A) (A) (A) (A) (A) (A) (A)
                 (A) (A) (A) (A) (A) (A) (A) (A) (A) (A) (A) (A)
                 (A) (A) (A) (A) (A) (A) (A) (A) (A) (A) (A) (A)
                 (A) (A) (A) (A) (A) (A) (A) (A) (A) (A) (A) (A)
                 (A) (A) (A) (A) (A) (A) (A) (A) (A) (A) (A) (A)
                 (A) (A) (A) (A) (A) (A) (A) (A) (A) (A) (A) (A)
                 (A) (A) (A) (A) (A) (A) (A) (A) (A) (A) (A) (A)
                 (A) (A) (A) (A) (A) (A) (A) (A) (A) (A) (A) (A)
                 (A) (A) (A) (A) (A) (A) (A) (A) (A) (A) (A) (A)
                 (A) (A) (A) (A) (A) (A) (A) (A) (A) (A) (A) (A)
                 (A) (A) (A) (A) (A) (A) (A) (A) (A) (A) (A) (A)
                 (A) (A) (A) (A) (A) (A) (A) (A) (A) (A) (A) (A)
                 (A) (A) (A) (A) (A) (A) (A) (A) (A) (A) (A) (A)
                 (A) (A) (A) (A) (A) (A) (A) (A) (A) (A) (A) (A)
                 (A) (A) (A) (A) (A) (A) (A) (A) (A) (A) (A) (A)
                 (A) (A) (A) (A) (A) (A) (A) (A) (A) (A) (A) (A)
                 (A) (A) (A) (A) (A) (A) (A) (A) (A) (A) (A) (A)
                 (A) (A) (A) (A) (A) (A) (A) (A) (A) (A) (A) (A)
                 (A) (A) (A) (A) (A) (A) (A) (A) (A) (A) (A) (A)
                 (A) (A) (A) (A) (A) (A) (A) (A) (A) (A) (A) (A)
                 (A) (A) (A) (A) (A) (A) (A) (A) (A) (A) (A) (A)
                 (A) (A) (A) (A) (A) (A) (A) (A) (A) (A) (A) (A)
                 (A) (A) (A) (A) (A) (A) (A) (A) (A) (A) (A) (A)
                 (A) (A) (A) (A) (A) (A) (A) (A) (A) (A) (A) (A)
                 (A) (A) (A) (A) (A) (A) (A) (A) (A) (A) (A) (A)
                 (A) (A) (A) (A) (A) (A) (A) (A) (A) (A) (A) (A)
                 (A) (A) (A) (A) (A) (A) (A) (A) (A) (A) (A) (A)
                 (A) (A) (A)
     4 initial guesses have been made.
 Convergence on wavefunction:    0.001000000000000
 Iteration     1 Dimension     4 NMult     0 NNew      4
 CISAX will form     4 AO SS matrices at one time.
 Iteration     2 Dimension     6 NMult     4 NNew      2
 Iteration     3 Dimension     8 NMult     6 NNew      2
 Iteration     4 Dimension    10 NMult     8 NNew      2
 Iteration     5 Dimension    12 NMult    10 NNew      2
 Iteration     6 Dimension    14 NMult    12 NNew      2
 Iteration     7 Dimension    16 NMult    14 NNew      2
 Iteration     8 Dimension    18 NMult    16 NNew      2
 ***********************************************************************
 Excited states from <AA,BB:AA,BB> singles matrix:
 ***********************************************************************
 
 Ground to excited state transition densities written to RWF  633
 Ground to excited state transition electric dipole moments (Au):
       state          X           Y           Z        Dip. S.      Osc.
         1         2.5724      1.0366      0.9944      8.6806      0.4137
 Ground to excited state transition velocity dipole moments (Au):
       state          X           Y           Z        Dip. S.      Osc.
         1        -0.1787     -0.0669     -0.0699      0.0413      0.3850
 Ground to excited state transition magnetic dipole moments (Au):
       state          X           Y           Z
         1        -0.6849      0.1311      1.4314
 Ground to excited state transition velocity quadrupole moments (Au):
       state          XX          YY          ZZ          XY          XZ          YZ
         1         0.4829      0.4365     -0.1319      0.6826      0.4060      0.2344
 <0|del|b> * <b|rxdel|0> + <0|del|b> * <b|delr+rdel|0>
 Rotatory Strengths (R) in cgs (10**-40 erg-esu-cm/Gauss)
       state          XX          YY          ZZ    R(velocity)    E-M Angle
         1      -639.5065    139.3292    634.6984     44.8404       87.59
 1/2[<0|r|b>*<b|rxdel|0> + (<0|rxdel|b>*<b|r|0>)*]
 Rotatory Strengths (R) in cgs (10**-40 erg-esu-cm/Gauss)
       state          XX          YY          ZZ     R(length)
         1      1245.8706    -96.0864  -1006.5388     47.7485
  1/2[<0|del|b>*<b|r|0> + (<0|r|b>*<b|del|0>)*] (Au)
       state          X           Y           Z        Dip. S.   Osc.(frdel)
         1        -0.4597     -0.0694     -0.0695      0.5985      0.3990

 Excitation energies and oscillator strengths:
 
 Excited State   1:      Singlet-A      1.9455 eV  637.29 nm  f=0.4137  <S**2>=0.000
     154 ->156         0.11560
     155 ->156         0.69642
     155 <-156        -0.11863
 This state for optimization and/or second-order correction.
 Total Energy, E(TD-HF/TD-DFT) =  -1947.74298156    
 Copying the excited state density for this state as the 1-particle RhoCI density.
 SavETr:  write IOETrn=   770 NScale= 10 NData=  16 NLR=1 NState=    1 LETran=      28.

 **********************************************************************

            Population analysis using the SCF density.

 **********************************************************************

 Orbital symmetries:
       Occupied  (A) (A) (A) (A) (A) (A) (A) (A) (A) (A) (A) (A)
                 (A) (A) (A) (A) (A) (A) (A) (A) (A) (A) (A) (A)
                 (A) (A) (A) (A) (A) (A) (A) (A) (A) (A) (A) (A)
                 (A) (A) (A) (A) (A) (A) (A) (A) (A) (A) (A) (A)
                 (A) (A) (A) (A) (A) (A) (A) (A) (A) (A) (A) (A)
                 (A) (A) (A) (A) (A) (A) (A) (A) (A) (A) (A) (A)
                 (A) (A) (A) (A) (A) (A) (A) (A) (A) (A) (A) (A)
                 (A) (A) (A) (A) (A) (A) (A) (A) (A) (A) (A) (A)
                 (A) (A) (A) (A) (A) (A) (A) (A) (A) (A) (A) (A)
                 (A) (A) (A) (A) (A) (A) (A) (A) (A) (A) (A) (A)
                 (A) (A) (A) (A) (A) (A) (A) (A) (A) (A) (A) (A)
                 (A) (A) (A) (A) (A) (A) (A) (A) (A) (A) (A) (A)
                 (A) (A) (A) (A) (A) (A) (A) (A) (A) (A) (A)
       Virtual   (A) (A) (A) (A) (A) (A) (A) (A) (A) (A) (A) (A)
                 (A) (A) (A) (A) (A) (A) (A) (A) (A) (A) (A) (A)
                 (A) (A) (A) (A) (A) (A) (A) (A) (A) (A) (A) (A)
                 (A) (A) (A) (A) (A) (A) (A) (A) (A) (A) (A) (A)
                 (A) (A) (A) (A) (A) (A) (A) (A) (A) (A) (A) (A)
                 (A) (A) (A) (A) (A) (A) (A) (A) (A) (A) (A) (A)
                 (A) (A) (A) (A) (A) (A) (A) (A) (A) (A) (A) (A)
                 (A) (A) (A) (A) (A) (A) (A) (A) (A) (A) (A) (A)
                 (A) (A) (A) (A) (A) (A) (A) (A) (A) (A) (A) (A)
                 (A) (A) (A) (A) (A) (A) (A) (A) (A) (A) (A) (A)
                 (A) (A) (A) (A) (A) (A) (A) (A) (A) (A) (A) (A)
                 (A) (A) (A) (A) (A) (A) (A) (A) (A) (A) (A) (A)
                 (A) (A) (A) (A) (A) (A) (A) (A) (A) (A) (A) (A)
                 (A) (A) (A) (A) (A) (A) (A) (A) (A) (A) (A) (A)
                 (A) (A) (A) (A) (A) (A) (A) (A) (A) (A) (A) (A)
                 (A) (A) (A) (A) (A) (A) (A) (A) (A) (A) (A) (A)
                 (A) (A) (A) (A) (A) (A) (A) (A) (A) (A) (A) (A)
                 (A) (A) (A) (A) (A) (A) (A) (A) (A) (A) (A) (A)
                 (A) (A) (A) (A) (A) (A) (A) (A) (A) (A) (A) (A)
                 (A) (A) (A) (A) (A) (A) (A) (A) (A) (A) (A) (A)
                 (A) (A) (A) (A) (A) (A) (A) (A) (A) (A) (A) (A)
                 (A) (A) (A) (A) (A) (A) (A) (A) (A) (A) (A) (A)
                 (A) (A) (A) (A) (A) (A) (A) (A) (A) (A) (A) (A)
                 (A) (A) (A) (A) (A) (A) (A) (A) (A) (A) (A) (A)
                 (A) (A) (A) (A) (A) (A) (A) (A) (A) (A) (A) (A)
                 (A) (A) (A) (A) (A) (A) (A) (A) (A) (A) (A) (A)
                 (A) (A) (A) (A) (A) (A) (A) (A) (A) (A) (A) (A)
                 (A) (A) (A) (A) (A) (A) (A) (A) (A) (A) (A) (A)
                 (A) (A) (A) (A) (A) (A) (A) (A) (A) (A) (A) (A)
                 (A) (A) (A) (A) (A) (A) (A) (A) (A) (A) (A) (A)
                 (A) (A) (A) (A) (A) (A) (A) (A) (A) (A) (A) (A)
                 (A) (A) (A) (A) (A) (A) (A) (A) (A) (A) (A) (A)
                 (A) (A) (A) (A) (A) (A) (A) (A) (A) (A) (A) (A)
                 (A) (A) (A) (A) (A) (A) (A) (A) (A) (A) (A) (A)
                 (A) (A) (A) (A) (A) (A) (A) (A) (A) (A) (A) (A)
                 (A) (A) (A) (A) (A) (A) (A) (A) (A) (A) (A) (A)
                 (A) (A) (A) (A) (A) (A) (A) (A) (A) (A) (A) (A)
                 (A) (A) (A) (A) (A) (A) (A) (A) (A) (A) (A) (A)
                 (A) (A) (A) (A) (A) (A) (A) (A) (A) (A) (A) (A)
                 (A) (A) (A) (A) (A) (A) (A) (A) (A) (A) (A) (A)
                 (A) (A) (A) (A) (A) (A) (A) (A) (A) (A) (A) (A)
                 (A) (A) (A) (A) (A) (A) (A) (A) (A) (A) (A) (A)
                 (A) (A) (A) (A) (A) (A) (A) (A) (A) (A) (A) (A)
                 (A) (A) (A) (A) (A) (A) (A) (A) (A) (A) (A) (A)
                 (A) (A) (A) (A) (A) (A) (A) (A) (A) (A) (A) (A)
                 (A) (A) (A) (A) (A) (A) (A) (A) (A) (A) (A) (A)
                 (A) (A) (A) (A) (A) (A) (A) (A) (A) (A) (A) (A)
                 (A) (A) (A) (A) (A) (A) (A) (A) (A) (A) (A) (A)
                 (A) (A) (A) (A) (A) (A) (A) (A) (A) (A) (A) (A)
                 (A) (A) (A) (A) (A) (A) (A) (A) (A) (A) (A) (A)
                 (A) (A) (A) (A) (A) (A) (A) (A) (A) (A) (A) (A)
                 (A) (A) (A) (A) (A) (A) (A) (A) (A) (A) (A) (A)
                 (A) (A) (A)
 The electronic state is 1-A.
 Alpha  occ. eigenvalues --  -19.18741 -19.16302 -19.14235 -19.11764 -19.10424
 Alpha  occ. eigenvalues --  -19.10087 -14.38339 -14.35647 -14.35505 -14.28453
 Alpha  occ. eigenvalues --  -10.32955 -10.30528 -10.28478 -10.26108 -10.25738
 Alpha  occ. eigenvalues --  -10.24601 -10.24083 -10.23361 -10.23092 -10.23074
 Alpha  occ. eigenvalues --  -10.23066 -10.22658 -10.22552 -10.22547 -10.22089
 Alpha  occ. eigenvalues --  -10.22084 -10.21982 -10.21555 -10.21279 -10.20773
 Alpha  occ. eigenvalues --  -10.20730 -10.20640 -10.20552 -10.20500 -10.20352
 Alpha  occ. eigenvalues --  -10.19977 -10.19915 -10.19846 -10.19606 -10.19548
 Alpha  occ. eigenvalues --  -10.19429 -10.19122 -10.18105  -1.08930  -1.08314
 Alpha  occ. eigenvalues --   -1.02853  -1.01620  -1.01610  -0.99395  -0.99383
 Alpha  occ. eigenvalues --   -0.97199  -0.95834  -0.91941  -0.83348  -0.83056
 Alpha  occ. eigenvalues --   -0.81988  -0.81133  -0.80636  -0.80122  -0.78152
 Alpha  occ. eigenvalues --   -0.77447  -0.76169  -0.75416  -0.74593  -0.73086
 Alpha  occ. eigenvalues --   -0.72378  -0.70843  -0.69469  -0.68411  -0.68136
 Alpha  occ. eigenvalues --   -0.67091  -0.66037  -0.64665  -0.62524  -0.61047
 Alpha  occ. eigenvalues --   -0.58967  -0.58589  -0.57957  -0.57061  -0.56811
 Alpha  occ. eigenvalues --   -0.56180  -0.55444  -0.55032  -0.54767  -0.53891
 Alpha  occ. eigenvalues --   -0.52568  -0.52043  -0.51524  -0.50382  -0.49870
 Alpha  occ. eigenvalues --   -0.49151  -0.48903  -0.48361  -0.47999  -0.47842
 Alpha  occ. eigenvalues --   -0.47605  -0.46900  -0.46663  -0.46120  -0.45540
 Alpha  occ. eigenvalues --   -0.45139  -0.44873  -0.44656  -0.44174  -0.43663
 Alpha  occ. eigenvalues --   -0.43533  -0.43395  -0.43225  -0.42819  -0.42630
 Alpha  occ. eigenvalues --   -0.42171  -0.41727  -0.41601  -0.41250  -0.40966
 Alpha  occ. eigenvalues --   -0.40786  -0.40470  -0.40408  -0.39991  -0.39458
 Alpha  occ. eigenvalues --   -0.39359  -0.39117  -0.38852  -0.38658  -0.38424
 Alpha  occ. eigenvalues --   -0.37770  -0.37536  -0.37395  -0.37280  -0.36809
 Alpha  occ. eigenvalues --   -0.36632  -0.35969  -0.35430  -0.35188  -0.34840
 Alpha  occ. eigenvalues --   -0.33439  -0.33042  -0.32538  -0.32430  -0.32326
 Alpha  occ. eigenvalues --   -0.31388  -0.31084  -0.29563  -0.29014  -0.27328
 Alpha  occ. eigenvalues --   -0.26740  -0.26358  -0.25896  -0.25563  -0.24624
 Alpha  occ. eigenvalues --   -0.24165  -0.23847  -0.23765  -0.21805  -0.18752
 Alpha virt. eigenvalues --   -0.11126  -0.07683  -0.06784  -0.02072  -0.01004
 Alpha virt. eigenvalues --   -0.00347  -0.00051   0.01044   0.01786   0.02118
 Alpha virt. eigenvalues --    0.03657   0.03885   0.04472   0.05177   0.05306
 Alpha virt. eigenvalues --    0.05373   0.06150   0.06240   0.06713   0.07261
 Alpha virt. eigenvalues --    0.07638   0.07871   0.08154   0.08316   0.08812
 Alpha virt. eigenvalues --    0.09103   0.09478   0.09563   0.09628   0.10194
 Alpha virt. eigenvalues --    0.10615   0.11002   0.11551   0.11928   0.12250
 Alpha virt. eigenvalues --    0.12356   0.12602   0.12808   0.13153   0.13945
 Alpha virt. eigenvalues --    0.14522   0.14781   0.15196   0.15345   0.15622
 Alpha virt. eigenvalues --    0.15807   0.16079   0.16440   0.16731   0.17340
 Alpha virt. eigenvalues --    0.17613   0.18039   0.19365   0.19808   0.20307
 Alpha virt. eigenvalues --    0.21281   0.21336   0.21435   0.21751   0.22298
 Alpha virt. eigenvalues --    0.22723   0.22961   0.23340   0.23698   0.24106
 Alpha virt. eigenvalues --    0.24683   0.25065   0.26121   0.26450   0.26469
 Alpha virt. eigenvalues --    0.27322   0.27503   0.27779   0.28458   0.29443
 Alpha virt. eigenvalues --    0.29690   0.29942   0.30220   0.30458   0.30801
 Alpha virt. eigenvalues --    0.31297   0.32476   0.33175   0.33640   0.34225
 Alpha virt. eigenvalues --    0.34501   0.35255   0.35592   0.35959   0.36809
 Alpha virt. eigenvalues --    0.37044   0.37605   0.37919   0.38686   0.39328
 Alpha virt. eigenvalues --    0.39583   0.40126   0.40726   0.41150   0.41996
 Alpha virt. eigenvalues --    0.42118   0.42361   0.42728   0.42968   0.43467
 Alpha virt. eigenvalues --    0.44409   0.44545   0.44700   0.45088   0.45411
 Alpha virt. eigenvalues --    0.45581   0.45846   0.46221   0.46516   0.46980
 Alpha virt. eigenvalues --    0.47045   0.47311   0.47873   0.48255   0.48680
 Alpha virt. eigenvalues --    0.48781   0.48974   0.49135   0.49386   0.49464
 Alpha virt. eigenvalues --    0.49728   0.50638   0.50808   0.51041   0.51257
 Alpha virt. eigenvalues --    0.51597   0.52019   0.52824   0.53345   0.53684
 Alpha virt. eigenvalues --    0.54056   0.54168   0.54640   0.55018   0.55221
 Alpha virt. eigenvalues --    0.55514   0.56107   0.56229   0.56733   0.56997
 Alpha virt. eigenvalues --    0.57318   0.57589   0.58293   0.58424   0.58650
 Alpha virt. eigenvalues --    0.59235   0.59383   0.59542   0.59726   0.60021
 Alpha virt. eigenvalues --    0.60302   0.60840   0.60923   0.61120   0.61567
 Alpha virt. eigenvalues --    0.61614   0.62177   0.62205   0.62502   0.63209
 Alpha virt. eigenvalues --    0.63324   0.63430   0.63893   0.64458   0.64890
 Alpha virt. eigenvalues --    0.64993   0.65002   0.65272   0.65578   0.65656
 Alpha virt. eigenvalues --    0.65889   0.66114   0.66591   0.66689   0.67073
 Alpha virt. eigenvalues --    0.67177   0.67381   0.67640   0.67820   0.68100
 Alpha virt. eigenvalues --    0.68581   0.68680   0.68974   0.69146   0.69431
 Alpha virt. eigenvalues --    0.69845   0.70037   0.70137   0.70489   0.70894
 Alpha virt. eigenvalues --    0.71069   0.71345   0.71648   0.72461   0.72704
 Alpha virt. eigenvalues --    0.73165   0.73463   0.73676   0.74277   0.74516
 Alpha virt. eigenvalues --    0.74755   0.75220   0.75391   0.75818   0.76183
 Alpha virt. eigenvalues --    0.76706   0.77199   0.77252   0.77978   0.78451
 Alpha virt. eigenvalues --    0.79221   0.79709   0.80265   0.80587   0.81191
 Alpha virt. eigenvalues --    0.81846   0.82158   0.82296   0.83032   0.83698
 Alpha virt. eigenvalues --    0.84389   0.84708   0.85466   0.85635   0.86027
 Alpha virt. eigenvalues --    0.86721   0.87151   0.87670   0.88434   0.88707
 Alpha virt. eigenvalues --    0.89830   0.90734   0.91092   0.92162   0.92302
 Alpha virt. eigenvalues --    0.93356   0.93728   0.94196   0.95172   0.95815
 Alpha virt. eigenvalues --    0.96296   0.96885   0.97057   0.97642   0.97900
 Alpha virt. eigenvalues --    0.98532   0.98867   0.99269   1.00092   1.00884
 Alpha virt. eigenvalues --    1.01941   1.02245   1.03312   1.04980   1.05262
 Alpha virt. eigenvalues --    1.05803   1.06550   1.06997   1.07638   1.07947
 Alpha virt. eigenvalues --    1.08871   1.09508   1.10051   1.10184   1.11240
 Alpha virt. eigenvalues --    1.11711   1.13384   1.14123   1.14250   1.14699
 Alpha virt. eigenvalues --    1.15764   1.16353   1.16855   1.17509   1.18398
 Alpha virt. eigenvalues --    1.19211   1.19740   1.20116   1.20731   1.21260
 Alpha virt. eigenvalues --    1.21889   1.22572   1.23031   1.23730   1.24125
 Alpha virt. eigenvalues --    1.24541   1.25177   1.25485   1.26125   1.26768
 Alpha virt. eigenvalues --    1.26983   1.28235   1.28474   1.28787   1.29384
 Alpha virt. eigenvalues --    1.30823   1.31250   1.31945   1.32645   1.33293
 Alpha virt. eigenvalues --    1.33710   1.34392   1.35574   1.36100   1.37400
 Alpha virt. eigenvalues --    1.37875   1.38566   1.40090   1.40314   1.40460
 Alpha virt. eigenvalues --    1.41175   1.42410   1.42632   1.43811   1.44041
 Alpha virt. eigenvalues --    1.44199   1.45264   1.46130   1.46597   1.47685
 Alpha virt. eigenvalues --    1.47805   1.48612   1.49062   1.50028   1.50946
 Alpha virt. eigenvalues --    1.51025   1.52599   1.52946   1.53508   1.53780
 Alpha virt. eigenvalues --    1.53977   1.54546   1.54929   1.55776   1.56072
 Alpha virt. eigenvalues --    1.56724   1.56938   1.58246   1.58718   1.59345
 Alpha virt. eigenvalues --    1.59963   1.60459   1.60630   1.61179   1.62194
 Alpha virt. eigenvalues --    1.62265   1.62607   1.62666   1.63179   1.63471
 Alpha virt. eigenvalues --    1.63648   1.64303   1.64833   1.65180   1.65472
 Alpha virt. eigenvalues --    1.65956   1.66736   1.66945   1.67460   1.67758
 Alpha virt. eigenvalues --    1.67825   1.68207   1.69174   1.69672   1.70101
 Alpha virt. eigenvalues --    1.70583   1.70732   1.71177   1.71394   1.71688
 Alpha virt. eigenvalues --    1.72529   1.72602   1.73085   1.73745   1.74706
 Alpha virt. eigenvalues --    1.74779   1.74999   1.75534   1.75757   1.76085
 Alpha virt. eigenvalues --    1.77088   1.77805   1.77903   1.78250   1.78578
 Alpha virt. eigenvalues --    1.78807   1.79344   1.79726   1.80232   1.80515
 Alpha virt. eigenvalues --    1.80578   1.81333   1.81972   1.82590   1.82838
 Alpha virt. eigenvalues --    1.83109   1.83645   1.83899   1.83986   1.84940
 Alpha virt. eigenvalues --    1.85282   1.85602   1.86152   1.86794   1.86893
 Alpha virt. eigenvalues --    1.87374   1.87737   1.88716   1.89137   1.89622
 Alpha virt. eigenvalues --    1.89773   1.90417   1.91026   1.91437   1.91736
 Alpha virt. eigenvalues --    1.91814   1.91848   1.92513   1.92747   1.93179
 Alpha virt. eigenvalues --    1.93924   1.94724   1.94997   1.95477   1.96645
 Alpha virt. eigenvalues --    1.97143   1.97711   1.97982   1.98531   1.98999
 Alpha virt. eigenvalues --    1.99435   1.99972   2.00652   2.00767   2.01238
 Alpha virt. eigenvalues --    2.01548   2.02193   2.03222   2.03355   2.03872
 Alpha virt. eigenvalues --    2.04498   2.04903   2.05187   2.06066   2.06837
 Alpha virt. eigenvalues --    2.07390   2.07869   2.08140   2.08465   2.09507
 Alpha virt. eigenvalues --    2.10288   2.10512   2.10982   2.11566   2.11738
 Alpha virt. eigenvalues --    2.12089   2.12575   2.13925   2.14587   2.14895
 Alpha virt. eigenvalues --    2.15267   2.15813   2.16389   2.16563   2.17673
 Alpha virt. eigenvalues --    2.17827   2.18689   2.18932   2.19396   2.20354
 Alpha virt. eigenvalues --    2.20690   2.21591   2.22210   2.24503   2.25195
 Alpha virt. eigenvalues --    2.25777   2.26033   2.26363   2.28153   2.28475
 Alpha virt. eigenvalues --    2.29000   2.29139   2.29398   2.30979   2.31481
 Alpha virt. eigenvalues --    2.31676   2.32744   2.33327   2.33439   2.34028
 Alpha virt. eigenvalues --    2.34685   2.35879   2.36883   2.37273   2.37899
 Alpha virt. eigenvalues --    2.38191   2.38519   2.39856   2.40325   2.41444
 Alpha virt. eigenvalues --    2.42017   2.42433   2.43959   2.44208   2.44565
 Alpha virt. eigenvalues --    2.44909   2.45702   2.46790   2.47242   2.48027
 Alpha virt. eigenvalues --    2.49000   2.50018   2.50759   2.52026   2.52690
 Alpha virt. eigenvalues --    2.53063   2.54415   2.54488   2.56292   2.56951
 Alpha virt. eigenvalues --    2.57470   2.58941   2.59359   2.59710   2.60295
 Alpha virt. eigenvalues --    2.61315   2.62173   2.62631   2.62905   2.64066
 Alpha virt. eigenvalues --    2.64669   2.65085   2.65992   2.66455   2.67230
 Alpha virt. eigenvalues --    2.68129   2.69033   2.69513   2.69704   2.70270
 Alpha virt. eigenvalues --    2.71169   2.71834   2.73084   2.73509   2.73749
 Alpha virt. eigenvalues --    2.74032   2.74538   2.74708   2.75561   2.76248
 Alpha virt. eigenvalues --    2.77033   2.78866   2.79633   2.79838   2.80159
 Alpha virt. eigenvalues --    2.80958   2.81230   2.82136   2.83073   2.83274
 Alpha virt. eigenvalues --    2.84020   2.85242   2.85754   2.86987   2.87139
 Alpha virt. eigenvalues --    2.88155   2.89145   2.89225   2.89639   2.90852
 Alpha virt. eigenvalues --    2.91566   2.91992   2.92531   2.93081   2.94196
 Alpha virt. eigenvalues --    2.95315   2.95874   2.97750   2.98557   2.99553
 Alpha virt. eigenvalues --    2.99662   3.01094   3.01448   3.02020   3.03645
 Alpha virt. eigenvalues --    3.04038   3.07130   3.08256   3.09006   3.09178
 Alpha virt. eigenvalues --    3.09764   3.11089   3.15279   3.15726   3.16027
 Alpha virt. eigenvalues --    3.16123   3.18606   3.18997   3.19378   3.19812
 Alpha virt. eigenvalues --    3.20501   3.23187   3.23370   3.29625   3.29796
 Alpha virt. eigenvalues --    3.34737   3.36955   3.38538   3.40923   3.42514
 Alpha virt. eigenvalues --    3.53976   3.54617   3.55572   3.56340   3.59642
 Alpha virt. eigenvalues --    3.60469   3.62756   3.62986   3.66252   3.67034
 Alpha virt. eigenvalues --    3.67370   3.76490
          Condensed to atoms (all electrons):
 Mulliken charges:
               1
     1  O   -0.226759
     2  O   -0.208386
     3  O   -0.207372
     4  O   -0.293650
     5  O   -0.215126
     6  O   -0.190770
     7  N    0.039914
     8  N   -0.135473
     9  N   -0.108825
    10  N   -0.272857
    11  C    0.000330
    12  C    0.255122
    13  C   -0.091004
    14  C   -0.140435
    15  C   -0.029686
    16  C   -0.003056
    17  C   -0.197747
    18  C    0.033910
    19  C    0.033316
    20  C   -0.081160
    21  C    0.090404
    22  C    0.116379
    23  C   -0.055652
    24  C   -0.063917
    25  C    0.137770
    26  C   -0.100888
    27  C   -0.095265
    28  C    0.132158
    29  C    0.021556
    30  C    0.026082
    31  C   -0.043080
    32  C    0.097014
    33  C   -0.070693
    34  C    0.154255
    35  C    0.090174
    36  C   -0.097834
    37  C    0.173475
    38  C    0.080424
    39  C   -0.184072
    40  C    0.146429
    41  C   -0.061505
    42  C   -0.045345
    43  C   -0.032897
    44  H    0.031627
    45  H   -0.005215
    46  H   -0.034670
    47  H    0.106377
    48  H    0.120970
    49  H    0.042045
    50  H    0.002531
    51  H   -0.047942
    52  H    0.019500
    53  H    0.050907
    54  H    0.069199
    55  H    0.022227
    56  H    0.021113
    57  H    0.020518
    58  H    0.093144
    59  H    0.053771
    60  H    0.118663
    61  H    0.037139
    62  H    0.043045
    63  H   -0.013396
    64  H    0.064376
    65  H    0.063367
    66  H   -0.039322
    67  H    0.055343
    68  H    0.019430
    69  H   -0.024228
    70  H    0.026706
    71  H    0.041716
    72  H    0.179752
    73  H   -0.020802
    74  H    0.078445
    75  H    0.063857
    76  H    0.055067
    77  H    0.246111
    78  H    0.024376
    79  H    0.038994
 Sum of Mulliken charges =  -0.00000
 Mulliken charges with hydrogens summed into heavy atoms:
               1
     1  O   -0.226759
     2  O   -0.028634
     3  O   -0.207372
     4  O   -0.047539
     5  O   -0.215126
     6  O   -0.190770
     7  N    0.146291
     8  N   -0.014503
     9  N    0.009837
    10  N   -0.272857
    11  C    0.031957
    12  C    0.215237
    13  C   -0.091004
    14  C   -0.140435
    15  C   -0.029686
    16  C   -0.003056
    17  C   -0.197747
    18  C    0.078486
    19  C    0.033316
    20  C   -0.129102
    21  C    0.090404
    22  C    0.116379
    23  C   -0.055652
    24  C    0.075690
    25  C    0.201629
    26  C   -0.100888
    27  C    0.051649
    28  C    0.132158
    29  C    0.101739
    30  C    0.012685
    31  C    0.084663
    32  C    0.132464
    33  C   -0.094920
    34  C    0.154255
    35  C    0.090174
    36  C   -0.029412
    37  C    0.173475
    38  C    0.080424
    39  C   -0.184072
    40  C    0.146429
    41  C   -0.082307
    42  C    0.152024
    43  C    0.030474
 Electronic spatial extent (au):  <R**2>=          32239.2441
 Charge=              0.0000 electrons
 Dipole moment (field-independent basis, Debye):
    X=              1.4602    Y=              1.6857    Z=              2.7353  Tot=              3.5293
 Quadrupole moment (field-independent basis, Debye-Ang):
   XX=           -214.2397   YY=           -255.2049   ZZ=           -263.3014
   XY=             -6.6813   XZ=             31.3004   YZ=             -0.5861
 Traceless Quadrupole moment (field-independent basis, Debye-Ang):
   XX=             30.0089   YY=            -10.9562   ZZ=            -19.0527
   XY=             -6.6813   XZ=             31.3004   YZ=             -0.5861
 Octapole moment (field-independent basis, Debye-Ang**2):
  XXX=            100.3300  YYY=             60.2731  ZZZ=             86.2367  XYY=            -20.6704
  XXY=            -93.2336  XXZ=             83.8139  XZZ=            -76.2503  YZZ=             -2.1450
  YYZ=             59.9955  XYZ=             29.4331
 Hexadecapole moment (field-independent basis, Debye-Ang**3):
 XXXX=         -23093.4190 YYYY=         -12747.2212 ZZZZ=          -4855.0758 XXXY=           -311.6809
 XXXZ=            499.1659 YYYX=            247.0419 YYYZ=            565.2780 ZZZX=             40.6315
 ZZZY=           -151.3970 XXYY=          -6188.3693 XXZZ=          -5386.9690 YYZZ=          -2815.3857
 XXYZ=           -251.4338 YYXZ=            116.6960 ZZXY=             67.1329
 N-N= 4.925862697649D+03 E-N=-1.438040831792D+04  KE= 1.927513426167D+03
 1\1\GINC-PADAWAN\SP\RB3LYP TD-FC\SVP\C33H36N4O6\PADAWAN\21-Sep-2019\0\
 \# td=(NStates=1) B3LYP/SVP\\TD\\0,1\O,0,-5.3981960496,0.2257080104,-3
 .2945592456\O,0,3.0135613616,2.9772849832,3.1529713755\O,0,3.349453293
 9,0.7796133603,3.0411560007\O,0,1.6571133508,-7.2214884189,1.445993105
 6\O,0,0.4208269707,-6.9200584294,-0.3928272656\O,0,1.8033573838,3.9469
 178146,-0.1066311557\N,0,-2.4088104921,-0.9134997802,0.7228292995\N,0,
 -4.408495731,0.6236300295,-1.2273610909\N,0,1.8783182234,-0.680149588,
 -0.4095794355\N,0,2.7258281247,1.8781535609,-0.4426010068\C,0,-4.82256
 86481,1.0516666637,-0.0063348337\C,0,-4.5381812109,0.1089910644,1.3070
 380615\C,0,-2.989614057,-0.07096684,1.4664186549\C,0,-2.0468837851,0.5
 583307903,2.1559587655\C,0,-0.6833149418,0.1143259971,1.8208427619\C,0
 ,-1.0108352713,-0.8712901879,0.737075527\C,0,-6.3163339895,1.209118701
 2,-0.1281880342\C,0,0.5324318498,0.2589665732,2.4752165418\C,0,-6.7255
 830728,0.7957088193,-1.4182175505\C,0,-0.1836246186,-1.8162703639,0.11
 98540669\C,0,1.0905459508,-1.7691264592,-0.3383354157\C,0,-5.514102010
 5,0.4771059253,-2.1007373852\C,0,1.9693810233,-2.8925497934,-0.9157285
 822\C,0,-2.2847341743,1.7640221591,3.1622706173\C,0,-7.1879162848,1.77
 44955788,0.9535593418\C,0,3.1175180855,-2.276947646,-1.4084420893\C,0,
 1.1360796353,1.7556740608,2.5229359295\C,0,3.0955076261,-0.8600646321,
 -1.1950634945\C,0,1.5678905593,-4.3242083852,-0.993561073\C,0,-7.99243
 51495,0.6729589335,-2.0097393617\C,0,1.9711046761,-5.1538863232,0.3539
 013856\C,0,4.1799236014,-3.0221606849,-2.1417434056\C,0,3.9832992005,0
 .1087602795,-1.2527799604\C,0,2.6130219234,1.70261785,2.8945553554\C,0
 ,3.8046848463,1.4141768292,-1.0414307104\C,0,-9.2042054039,0.675229683
 3,-1.3498898043\C,0,1.2052655913,-6.4495716074,0.3918978488\C,0,4.6883
 176664,2.5819949544,-1.4380608892\C,0,4.0596952379,3.7723577595,-1.017
 0529996\C,0,2.7690484756,3.2916270138,-0.440042767\C,0,5.9507486802,2.
 4480996506,-2.0634082959\C,0,4.459811601,5.2124361194,-1.0655685703\C,
 0,6.7743474923,3.4423499198,-2.4193464115\H,0,-4.2347679629,2.06149722
 98,0.2508281231\H,0,-5.163961053,-0.6646879449,0.8801427585\H,0,-4.884
 6453044,0.5608400837,2.1391808278\H,0,-2.6556646064,-1.378015197,-0.12
 19191137\H,0,-3.5085518525,0.7473266498,-1.6180393548\H,0,0.5512295577
 ,-0.0298426723,3.7066302111\H,0,1.2998939988,-0.2361882862,1.912236356
 4\H,0,-0.6959982607,-2.7138288479,-0.0150965074\H,0,-3.3759177371,2.25
 71769818,3.0508550752\H,0,-2.2026514802,1.4569850624,4.4071090988\H,0,
 -1.5326096421,2.6084946693,2.7998374055\H,0,-6.6237658275,2.4135901625
 ,1.6904512781\H,0,-7.7099407611,1.0426740766,1.4672437351\H,0,-7.90905
 68429,2.4116772508,0.5343719174\H,0,0.9636090693,2.0328353201,1.435411
 6085\H,0,0.5947925918,2.4519620182,3.2407799022\H,0,1.5759119176,0.206
 8113261,-0.0849338587\H,0,2.1601638086,-4.7847023006,-1.9108956993\H,0
 ,0.4860504025,-4.550594907,-1.1891573991\H,0,-8.0292439862,0.431283358
 9,-3.0136773059\H,0,1.6987420631,-4.4907302527,1.2495725339\H,0,3.0886
 151316,-5.2661938239,0.4897167866\H,0,3.8705421165,-3.8777352257,-2.56
 62200831\H,0,5.2275138498,-3.2440432545,-1.5741810357\H,0,4.3850799411
 ,-2.4996822008,-3.1283719108\H,0,4.7945390734,-0.1630784023,-1.9424604
 217\H,0,-9.4520088014,0.8111185674,-0.2444471345\H,0,-10.2325313867,0.
 7339348092,-1.8683529353\H,0,3.9469393804,2.9085342371,3.4991546812\H,
 0,6.2318666549,1.4508872379,-2.3810569207\H,0,5.2806687667,5.479060670
 3,-0.1864872686\H,0,4.6233543579,5.5560923749,-2.179890534\H,0,3.36498
 4168,5.7994395504,-0.8393456762\H,0,0.7237196801,-7.9256537225,1.52897
 89528\H,0,7.8160240468,3.1998255225,-2.4895562289\H,0,6.3488467722,4.5
 542109333,-2.2880211546\\Version=ES64L-G16RevA.03\State=1-A\HF=-1947.8
 144767\RMSD=3.861e-09\PG=C01 [X(C33H36N4O6)]\\@


 THERE IS NO SUBJECT, HOWEVER COMPLEX,
 WHICH, IF STUDIED WITH PATIENCE AND INTELLIGIENCE
 WILL NOT BECOME
 MORE COMPLEX
                        QUOTED BY D. GORDON ROHMAN
 Job cpu time:       0 days 12 hours  9 minutes 27.5 seconds.
 Elapsed time:       0 days  3 hours  3 minutes  5.2 seconds.
 File lengths (MBytes):  RWF=   2533 Int=      0 D2E=      0 Chk=     63 Scr=      1
 Normal termination of Gaussian 16 at Sat Sep 21 06:56:27 2019.
