 Entering Gaussian System, Link 0=g16
 Input=Geometria-462-.com
 Output=Geometria-462-.log
 Initial command:
 /usr/local/g16/l1.exe "/home/padawan/israel-mol/dihydrobiliverdin/spectra/emi/Gau-27507.inp" -scrdir="/home/padawan/israel-mol/dihydrobiliverdin/spectra/emi/"
 Entering Link 1 = /usr/local/g16/l1.exe PID=     27509.
  
 Copyright (c) 1988,1990,1992,1993,1995,1998,2003,2009,2016,
            Gaussian, Inc.  All Rights Reserved.
  
 This is part of the Gaussian(R) 16 program.  It is based on
 the Gaussian(R) 09 system (copyright 2009, Gaussian, Inc.),
 the Gaussian(R) 03 system (copyright 2003, Gaussian, Inc.),
 the Gaussian(R) 98 system (copyright 1998, Gaussian, Inc.),
 the Gaussian(R) 94 system (copyright 1995, Gaussian, Inc.),
 the Gaussian 92(TM) system (copyright 1992, Gaussian, Inc.),
 the Gaussian 90(TM) system (copyright 1990, Gaussian, Inc.),
 the Gaussian 88(TM) system (copyright 1988, Gaussian, Inc.),
 the Gaussian 86(TM) system (copyright 1986, Carnegie Mellon
 University), and the Gaussian 82(TM) system (copyright 1983,
 Carnegie Mellon University). Gaussian is a federally registered
 trademark of Gaussian, Inc.
  
 This software contains proprietary and confidential information,
 including trade secrets, belonging to Gaussian, Inc.
  
 This software is provided under written license and may be
 used, copied, transmitted, or stored only in accord with that
 written license.
  
 The following legend is applicable only to US Government
 contracts under FAR:
  
                    RESTRICTED RIGHTS LEGEND
  
 Use, reproduction and disclosure by the US Government is
 subject to restrictions as set forth in subparagraphs (a)
 and (c) of the Commercial Computer Software - Restricted
 Rights clause in FAR 52.227-19.
  
 Gaussian, Inc.
 340 Quinnipiac St., Bldg. 40, Wallingford CT 06492
  
  
 ---------------------------------------------------------------
 Warning -- This program may not be used in any manner that
 competes with the business of Gaussian, Inc. or will provide
 assistance to any competitor of Gaussian, Inc.  The licensee
 of this program is prohibited from giving any competitor of
 Gaussian, Inc. access to this program.  By using this program,
 the user acknowledges that Gaussian, Inc. is engaged in the
 business of creating and licensing software in the field of
 computational chemistry and represents and warrants to the
 licensee that it is not a competitor of Gaussian, Inc. and that
 it will not use this program in any manner prohibited above.
 ---------------------------------------------------------------
  

 Cite this work as:
 Gaussian 16, Revision A.03,
 M. J. Frisch, G. W. Trucks, H. B. Schlegel, G. E. Scuseria, 
 M. A. Robb, J. R. Cheeseman, G. Scalmani, V. Barone, 
 G. A. Petersson, H. Nakatsuji, X. Li, M. Caricato, A. V. Marenich, 
 J. Bloino, B. G. Janesko, R. Gomperts, B. Mennucci, H. P. Hratchian, 
 J. V. Ortiz, A. F. Izmaylov, J. L. Sonnenberg, D. Williams-Young, 
 F. Ding, F. Lipparini, F. Egidi, J. Goings, B. Peng, A. Petrone, 
 T. Henderson, D. Ranasinghe, V. G. Zakrzewski, J. Gao, N. Rega, 
 G. Zheng, W. Liang, M. Hada, M. Ehara, K. Toyota, R. Fukuda, 
 J. Hasegawa, M. Ishida, T. Nakajima, Y. Honda, O. Kitao, H. Nakai, 
 T. Vreven, K. Throssell, J. A. Montgomery, Jr., J. E. Peralta, 
 F. Ogliaro, M. J. Bearpark, J. J. Heyd, E. N. Brothers, K. N. Kudin, 
 V. N. Staroverov, T. A. Keith, R. Kobayashi, J. Normand, 
 K. Raghavachari, A. P. Rendell, J. C. Burant, S. S. Iyengar, 
 J. Tomasi, M. Cossi, J. M. Millam, M. Klene, C. Adamo, R. Cammi, 
 J. W. Ochterski, R. L. Martin, K. Morokuma, O. Farkas, 
 J. B. Foresman, and D. J. Fox, Gaussian, Inc., Wallingford CT, 2016.
 
 ******************************************
 Gaussian 16:  ES64L-G16RevA.03 25-Dec-2016
                30-Jul-2019 
 ******************************************
 %nproc=4
 Will use up to    4 processors via shared memory.
 %Mem=3GB
 --------------------------
 # td=(NStates=1) B3LYP/SVP
 --------------------------
 1/38=1,172=1/1;
 2/12=2,17=6,18=5,40=1/2;
 3/5=18,7=101,11=9,25=1,30=1,74=-5/1,2,3,8;
 4//1;
 5/5=2,38=5/2;
 8/6=1,10=1,108=1/1;
 9/41=1,42=1,70=2/14;
 6/7=2,8=2,9=2,10=2/1;
 99/5=1,9=1/99;
 --
 TD
 --
 Symbolic Z-matrix:
 Charge =  0 Multiplicity = 1
 8                    -3.02488  -1.56651  -2.83613 
 8                     2.97478   3.24854   3.2746 
 8                     3.59212   1.53465   4.56126 
 8                     7.52653  -1.4258   -0.91921 
 8                     6.65422  -3.12831  -1.99129 
 8                    -2.62626   1.63887   1.3818 
 7                    -0.3708   -2.30541   0.90997 
 7                    -2.53214  -1.23115  -0.60452 
 7                     1.19663   0.05463  -0.68235 
 7                    -1.00035   1.40112  -0.27287 
 6                    -3.26521  -1.31814   0.59475 
 6                    -2.67192  -2.25403   1.74901 
 6                    -1.25267  -1.92074   1.81531 
 6                    -0.58928  -1.20951   2.83217 
 6                     0.72028  -1.11736   2.48922 
 6                     0.86255  -1.83366   1.24093 
 6                    -4.64588  -1.89705   0.17851 
 6                     1.88827  -0.33871   3.21232 
 6                    -4.69076  -2.09448  -1.1706 
 6                     1.98316  -1.99491   0.21876 
 6                     2.03659  -0.98087  -0.6775 
 6                    -3.36492  -1.66238  -1.67794 
 6                     2.88809  -0.84647  -1.91327 
 6                    -1.28333  -0.41588   3.89389 
 6                    -5.75341  -2.06836   1.07915 
 6                     2.43052   0.3905   -2.47922 
 6                     1.83319   1.251     2.89286 
 6                     1.34042   0.85459  -1.80406 
 6                     4.11823  -1.6553   -2.2317 
 6                    -5.67873  -2.62875  -2.03534 
 6                     5.37505  -1.14621  -1.41604 
 6                     3.04894   0.93717  -3.76014 
 6                     0.44752   1.94915  -2.04764 
 6                     2.90603   1.91511   3.72452 
 6                    -0.59388   2.31872  -1.28182 
 6                    -6.74162  -3.35991  -1.67655 
 6                     6.53537  -2.04315  -1.37933 
 6                    -1.41482   3.67357  -1.17596 
 6                    -2.2248    3.54778  -0.06366 
 6                    -1.94305   2.0823    0.43552 
 6                    -1.09607   4.68563  -2.042 
 6                    -3.2288    4.42862   0.58654 
 6                    -1.96066   5.77302  -2.18991 
 1                    -3.19755  -0.36232   1.02834 
 1                    -2.83386  -3.24161   1.42429 
 1                    -3.11819  -2.07078   2.74751 
 1                    -0.5203   -2.7004    0.02353 
 1                    -1.99263  -0.36617  -0.72302 
 1                     1.61917  -0.42698   4.20812 
 1                     2.93698  -0.64609   2.9236 
 1                     2.72591  -2.85012   0.29332 
 1                    -1.90493  -1.13617   4.25711 
 1                    -0.72649   0.25364   4.50274 
 1                    -2.12448   0.21034   3.22804 
 1                    -5.52983  -1.50796   1.95962 
 1                    -5.99378  -3.26125   1.33992 
 1                    -6.64981  -1.71209   0.41393 
 1                     2.03104   1.15572   1.92357 
 1                     0.68341   1.52168   3.12498 
 1                     0.23125   0.40828  -0.22322 
 1                     4.08446  -1.75571  -3.28409 
 1                     3.81519  -2.63177  -1.89676 
 1                    -5.4336   -2.57326  -3.22262 
 1                     5.19119  -0.9617   -0.32799 
 1                     5.79359  -0.03247  -2.16771 
 1                     4.05      0.31838  -4.16087 
 1                     3.45732   2.0017   -3.54379 
 1                     2.32009   1.26127  -4.56833 
 1                     1.05516   2.7686   -2.65254 
 1                    -7.09301  -3.73416  -0.71392 
 1                    -7.47746  -3.64524  -2.55317 
 1                     3.5741    3.86278   3.77586 
 1                    -0.2412    4.50151  -2.79327 
 1                    -3.92383   4.29408  -0.15738 
 1                    -3.8405    4.11058   1.52274 
 1                    -2.84808   5.56957   0.81407 
 1                     8.17584  -2.15922  -0.99928 
 1                    -1.60404   6.47585  -2.95235 
 1                    -2.92643   5.88362  -1.56763 
 
 Stoichiometry    C33H36N4O6
 Framework group  C1[X(C33H36N4O6)]
 Deg. of freedom   231
 Full point group                 C1      NOp   1
 Largest Abelian subgroup         C1      NOp   1
 Largest concise Abelian subgroup C1      NOp   1
                         Standard orientation:                         
 ---------------------------------------------------------------------
 Center     Atomic      Atomic             Coordinates (Angstroms)
 Number     Number       Type             X           Y           Z
 ---------------------------------------------------------------------
      1          8           0       -2.993938   -2.331612   -2.290101
      2          8           0        2.946095    4.063855    2.219409
      3          8           0        3.541858    2.801963    3.959152
      4          8           0        7.533505   -1.631497   -0.364110
      5          8           0        6.668784   -3.573631   -0.901884
      6          8           0       -2.636568    1.968267    0.809519
      7          7           0       -0.388616   -1.940402    1.541688
      8          7           0       -2.527568   -1.357456   -0.248319
      9          7           0        1.206134   -0.149233   -0.651615
     10          7           0       -0.991223    1.257223   -0.682226
     11          6           0       -3.275626   -1.089870    0.914446
     12          6           0       -2.699692   -1.646616    2.299563
     13          6           0       -1.280268   -1.307926    2.283468
     14          6           0       -0.627070   -0.329903    3.055962
     15          6           0        0.686910   -0.341633    2.717765
     16          6           0        0.842135   -1.391920    1.735745
     17          6           0       -4.652989   -1.765840    0.668354
     18          6           0        1.848503    0.615068    3.196085
     19          6           0       -4.681923   -2.349579   -0.564330
     20          6           0        1.974688   -1.844862    0.819912
     21          6           0        2.042517   -1.137596   -0.333168
     22          6           0       -3.348518   -2.084372   -1.159000
     23          6           0        2.909596   -1.370479   -1.543196
     24          6           0       -1.331480    0.739483    3.829937
     25          6           0       -5.772079   -1.666465    1.565504
     26          6           0        2.463146   -0.353574   -2.452226
     27          6           0        1.802649    2.041598    2.424596
     28          6           0        1.366369    0.287382   -1.956425
     29          6           0        4.140858   -2.236590   -1.595228
     30          6           0       -5.660962   -3.114006   -1.247309
     31          6           0        5.389244   -1.510491   -0.948373
     32          6           0        3.099094   -0.205563   -3.829078
     33          6           0        0.480181    1.262312   -2.521086
     34          6           0        2.867379    2.920523    3.039024
     35          6           0       -0.569325    1.839436   -1.910325
     36          6           0       -6.730608   -3.708543   -0.703778
     37          6           0        6.546032   -2.356914   -0.635945
     38          6           0       -1.386987    3.165585   -2.216151
     39          6           0       -2.210999    3.370573   -1.126168
     40          6           0       -1.940290    2.115545   -0.216327
     41          6           0       -1.054241    3.879924   -3.336376
     42          6           0       -3.219990    4.402755   -0.775125
     43          6           0       -1.913322    4.876014   -3.807113
     44          1           0       -3.210120   -0.048968    1.050083
     45          1           0       -2.860911   -2.686057    2.276118
     46          1           0       -3.157604   -1.179281    3.194921
     47          1           0       -0.528509   -2.577646    0.807872
     48          1           0       -1.983767   -0.564835   -0.607936
     49          1           0        1.566879    0.822061    4.170594
     50          1           0        2.899654    0.237078    3.023361
     51          1           0        2.713619   -2.640470    1.150995
     52          1           0       -1.959902    0.156808    4.380143
     53          1           0       -0.779951    1.558134    4.223170
     54          1           0       -2.162292    1.142997    2.999286
     55          1           0       -5.557485   -0.872770    2.246141
     56          1           0       -6.019605   -2.730859    2.160948
     57          1           0       -6.659039   -1.520907    0.813772
     58          1           0        2.012085    1.666822    1.528260
     59          1           0        0.651003    2.367895    2.552655
     60          1           0        0.236362    0.322924   -0.328451
     61          1           0        4.119709   -2.640685   -2.572473
     62          1           0        3.830477   -3.072359   -0.993009
     63          1           0       -5.401056   -3.408400   -2.395605
     64          1           0        5.192623   -1.015629    0.035571
     65          1           0        5.820701   -0.665415   -1.987743
     66          1           0        4.102942   -0.914140   -4.018340
     67          1           0        3.508319    0.875838   -3.928624
     68          1           0        2.381316   -0.132554   -4.705950
     69          1           0        1.097942    1.869039   -3.331568
     70          1           0       -7.095057   -3.784743    0.321676
     71          1           0       -7.456553   -4.238298   -1.467779
     72          1           0        3.541248    4.798174    2.526503
     73          1           0       -0.190810    3.484298   -3.989892
     74          1           0       -3.906258    4.056037   -1.455864
     75          1           0       -3.844214    4.372446    0.205296
     76          1           0       -2.838301    5.560481   -0.886714
     77          1           0        8.181308   -2.355956   -0.217708
     78          1           0       -1.545016    5.325005   -4.737278
     79          1           0       -2.886305    5.163528   -3.256817
 ---------------------------------------------------------------------
 Rotational constants (GHZ):           0.0878062           0.0520871           0.0488680
 Standard basis: SVP (5D, 7F)
 There are   825 symmetry adapted cartesian basis functions of A   symmetry.
 There are   782 symmetry adapted basis functions of A   symmetry.
   782 basis functions,  1327 primitive gaussians,   825 cartesian basis functions
   155 alpha electrons      155 beta electrons
       nuclear repulsion energy      5211.9342865787 Hartrees.
 NAtoms=   79 NActive=   79 NUniq=   79 SFac= 1.00D+00 NAtFMM=   60 NAOKFM=T Big=T
 Integral buffers will be    131072 words long.
 Regular integral format.
 Two-electron integral symmetry is turned on.
 One-electron integrals computed using PRISM.
 NBasis=   782 RedAO= T EigKep=  3.24D-04  NBF=   782
 NBsUse=   782 1.00D-06 EigRej= -1.00D+00 NBFU=   782
 ExpMin= 1.22D-01 ExpMax= 2.27D+03 ExpMxC= 3.41D+02 IAcc=3 IRadAn=         5 AccDes= 0.00D+00
 Harris functional with IExCor=  402 and IRadAn=       5 diagonalized for initial guess.
 HarFok:  IExCor=  402 AccDes= 0.00D+00 IRadAn=         5 IDoV= 1 UseB2=F ITyADJ=14
 ICtDFT=  3500011 ScaDFX=  1.000000  1.000000  1.000000  1.000000
 FoFCou: FMM=F IPFlag=           0 FMFlag=      100000 FMFlg1=        2001
         NFxFlg=           0 DoJE=T BraDBF=F KetDBF=T FulRan=T
         wScrn=  0.000000 ICntrl=       500 IOpCl=  0 I1Cent=   200000004 NGrid=           0
         NMat0=    1 NMatS0=      1 NMatT0=    0 NMatD0=    1 NMtDS0=    0 NMtDT0=    0
 Petite list used in FoFCou.
 Requested convergence on RMS density matrix=1.00D-08 within 128 cycles.
 Requested convergence on MAX density matrix=1.00D-06.
 Requested convergence on             energy=1.00D-06.
 No special actions if energy rises.
 Integral accuracy reduced to 1.0D-05 until final iterations.
 EnCoef did     5 forward-backward iterations
 EnCoef did     2 forward-backward iterations
 Initial convergence to 1.0D-05 achieved.  Increase integral accuracy.
 SCF Done:  E(RB3LYP) =  -1947.78259075     A.U. after   23 cycles
            NFock= 23  Conv=0.74D-08     -V/T= 2.0104
 DoSCS=F DFT=T ScalE2(SS,OS)=  1.000000  1.000000
 ExpMin= 1.22D-01 ExpMax= 2.27D+03 ExpMxC= 3.41D+02 IAcc=3 IRadAn=         5 AccDes= 0.00D+00
 HarFok:  IExCor=  205 AccDes= 0.00D+00 IRadAn=         5 IDoV=-2 UseB2=F ITyADJ=14
 ICtDFT= 12500011 ScaDFX=  1.000000  1.000000  1.000000  1.000000
 GSVD:  LWork=       -2193 too small for GESVD, short by        9890 words or        9890 for optimal perf.
 Range of M.O.s used for correlation:    44   782
 NBasis=   782 NAE=   155 NBE=   155 NFC=    43 NFV=     0
 NROrb=    739 NOA=   112 NOB=   112 NVA=   627 NVB=   627

 **** Warning!!: The smallest alpha delta epsilon is  0.49365578D-01

 Orbital symmetries:
       Occupied  (A) (A) (A) (A) (A) (A) (A) (A) (A) (A) (A) (A)
                 (A) (A) (A) (A) (A) (A) (A) (A) (A) (A) (A) (A)
                 (A) (A) (A) (A) (A) (A) (A) (A) (A) (A) (A) (A)
                 (A) (A) (A) (A) (A) (A) (A) (A) (A) (A) (A) (A)
                 (A) (A) (A) (A) (A) (A) (A) (A) (A) (A) (A) (A)
                 (A) (A) (A) (A) (A) (A) (A) (A) (A) (A) (A) (A)
                 (A) (A) (A) (A) (A) (A) (A) (A) (A) (A) (A) (A)
                 (A) (A) (A) (A) (A) (A) (A) (A) (A) (A) (A) (A)
                 (A) (A) (A) (A) (A) (A) (A) (A) (A) (A) (A) (A)
                 (A) (A) (A) (A) (A) (A) (A) (A) (A) (A) (A) (A)
                 (A) (A) (A) (A) (A) (A) (A) (A) (A) (A) (A) (A)
                 (A) (A) (A) (A) (A) (A) (A) (A) (A) (A) (A) (A)
                 (A) (A) (A) (A) (A) (A) (A) (A) (A) (A) (A)
       Virtual   (A) (A) (A) (A) (A) (A) (A) (A) (A) (A) (A) (A)
                 (A) (A) (A) (A) (A) (A) (A) (A) (A) (A) (A) (A)
                 (A) (A) (A) (A) (A) (A) (A) (A) (A) (A) (A) (A)
                 (A) (A) (A) (A) (A) (A) (A) (A) (A) (A) (A) (A)
                 (A) (A) (A) (A) (A) (A) (A) (A) (A) (A) (A) (A)
                 (A) (A) (A) (A) (A) (A) (A) (A) (A) (A) (A) (A)
                 (A) (A) (A) (A) (A) (A) (A) (A) (A) (A) (A) (A)
                 (A) (A) (A) (A) (A) (A) (A) (A) (A) (A) (A) (A)
                 (A) (A) (A) (A) (A) (A) (A) (A) (A) (A) (A) (A)
                 (A) (A) (A) (A) (A) (A) (A) (A) (A) (A) (A) (A)
                 (A) (A) (A) (A) (A) (A) (A) (A) (A) (A) (A) (A)
                 (A) (A) (A) (A) (A) (A) (A) (A) (A) (A) (A) (A)
                 (A) (A) (A) (A) (A) (A) (A) (A) (A) (A) (A) (A)
                 (A) (A) (A) (A) (A) (A) (A) (A) (A) (A) (A) (A)
                 (A) (A) (A) (A) (A) (A) (A) (A) (A) (A) (A) (A)
                 (A) (A) (A) (A) (A) (A) (A) (A) (A) (A) (A) (A)
                 (A) (A) (A) (A) (A) (A) (A) (A) (A) (A) (A) (A)
                 (A) (A) (A) (A) (A) (A) (A) (A) (A) (A) (A) (A)
                 (A) (A) (A) (A) (A) (A) (A) (A) (A) (A) (A) (A)
                 (A) (A) (A) (A) (A) (A) (A) (A) (A) (A) (A) (A)
                 (A) (A) (A) (A) (A) (A) (A) (A) (A) (A) (A) (A)
                 (A) (A) (A) (A) (A) (A) (A) (A) (A) (A) (A) (A)
                 (A) (A) (A) (A) (A) (A) (A) (A) (A) (A) (A) (A)
                 (A) (A) (A) (A) (A) (A) (A) (A) (A) (A) (A) (A)
                 (A) (A) (A) (A) (A) (A) (A) (A) (A) (A) (A) (A)
                 (A) (A) (A) (A) (A) (A) (A) (A) (A) (A) (A) (A)
                 (A) (A) (A) (A) (A) (A) (A) (A) (A) (A) (A) (A)
                 (A) (A) (A) (A) (A) (A) (A) (A) (A) (A) (A) (A)
                 (A) (A) (A) (A) (A) (A) (A) (A) (A) (A) (A) (A)
                 (A) (A) (A) (A) (A) (A) (A) (A) (A) (A) (A) (A)
                 (A) (A) (A) (A) (A) (A) (A) (A) (A) (A) (A) (A)
                 (A) (A) (A) (A) (A) (A) (A) (A) (A) (A) (A) (A)
                 (A) (A) (A) (A) (A) (A) (A) (A) (A) (A) (A) (A)
                 (A) (A) (A) (A) (A) (A) (A) (A) (A) (A) (A) (A)
                 (A) (A) (A) (A) (A) (A) (A) (A) (A) (A) (A) (A)
                 (A) (A) (A) (A) (A) (A) (A) (A) (A) (A) (A) (A)
                 (A) (A) (A) (A) (A) (A) (A) (A) (A) (A) (A) (A)
                 (A) (A) (A) (A) (A) (A) (A) (A) (A) (A) (A) (A)
                 (A) (A) (A) (A) (A) (A) (A) (A) (A) (A) (A) (A)
                 (A) (A) (A) (A) (A) (A) (A) (A) (A) (A) (A) (A)
                 (A) (A) (A) (A) (A) (A) (A) (A) (A) (A) (A) (A)
                 (A) (A) (A) (A) (A) (A) (A) (A) (A) (A) (A) (A)
                 (A) (A) (A) (A) (A) (A) (A) (A) (A) (A) (A) (A)
                 (A) (A) (A) (A) (A) (A) (A) (A) (A) (A) (A) (A)
                 (A) (A) (A) (A) (A) (A) (A) (A) (A) (A) (A) (A)
                 (A) (A) (A) (A) (A) (A) (A) (A) (A) (A) (A) (A)
                 (A) (A) (A) (A) (A) (A) (A) (A) (A) (A) (A) (A)
                 (A) (A) (A) (A) (A) (A) (A) (A) (A) (A) (A) (A)
                 (A) (A) (A) (A) (A) (A) (A) (A) (A) (A) (A) (A)
                 (A) (A) (A) (A) (A) (A) (A) (A) (A) (A) (A) (A)
                 (A) (A) (A) (A) (A) (A) (A) (A) (A) (A) (A) (A)
                 (A) (A) (A) (A) (A) (A) (A) (A) (A) (A) (A) (A)
                 (A) (A) (A)
     4 initial guesses have been made.
 Convergence on wavefunction:    0.001000000000000
 Iteration     1 Dimension     4 NMult     0 NNew      4
 CISAX will form     4 AO SS matrices at one time.
 Iteration     2 Dimension     6 NMult     4 NNew      2
 Iteration     3 Dimension     8 NMult     6 NNew      2
 Iteration     4 Dimension    10 NMult     8 NNew      2
 Iteration     5 Dimension    12 NMult    10 NNew      2
 ***********************************************************************
 Excited states from <AA,BB:AA,BB> singles matrix:
 ***********************************************************************
 
 Ground to excited state transition densities written to RWF  633
 Ground to excited state transition electric dipole moments (Au):
       state          X           Y           Z        Dip. S.      Osc.
         1         0.0320      0.0517     -0.1463      0.0251      0.0004
 Ground to excited state transition velocity dipole moments (Au):
       state          X           Y           Z        Dip. S.      Osc.
         1        -0.0024     -0.0008      0.0041      0.0000      0.0007
 Ground to excited state transition magnetic dipole moments (Au):
       state          X           Y           Z
         1        -0.0784     -0.1914     -0.1564
 Ground to excited state transition velocity quadrupole moments (Au):
       state          XX          YY          ZZ          XY          XZ          YZ
         1        -0.0025     -0.0112      0.0115      0.0056      0.0053      0.0030
 <0|del|b> * <b|rxdel|0> + <0|del|b> * <b|delr+rdel|0>
 Rotatory Strengths (R) in cgs (10**-40 erg-esu-cm/Gauss)
       state          XX          YY          ZZ    R(velocity)    E-M Angle
         1        -7.4034     -7.7729      5.5362     -3.2134      103.90
 1/2[<0|r|b>*<b|rxdel|0> + (<0|rxdel|b>*<b|r|0>)*]
 Rotatory Strengths (R) in cgs (10**-40 erg-esu-cm/Gauss)
       state          XX          YY          ZZ     R(length)
         1         1.7738      6.9939    -16.1826     -2.4716
  1/2[<0|del|b>*<b|r|0> + (<0|r|b>*<b|del|0>)*] (Au)
       state          X           Y           Z        Dip. S.   Osc.(frdel)
         1        -0.0001     -0.0000     -0.0006      0.0007      0.0005

 Excitation energies and oscillator strengths:
 
 Excited State   1:      Singlet-A      0.5955 eV 2081.98 nm  f=0.0004  <S**2>=0.000
     155 ->156         0.70486
 This state for optimization and/or second-order correction.
 Total Energy, E(TD-HF/TD-DFT) =  -1947.76070615    
 Copying the excited state density for this state as the 1-particle RhoCI density.
 SavETr:  write IOETrn=   770 NScale= 10 NData=  16 NLR=1 NState=    1 LETran=      28.

 **********************************************************************

            Population analysis using the SCF density.

 **********************************************************************

 Orbital symmetries:
       Occupied  (A) (A) (A) (A) (A) (A) (A) (A) (A) (A) (A) (A)
                 (A) (A) (A) (A) (A) (A) (A) (A) (A) (A) (A) (A)
                 (A) (A) (A) (A) (A) (A) (A) (A) (A) (A) (A) (A)
                 (A) (A) (A) (A) (A) (A) (A) (A) (A) (A) (A) (A)
                 (A) (A) (A) (A) (A) (A) (A) (A) (A) (A) (A) (A)
                 (A) (A) (A) (A) (A) (A) (A) (A) (A) (A) (A) (A)
                 (A) (A) (A) (A) (A) (A) (A) (A) (A) (A) (A) (A)
                 (A) (A) (A) (A) (A) (A) (A) (A) (A) (A) (A) (A)
                 (A) (A) (A) (A) (A) (A) (A) (A) (A) (A) (A) (A)
                 (A) (A) (A) (A) (A) (A) (A) (A) (A) (A) (A) (A)
                 (A) (A) (A) (A) (A) (A) (A) (A) (A) (A) (A) (A)
                 (A) (A) (A) (A) (A) (A) (A) (A) (A) (A) (A) (A)
                 (A) (A) (A) (A) (A) (A) (A) (A) (A) (A) (A)
       Virtual   (A) (A) (A) (A) (A) (A) (A) (A) (A) (A) (A) (A)
                 (A) (A) (A) (A) (A) (A) (A) (A) (A) (A) (A) (A)
                 (A) (A) (A) (A) (A) (A) (A) (A) (A) (A) (A) (A)
                 (A) (A) (A) (A) (A) (A) (A) (A) (A) (A) (A) (A)
                 (A) (A) (A) (A) (A) (A) (A) (A) (A) (A) (A) (A)
                 (A) (A) (A) (A) (A) (A) (A) (A) (A) (A) (A) (A)
                 (A) (A) (A) (A) (A) (A) (A) (A) (A) (A) (A) (A)
                 (A) (A) (A) (A) (A) (A) (A) (A) (A) (A) (A) (A)
                 (A) (A) (A) (A) (A) (A) (A) (A) (A) (A) (A) (A)
                 (A) (A) (A) (A) (A) (A) (A) (A) (A) (A) (A) (A)
                 (A) (A) (A) (A) (A) (A) (A) (A) (A) (A) (A) (A)
                 (A) (A) (A) (A) (A) (A) (A) (A) (A) (A) (A) (A)
                 (A) (A) (A) (A) (A) (A) (A) (A) (A) (A) (A) (A)
                 (A) (A) (A) (A) (A) (A) (A) (A) (A) (A) (A) (A)
                 (A) (A) (A) (A) (A) (A) (A) (A) (A) (A) (A) (A)
                 (A) (A) (A) (A) (A) (A) (A) (A) (A) (A) (A) (A)
                 (A) (A) (A) (A) (A) (A) (A) (A) (A) (A) (A) (A)
                 (A) (A) (A) (A) (A) (A) (A) (A) (A) (A) (A) (A)
                 (A) (A) (A) (A) (A) (A) (A) (A) (A) (A) (A) (A)
                 (A) (A) (A) (A) (A) (A) (A) (A) (A) (A) (A) (A)
                 (A) (A) (A) (A) (A) (A) (A) (A) (A) (A) (A) (A)
                 (A) (A) (A) (A) (A) (A) (A) (A) (A) (A) (A) (A)
                 (A) (A) (A) (A) (A) (A) (A) (A) (A) (A) (A) (A)
                 (A) (A) (A) (A) (A) (A) (A) (A) (A) (A) (A) (A)
                 (A) (A) (A) (A) (A) (A) (A) (A) (A) (A) (A) (A)
                 (A) (A) (A) (A) (A) (A) (A) (A) (A) (A) (A) (A)
                 (A) (A) (A) (A) (A) (A) (A) (A) (A) (A) (A) (A)
                 (A) (A) (A) (A) (A) (A) (A) (A) (A) (A) (A) (A)
                 (A) (A) (A) (A) (A) (A) (A) (A) (A) (A) (A) (A)
                 (A) (A) (A) (A) (A) (A) (A) (A) (A) (A) (A) (A)
                 (A) (A) (A) (A) (A) (A) (A) (A) (A) (A) (A) (A)
                 (A) (A) (A) (A) (A) (A) (A) (A) (A) (A) (A) (A)
                 (A) (A) (A) (A) (A) (A) (A) (A) (A) (A) (A) (A)
                 (A) (A) (A) (A) (A) (A) (A) (A) (A) (A) (A) (A)
                 (A) (A) (A) (A) (A) (A) (A) (A) (A) (A) (A) (A)
                 (A) (A) (A) (A) (A) (A) (A) (A) (A) (A) (A) (A)
                 (A) (A) (A) (A) (A) (A) (A) (A) (A) (A) (A) (A)
                 (A) (A) (A) (A) (A) (A) (A) (A) (A) (A) (A) (A)
                 (A) (A) (A) (A) (A) (A) (A) (A) (A) (A) (A) (A)
                 (A) (A) (A) (A) (A) (A) (A) (A) (A) (A) (A) (A)
                 (A) (A) (A) (A) (A) (A) (A) (A) (A) (A) (A) (A)
                 (A) (A) (A) (A) (A) (A) (A) (A) (A) (A) (A) (A)
                 (A) (A) (A) (A) (A) (A) (A) (A) (A) (A) (A) (A)
                 (A) (A) (A) (A) (A) (A) (A) (A) (A) (A) (A) (A)
                 (A) (A) (A) (A) (A) (A) (A) (A) (A) (A) (A) (A)
                 (A) (A) (A) (A) (A) (A) (A) (A) (A) (A) (A) (A)
                 (A) (A) (A) (A) (A) (A) (A) (A) (A) (A) (A) (A)
                 (A) (A) (A) (A) (A) (A) (A) (A) (A) (A) (A) (A)
                 (A) (A) (A) (A) (A) (A) (A) (A) (A) (A) (A) (A)
                 (A) (A) (A) (A) (A) (A) (A) (A) (A) (A) (A) (A)
                 (A) (A) (A) (A) (A) (A) (A) (A) (A) (A) (A) (A)
                 (A) (A) (A) (A) (A) (A) (A) (A) (A) (A) (A) (A)
                 (A) (A) (A)
 The electronic state is 1-A.
 Alpha  occ. eigenvalues --  -19.21355 -19.15266 -19.13313 -19.13197 -19.10656
 Alpha  occ. eigenvalues --  -19.08129 -14.36588 -14.36287 -14.31929 -14.31688
 Alpha  occ. eigenvalues --  -10.33191 -10.31441 -10.28029 -10.26572 -10.26187
 Alpha  occ. eigenvalues --  -10.25710 -10.25610 -10.25530 -10.23894 -10.23827
 Alpha  occ. eigenvalues --  -10.23434 -10.22600 -10.22397 -10.22011 -10.21670
 Alpha  occ. eigenvalues --  -10.21448 -10.21334 -10.21286 -10.21083 -10.20590
 Alpha  occ. eigenvalues --  -10.20358 -10.20162 -10.20061 -10.19709 -10.19588
 Alpha  occ. eigenvalues --  -10.19083 -10.18901 -10.18816 -10.18429 -10.17849
 Alpha  occ. eigenvalues --  -10.17005 -10.16852 -10.15603  -1.15986  -1.09624
 Alpha  occ. eigenvalues --   -1.01036  -1.00710  -1.00350  -1.00219  -0.99574
 Alpha  occ. eigenvalues --   -0.98049  -0.92166  -0.91647  -0.83448  -0.83048
 Alpha  occ. eigenvalues --   -0.82305  -0.81289  -0.79914  -0.78985  -0.78423
 Alpha  occ. eigenvalues --   -0.76958  -0.75999  -0.75763  -0.74654  -0.73450
 Alpha  occ. eigenvalues --   -0.70737  -0.70069  -0.69630  -0.69518  -0.68082
 Alpha  occ. eigenvalues --   -0.66416  -0.65120  -0.62448  -0.61719  -0.61290
 Alpha  occ. eigenvalues --   -0.59589  -0.59483  -0.58460  -0.57225  -0.55802
 Alpha  occ. eigenvalues --   -0.55536  -0.54782  -0.54586  -0.53363  -0.52271
 Alpha  occ. eigenvalues --   -0.52258  -0.51498  -0.51254  -0.50604  -0.50544
 Alpha  occ. eigenvalues --   -0.50122  -0.49161  -0.48676  -0.48339  -0.47685
 Alpha  occ. eigenvalues --   -0.47413  -0.47071  -0.46501  -0.46326  -0.45977
 Alpha  occ. eigenvalues --   -0.45221  -0.44958  -0.44842  -0.44276  -0.43513
 Alpha  occ. eigenvalues --   -0.43247  -0.42937  -0.42537  -0.42267  -0.42071
 Alpha  occ. eigenvalues --   -0.41917  -0.41811  -0.41098  -0.40841  -0.40685
 Alpha  occ. eigenvalues --   -0.40472  -0.40139  -0.39981  -0.39802  -0.39246
 Alpha  occ. eigenvalues --   -0.39065  -0.38881  -0.38543  -0.38028  -0.37850
 Alpha  occ. eigenvalues --   -0.37742  -0.37112  -0.37001  -0.36403  -0.35835
 Alpha  occ. eigenvalues --   -0.35674  -0.35438  -0.35053  -0.34599  -0.34013
 Alpha  occ. eigenvalues --   -0.33853  -0.33477  -0.33116  -0.32369  -0.32124
 Alpha  occ. eigenvalues --   -0.31618  -0.30267  -0.30069  -0.29092  -0.29031
 Alpha  occ. eigenvalues --   -0.28544  -0.26544  -0.25222  -0.24083  -0.23663
 Alpha  occ. eigenvalues --   -0.23205  -0.22844  -0.22357  -0.22343  -0.17891
 Alpha virt. eigenvalues --   -0.12954  -0.07626  -0.04265  -0.04091  -0.02149
 Alpha virt. eigenvalues --    0.01044   0.01685   0.01952   0.02948   0.03248
 Alpha virt. eigenvalues --    0.03824   0.04113   0.04795   0.04937   0.05313
 Alpha virt. eigenvalues --    0.05601   0.05757   0.06100   0.06583   0.07022
 Alpha virt. eigenvalues --    0.07431   0.07676   0.08109   0.08493   0.08616
 Alpha virt. eigenvalues --    0.08778   0.09363   0.09394   0.09774   0.10377
 Alpha virt. eigenvalues --    0.10884   0.11547   0.11672   0.11985   0.12452
 Alpha virt. eigenvalues --    0.12732   0.13199   0.13337   0.13891   0.14332
 Alpha virt. eigenvalues --    0.14426   0.15163   0.15416   0.15945   0.16046
 Alpha virt. eigenvalues --    0.16585   0.17137   0.17599   0.17949   0.18424
 Alpha virt. eigenvalues --    0.19231   0.19523   0.19641   0.20136   0.20429
 Alpha virt. eigenvalues --    0.21496   0.21574   0.21902   0.22635   0.23048
 Alpha virt. eigenvalues --    0.23263   0.23871   0.24131   0.24210   0.24354
 Alpha virt. eigenvalues --    0.25027   0.25306   0.25879   0.26689   0.27068
 Alpha virt. eigenvalues --    0.27624   0.28331   0.28498   0.28775   0.29258
 Alpha virt. eigenvalues --    0.29338   0.30335   0.30835   0.31111   0.31334
 Alpha virt. eigenvalues --    0.32010   0.32299   0.32656   0.32987   0.33861
 Alpha virt. eigenvalues --    0.34094   0.34836   0.35299   0.36346   0.36650
 Alpha virt. eigenvalues --    0.37097   0.37333   0.37991   0.38838   0.39346
 Alpha virt. eigenvalues --    0.39991   0.40563   0.40836   0.40984   0.42375
 Alpha virt. eigenvalues --    0.42502   0.42781   0.43022   0.43362   0.43572
 Alpha virt. eigenvalues --    0.44297   0.44451   0.44751   0.45085   0.45362
 Alpha virt. eigenvalues --    0.45417   0.45908   0.46094   0.46769   0.46857
 Alpha virt. eigenvalues --    0.47062   0.47225   0.47668   0.47947   0.48201
 Alpha virt. eigenvalues --    0.48653   0.48845   0.48974   0.49359   0.49833
 Alpha virt. eigenvalues --    0.50199   0.50628   0.50917   0.51379   0.51543
 Alpha virt. eigenvalues --    0.51678   0.52111   0.52408   0.53049   0.53943
 Alpha virt. eigenvalues --    0.54112   0.54778   0.55252   0.55751   0.55872
 Alpha virt. eigenvalues --    0.56241   0.56505   0.56847   0.57413   0.57579
 Alpha virt. eigenvalues --    0.58103   0.58212   0.58469   0.58789   0.58883
 Alpha virt. eigenvalues --    0.59237   0.59421   0.59721   0.59964   0.60287
 Alpha virt. eigenvalues --    0.60585   0.61108   0.61311   0.61618   0.62055
 Alpha virt. eigenvalues --    0.62252   0.62463   0.62516   0.62782   0.63198
 Alpha virt. eigenvalues --    0.63416   0.63634   0.63879   0.64273   0.64513
 Alpha virt. eigenvalues --    0.64875   0.65075   0.65277   0.65398   0.65922
 Alpha virt. eigenvalues --    0.66223   0.66524   0.66638   0.67017   0.67306
 Alpha virt. eigenvalues --    0.67412   0.68040   0.68229   0.68641   0.68786
 Alpha virt. eigenvalues --    0.69123   0.69392   0.69724   0.70204   0.70460
 Alpha virt. eigenvalues --    0.70871   0.71193   0.71300   0.71563   0.71966
 Alpha virt. eigenvalues --    0.72263   0.72776   0.73253   0.73697   0.73814
 Alpha virt. eigenvalues --    0.73872   0.74373   0.74462   0.74777   0.75095
 Alpha virt. eigenvalues --    0.75715   0.76627   0.76946   0.77133   0.77792
 Alpha virt. eigenvalues --    0.78017   0.78499   0.78874   0.79004   0.80369
 Alpha virt. eigenvalues --    0.80867   0.81033   0.81260   0.81635   0.81907
 Alpha virt. eigenvalues --    0.82977   0.83336   0.84021   0.84745   0.85221
 Alpha virt. eigenvalues --    0.85461   0.85666   0.86743   0.87245   0.87469
 Alpha virt. eigenvalues --    0.87657   0.88724   0.88892   0.89204   0.89388
 Alpha virt. eigenvalues --    0.90237   0.91158   0.92228   0.92670   0.93931
 Alpha virt. eigenvalues --    0.94457   0.95106   0.95241   0.95551   0.96027
 Alpha virt. eigenvalues --    0.97418   0.97919   0.97989   0.98575   0.98859
 Alpha virt. eigenvalues --    0.99684   0.99894   1.00490   1.01356   1.01548
 Alpha virt. eigenvalues --    1.02707   1.03556   1.04654   1.05764   1.06867
 Alpha virt. eigenvalues --    1.07144   1.07454   1.08398   1.09165   1.09470
 Alpha virt. eigenvalues --    1.10569   1.10795   1.11414   1.11720   1.12611
 Alpha virt. eigenvalues --    1.12871   1.13753   1.15057   1.15225   1.15421
 Alpha virt. eigenvalues --    1.15813   1.16627   1.17227   1.18017   1.18520
 Alpha virt. eigenvalues --    1.19555   1.19826   1.20269   1.20614   1.20852
 Alpha virt. eigenvalues --    1.21748   1.22866   1.23541   1.24252   1.24904
 Alpha virt. eigenvalues --    1.25386   1.25434   1.26060   1.26570   1.27698
 Alpha virt. eigenvalues --    1.28216   1.29277   1.29399   1.30472   1.30994
 Alpha virt. eigenvalues --    1.31961   1.32502   1.33377   1.34015   1.34635
 Alpha virt. eigenvalues --    1.34882   1.35676   1.35828   1.36986   1.37308
 Alpha virt. eigenvalues --    1.38465   1.39596   1.40326   1.40907   1.41173
 Alpha virt. eigenvalues --    1.41431   1.42487   1.42905   1.44324   1.45374
 Alpha virt. eigenvalues --    1.45456   1.46597   1.46710   1.47378   1.47777
 Alpha virt. eigenvalues --    1.48305   1.48687   1.49076   1.49839   1.50569
 Alpha virt. eigenvalues --    1.50981   1.51252   1.51783   1.52114   1.52704
 Alpha virt. eigenvalues --    1.53989   1.54320   1.54579   1.55300   1.55800
 Alpha virt. eigenvalues --    1.57183   1.57758   1.58033   1.58757   1.58863
 Alpha virt. eigenvalues --    1.59996   1.60489   1.61105   1.61712   1.62298
 Alpha virt. eigenvalues --    1.62682   1.63243   1.63978   1.64156   1.64858
 Alpha virt. eigenvalues --    1.64888   1.65741   1.65850   1.66276   1.66695
 Alpha virt. eigenvalues --    1.66795   1.66996   1.67621   1.67918   1.68145
 Alpha virt. eigenvalues --    1.68741   1.68986   1.69111   1.69792   1.70012
 Alpha virt. eigenvalues --    1.70355   1.71256   1.71574   1.71958   1.72315
 Alpha virt. eigenvalues --    1.72845   1.73408   1.73754   1.73942   1.74627
 Alpha virt. eigenvalues --    1.74816   1.75339   1.75948   1.76298   1.76500
 Alpha virt. eigenvalues --    1.76967   1.77467   1.78125   1.78847   1.79033
 Alpha virt. eigenvalues --    1.79353   1.80038   1.80581   1.80985   1.81009
 Alpha virt. eigenvalues --    1.81599   1.81960   1.82983   1.83168   1.83579
 Alpha virt. eigenvalues --    1.83759   1.84697   1.84788   1.84824   1.85538
 Alpha virt. eigenvalues --    1.85954   1.86052   1.86406   1.86963   1.87611
 Alpha virt. eigenvalues --    1.87704   1.88768   1.89259   1.89808   1.90256
 Alpha virt. eigenvalues --    1.90726   1.91534   1.91897   1.92667   1.93053
 Alpha virt. eigenvalues --    1.93350   1.93996   1.94558   1.95023   1.95462
 Alpha virt. eigenvalues --    1.95660   1.96031   1.96788   1.97823   1.97974
 Alpha virt. eigenvalues --    1.98533   1.98871   1.99502   1.99668   2.00483
 Alpha virt. eigenvalues --    2.00910   2.01088   2.02587   2.03009   2.03464
 Alpha virt. eigenvalues --    2.03979   2.04052   2.04277   2.04534   2.04731
 Alpha virt. eigenvalues --    2.05065   2.06121   2.06629   2.06793   2.07106
 Alpha virt. eigenvalues --    2.07723   2.08243   2.08811   2.09029   2.09791
 Alpha virt. eigenvalues --    2.10454   2.11130   2.11741   2.12244   2.12913
 Alpha virt. eigenvalues --    2.13605   2.13996   2.14670   2.15167   2.15837
 Alpha virt. eigenvalues --    2.15931   2.16623   2.17106   2.17752   2.18369
 Alpha virt. eigenvalues --    2.19369   2.19518   2.20901   2.21324   2.21973
 Alpha virt. eigenvalues --    2.23290   2.23474   2.24403   2.24815   2.25067
 Alpha virt. eigenvalues --    2.25754   2.26686   2.27189   2.27821   2.28414
 Alpha virt. eigenvalues --    2.28871   2.29836   2.30031   2.30714   2.31966
 Alpha virt. eigenvalues --    2.32359   2.33070   2.33639   2.33717   2.34089
 Alpha virt. eigenvalues --    2.35496   2.36132   2.36557   2.36871   2.37464
 Alpha virt. eigenvalues --    2.38052   2.38803   2.39757   2.40561   2.40749
 Alpha virt. eigenvalues --    2.42126   2.42740   2.43321   2.44183   2.45326
 Alpha virt. eigenvalues --    2.45879   2.46347   2.47100   2.48147   2.49752
 Alpha virt. eigenvalues --    2.50285   2.50959   2.51769   2.52788   2.53208
 Alpha virt. eigenvalues --    2.54094   2.54685   2.55661   2.55850   2.57354
 Alpha virt. eigenvalues --    2.57564   2.58954   2.59614   2.60625   2.61454
 Alpha virt. eigenvalues --    2.62193   2.62894   2.63094   2.63510   2.64752
 Alpha virt. eigenvalues --    2.65002   2.65977   2.66949   2.67236   2.67941
 Alpha virt. eigenvalues --    2.68441   2.69068   2.69604   2.70084   2.70677
 Alpha virt. eigenvalues --    2.71009   2.71355   2.71833   2.72069   2.72743
 Alpha virt. eigenvalues --    2.73529   2.74538   2.75750   2.76013   2.76867
 Alpha virt. eigenvalues --    2.78257   2.78412   2.78981   2.79419   2.80728
 Alpha virt. eigenvalues --    2.81425   2.82499   2.82692   2.83205   2.84188
 Alpha virt. eigenvalues --    2.84793   2.85056   2.85812   2.86206   2.87025
 Alpha virt. eigenvalues --    2.87605   2.89300   2.90370   2.90967   2.91849
 Alpha virt. eigenvalues --    2.92086   2.92948   2.93586   2.94329   2.96543
 Alpha virt. eigenvalues --    2.97745   2.98439   2.98494   2.99780   3.00130
 Alpha virt. eigenvalues --    3.00655   3.01869   3.03645   3.05079   3.05891
 Alpha virt. eigenvalues --    3.06467   3.06796   3.07662   3.08866   3.10115
 Alpha virt. eigenvalues --    3.10628   3.13513   3.15196   3.15735   3.16027
 Alpha virt. eigenvalues --    3.16814   3.17092   3.18367   3.20634   3.21051
 Alpha virt. eigenvalues --    3.21451   3.25409   3.27555   3.28636   3.30255
 Alpha virt. eigenvalues --    3.32655   3.37500   3.40193   3.41246   3.42766
 Alpha virt. eigenvalues --    3.43695   3.50487   3.56882   3.60341   3.61252
 Alpha virt. eigenvalues --    3.62576   3.62874   3.65579   3.68488   3.69092
 Alpha virt. eigenvalues --    3.74975   3.77824
          Condensed to atoms (all electrons):
 Mulliken charges:
               1
     1  O   -0.222873
     2  O   -0.272795
     3  O   -0.135306
     4  O   -0.080056
     5  O   -0.283854
     6  O   -0.254539
     7  N    0.053379
     8  N   -0.215972
     9  N   -0.099251
    10  N   -0.358576
    11  C    0.043441
    12  C    0.298804
    13  C   -0.190815
    14  C   -0.128077
    15  C   -0.114695
    16  C   -0.089519
    17  C   -0.158817
    18  C    0.103978
    19  C    0.005847
    20  C   -0.145917
    21  C    0.147289
    22  C    0.117435
    23  C   -0.142445
    24  C    0.109506
    25  C    0.021818
    26  C   -0.085266
    27  C   -0.025394
    28  C    0.046393
    29  C    0.196035
    30  C   -0.041225
    31  C   -0.070113
    32  C    0.006453
    33  C   -0.100049
    34  C    0.153194
    35  C    0.110947
    36  C   -0.087453
    37  C    0.115444
    38  C    0.120271
    39  C   -0.161112
    40  C    0.187912
    41  C   -0.104374
    42  C    0.026209
    43  C   -0.034636
    44  H    0.006687
    45  H   -0.052511
    46  H   -0.013652
    47  H    0.095633
    48  H    0.145345
    49  H   -0.010679
    50  H    0.006975
    51  H    0.042980
    52  H   -0.023693
    53  H    0.008265
    54  H    0.056989
    55  H    0.021910
    56  H    0.056605
    57  H    0.060493
    58  H   -0.006299
    59  H    0.087691
    60  H    0.235670
    61  H    0.017975
    62  H    0.003101
    63  H    0.048544
    64  H    0.058466
    65  H    0.089196
    66  H    0.054612
    67  H    0.025854
    68  H    0.045758
    69  H    0.022806
    70  H    0.018706
    71  H    0.031846
    72  H    0.181176
    73  H    0.020679
    74  H    0.030267
    75  H    0.048588
    76  H    0.065216
    77  H    0.176220
    78  H    0.028321
    79  H    0.053037
 Sum of Mulliken charges =  -0.00000
 Mulliken charges with hydrogens summed into heavy atoms:
               1
     1  O   -0.222873
     2  O   -0.091619
     3  O   -0.135306
     4  O    0.096164
     5  O   -0.283854
     6  O   -0.254539
     7  N    0.149012
     8  N   -0.070627
     9  N    0.136419
    10  N   -0.358576
    11  C    0.050127
    12  C    0.232641
    13  C   -0.190815
    14  C   -0.128077
    15  C   -0.114695
    16  C   -0.089519
    17  C   -0.158817
    18  C    0.100274
    19  C    0.005847
    20  C   -0.102938
    21  C    0.147289
    22  C    0.117435
    23  C   -0.142445
    24  C    0.151066
    25  C    0.160825
    26  C   -0.085266
    27  C    0.055998
    28  C    0.046393
    29  C    0.217111
    30  C    0.007319
    31  C    0.077549
    32  C    0.132676
    33  C   -0.077244
    34  C    0.153194
    35  C    0.110947
    36  C   -0.036901
    37  C    0.115444
    38  C    0.120271
    39  C   -0.161112
    40  C    0.187912
    41  C   -0.083695
    42  C    0.170280
    43  C    0.046722
 Electronic spatial extent (au):  <R**2>=          25527.7578
 Charge=             -0.0000 electrons
 Dipole moment (field-independent basis, Debye):
    X=              3.4939    Y=              2.7645    Z=             -1.7926  Tot=              4.8025
 Quadrupole moment (field-independent basis, Debye-Ang):
   XX=           -229.2127   YY=           -249.2917   ZZ=           -259.6866
   XY=             -1.3306   XZ=            -19.1297   YZ=            -18.6241
 Traceless Quadrupole moment (field-independent basis, Debye-Ang):
   XX=             16.8509   YY=             -3.2280   ZZ=            -13.6229
   XY=             -1.3306   XZ=            -19.1297   YZ=            -18.6241
 Octapole moment (field-independent basis, Debye-Ang**2):
  XXX=            186.8252  YYY=            150.0969  ZZZ=            -64.2357  XYY=            -33.1283
  XXY=             18.0837  XXZ=             24.1789  XZZ=             23.8893  YZZ=             36.7621
  YYZ=             30.9930  XYZ=             12.8919
 Hexadecapole moment (field-independent basis, Debye-Ang**3):
 XXXX=         -16439.2694 YYYY=          -8330.2769 ZZZZ=          -7301.6135 XXXY=              4.6559
 XXXZ=            -30.9657 YYYX=            307.1002 YYYZ=             91.8520 ZZZX=           -362.3940
 ZZZY=            -57.0755 XXYY=          -4550.7462 XXZZ=          -4361.8464 YYZZ=          -2541.5082
 XXYZ=           -260.7933 YYXZ=            197.2285 ZZXY=            -95.6133
 N-N= 5.211934286579D+03 E-N=-1.495324605088D+04  KE= 1.927642258712D+03
 1\1\GINC-PADAWAN\SP\RB3LYP TD-FC\SVP\C33H36N4O6\PADAWAN\30-Jul-2019\0\
 \# td=(NStates=1) B3LYP/SVP\\TD\\0,1\O,0,-3.0248793981,-1.5665117067,-
 2.8361342677\O,0,2.9747779326,3.2485365122,3.2746017311\O,0,3.59212352
 06,1.5346505934,4.5612605697\O,0,7.526531256,-1.4257986941,-0.91921268
 31\O,0,6.6542195784,-3.1283136263,-1.9912855767\O,0,-2.6262635329,1.63
 8869376,1.3817982403\N,0,-0.3708028265,-2.305406855,0.9099658374\N,0,-
 2.5321352515,-1.2311482498,-0.6045225969\N,0,1.1966312125,0.0546263723
 ,-0.6823531725\N,0,-1.0003491804,1.4011155195,-0.2728681847\C,0,-3.265
 2116709,-1.3181393763,0.5947464485\C,0,-2.6719158177,-2.2540295492,1.7
 490102078\C,0,-1.2526709088,-1.920739888,1.8153095196\C,0,-0.589278730
 2,-1.2095121429,2.8321712376\C,0,0.7202831409,-1.1173567367,2.48922011
 66\C,0,0.8625489411,-1.8336598007,1.2409288969\C,0,-4.6458795346,-1.89
 70453532,0.1785147388\C,0,1.8882734187,-0.338714201,3.2123233868\C,0,-
 4.6907554369,-2.0944781562,-1.1705974002\C,0,1.983156272,-1.994907683,
 0.2187641551\C,0,2.0365896809,-0.9808699992,-0.6775016517\C,0,-3.36492
 1162,-1.6623782031,-1.6779350769\C,0,2.8880898722,-0.8464653948,-1.913
 2652254\C,0,-1.2833269049,-0.4158754445,3.8938948978\C,0,-5.7534105652
 ,-2.0683633166,1.0791489205\C,0,2.4305227092,0.3904964178,-2.479222532
 3\C,0,1.8331927517,1.2510007921,2.8928559272\C,0,1.3404174082,0.854592
 1078,-1.8040565117\C,0,4.1182271718,-1.6553049596,-2.2317028004\C,0,-5
 .6787322093,-2.6287549659,-2.0353369819\C,0,5.3750530563,-1.1462063658
 ,-1.4160350204\C,0,3.0489449899,0.9371721198,-3.7601425235\C,0,0.44751
 71758,1.9491500619,-2.0476365088\C,0,2.9060292432,1.9151110966,3.72451
 7797\C,0,-0.5938832199,2.3187165039,-1.2818234702\C,0,-6.7416180883,-3
 .3599097551,-1.6765462133\C,0,6.5353731069,-2.0431525704,-1.3793286229
 \C,0,-1.4148201368,3.6735695902,-1.1759556703\C,0,-2.2247965691,3.5477
 752565,-0.0636642726\C,0,-1.9430465771,2.0822991634,0.4355224842\C,0,-
 1.0960695854,4.6856348237,-2.0419959676\C,0,-3.2288035169,4.4286233452
 ,0.586542894\C,0,-1.9606599572,5.7730227205,-2.1899127241\H,0,-3.19754
 8248,-0.3623217221,1.0283370383\H,0,-2.8338550119,-3.2416092859,1.4242
 927784\H,0,-3.118191639,-2.0707805225,2.7475141401\H,0,-0.5202973345,-
 2.700398805,0.0235293629\H,0,-1.9926276525,-0.3661729208,-0.723016404\
 H,0,1.6191698784,-0.4269841522,4.2081229114\H,0,2.936981031,-0.6460865
 ,2.9235972891\H,0,2.725911405,-2.8501165946,0.2933223854\H,0,-1.904933
 1226,-1.1361728913,4.2571127731\H,0,-0.7264924172,0.2536411605,4.50273
 66302\H,0,-2.124481762,0.210343481,3.2280415695\H,0,-5.5298337706,-1.5
 079589271,1.959620255\H,0,-5.9937781385,-3.2612502296,1.339916838\H,0,
 -6.649812358,-1.7120868521,0.4139277545\H,0,2.0310392433,1.1557155135,
 1.9235699683\H,0,0.6834082923,1.5216844127,3.1249804717\H,0,0.23125138
 27,0.4082751973,-0.2232243547\H,0,4.0844641656,-1.7557086299,-3.284094
 0113\H,0,3.815192349,-2.6317749567,-1.8967567837\H,0,-5.4335954979,-2.
 5732582504,-3.2226157254\H,0,5.19118704,-0.9616966496,-0.3279895753\H,
 0,5.7935908004,-0.0324702431,-2.1677112536\H,0,4.050004912,0.318378329
 9,-4.1608743169\H,0,3.4573214837,2.0017012488,-3.5437867141\H,0,2.3200
 877981,1.261270625,-4.568329985\H,0,1.0551594259,2.7685983563,-2.65253
 61456\H,0,-7.0930083869,-3.7341555995,-0.7139204132\H,0,-7.4774560105,
 -3.6452358541,-2.5531683703\H,0,3.5741011376,3.8627756386,3.7758608403
 \H,0,-0.2411979986,4.5015114306,-2.7932672221\H,0,-3.9238309727,4.2940
 759894,-0.1573768892\H,0,-3.8405028,4.1105758512,1.5227430857\H,0,-2.8
 480831245,5.5695672478,0.8140671766\H,0,8.1758432778,-2.1592190761,-0.
 9992805631\H,0,-1.6040433289,6.4758480419,-2.9523500872\H,0,-2.9264349
 964,5.8836197378,-1.5676326708\\Version=ES64L-G16RevA.03\State=1-A\HF=
 -1947.7825908\RMSD=7.432e-09\PG=C01 [X(C33H36N4O6)]\\@


      HUMANKIND PERIODICALLY GOES THROUGH A SPEEDUP OF ITS AFFAIRS, 
      THEREBY EXPERIENCING THE RACE BETWEEN THE RENEWABLE VITALITY
      OF THE LIVING, AND THE BECKONING VITIATION OF DECADENCE.
      IN THIS PERIODIC RACE, ANY PAUSE BECOMES A LUXURY.
      ONLY THEN CAN ONE REFLECT THAT ALL IS PERMITTED;
      ALL IS POSSIBLE.

                              -- THE APOCRYPHA OF MUAD'DIB
                                 CHILDREN OF DUNE, BY FRANK HERBERT
 Job cpu time:       0 days  4 hours 10 minutes 41.4 seconds.
 Elapsed time:       0 days  1 hours  2 minutes 49.1 seconds.
 File lengths (MBytes):  RWF=   2533 Int=      0 D2E=      0 Chk=     63 Scr=      1
 Normal termination of Gaussian 16 at Tue Jul 30 21:15:13 2019.
