 Entering Gaussian System, Link 0=g16
 Input=Geometria-272-.com
 Output=Geometria-272-.log
 Initial command:
 /usr/local/g16/l1.exe "/home/padawan/israel-mol/dihydrobiliverdin/spectra/emi/Gau-7571.inp" -scrdir="/home/padawan/israel-mol/dihydrobiliverdin/spectra/emi/"
 Entering Link 1 = /usr/local/g16/l1.exe PID=      7573.
  
 Copyright (c) 1988,1990,1992,1993,1995,1998,2003,2009,2016,
            Gaussian, Inc.  All Rights Reserved.
  
 This is part of the Gaussian(R) 16 program.  It is based on
 the Gaussian(R) 09 system (copyright 2009, Gaussian, Inc.),
 the Gaussian(R) 03 system (copyright 2003, Gaussian, Inc.),
 the Gaussian(R) 98 system (copyright 1998, Gaussian, Inc.),
 the Gaussian(R) 94 system (copyright 1995, Gaussian, Inc.),
 the Gaussian 92(TM) system (copyright 1992, Gaussian, Inc.),
 the Gaussian 90(TM) system (copyright 1990, Gaussian, Inc.),
 the Gaussian 88(TM) system (copyright 1988, Gaussian, Inc.),
 the Gaussian 86(TM) system (copyright 1986, Carnegie Mellon
 University), and the Gaussian 82(TM) system (copyright 1983,
 Carnegie Mellon University). Gaussian is a federally registered
 trademark of Gaussian, Inc.
  
 This software contains proprietary and confidential information,
 including trade secrets, belonging to Gaussian, Inc.
  
 This software is provided under written license and may be
 used, copied, transmitted, or stored only in accord with that
 written license.
  
 The following legend is applicable only to US Government
 contracts under FAR:
  
                    RESTRICTED RIGHTS LEGEND
  
 Use, reproduction and disclosure by the US Government is
 subject to restrictions as set forth in subparagraphs (a)
 and (c) of the Commercial Computer Software - Restricted
 Rights clause in FAR 52.227-19.
  
 Gaussian, Inc.
 340 Quinnipiac St., Bldg. 40, Wallingford CT 06492
  
  
 ---------------------------------------------------------------
 Warning -- This program may not be used in any manner that
 competes with the business of Gaussian, Inc. or will provide
 assistance to any competitor of Gaussian, Inc.  The licensee
 of this program is prohibited from giving any competitor of
 Gaussian, Inc. access to this program.  By using this program,
 the user acknowledges that Gaussian, Inc. is engaged in the
 business of creating and licensing software in the field of
 computational chemistry and represents and warrants to the
 licensee that it is not a competitor of Gaussian, Inc. and that
 it will not use this program in any manner prohibited above.
 ---------------------------------------------------------------
  

 Cite this work as:
 Gaussian 16, Revision A.03,
 M. J. Frisch, G. W. Trucks, H. B. Schlegel, G. E. Scuseria, 
 M. A. Robb, J. R. Cheeseman, G. Scalmani, V. Barone, 
 G. A. Petersson, H. Nakatsuji, X. Li, M. Caricato, A. V. Marenich, 
 J. Bloino, B. G. Janesko, R. Gomperts, B. Mennucci, H. P. Hratchian, 
 J. V. Ortiz, A. F. Izmaylov, J. L. Sonnenberg, D. Williams-Young, 
 F. Ding, F. Lipparini, F. Egidi, J. Goings, B. Peng, A. Petrone, 
 T. Henderson, D. Ranasinghe, V. G. Zakrzewski, J. Gao, N. Rega, 
 G. Zheng, W. Liang, M. Hada, M. Ehara, K. Toyota, R. Fukuda, 
 J. Hasegawa, M. Ishida, T. Nakajima, Y. Honda, O. Kitao, H. Nakai, 
 T. Vreven, K. Throssell, J. A. Montgomery, Jr., J. E. Peralta, 
 F. Ogliaro, M. J. Bearpark, J. J. Heyd, E. N. Brothers, K. N. Kudin, 
 V. N. Staroverov, T. A. Keith, R. Kobayashi, J. Normand, 
 K. Raghavachari, A. P. Rendell, J. C. Burant, S. S. Iyengar, 
 J. Tomasi, M. Cossi, J. M. Millam, M. Klene, C. Adamo, R. Cammi, 
 J. W. Ochterski, R. L. Martin, K. Morokuma, O. Farkas, 
 J. B. Foresman, and D. J. Fox, Gaussian, Inc., Wallingford CT, 2016.
 
 ******************************************
 Gaussian 16:  ES64L-G16RevA.03 25-Dec-2016
                28-Jul-2019 
 ******************************************
 %nproc=4
 Will use up to    4 processors via shared memory.
 %Mem=3GB
 --------------------------
 # td=(NStates=1) B3LYP/SVP
 --------------------------
 1/38=1,172=1/1;
 2/12=2,17=6,18=5,40=1/2;
 3/5=18,7=101,11=9,25=1,30=1,74=-5/1,2,3,8;
 4//1;
 5/5=2,38=5/2;
 8/6=1,10=1,108=1/1;
 9/41=1,42=1,70=2/14;
 6/7=2,8=2,9=2,10=2/1;
 99/5=1,9=1/99;
 --
 TD
 --
 Symbolic Z-matrix:
 Charge =  0 Multiplicity = 1
 8                    -3.2409   -1.26113  -2.87575 
 8                     3.23606   3.03042   2.95085 
 8                     3.56695   1.39804   4.44754 
 8                     7.77429  -1.60739  -0.70952 
 8                     6.62685  -3.1003   -1.88794 
 8                    -2.6814    1.73453   1.45737 
 7                    -0.21316  -2.35369   0.92331 
 7                    -2.74696  -1.15888  -0.58041 
 7                     1.18964   0.17535  -0.67825 
 7                    -1.01144   1.49109  -0.27933 
 6                    -3.36056  -1.28721   0.66106 
 6                    -2.62338  -2.31      1.67361 
 6                    -1.27316  -2.07977   1.83713 
 6                    -0.5322   -1.26896   2.82117 
 6                     0.73971  -1.19783   2.49113 
 6                     0.94138  -1.83514   1.26946 
 6                    -4.7513   -1.92504   0.29079 
 6                     1.84769  -0.38806   3.28076 
 6                    -4.80992  -2.01821  -1.02201 
 6                     2.08497  -1.80146   0.30751 
 6                     2.16586  -0.78391  -0.64704 
 6                    -3.58905  -1.37649  -1.68902 
 6                     2.98242  -0.63483  -1.81492 
 6                    -1.18546  -0.6519    3.91331 
 6                    -5.73417  -2.48346   1.40778 
 6                     2.49275   0.44465  -2.44329 
 6                     1.99197   0.96494   2.65282 
 6                     1.32195   0.94574  -1.82233 
 6                     4.23068  -1.47773  -2.03972 
 6                    -5.77048  -2.46905  -2.01252 
 6                     5.46573  -1.12127  -1.21436 
 6                     3.07638   1.04256  -3.65979 
 6                     0.55057   2.10083  -2.02083 
 6                     2.95168   1.82671   3.42486 
 6                    -0.59331   2.3674   -1.21348 
 6                    -6.81131  -3.34979  -1.81658 
 6                     6.63476  -2.09209  -1.31638 
 6                    -1.44432   3.58687  -1.30962 
 6                    -2.37897   3.39716  -0.32651 
 6                    -2.08684   2.1644    0.43857 
 6                    -1.28293   4.64542  -2.24015 
 6                    -3.48644   4.33636   0.23147 
 6                    -1.94888   5.80382  -2.23552 
 1                    -3.65019  -0.282     1.24272 
 1                    -2.92744  -3.31747   1.34653 
 1                    -3.34925  -2.06791   2.56769 
 1                    -0.58406  -2.58613  -0.02194 
 1                    -2.1815   -0.09835  -0.67923 
 1                     1.38389  -0.22636   4.33257 
 1                     2.74809  -0.85836   3.27131 
 1                     2.83772  -2.59373   0.19478 
 1                    -1.99147  -1.39299   4.24695 
 1                    -0.55009  -0.38658   4.83875 
 1                    -1.68668   0.24038   3.78416 
 1                    -5.71463  -1.70077   2.1243 
 1                    -5.10143  -3.50605   1.62827 
 1                    -6.85533  -2.67359   0.80813 
 1                     2.18144   1.10866   1.51321 
 1                     0.97711   1.52492   2.63472 
 1                     0.18442   0.39927  -0.20477 
 1                     4.51068  -1.76573  -3.08361 
 1                     4.02946  -2.60524  -1.50174 
 1                    -5.58767  -2.32695  -3.14293 
 1                     5.1825   -1.09711  -0.15273 
 1                     5.84276  -0.15832  -1.65966 
 1                     3.54014   0.15166  -4.02273 
 1                     3.79221   1.83564  -3.4546 
 1                     2.391     1.37409  -4.39659 
 1                     0.81694   2.70885  -2.88213 
 1                    -7.07127  -3.7381   -0.83359 
 1                    -7.62686  -3.38002  -2.56351 
 1                     3.75642   3.6348    3.58567 
 1                    -0.59357   4.55179  -3.07643 
 1                    -4.31247   4.3473   -0.47635 
 1                    -3.78991   4.00465   1.29541 
 1                    -3.01196   5.30664   0.39197 
 1                     8.579    -2.23356  -1.03938 
 1                    -1.69165   6.61067  -3.12293 
 1                    -2.38901   6.40732  -1.33813 
 
 Stoichiometry    C33H36N4O6
 Framework group  C1[X(C33H36N4O6)]
 Deg. of freedom   231
 Full point group                 C1      NOp   1
 Largest Abelian subgroup         C1      NOp   1
 Largest concise Abelian subgroup C1      NOp   1
                         Standard orientation:                         
 ---------------------------------------------------------------------
 Center     Atomic      Atomic             Coordinates (Angstroms)
 Number     Number       Type             X           Y           Z
 ---------------------------------------------------------------------
      1          8           0       -3.244801   -0.971598   -2.981533
      2          8           0        3.232029    2.721293    3.241891
      3          8           0        3.578022    0.942463    4.557301
      4          8           0        7.780862   -1.478631   -0.901999
      5          8           0        6.636899   -2.846023   -2.227011
      6          8           0       -2.684217    1.554723    1.640842
      7          7           0       -0.195620   -2.439910    0.670905
      8          7           0       -2.742085   -1.108527   -0.689909
      9          7           0        1.186649    0.251884   -0.660433
     10          7           0       -1.020025    1.505286   -0.117610
     11          6           0       -3.349911   -1.370411    0.533284
     12          6           0       -2.602973   -2.489686    1.429997
     13          6           0       -1.253393   -2.269949    1.612156
     14          6           0       -0.512923   -1.562817    2.673491
     15          6           0        0.757218   -1.449827    2.348360
     16          6           0        0.957431   -1.953833    1.065708
     17          6           0       -4.738600   -1.973964    0.102757
     18          6           0        1.863918   -0.721090    3.214986
     19          6           0       -4.802048   -1.928821   -1.212345
     20          6           0        2.096890   -1.812341    0.108687
     21          6           0        2.168275   -0.699535   -0.733740
     22          6           0       -3.587475   -1.213255   -1.812333
     23          6           0        2.979233   -0.423558   -1.882265
     24          6           0       -1.165123   -1.067988    3.826766
     25          6           0       -5.713812   -2.652642    1.158176
     26          6           0        2.481051    0.713138   -2.391830
     27          6           0        1.998161    0.691307    2.732443
     28          6           0        1.310035    1.139159   -1.717522
     29          6           0        4.231204   -1.230707   -2.198868
     30          6           0       -5.764132   -2.278607   -2.241469
     31          6           0        5.467620   -0.955775   -1.344865
     32          6           0        3.056408    1.439187   -3.540663
     33          6           0        0.531485    2.304129   -1.790675
     34          6           0        2.956236    1.472722    3.587559
     35          6           0       -0.610554    2.477488   -0.955782
     36          6           0       -6.799267   -3.181225   -2.135702
     37          6           0        6.641572   -1.903522   -1.552548
     38          6           0       -1.468673    3.695242   -0.920089
     39          6           0       -2.398248    3.397601    0.040828
     40          6           0       -2.096197    2.092925    0.670895
     41          6           0       -1.316920    4.846770   -1.734588
     42          6           0       -3.508606    4.266299    0.698396
     43          6           0       -1.989237    5.994282   -1.605754
     44          1           0       -3.642721   -0.433729    1.218507
     45          1           0       -2.902795   -3.458929    0.999746
     46          1           0       -3.326526   -2.347331    2.347097
     47          1           0       -0.569083   -2.573781   -0.292259
     48          1           0       -2.182901   -0.040151   -0.678521
     49          1           0        1.403516   -0.673723    4.279570
     50          1           0        2.766860   -1.182442    3.152968
     51          1           0        2.853547   -2.583880   -0.089414
     52          1           0       -1.965665   -1.844833    4.083352
     53          1           0       -0.527473   -0.897770    4.772785
     54          1           0       -1.671788   -0.170061    3.793985
     55          1           0       -5.695682   -1.949587    1.953019
     56          1           0       -5.074539   -3.688990    1.267612
     57          1           0       -6.836341   -2.785251    0.545733
     58          1           0        2.182197    0.955268    1.613635
     59          1           0        0.980156    1.244064    2.776901
     60          1           0        0.182140    0.418784   -0.162530
     61          1           0        4.508536   -1.405600   -3.268237
     62          1           0        4.038415   -2.409746   -1.781846
     63          1           0       -5.586715   -2.017270   -3.351265
     64          1           0        5.188581   -1.045138   -0.285609
     65          1           0        5.837501    0.050904   -1.687641
     66          1           0        3.523607    0.594186   -3.996960
     67          1           0        3.768682    2.210499   -3.255620
     68          1           0        2.366219    1.842342   -4.236096
     69          1           0        0.790979    3.000980   -2.584110
     70          1           0       -7.053074   -3.672348   -1.198148
     71          1           0       -7.617679   -3.137520   -2.878831
     72          1           0        3.751618    3.258586    3.934990
     73          1           0       -0.630470    4.845741   -2.578464
     74          1           0       -4.337560    4.346765   -0.001468
     75          1           0       -3.805902    3.822672    1.722562
     76          1           0       -3.038845    5.217092    0.958487
     77          1           0        8.587677   -2.061836   -1.298724
     78          1           0       -1.740088    6.891548   -2.404200
     79          1           0       -2.429039    6.497389   -0.648311
 ---------------------------------------------------------------------
 Rotational constants (GHZ):           0.0901315           0.0505498           0.0479518
 Standard basis: SVP (5D, 7F)
 There are   825 symmetry adapted cartesian basis functions of A   symmetry.
 There are   782 symmetry adapted basis functions of A   symmetry.
   782 basis functions,  1327 primitive gaussians,   825 cartesian basis functions
   155 alpha electrons      155 beta electrons
       nuclear repulsion energy      5189.8878539961 Hartrees.
 NAtoms=   79 NActive=   79 NUniq=   79 SFac= 1.00D+00 NAtFMM=   60 NAOKFM=T Big=T
 Integral buffers will be    131072 words long.
 Regular integral format.
 Two-electron integral symmetry is turned on.
 One-electron integrals computed using PRISM.
 NBasis=   782 RedAO= T EigKep=  3.03D-04  NBF=   782
 NBsUse=   782 1.00D-06 EigRej= -1.00D+00 NBFU=   782
 ExpMin= 1.22D-01 ExpMax= 2.27D+03 ExpMxC= 3.41D+02 IAcc=3 IRadAn=         5 AccDes= 0.00D+00
 Harris functional with IExCor=  402 and IRadAn=       5 diagonalized for initial guess.
 HarFok:  IExCor=  402 AccDes= 0.00D+00 IRadAn=         5 IDoV= 1 UseB2=F ITyADJ=14
 ICtDFT=  3500011 ScaDFX=  1.000000  1.000000  1.000000  1.000000
 FoFCou: FMM=F IPFlag=           0 FMFlag=      100000 FMFlg1=        2001
         NFxFlg=           0 DoJE=T BraDBF=F KetDBF=T FulRan=T
         wScrn=  0.000000 ICntrl=       500 IOpCl=  0 I1Cent=   200000004 NGrid=           0
         NMat0=    1 NMatS0=      1 NMatT0=    0 NMatD0=    1 NMtDS0=    0 NMtDT0=    0
 Petite list used in FoFCou.
 Requested convergence on RMS density matrix=1.00D-08 within 128 cycles.
 Requested convergence on MAX density matrix=1.00D-06.
 Requested convergence on             energy=1.00D-06.
 No special actions if energy rises.
 Integral accuracy reduced to 1.0D-05 until final iterations.
 Initial convergence to 1.0D-05 achieved.  Increase integral accuracy.
 SCF Done:  E(RB3LYP) =  -1947.84043423     A.U. after   19 cycles
            NFock= 19  Conv=0.37D-08     -V/T= 2.0108
 DoSCS=F DFT=T ScalE2(SS,OS)=  1.000000  1.000000
 ExpMin= 1.22D-01 ExpMax= 2.27D+03 ExpMxC= 3.41D+02 IAcc=3 IRadAn=         5 AccDes= 0.00D+00
 HarFok:  IExCor=  205 AccDes= 0.00D+00 IRadAn=         5 IDoV=-2 UseB2=F ITyADJ=14
 ICtDFT= 12500011 ScaDFX=  1.000000  1.000000  1.000000  1.000000
 GSVD:  LWork=       -2193 too small for GESVD, short by        9890 words or        9890 for optimal perf.
 Range of M.O.s used for correlation:    44   782
 NBasis=   782 NAE=   155 NBE=   155 NFC=    43 NFV=     0
 NROrb=    739 NOA=   112 NOB=   112 NVA=   627 NVB=   627

 **** Warning!!: The smallest alpha delta epsilon is  0.50975496D-01

 Orbital symmetries:
       Occupied  (A) (A) (A) (A) (A) (A) (A) (A) (A) (A) (A) (A)
                 (A) (A) (A) (A) (A) (A) (A) (A) (A) (A) (A) (A)
                 (A) (A) (A) (A) (A) (A) (A) (A) (A) (A) (A) (A)
                 (A) (A) (A) (A) (A) (A) (A) (A) (A) (A) (A) (A)
                 (A) (A) (A) (A) (A) (A) (A) (A) (A) (A) (A) (A)
                 (A) (A) (A) (A) (A) (A) (A) (A) (A) (A) (A) (A)
                 (A) (A) (A) (A) (A) (A) (A) (A) (A) (A) (A) (A)
                 (A) (A) (A) (A) (A) (A) (A) (A) (A) (A) (A) (A)
                 (A) (A) (A) (A) (A) (A) (A) (A) (A) (A) (A) (A)
                 (A) (A) (A) (A) (A) (A) (A) (A) (A) (A) (A) (A)
                 (A) (A) (A) (A) (A) (A) (A) (A) (A) (A) (A) (A)
                 (A) (A) (A) (A) (A) (A) (A) (A) (A) (A) (A) (A)
                 (A) (A) (A) (A) (A) (A) (A) (A) (A) (A) (A)
       Virtual   (A) (A) (A) (A) (A) (A) (A) (A) (A) (A) (A) (A)
                 (A) (A) (A) (A) (A) (A) (A) (A) (A) (A) (A) (A)
                 (A) (A) (A) (A) (A) (A) (A) (A) (A) (A) (A) (A)
                 (A) (A) (A) (A) (A) (A) (A) (A) (A) (A) (A) (A)
                 (A) (A) (A) (A) (A) (A) (A) (A) (A) (A) (A) (A)
                 (A) (A) (A) (A) (A) (A) (A) (A) (A) (A) (A) (A)
                 (A) (A) (A) (A) (A) (A) (A) (A) (A) (A) (A) (A)
                 (A) (A) (A) (A) (A) (A) (A) (A) (A) (A) (A) (A)
                 (A) (A) (A) (A) (A) (A) (A) (A) (A) (A) (A) (A)
                 (A) (A) (A) (A) (A) (A) (A) (A) (A) (A) (A) (A)
                 (A) (A) (A) (A) (A) (A) (A) (A) (A) (A) (A) (A)
                 (A) (A) (A) (A) (A) (A) (A) (A) (A) (A) (A) (A)
                 (A) (A) (A) (A) (A) (A) (A) (A) (A) (A) (A) (A)
                 (A) (A) (A) (A) (A) (A) (A) (A) (A) (A) (A) (A)
                 (A) (A) (A) (A) (A) (A) (A) (A) (A) (A) (A) (A)
                 (A) (A) (A) (A) (A) (A) (A) (A) (A) (A) (A) (A)
                 (A) (A) (A) (A) (A) (A) (A) (A) (A) (A) (A) (A)
                 (A) (A) (A) (A) (A) (A) (A) (A) (A) (A) (A) (A)
                 (A) (A) (A) (A) (A) (A) (A) (A) (A) (A) (A) (A)
                 (A) (A) (A) (A) (A) (A) (A) (A) (A) (A) (A) (A)
                 (A) (A) (A) (A) (A) (A) (A) (A) (A) (A) (A) (A)
                 (A) (A) (A) (A) (A) (A) (A) (A) (A) (A) (A) (A)
                 (A) (A) (A) (A) (A) (A) (A) (A) (A) (A) (A) (A)
                 (A) (A) (A) (A) (A) (A) (A) (A) (A) (A) (A) (A)
                 (A) (A) (A) (A) (A) (A) (A) (A) (A) (A) (A) (A)
                 (A) (A) (A) (A) (A) (A) (A) (A) (A) (A) (A) (A)
                 (A) (A) (A) (A) (A) (A) (A) (A) (A) (A) (A) (A)
                 (A) (A) (A) (A) (A) (A) (A) (A) (A) (A) (A) (A)
                 (A) (A) (A) (A) (A) (A) (A) (A) (A) (A) (A) (A)
                 (A) (A) (A) (A) (A) (A) (A) (A) (A) (A) (A) (A)
                 (A) (A) (A) (A) (A) (A) (A) (A) (A) (A) (A) (A)
                 (A) (A) (A) (A) (A) (A) (A) (A) (A) (A) (A) (A)
                 (A) (A) (A) (A) (A) (A) (A) (A) (A) (A) (A) (A)
                 (A) (A) (A) (A) (A) (A) (A) (A) (A) (A) (A) (A)
                 (A) (A) (A) (A) (A) (A) (A) (A) (A) (A) (A) (A)
                 (A) (A) (A) (A) (A) (A) (A) (A) (A) (A) (A) (A)
                 (A) (A) (A) (A) (A) (A) (A) (A) (A) (A) (A) (A)
                 (A) (A) (A) (A) (A) (A) (A) (A) (A) (A) (A) (A)
                 (A) (A) (A) (A) (A) (A) (A) (A) (A) (A) (A) (A)
                 (A) (A) (A) (A) (A) (A) (A) (A) (A) (A) (A) (A)
                 (A) (A) (A) (A) (A) (A) (A) (A) (A) (A) (A) (A)
                 (A) (A) (A) (A) (A) (A) (A) (A) (A) (A) (A) (A)
                 (A) (A) (A) (A) (A) (A) (A) (A) (A) (A) (A) (A)
                 (A) (A) (A) (A) (A) (A) (A) (A) (A) (A) (A) (A)
                 (A) (A) (A) (A) (A) (A) (A) (A) (A) (A) (A) (A)
                 (A) (A) (A) (A) (A) (A) (A) (A) (A) (A) (A) (A)
                 (A) (A) (A) (A) (A) (A) (A) (A) (A) (A) (A) (A)
                 (A) (A) (A) (A) (A) (A) (A) (A) (A) (A) (A) (A)
                 (A) (A) (A) (A) (A) (A) (A) (A) (A) (A) (A) (A)
                 (A) (A) (A) (A) (A) (A) (A) (A) (A) (A) (A) (A)
                 (A) (A) (A) (A) (A) (A) (A) (A) (A) (A) (A) (A)
                 (A) (A) (A) (A) (A) (A) (A) (A) (A) (A) (A) (A)
                 (A) (A) (A)
     4 initial guesses have been made.
 Convergence on wavefunction:    0.001000000000000
 Iteration     1 Dimension     4 NMult     0 NNew      4
 CISAX will form     4 AO SS matrices at one time.
 Iteration     2 Dimension     6 NMult     4 NNew      2
 Iteration     3 Dimension     8 NMult     6 NNew      2
 Iteration     4 Dimension    10 NMult     8 NNew      2
 Iteration     5 Dimension    12 NMult    10 NNew      2
 ***********************************************************************
 Excited states from <AA,BB:AA,BB> singles matrix:
 ***********************************************************************
 
 Ground to excited state transition densities written to RWF  633
 Ground to excited state transition electric dipole moments (Au):
       state          X           Y           Z        Dip. S.      Osc.
         1        -0.1355     -0.2484      0.1239      0.0954      0.0017
 Ground to excited state transition velocity dipole moments (Au):
       state          X           Y           Z        Dip. S.      Osc.
         1         0.0025      0.0054     -0.0020      0.0000      0.0010
 Ground to excited state transition magnetic dipole moments (Au):
       state          X           Y           Z
         1         0.0159     -0.0181     -0.1350
 Ground to excited state transition velocity quadrupole moments (Au):
       state          XX          YY          ZZ          XY          XZ          YZ
         1        -0.0013      0.0197     -0.0053     -0.0400     -0.0119     -0.0012
 <0|del|b> * <b|rxdel|0> + <0|del|b> * <b|delr+rdel|0>
 Rotatory Strengths (R) in cgs (10**-40 erg-esu-cm/Gauss)
       state          XX          YY          ZZ    R(velocity)    E-M Angle
         1         4.1249      2.9747     -1.5785      1.8403       76.02
 1/2[<0|r|b>*<b|rxdel|0> + (<0|rxdel|b>*<b|r|0>)*]
 Rotatory Strengths (R) in cgs (10**-40 erg-esu-cm/Gauss)
       state          XX          YY          ZZ     R(length)
         1         1.5197     -3.1857     11.8312      3.3884
  1/2[<0|del|b>*<b|r|0> + (<0|r|b>*<b|del|0>)*] (Au)
       state          X           Y           Z        Dip. S.   Osc.(frdel)
         1        -0.0003     -0.0013     -0.0002      0.0019      0.0013

 Excitation energies and oscillator strengths:
 
 Excited State   1:      Singlet-A      0.7202 eV 1721.64 nm  f=0.0017  <S**2>=0.000
     155 ->156         0.70361
 This state for optimization and/or second-order correction.
 Total Energy, E(TD-HF/TD-DFT) =  -1947.81396912    
 Copying the excited state density for this state as the 1-particle RhoCI density.
 SavETr:  write IOETrn=   770 NScale= 10 NData=  16 NLR=1 NState=    1 LETran=      28.

 **********************************************************************

            Population analysis using the SCF density.

 **********************************************************************

 Orbital symmetries:
       Occupied  (A) (A) (A) (A) (A) (A) (A) (A) (A) (A) (A) (A)
                 (A) (A) (A) (A) (A) (A) (A) (A) (A) (A) (A) (A)
                 (A) (A) (A) (A) (A) (A) (A) (A) (A) (A) (A) (A)
                 (A) (A) (A) (A) (A) (A) (A) (A) (A) (A) (A) (A)
                 (A) (A) (A) (A) (A) (A) (A) (A) (A) (A) (A) (A)
                 (A) (A) (A) (A) (A) (A) (A) (A) (A) (A) (A) (A)
                 (A) (A) (A) (A) (A) (A) (A) (A) (A) (A) (A) (A)
                 (A) (A) (A) (A) (A) (A) (A) (A) (A) (A) (A) (A)
                 (A) (A) (A) (A) (A) (A) (A) (A) (A) (A) (A) (A)
                 (A) (A) (A) (A) (A) (A) (A) (A) (A) (A) (A) (A)
                 (A) (A) (A) (A) (A) (A) (A) (A) (A) (A) (A) (A)
                 (A) (A) (A) (A) (A) (A) (A) (A) (A) (A) (A) (A)
                 (A) (A) (A) (A) (A) (A) (A) (A) (A) (A) (A)
       Virtual   (A) (A) (A) (A) (A) (A) (A) (A) (A) (A) (A) (A)
                 (A) (A) (A) (A) (A) (A) (A) (A) (A) (A) (A) (A)
                 (A) (A) (A) (A) (A) (A) (A) (A) (A) (A) (A) (A)
                 (A) (A) (A) (A) (A) (A) (A) (A) (A) (A) (A) (A)
                 (A) (A) (A) (A) (A) (A) (A) (A) (A) (A) (A) (A)
                 (A) (A) (A) (A) (A) (A) (A) (A) (A) (A) (A) (A)
                 (A) (A) (A) (A) (A) (A) (A) (A) (A) (A) (A) (A)
                 (A) (A) (A) (A) (A) (A) (A) (A) (A) (A) (A) (A)
                 (A) (A) (A) (A) (A) (A) (A) (A) (A) (A) (A) (A)
                 (A) (A) (A) (A) (A) (A) (A) (A) (A) (A) (A) (A)
                 (A) (A) (A) (A) (A) (A) (A) (A) (A) (A) (A) (A)
                 (A) (A) (A) (A) (A) (A) (A) (A) (A) (A) (A) (A)
                 (A) (A) (A) (A) (A) (A) (A) (A) (A) (A) (A) (A)
                 (A) (A) (A) (A) (A) (A) (A) (A) (A) (A) (A) (A)
                 (A) (A) (A) (A) (A) (A) (A) (A) (A) (A) (A) (A)
                 (A) (A) (A) (A) (A) (A) (A) (A) (A) (A) (A) (A)
                 (A) (A) (A) (A) (A) (A) (A) (A) (A) (A) (A) (A)
                 (A) (A) (A) (A) (A) (A) (A) (A) (A) (A) (A) (A)
                 (A) (A) (A) (A) (A) (A) (A) (A) (A) (A) (A) (A)
                 (A) (A) (A) (A) (A) (A) (A) (A) (A) (A) (A) (A)
                 (A) (A) (A) (A) (A) (A) (A) (A) (A) (A) (A) (A)
                 (A) (A) (A) (A) (A) (A) (A) (A) (A) (A) (A) (A)
                 (A) (A) (A) (A) (A) (A) (A) (A) (A) (A) (A) (A)
                 (A) (A) (A) (A) (A) (A) (A) (A) (A) (A) (A) (A)
                 (A) (A) (A) (A) (A) (A) (A) (A) (A) (A) (A) (A)
                 (A) (A) (A) (A) (A) (A) (A) (A) (A) (A) (A) (A)
                 (A) (A) (A) (A) (A) (A) (A) (A) (A) (A) (A) (A)
                 (A) (A) (A) (A) (A) (A) (A) (A) (A) (A) (A) (A)
                 (A) (A) (A) (A) (A) (A) (A) (A) (A) (A) (A) (A)
                 (A) (A) (A) (A) (A) (A) (A) (A) (A) (A) (A) (A)
                 (A) (A) (A) (A) (A) (A) (A) (A) (A) (A) (A) (A)
                 (A) (A) (A) (A) (A) (A) (A) (A) (A) (A) (A) (A)
                 (A) (A) (A) (A) (A) (A) (A) (A) (A) (A) (A) (A)
                 (A) (A) (A) (A) (A) (A) (A) (A) (A) (A) (A) (A)
                 (A) (A) (A) (A) (A) (A) (A) (A) (A) (A) (A) (A)
                 (A) (A) (A) (A) (A) (A) (A) (A) (A) (A) (A) (A)
                 (A) (A) (A) (A) (A) (A) (A) (A) (A) (A) (A) (A)
                 (A) (A) (A) (A) (A) (A) (A) (A) (A) (A) (A) (A)
                 (A) (A) (A) (A) (A) (A) (A) (A) (A) (A) (A) (A)
                 (A) (A) (A) (A) (A) (A) (A) (A) (A) (A) (A) (A)
                 (A) (A) (A) (A) (A) (A) (A) (A) (A) (A) (A) (A)
                 (A) (A) (A) (A) (A) (A) (A) (A) (A) (A) (A) (A)
                 (A) (A) (A) (A) (A) (A) (A) (A) (A) (A) (A) (A)
                 (A) (A) (A) (A) (A) (A) (A) (A) (A) (A) (A) (A)
                 (A) (A) (A) (A) (A) (A) (A) (A) (A) (A) (A) (A)
                 (A) (A) (A) (A) (A) (A) (A) (A) (A) (A) (A) (A)
                 (A) (A) (A) (A) (A) (A) (A) (A) (A) (A) (A) (A)
                 (A) (A) (A) (A) (A) (A) (A) (A) (A) (A) (A) (A)
                 (A) (A) (A) (A) (A) (A) (A) (A) (A) (A) (A) (A)
                 (A) (A) (A) (A) (A) (A) (A) (A) (A) (A) (A) (A)
                 (A) (A) (A) (A) (A) (A) (A) (A) (A) (A) (A) (A)
                 (A) (A) (A) (A) (A) (A) (A) (A) (A) (A) (A) (A)
                 (A) (A) (A)
 The electronic state is 1-A.
 Alpha  occ. eigenvalues --  -19.18770 -19.18228 -19.14323 -19.13487 -19.10424
 Alpha  occ. eigenvalues --  -19.09574 -14.36912 -14.36492 -14.33338 -14.32578
 Alpha  occ. eigenvalues --  -10.32865 -10.31173 -10.29714 -10.27251 -10.26133
 Alpha  occ. eigenvalues --  -10.25899 -10.25301 -10.23853 -10.23288 -10.22775
 Alpha  occ. eigenvalues --  -10.22716 -10.22661 -10.22620 -10.22553 -10.22358
 Alpha  occ. eigenvalues --  -10.22037 -10.21924 -10.21923 -10.21525 -10.20843
 Alpha  occ. eigenvalues --  -10.20528 -10.20519 -10.20442 -10.20149 -10.20049
 Alpha  occ. eigenvalues --  -10.19526 -10.19229 -10.18528 -10.18271 -10.18100
 Alpha  occ. eigenvalues --  -10.16611 -10.16063 -10.15812  -1.11127  -1.08207
 Alpha  occ. eigenvalues --   -1.02241  -1.01516  -0.99942  -0.99802  -0.97194
 Alpha  occ. eigenvalues --   -0.96536  -0.94099  -0.92048  -0.84301  -0.82832
 Alpha  occ. eigenvalues --   -0.82330  -0.80556  -0.79570  -0.79546  -0.78928
 Alpha  occ. eigenvalues --   -0.76888  -0.76357  -0.75537  -0.73968  -0.73246
 Alpha  occ. eigenvalues --   -0.71072  -0.70433  -0.68964  -0.68814  -0.67151
 Alpha  occ. eigenvalues --   -0.66614  -0.65939  -0.63518  -0.61496  -0.59982
 Alpha  occ. eigenvalues --   -0.59508  -0.59384  -0.58572  -0.57180  -0.56664
 Alpha  occ. eigenvalues --   -0.55856  -0.55696  -0.54393  -0.53343  -0.53017
 Alpha  occ. eigenvalues --   -0.51890  -0.51518  -0.50740  -0.50292  -0.49931
 Alpha  occ. eigenvalues --   -0.49105  -0.49017  -0.48778  -0.48326  -0.48097
 Alpha  occ. eigenvalues --   -0.47492  -0.46932  -0.46199  -0.46023  -0.45700
 Alpha  occ. eigenvalues --   -0.45374  -0.44740  -0.44424  -0.44243  -0.43939
 Alpha  occ. eigenvalues --   -0.43687  -0.43413  -0.43065  -0.42810  -0.42632
 Alpha  occ. eigenvalues --   -0.41894  -0.41815  -0.41710  -0.41386  -0.40903
 Alpha  occ. eigenvalues --   -0.40634  -0.40393  -0.39935  -0.39678  -0.39472
 Alpha  occ. eigenvalues --   -0.39024  -0.38782  -0.38162  -0.38139  -0.37814
 Alpha  occ. eigenvalues --   -0.37390  -0.37060  -0.36894  -0.36750  -0.35827
 Alpha  occ. eigenvalues --   -0.35692  -0.35416  -0.35103  -0.34983  -0.34794
 Alpha  occ. eigenvalues --   -0.33623  -0.33484  -0.32774  -0.32675  -0.31317
 Alpha  occ. eigenvalues --   -0.30332  -0.30135  -0.30069  -0.29678  -0.29444
 Alpha  occ. eigenvalues --   -0.27662  -0.26809  -0.26010  -0.25405  -0.24608
 Alpha  occ. eigenvalues --   -0.24276  -0.23534  -0.22542  -0.22471  -0.18350
 Alpha virt. eigenvalues --   -0.13253  -0.08479  -0.04268  -0.02743  -0.00210
 Alpha virt. eigenvalues --    0.00179   0.00792   0.01486   0.02210   0.02705
 Alpha virt. eigenvalues --    0.03048   0.03760   0.03972   0.04308   0.04836
 Alpha virt. eigenvalues --    0.04987   0.05631   0.06117   0.06803   0.07078
 Alpha virt. eigenvalues --    0.07389   0.07698   0.08102   0.08499   0.08628
 Alpha virt. eigenvalues --    0.08673   0.09315   0.09686   0.10035   0.10953
 Alpha virt. eigenvalues --    0.11133   0.11166   0.12050   0.12435   0.12868
 Alpha virt. eigenvalues --    0.13068   0.13530   0.13677   0.13989   0.14233
 Alpha virt. eigenvalues --    0.14955   0.15103   0.15240   0.15663   0.16207
 Alpha virt. eigenvalues --    0.16406   0.16687   0.17511   0.17699   0.18017
 Alpha virt. eigenvalues --    0.18670   0.18903   0.19279   0.19675   0.20049
 Alpha virt. eigenvalues --    0.20626   0.20916   0.21449   0.21793   0.22186
 Alpha virt. eigenvalues --    0.22876   0.23263   0.23542   0.24289   0.24799
 Alpha virt. eigenvalues --    0.25469   0.25731   0.25994   0.26110   0.27554
 Alpha virt. eigenvalues --    0.28344   0.28827   0.29130   0.29446   0.29835
 Alpha virt. eigenvalues --    0.30011   0.30561   0.30721   0.31371   0.31742
 Alpha virt. eigenvalues --    0.32089   0.32356   0.32932   0.33466   0.33856
 Alpha virt. eigenvalues --    0.34703   0.34968   0.35373   0.35641   0.36337
 Alpha virt. eigenvalues --    0.36920   0.37760   0.38283   0.38455   0.39132
 Alpha virt. eigenvalues --    0.39809   0.40423   0.40557   0.41215   0.42049
 Alpha virt. eigenvalues --    0.42116   0.42294   0.42453   0.42713   0.43248
 Alpha virt. eigenvalues --    0.43738   0.44237   0.44321   0.44823   0.45063
 Alpha virt. eigenvalues --    0.45375   0.45600   0.45928   0.46287   0.46573
 Alpha virt. eigenvalues --    0.46730   0.46946   0.47222   0.47782   0.47993
 Alpha virt. eigenvalues --    0.48361   0.48740   0.49102   0.49339   0.49691
 Alpha virt. eigenvalues --    0.50075   0.50550   0.50850   0.50879   0.51514
 Alpha virt. eigenvalues --    0.51679   0.52036   0.52173   0.52849   0.53572
 Alpha virt. eigenvalues --    0.53859   0.54003   0.54615   0.55053   0.55328
 Alpha virt. eigenvalues --    0.55697   0.56040   0.56283   0.56710   0.56786
 Alpha virt. eigenvalues --    0.57345   0.57831   0.58212   0.58413   0.59171
 Alpha virt. eigenvalues --    0.59446   0.59800   0.60211   0.60453   0.60838
 Alpha virt. eigenvalues --    0.60998   0.61241   0.61462   0.61713   0.61756
 Alpha virt. eigenvalues --    0.62258   0.62350   0.62861   0.62922   0.63199
 Alpha virt. eigenvalues --    0.63458   0.63667   0.64069   0.64145   0.64391
 Alpha virt. eigenvalues --    0.64562   0.64913   0.65177   0.65425   0.65712
 Alpha virt. eigenvalues --    0.66210   0.66296   0.66538   0.66879   0.67199
 Alpha virt. eigenvalues --    0.67636   0.67700   0.67940   0.68164   0.68373
 Alpha virt. eigenvalues --    0.68693   0.68818   0.69503   0.69656   0.69923
 Alpha virt. eigenvalues --    0.70149   0.70296   0.70611   0.70669   0.70985
 Alpha virt. eigenvalues --    0.71145   0.71364   0.71992   0.72319   0.72646
 Alpha virt. eigenvalues --    0.73037   0.73442   0.74038   0.74377   0.74624
 Alpha virt. eigenvalues --    0.75061   0.75177   0.75627   0.76420   0.76456
 Alpha virt. eigenvalues --    0.77569   0.77630   0.78072   0.78410   0.78712
 Alpha virt. eigenvalues --    0.78908   0.79786   0.80548   0.80959   0.81605
 Alpha virt. eigenvalues --    0.81895   0.82117   0.83162   0.84167   0.84419
 Alpha virt. eigenvalues --    0.84531   0.85550   0.85846   0.86105   0.87409
 Alpha virt. eigenvalues --    0.87445   0.88471   0.89471   0.90342   0.90601
 Alpha virt. eigenvalues --    0.91232   0.91813   0.92047   0.92989   0.93438
 Alpha virt. eigenvalues --    0.94411   0.94994   0.95212   0.95345   0.95605
 Alpha virt. eigenvalues --    0.96714   0.97034   0.97707   0.97922   0.98391
 Alpha virt. eigenvalues --    0.99205   0.99926   1.00296   1.00371   1.01046
 Alpha virt. eigenvalues --    1.02145   1.03215   1.04300   1.04417   1.06012
 Alpha virt. eigenvalues --    1.06872   1.07699   1.08331   1.09237   1.09403
 Alpha virt. eigenvalues --    1.10488   1.11011   1.11463   1.11701   1.12581
 Alpha virt. eigenvalues --    1.13048   1.13256   1.13628   1.14647   1.15789
 Alpha virt. eigenvalues --    1.16280   1.17232   1.18067   1.18497   1.19090
 Alpha virt. eigenvalues --    1.19902   1.20309   1.20478   1.21026   1.21764
 Alpha virt. eigenvalues --    1.22463   1.22701   1.23594   1.23625   1.23958
 Alpha virt. eigenvalues --    1.24671   1.25269   1.26225   1.26952   1.27351
 Alpha virt. eigenvalues --    1.27531   1.27960   1.28389   1.29827   1.30179
 Alpha virt. eigenvalues --    1.30691   1.31339   1.32036   1.33498   1.34746
 Alpha virt. eigenvalues --    1.35298   1.36502   1.37025   1.37325   1.37609
 Alpha virt. eigenvalues --    1.38044   1.39003   1.39690   1.39873   1.40090
 Alpha virt. eigenvalues --    1.40877   1.41993   1.43628   1.44351   1.44861
 Alpha virt. eigenvalues --    1.45154   1.46608   1.48131   1.48657   1.49116
 Alpha virt. eigenvalues --    1.49615   1.50334   1.50394   1.50744   1.51182
 Alpha virt. eigenvalues --    1.51948   1.52478   1.52710   1.53506   1.53901
 Alpha virt. eigenvalues --    1.54233   1.54283   1.56436   1.56822   1.57107
 Alpha virt. eigenvalues --    1.57417   1.58054   1.58372   1.58551   1.58956
 Alpha virt. eigenvalues --    1.59667   1.60039   1.60322   1.61495   1.61893
 Alpha virt. eigenvalues --    1.62069   1.63184   1.63386   1.64067   1.64580
 Alpha virt. eigenvalues --    1.65002   1.65288   1.65763   1.66381   1.66651
 Alpha virt. eigenvalues --    1.67041   1.68187   1.68678   1.68934   1.69017
 Alpha virt. eigenvalues --    1.69348   1.69712   1.70115   1.70814   1.71238
 Alpha virt. eigenvalues --    1.71508   1.71877   1.72150   1.72933   1.73497
 Alpha virt. eigenvalues --    1.73738   1.74139   1.74777   1.75030   1.75354
 Alpha virt. eigenvalues --    1.75476   1.76193   1.76433   1.76572   1.77247
 Alpha virt. eigenvalues --    1.77448   1.77555   1.77808   1.78568   1.78954
 Alpha virt. eigenvalues --    1.79407   1.79838   1.80438   1.80580   1.80603
 Alpha virt. eigenvalues --    1.81209   1.81614   1.82497   1.82993   1.83428
 Alpha virt. eigenvalues --    1.83850   1.83963   1.84388   1.85528   1.85638
 Alpha virt. eigenvalues --    1.85747   1.86020   1.86239   1.86898   1.87335
 Alpha virt. eigenvalues --    1.87874   1.88801   1.89036   1.89363   1.89597
 Alpha virt. eigenvalues --    1.90419   1.90922   1.91601   1.91776   1.92420
 Alpha virt. eigenvalues --    1.92534   1.92987   1.93100   1.93612   1.93799
 Alpha virt. eigenvalues --    1.94145   1.94598   1.95089   1.95495   1.95563
 Alpha virt. eigenvalues --    1.96820   1.97573   1.98003   1.98205   1.98885
 Alpha virt. eigenvalues --    1.99520   2.00244   2.00612   2.00768   2.01705
 Alpha virt. eigenvalues --    2.01997   2.02476   2.03347   2.03927   2.03977
 Alpha virt. eigenvalues --    2.04504   2.05266   2.05775   2.06021   2.06760
 Alpha virt. eigenvalues --    2.07257   2.07836   2.08427   2.08712   2.09791
 Alpha virt. eigenvalues --    2.10016   2.10875   2.11319   2.11726   2.12234
 Alpha virt. eigenvalues --    2.12704   2.13317   2.13968   2.14404   2.14472
 Alpha virt. eigenvalues --    2.15686   2.15891   2.16656   2.17279   2.17667
 Alpha virt. eigenvalues --    2.18597   2.19300   2.19996   2.20036   2.20427
 Alpha virt. eigenvalues --    2.20892   2.21860   2.22385   2.23181   2.24012
 Alpha virt. eigenvalues --    2.24247   2.25455   2.26048   2.27588   2.28246
 Alpha virt. eigenvalues --    2.28689   2.29649   2.30050   2.30509   2.30770
 Alpha virt. eigenvalues --    2.31175   2.31970   2.32368   2.33541   2.34919
 Alpha virt. eigenvalues --    2.35729   2.37107   2.37355   2.38058   2.38906
 Alpha virt. eigenvalues --    2.39296   2.39540   2.39832   2.40872   2.42083
 Alpha virt. eigenvalues --    2.43010   2.43319   2.43622   2.44720   2.45045
 Alpha virt. eigenvalues --    2.46151   2.46770   2.47069   2.47549   2.48019
 Alpha virt. eigenvalues --    2.50634   2.50707   2.51070   2.52127   2.52881
 Alpha virt. eigenvalues --    2.53443   2.55145   2.55585   2.56147   2.57790
 Alpha virt. eigenvalues --    2.59314   2.59404   2.60103   2.60611   2.61365
 Alpha virt. eigenvalues --    2.62490   2.62848   2.63027   2.63319   2.64107
 Alpha virt. eigenvalues --    2.64425   2.66232   2.67021   2.67577   2.67979
 Alpha virt. eigenvalues --    2.69137   2.69250   2.69991   2.70286   2.70422
 Alpha virt. eigenvalues --    2.71751   2.71935   2.72404   2.72784   2.73058
 Alpha virt. eigenvalues --    2.73533   2.73733   2.75240   2.75729   2.76130
 Alpha virt. eigenvalues --    2.76860   2.77944   2.78064   2.78933   2.80064
 Alpha virt. eigenvalues --    2.80989   2.81626   2.82751   2.82870   2.83323
 Alpha virt. eigenvalues --    2.84044   2.84769   2.85404   2.86980   2.87619
 Alpha virt. eigenvalues --    2.87904   2.88887   2.89227   2.89363   2.89983
 Alpha virt. eigenvalues --    2.90295   2.92262   2.92667   2.92942   2.93471
 Alpha virt. eigenvalues --    2.94275   2.94844   2.97392   2.97766   2.98164
 Alpha virt. eigenvalues --    2.98730   3.00510   3.01104   3.01701   3.02157
 Alpha virt. eigenvalues --    3.04648   3.06535   3.06877   3.08078   3.08565
 Alpha virt. eigenvalues --    3.11104   3.11711   3.12781   3.13932   3.14372
 Alpha virt. eigenvalues --    3.14731   3.14892   3.17278   3.18552   3.18834
 Alpha virt. eigenvalues --    3.20950   3.22943   3.24304   3.26353   3.27179
 Alpha virt. eigenvalues --    3.29843   3.31045   3.33174   3.36336   3.36852
 Alpha virt. eigenvalues --    3.48950   3.50111   3.51013   3.51370   3.53524
 Alpha virt. eigenvalues --    3.57818   3.57999   3.62773   3.64524   3.65863
 Alpha virt. eigenvalues --    3.68906   3.70769
          Condensed to atoms (all electrons):
 Mulliken charges:
               1
     1  O   -0.246898
     2  O   -0.191050
     3  O   -0.294907
     4  O   -0.265806
     5  O   -0.161264
     6  O   -0.225932
     7  N   -0.047079
     8  N   -0.262102
     9  N   -0.159116
    10  N   -0.384568
    11  C   -0.014743
    12  C    0.099336
    13  C   -0.022996
    14  C   -0.086152
    15  C   -0.110248
    16  C   -0.014554
    17  C   -0.220444
    18  C    0.239200
    19  C   -0.024240
    20  C   -0.080849
    21  C    0.065584
    22  C    0.162637
    23  C    0.030713
    24  C    0.073514
    25  C    0.013696
    26  C   -0.165502
    27  C   -0.090172
    28  C    0.102116
    29  C   -0.040566
    30  C   -0.044167
    31  C    0.022433
    32  C    0.151944
    33  C   -0.083534
    34  C    0.150028
    35  C    0.123858
    36  C   -0.058479
    37  C    0.114498
    38  C    0.102183
    39  C   -0.219206
    40  C    0.214319
    41  C   -0.005602
    42  C    0.082105
    43  C   -0.109668
    44  H    0.075247
    45  H   -0.014711
    46  H    0.013304
    47  H    0.131368
    48  H    0.212715
    49  H    0.020724
    50  H   -0.026928
    51  H    0.005823
    52  H    0.008143
    53  H   -0.001216
    54  H    0.001086
    55  H    0.038919
    56  H    0.077671
    57  H    0.072006
    58  H    0.048437
    59  H    0.044584
    60  H    0.238281
    61  H    0.042190
    62  H    0.039215
    63  H    0.038263
    64  H    0.050625
    65  H    0.044858
    66  H    0.004888
    67  H    0.032536
    68  H    0.012508
    69  H   -0.022310
    70  H    0.004173
    71  H    0.026341
    72  H    0.215504
    73  H    0.002190
    74  H    0.042862
    75  H    0.046139
    76  H    0.026951
    77  H    0.226514
    78  H    0.042953
    79  H    0.059826
 Sum of Mulliken charges =  -0.00000
 Mulliken charges with hydrogens summed into heavy atoms:
               1
     1  O   -0.246898
     2  O    0.024454
     3  O   -0.294907
     4  O   -0.039292
     5  O   -0.161264
     6  O   -0.225932
     7  N    0.084289
     8  N   -0.049387
     9  N    0.079165
    10  N   -0.384568
    11  C    0.060504
    12  C    0.097929
    13  C   -0.022996
    14  C   -0.086152
    15  C   -0.110248
    16  C   -0.014554
    17  C   -0.220444
    18  C    0.232996
    19  C   -0.024240
    20  C   -0.075026
    21  C    0.065584
    22  C    0.162637
    23  C    0.030713
    24  C    0.081528
    25  C    0.202292
    26  C   -0.165502
    27  C    0.002849
    28  C    0.102116
    29  C    0.040838
    30  C   -0.005904
    31  C    0.117916
    32  C    0.201877
    33  C   -0.105844
    34  C    0.150028
    35  C    0.123858
    36  C   -0.027964
    37  C    0.114498
    38  C    0.102183
    39  C   -0.219206
    40  C    0.214319
    41  C   -0.003412
    42  C    0.198058
    43  C   -0.006889
 Electronic spatial extent (au):  <R**2>=          25876.8535
 Charge=             -0.0000 electrons
 Dipole moment (field-independent basis, Debye):
    X=              3.1636    Y=              4.9025    Z=             -1.9429  Tot=              6.1497
 Quadrupole moment (field-independent basis, Debye-Ang):
   XX=           -235.4042   YY=           -231.6984   ZZ=           -272.8641
   XY=              3.6707   XZ=            -28.2055   YZ=             -6.2604
 Traceless Quadrupole moment (field-independent basis, Debye-Ang):
   XX=             11.2514   YY=             14.9571   ZZ=            -26.2085
   XY=              3.6707   XZ=            -28.2055   YZ=             -6.2604
 Octapole moment (field-independent basis, Debye-Ang**2):
  XXX=            244.2637  YYY=            160.0336  ZZZ=            -35.9589  XYY=              2.4588
  XXY=             -7.5231  XXZ=            -32.7308  XZZ=             28.5924  YZZ=             80.2386
  YYZ=             31.8571  XYZ=             16.8849
 Hexadecapole moment (field-independent basis, Debye-Ang**3):
 XXXX=         -16825.9824 YYYY=          -7982.6208 ZZZZ=          -7232.8528 XXXY=           -303.9049
 XXXZ=           -592.1163 YYYX=           -112.7034 YYYZ=             76.5658 ZZZX=           -398.0148
 ZZZY=            145.1600 XXYY=          -4475.9402 XXZZ=          -4612.3706 YYZZ=          -2441.4818
 XXYZ=              6.9149 YYXZ=            173.4484 ZZXY=            167.3247
 N-N= 5.189887853996D+03 E-N=-1.490861830012D+04  KE= 1.927090877700D+03
 1\1\GINC-PADAWAN\SP\RB3LYP TD-FC\SVP\C33H36N4O6\PADAWAN\28-Jul-2019\0\
 \# td=(NStates=1) B3LYP/SVP\\TD\\0,1\O,0,-3.2409010003,-1.2611311686,-
 2.8757482291\O,0,3.2360640612,3.030424701,2.9508493558\O,0,3.566951003
 3,1.398036932,4.4475391975\O,0,7.7742860315,-1.6073868529,-0.709521714
 \O,0,6.6268468411,-3.100300825,-1.8879352416\O,0,-2.6813990464,1.73452
 8942,1.4573657971\N,0,-0.2131570619,-2.3536916835,0.9233071715\N,0,-2.
 7469567337,-1.1588810231,-0.5804101856\N,0,1.1896405135,0.1753484445,-
 0.6782527625\N,0,-1.0114402895,1.4910945174,-0.2793288308\C,0,-3.36056
 12058,-1.287206283,0.6610630802\C,0,-2.6233809642,-2.3099951457,1.6736
 126681\C,0,-1.273162958,-2.0797657906,1.8371317018\C,0,-0.5322030226,-
 1.2689580875,2.8211701375\C,0,0.7397050831,-1.1978347845,2.4911303076\
 C,0,0.9413768239,-1.8351399487,1.2694617502\C,0,-4.7513000766,-1.92503
 81525,0.2907859659\C,0,1.8476893603,-0.3880591355,3.2807602305\C,0,-4.
 8099173531,-2.0182105295,-1.0220125418\C,0,2.084966453,-1.801458338,0.
 30751303\C,0,2.1658626082,-0.7839103032,-0.6470386054\C,0,-3.589053575
 3,-1.3764896143,-1.689016185\C,0,2.9824193051,-0.6348342317,-1.8149153
 904\C,0,-1.1854571179,-0.6518990469,3.913306839\C,0,-5.734168641,-2.48
 34648268,1.4077817838\C,0,2.4927489318,0.4446518334,-2.4432889389\C,0,
 1.9919686293,0.9649421862,2.6528219238\C,0,1.3219455611,0.9457412227,-
 1.8223283388\C,0,4.2306784169,-1.4777272018,-2.0397236025\C,0,-5.77048
 13842,-2.4690489953,-2.0125247007\C,0,5.4657321242,-1.1212738726,-1.21
 43648534\C,0,3.0763777332,1.0425626589,-3.6597924884\C,0,0.5505674808,
 2.1008252294,-2.0208338285\C,0,2.9516838087,1.8267122567,3.424857831\C
 ,0,-0.5933131629,2.3674013723,-1.2134766356\C,0,-6.811305057,-3.349788
 743,-1.8165802167\C,0,6.6347630459,-2.0920874638,-1.3163823282\C,0,-1.
 4443230871,3.5868709203,-1.3096190366\C,0,-2.3789719866,3.397160195,-0
 .3265105573\C,0,-2.0868409565,2.1643973732,0.4385727893\C,0,-1.2829282
 712,4.6454208023,-2.2401457826\C,0,-3.4864392804,4.3363641193,0.231467
 3864\C,0,-1.9488787791,5.8038157998,-2.2355172845\H,0,-3.6501935126,-0
 .2820036903,1.2427184764\H,0,-2.9274443708,-3.3174668717,1.3465250016\
 H,0,-3.3492547453,-2.0679102354,2.5676861573\H,0,-0.5840637112,-2.5861
 273778,-0.0219351835\H,0,-2.1814965394,-0.0983461381,-0.6792320256\H,0
 ,1.38388635,-0.2263640902,4.3325653556\H,0,2.7480921421,-0.8583577271,
 3.2713120606\H,0,2.8377225862,-2.593730956,0.1947825315\H,0,-1.9914717
 765,-1.3929885729,4.246951757\H,0,-0.5500947775,-0.3865828619,4.838750
 2315\H,0,-1.6866779816,0.2403764843,3.784157181\H,0,-5.7146322504,-1.7
 00768208,2.1242967227\H,0,-5.1014289036,-3.5060547101,1.6282656729\H,0
 ,-6.8553329101,-2.6735930027,0.8081271744\H,0,2.1814442838,1.108660808
 ,1.5132089322\H,0,0.9771076623,1.5249247368,2.6347214458\H,0,0.1844166
 993,0.3992742972,-0.2047725096\H,0,4.5106767869,-1.765729632,-3.083613
 9633\H,0,4.0294637762,-2.6052423034,-1.5017372817\H,0,-5.5876709055,-2
 .32695362,-3.1429277566\H,0,5.1824961709,-1.0971101909,-0.1527320495\H
 ,0,5.8427557169,-0.1583228284,-1.6596604485\H,0,3.5401439259,0.1516616
 583,-4.0227305026\H,0,3.7922149731,1.8356446432,-3.4545977952\H,0,2.39
 10048898,1.3740919071,-4.3965928113\H,0,0.8169356036,2.7088523817,-2.8
 821291049\H,0,-7.0712662127,-3.7380959935,-0.8335923804\H,0,-7.6268609
 51,-3.3800193324,-2.5635094044\H,0,3.7564193694,3.6348028413,3.5856718
 214\H,0,-0.5935732361,4.5517864581,-3.076425538\H,0,-4.3124698366,4.34
 73013119,-0.4763487864\H,0,-3.7899077405,4.0046452581,1.2954103524\H,0
 ,-3.0119595122,5.3066409552,0.3919749674\H,0,8.5790035939,-2.233556509
 9,-1.0393845735\H,0,-1.6916520898,6.6106715243,-3.1229271449\H,0,-2.38
 9011254,6.407322108,-1.3381297205\\Version=ES64L-G16RevA.03\State=1-A\
 HF=-1947.8404342\RMSD=3.701e-09\PG=C01 [X(C33H36N4O6)]\\@


 Just remember, when you're over the hill, you begin to pick up speed.
 -- Charles Schulz
 Job cpu time:       0 days  4 hours  6 minutes 12.6 seconds.
 Elapsed time:       0 days  1 hours  1 minutes 43.1 seconds.
 File lengths (MBytes):  RWF=   2533 Int=      0 D2E=      0 Chk=     63 Scr=      1
 Normal termination of Gaussian 16 at Sun Jul 28 01:20:52 2019.
