 Entering Gaussian System, Link 0=g16
 Input=Geometria-379-.com
 Output=Geometria-379-.log
 Initial command:
 /usr/local/g16/l1.exe "/home/padawan/israel-mol/dihydrobiliverdin/spectra/emi/Gau-18434.inp" -scrdir="/home/padawan/israel-mol/dihydrobiliverdin/spectra/emi/"
 Entering Link 1 = /usr/local/g16/l1.exe PID=     18436.
  
 Copyright (c) 1988,1990,1992,1993,1995,1998,2003,2009,2016,
            Gaussian, Inc.  All Rights Reserved.
  
 This is part of the Gaussian(R) 16 program.  It is based on
 the Gaussian(R) 09 system (copyright 2009, Gaussian, Inc.),
 the Gaussian(R) 03 system (copyright 2003, Gaussian, Inc.),
 the Gaussian(R) 98 system (copyright 1998, Gaussian, Inc.),
 the Gaussian(R) 94 system (copyright 1995, Gaussian, Inc.),
 the Gaussian 92(TM) system (copyright 1992, Gaussian, Inc.),
 the Gaussian 90(TM) system (copyright 1990, Gaussian, Inc.),
 the Gaussian 88(TM) system (copyright 1988, Gaussian, Inc.),
 the Gaussian 86(TM) system (copyright 1986, Carnegie Mellon
 University), and the Gaussian 82(TM) system (copyright 1983,
 Carnegie Mellon University). Gaussian is a federally registered
 trademark of Gaussian, Inc.
  
 This software contains proprietary and confidential information,
 including trade secrets, belonging to Gaussian, Inc.
  
 This software is provided under written license and may be
 used, copied, transmitted, or stored only in accord with that
 written license.
  
 The following legend is applicable only to US Government
 contracts under FAR:
  
                    RESTRICTED RIGHTS LEGEND
  
 Use, reproduction and disclosure by the US Government is
 subject to restrictions as set forth in subparagraphs (a)
 and (c) of the Commercial Computer Software - Restricted
 Rights clause in FAR 52.227-19.
  
 Gaussian, Inc.
 340 Quinnipiac St., Bldg. 40, Wallingford CT 06492
  
  
 ---------------------------------------------------------------
 Warning -- This program may not be used in any manner that
 competes with the business of Gaussian, Inc. or will provide
 assistance to any competitor of Gaussian, Inc.  The licensee
 of this program is prohibited from giving any competitor of
 Gaussian, Inc. access to this program.  By using this program,
 the user acknowledges that Gaussian, Inc. is engaged in the
 business of creating and licensing software in the field of
 computational chemistry and represents and warrants to the
 licensee that it is not a competitor of Gaussian, Inc. and that
 it will not use this program in any manner prohibited above.
 ---------------------------------------------------------------
  

 Cite this work as:
 Gaussian 16, Revision A.03,
 M. J. Frisch, G. W. Trucks, H. B. Schlegel, G. E. Scuseria, 
 M. A. Robb, J. R. Cheeseman, G. Scalmani, V. Barone, 
 G. A. Petersson, H. Nakatsuji, X. Li, M. Caricato, A. V. Marenich, 
 J. Bloino, B. G. Janesko, R. Gomperts, B. Mennucci, H. P. Hratchian, 
 J. V. Ortiz, A. F. Izmaylov, J. L. Sonnenberg, D. Williams-Young, 
 F. Ding, F. Lipparini, F. Egidi, J. Goings, B. Peng, A. Petrone, 
 T. Henderson, D. Ranasinghe, V. G. Zakrzewski, J. Gao, N. Rega, 
 G. Zheng, W. Liang, M. Hada, M. Ehara, K. Toyota, R. Fukuda, 
 J. Hasegawa, M. Ishida, T. Nakajima, Y. Honda, O. Kitao, H. Nakai, 
 T. Vreven, K. Throssell, J. A. Montgomery, Jr., J. E. Peralta, 
 F. Ogliaro, M. J. Bearpark, J. J. Heyd, E. N. Brothers, K. N. Kudin, 
 V. N. Staroverov, T. A. Keith, R. Kobayashi, J. Normand, 
 K. Raghavachari, A. P. Rendell, J. C. Burant, S. S. Iyengar, 
 J. Tomasi, M. Cossi, J. M. Millam, M. Klene, C. Adamo, R. Cammi, 
 J. W. Ochterski, R. L. Martin, K. Morokuma, O. Farkas, 
 J. B. Foresman, and D. J. Fox, Gaussian, Inc., Wallingford CT, 2016.
 
 ******************************************
 Gaussian 16:  ES64L-G16RevA.03 25-Dec-2016
                29-Jul-2019 
 ******************************************
 %nproc=4
 Will use up to    4 processors via shared memory.
 %Mem=3GB
 --------------------------
 # td=(NStates=1) B3LYP/SVP
 --------------------------
 1/38=1,172=1/1;
 2/12=2,17=6,18=5,40=1/2;
 3/5=18,7=101,11=9,25=1,30=1,74=-5/1,2,3,8;
 4//1;
 5/5=2,38=5/2;
 8/6=1,10=1,108=1/1;
 9/41=1,42=1,70=2/14;
 6/7=2,8=2,9=2,10=2/1;
 99/5=1,9=1/99;
 --
 TD
 --
 Symbolic Z-matrix:
 Charge =  0 Multiplicity = 1
 8                    -3.04803  -1.48194  -2.80732 
 8                     2.99651   3.16673   3.22541 
 8                     3.6004    1.38549   4.37762 
 8                     7.77611  -1.36748  -0.91552 
 8                     6.68578  -3.16839  -1.88192 
 8                    -2.71033   1.58221   1.40338 
 7                    -0.24256  -2.43968   0.94236 
 7                    -2.65482  -1.15333  -0.52691 
 7                     1.13628   0.00673  -0.77508 
 7                    -1.07498   1.46407  -0.19092 
 6                    -3.42909  -1.30993   0.61477 
 6                    -2.64207  -2.33611   1.7085 
 6                    -1.20863  -2.00631   1.81917 
 6                    -0.48431  -1.29219   2.85484 
 6                     0.80449  -1.17575   2.50876 
 6                     1.03211  -1.87187   1.28205 
 6                    -4.7141   -1.87772   0.22282 
 6                     1.86891  -0.33192   3.16024 
 6                    -4.81493  -2.02501  -1.17153 
 6                     2.07122  -1.95167   0.27826 
 6                     2.04592  -0.94795  -0.7441 
 6                    -3.39265  -1.58368  -1.68617 
 6                     3.03184  -0.65472  -1.78709 
 6                    -1.28446  -0.56686   3.93486 
 6                    -5.78022  -1.95797   1.35416 
 6                     2.54615   0.42171  -2.51448 
 6                     1.95994   1.11553   2.61834 
 6                     1.30562   0.85074  -1.86243 
 6                     4.18022  -1.45149  -2.10957 
 6                    -5.75756  -2.53649  -2.05651 
 6                     5.3044   -1.1965   -1.06405 
 6                     3.08314   1.08728  -3.73461 
 6                     0.4661    2.02454  -1.964 
 6                     2.96001   1.83448   3.51071 
 6                    -0.645     2.36265  -1.183 
 6                    -6.86348  -3.23483  -1.83808 
 6                     6.54924  -2.04566  -1.33462 
 6                    -1.42309   3.42426  -1.20622 
 6                    -2.2936    3.49443  -0.18553 
 6                    -2.06215   2.11812   0.45494 
 6                    -1.30971   4.54658  -2.24904 
 6                    -3.31064   4.4819    0.34967 
 6                    -1.90875   5.75159  -2.22811 
 1                    -3.30512  -0.37597   1.21121 
 1                    -2.78145  -3.13212   1.28883 
 1                    -2.89662  -2.53894   2.86569 
 1                    -0.35092  -2.98306   0.13786 
 1                    -1.95327  -0.33324  -0.56929 
 1                     1.8428   -0.39641   4.28049 
 1                     2.63895  -0.89924   2.98436 
 1                     2.82103  -2.73997   0.29721 
 1                    -2.00969  -1.50549   4.24358 
 1                    -0.73801  -0.1708    4.59956 
 1                    -1.89342   0.16829   3.51927 
 1                    -5.86636  -1.13468   2.08099 
 1                    -5.8245   -2.97231   1.60725 
 1                    -6.71433  -1.81299   0.83006 
 1                     2.26222   1.16848   1.6629 
 1                     1.1456    1.79923   2.81614 
 1                     0.31551   0.38348  -0.37739 
 1                     4.67944  -1.22942  -3.18223 
 1                     3.81548  -2.50001  -2.10567 
 1                    -5.54782  -2.2824   -3.06825 
 1                     4.8536   -1.32077  -0.02184 
 1                     5.81077  -0.10879  -1.11047 
 1                     3.90215   0.61847  -4.15088 
 1                     3.31319   2.09422  -3.70766 
 1                     2.26676   1.07349  -4.59063 
 1                     0.5552    2.69382  -2.80948 
 1                    -7.24882  -3.50879  -0.76327 
 1                    -7.54084  -3.41994  -2.47413 
 1                     3.68293   3.47529   3.8435 
 1                    -0.77017   4.42937  -3.08373 
 1                    -4.03949   5.02716  -0.40984 
 1                    -3.9087    3.8571    1.09886 
 1                    -2.78112   5.35948   0.8158 
 1                     8.51453  -1.98572  -1.10095 
 1                    -1.52874   6.38064  -3.02053 
 1                    -2.62993   6.23644  -1.42672 
 
 Stoichiometry    C33H36N4O6
 Framework group  C1[X(C33H36N4O6)]
 Deg. of freedom   231
 Full point group                 C1      NOp   1
 Largest Abelian subgroup         C1      NOp   1
 Largest concise Abelian subgroup C1      NOp   1
                         Standard orientation:                         
 ---------------------------------------------------------------------
 Center     Atomic      Atomic             Coordinates (Angstroms)
 Number     Number       Type             X           Y           Z
 ---------------------------------------------------------------------
      1          8           0       -3.026357   -1.644477   -2.740339
      2          8           0        2.957647    3.343636    3.077810
      3          8           0        3.576182    1.624879    4.314096
      4          8           0        7.791514   -1.333521   -0.834840
      5          8           0        6.721252   -3.188781   -1.717194
      6          8           0       -2.728943    1.618349    1.321511
      7          7           0       -0.220737   -2.396179    1.055906
      8          7           0       -2.641920   -1.204635   -0.477242
      9          7           0        1.138205   -0.020077   -0.772519
     10          7           0       -1.088643    1.441244   -0.262215
     11          6           0       -3.417387   -1.314796    0.669045
     12          6           0       -2.623003   -2.280318    1.811586
     13          6           0       -1.193133   -1.931470    1.909362
     14          6           0       -0.478368   -1.162086    2.911550
     15          6           0        0.810064   -1.049358    2.562880
     16          6           0        1.047471   -1.800356    1.370887
     17          6           0       -4.695810   -1.913178    0.301847
     18          6           0        1.864574   -0.165192    3.175838
     19          6           0       -4.791808   -2.127155   -1.084177
     20          6           0        2.089746   -1.917179    0.374026
     21          6           0        2.057091   -0.963164   -0.694671
     22          6           0       -3.372686   -1.696553   -1.616306
     23          6           0        3.042620   -0.709771   -1.748421
     24          6           0       -1.288210   -0.394516    3.954511
     25          6           0       -5.763841   -1.950460    1.433619
     26          6           0        2.548164    0.326230   -2.526811
     27          6           0        1.942714    1.255878    2.566322
     28          6           0        1.301907    0.773267   -1.898205
     29          6           0        4.199537   -1.509472   -2.030633
     30          6           0       -5.727228   -2.689178   -1.945846
     31          6           0        5.318614   -1.194250   -0.996128
     32          6           0        3.081555    0.938710   -3.775979
     33          6           0        0.451161    1.932578   -2.056773
     34          6           0        2.933526    2.026058    3.425677
     35          6           0       -0.665091    2.296176   -1.294809
     36          6           0       -6.826774   -3.387348   -1.696831
     37          6           0        6.572383   -2.042866   -1.223830
     38          6           0       -1.453498    3.347745   -1.369692
     39          6           0       -2.327132    3.457414   -0.355165
     40          6           0       -2.083746    2.115257    0.350082
     41          6           0       -1.348599    4.420620   -2.464158
     42          6           0       -3.355100    4.458933    0.130772
     43          6           0       -1.959480    5.619277   -2.501371
     44          1           0       -3.304030   -0.352528    1.220922
     45          1           0       -2.753548   -3.096605    1.429732
     46          1           0       -2.878356   -2.430774    2.976567
     47          1           0       -0.321811   -2.977997    0.277774
     48          1           0       -1.948352   -0.380549   -0.556950
     49          1           0        1.836379   -0.176948    4.297833
     50          1           0        2.640564   -0.732525    3.028480
     51          1           0        2.847208   -2.696227    0.431680
     52          1           0       -2.004954   -1.324656    4.305822
     53          1           0       -0.747292    0.037894    4.600819
     54          1           0       -1.903341    0.314112    3.503453
     55          1           0       -5.859809   -1.094650    2.120567
     56          1           0       -5.798784   -2.952101    1.734281
     57          1           0       -6.698049   -1.839657    0.901426
     58          1           0        2.246785    1.266631    1.610047
     59          1           0        1.121240    1.940059    2.729995
     60          1           0        0.312822    0.366886   -0.394685
     61          1           0        4.699157   -1.333372   -3.111612
     62          1           0        3.845087   -2.560198   -1.977901
     63          1           0       -5.517532   -2.481098   -2.968051
     64          1           0        4.866533   -1.273615    0.049905
     65          1           0        5.814411   -0.104978   -1.092901
     66          1           0        3.906133    0.458902   -4.168026
     67          1           0        3.301652    1.948033   -3.796196
     68          1           0        2.267434    0.876416   -4.631993
     69          1           0        0.535746    2.562028   -2.932764
     70          1           0       -7.212020   -3.614044   -0.611026
     71          1           0       -7.500743   -3.609005   -2.324748
     72          1           0        3.639508    3.687833    3.681974
     73          1           0       -0.805911    4.269470   -3.291317
     74          1           0       -4.087418    4.960460   -0.655085
     75          1           0       -3.948819    3.864324    0.907479
     76          1           0       -2.835339    5.362753    0.555946
     77          1           0        8.536410   -1.952481   -0.989397
     78          1           0       -1.583726    6.213928   -3.321886
     79          1           0       -2.687313    6.134263   -1.725206
 ---------------------------------------------------------------------
 Rotational constants (GHZ):           0.0900755           0.0509173           0.0484709
 Standard basis: SVP (5D, 7F)
 There are   825 symmetry adapted cartesian basis functions of A   symmetry.
 There are   782 symmetry adapted basis functions of A   symmetry.
   782 basis functions,  1327 primitive gaussians,   825 cartesian basis functions
   155 alpha electrons      155 beta electrons
       nuclear repulsion energy      5198.5596735841 Hartrees.
 NAtoms=   79 NActive=   79 NUniq=   79 SFac= 1.00D+00 NAtFMM=   60 NAOKFM=T Big=T
 Integral buffers will be    131072 words long.
 Regular integral format.
 Two-electron integral symmetry is turned on.
 One-electron integrals computed using PRISM.
 NBasis=   782 RedAO= T EigKep=  3.24D-04  NBF=   782
 NBsUse=   782 1.00D-06 EigRej= -1.00D+00 NBFU=   782
 ExpMin= 1.22D-01 ExpMax= 2.27D+03 ExpMxC= 3.41D+02 IAcc=3 IRadAn=         5 AccDes= 0.00D+00
 Harris functional with IExCor=  402 and IRadAn=       5 diagonalized for initial guess.
 HarFok:  IExCor=  402 AccDes= 0.00D+00 IRadAn=         5 IDoV= 1 UseB2=F ITyADJ=14
 ICtDFT=  3500011 ScaDFX=  1.000000  1.000000  1.000000  1.000000
 FoFCou: FMM=F IPFlag=           0 FMFlag=      100000 FMFlg1=        2001
         NFxFlg=           0 DoJE=T BraDBF=F KetDBF=T FulRan=T
         wScrn=  0.000000 ICntrl=       500 IOpCl=  0 I1Cent=   200000004 NGrid=           0
         NMat0=    1 NMatS0=      1 NMatT0=    0 NMatD0=    1 NMtDS0=    0 NMtDT0=    0
 Petite list used in FoFCou.
 Requested convergence on RMS density matrix=1.00D-08 within 128 cycles.
 Requested convergence on MAX density matrix=1.00D-06.
 Requested convergence on             energy=1.00D-06.
 No special actions if energy rises.
 Integral accuracy reduced to 1.0D-05 until final iterations.
 EnCoef did     2 forward-backward iterations
 Initial convergence to 1.0D-05 achieved.  Increase integral accuracy.
 SCF Done:  E(RB3LYP) =  -1947.77256170     A.U. after   23 cycles
            NFock= 23  Conv=0.86D-08     -V/T= 2.0098
 DoSCS=F DFT=T ScalE2(SS,OS)=  1.000000  1.000000
 ExpMin= 1.22D-01 ExpMax= 2.27D+03 ExpMxC= 3.41D+02 IAcc=3 IRadAn=         5 AccDes= 0.00D+00
 HarFok:  IExCor=  205 AccDes= 0.00D+00 IRadAn=         5 IDoV=-2 UseB2=F ITyADJ=14
 ICtDFT= 12500011 ScaDFX=  1.000000  1.000000  1.000000  1.000000
 GSVD:  LWork=       -2193 too small for GESVD, short by        9890 words or        9890 for optimal perf.
 Range of M.O.s used for correlation:    44   782
 NBasis=   782 NAE=   155 NBE=   155 NFC=    43 NFV=     0
 NROrb=    739 NOA=   112 NOB=   112 NVA=   627 NVB=   627

 **** Warning!!: The smallest alpha delta epsilon is  0.38097476D-01

 Orbital symmetries:
       Occupied  (A) (A) (A) (A) (A) (A) (A) (A) (A) (A) (A) (A)
                 (A) (A) (A) (A) (A) (A) (A) (A) (A) (A) (A) (A)
                 (A) (A) (A) (A) (A) (A) (A) (A) (A) (A) (A) (A)
                 (A) (A) (A) (A) (A) (A) (A) (A) (A) (A) (A) (A)
                 (A) (A) (A) (A) (A) (A) (A) (A) (A) (A) (A) (A)
                 (A) (A) (A) (A) (A) (A) (A) (A) (A) (A) (A) (A)
                 (A) (A) (A) (A) (A) (A) (A) (A) (A) (A) (A) (A)
                 (A) (A) (A) (A) (A) (A) (A) (A) (A) (A) (A) (A)
                 (A) (A) (A) (A) (A) (A) (A) (A) (A) (A) (A) (A)
                 (A) (A) (A) (A) (A) (A) (A) (A) (A) (A) (A) (A)
                 (A) (A) (A) (A) (A) (A) (A) (A) (A) (A) (A) (A)
                 (A) (A) (A) (A) (A) (A) (A) (A) (A) (A) (A) (A)
                 (A) (A) (A) (A) (A) (A) (A) (A) (A) (A) (A)
       Virtual   (A) (A) (A) (A) (A) (A) (A) (A) (A) (A) (A) (A)
                 (A) (A) (A) (A) (A) (A) (A) (A) (A) (A) (A) (A)
                 (A) (A) (A) (A) (A) (A) (A) (A) (A) (A) (A) (A)
                 (A) (A) (A) (A) (A) (A) (A) (A) (A) (A) (A) (A)
                 (A) (A) (A) (A) (A) (A) (A) (A) (A) (A) (A) (A)
                 (A) (A) (A) (A) (A) (A) (A) (A) (A) (A) (A) (A)
                 (A) (A) (A) (A) (A) (A) (A) (A) (A) (A) (A) (A)
                 (A) (A) (A) (A) (A) (A) (A) (A) (A) (A) (A) (A)
                 (A) (A) (A) (A) (A) (A) (A) (A) (A) (A) (A) (A)
                 (A) (A) (A) (A) (A) (A) (A) (A) (A) (A) (A) (A)
                 (A) (A) (A) (A) (A) (A) (A) (A) (A) (A) (A) (A)
                 (A) (A) (A) (A) (A) (A) (A) (A) (A) (A) (A) (A)
                 (A) (A) (A) (A) (A) (A) (A) (A) (A) (A) (A) (A)
                 (A) (A) (A) (A) (A) (A) (A) (A) (A) (A) (A) (A)
                 (A) (A) (A) (A) (A) (A) (A) (A) (A) (A) (A) (A)
                 (A) (A) (A) (A) (A) (A) (A) (A) (A) (A) (A) (A)
                 (A) (A) (A) (A) (A) (A) (A) (A) (A) (A) (A) (A)
                 (A) (A) (A) (A) (A) (A) (A) (A) (A) (A) (A) (A)
                 (A) (A) (A) (A) (A) (A) (A) (A) (A) (A) (A) (A)
                 (A) (A) (A) (A) (A) (A) (A) (A) (A) (A) (A) (A)
                 (A) (A) (A) (A) (A) (A) (A) (A) (A) (A) (A) (A)
                 (A) (A) (A) (A) (A) (A) (A) (A) (A) (A) (A) (A)
                 (A) (A) (A) (A) (A) (A) (A) (A) (A) (A) (A) (A)
                 (A) (A) (A) (A) (A) (A) (A) (A) (A) (A) (A) (A)
                 (A) (A) (A) (A) (A) (A) (A) (A) (A) (A) (A) (A)
                 (A) (A) (A) (A) (A) (A) (A) (A) (A) (A) (A) (A)
                 (A) (A) (A) (A) (A) (A) (A) (A) (A) (A) (A) (A)
                 (A) (A) (A) (A) (A) (A) (A) (A) (A) (A) (A) (A)
                 (A) (A) (A) (A) (A) (A) (A) (A) (A) (A) (A) (A)
                 (A) (A) (A) (A) (A) (A) (A) (A) (A) (A) (A) (A)
                 (A) (A) (A) (A) (A) (A) (A) (A) (A) (A) (A) (A)
                 (A) (A) (A) (A) (A) (A) (A) (A) (A) (A) (A) (A)
                 (A) (A) (A) (A) (A) (A) (A) (A) (A) (A) (A) (A)
                 (A) (A) (A) (A) (A) (A) (A) (A) (A) (A) (A) (A)
                 (A) (A) (A) (A) (A) (A) (A) (A) (A) (A) (A) (A)
                 (A) (A) (A) (A) (A) (A) (A) (A) (A) (A) (A) (A)
                 (A) (A) (A) (A) (A) (A) (A) (A) (A) (A) (A) (A)
                 (A) (A) (A) (A) (A) (A) (A) (A) (A) (A) (A) (A)
                 (A) (A) (A) (A) (A) (A) (A) (A) (A) (A) (A) (A)
                 (A) (A) (A) (A) (A) (A) (A) (A) (A) (A) (A) (A)
                 (A) (A) (A) (A) (A) (A) (A) (A) (A) (A) (A) (A)
                 (A) (A) (A) (A) (A) (A) (A) (A) (A) (A) (A) (A)
                 (A) (A) (A) (A) (A) (A) (A) (A) (A) (A) (A) (A)
                 (A) (A) (A) (A) (A) (A) (A) (A) (A) (A) (A) (A)
                 (A) (A) (A) (A) (A) (A) (A) (A) (A) (A) (A) (A)
                 (A) (A) (A) (A) (A) (A) (A) (A) (A) (A) (A) (A)
                 (A) (A) (A) (A) (A) (A) (A) (A) (A) (A) (A) (A)
                 (A) (A) (A) (A) (A) (A) (A) (A) (A) (A) (A) (A)
                 (A) (A) (A) (A) (A) (A) (A) (A) (A) (A) (A) (A)
                 (A) (A) (A) (A) (A) (A) (A) (A) (A) (A) (A) (A)
                 (A) (A) (A) (A) (A) (A) (A) (A) (A) (A) (A) (A)
                 (A) (A) (A) (A) (A) (A) (A) (A) (A) (A) (A) (A)
                 (A) (A) (A)
     4 initial guesses have been made.
 Convergence on wavefunction:    0.001000000000000
 Iteration     1 Dimension     4 NMult     0 NNew      4
 CISAX will form     4 AO SS matrices at one time.
 Iteration     2 Dimension     6 NMult     4 NNew      2
 Iteration     3 Dimension     8 NMult     6 NNew      2
 Iteration     4 Dimension    10 NMult     8 NNew      2
 Iteration     5 Dimension    12 NMult    10 NNew      2
 ***********************************************************************
 Excited states from <AA,BB:AA,BB> singles matrix:
 ***********************************************************************
 
 Ground to excited state transition densities written to RWF  633
 Ground to excited state transition electric dipole moments (Au):
       state          X           Y           Z        Dip. S.      Osc.
         1         0.0709     -0.0116      0.0488      0.0075      0.0001
 Ground to excited state transition velocity dipole moments (Au):
       state          X           Y           Z        Dip. S.      Osc.
         1         0.0008     -0.0007     -0.0016      0.0000      0.0002
 Ground to excited state transition magnetic dipole moments (Au):
       state          X           Y           Z
         1         0.0664      0.1904      0.2550
 Ground to excited state transition velocity quadrupole moments (Au):
       state          XX          YY          ZZ          XY          XZ          YZ
         1         0.0014      0.0042     -0.0112      0.0066      0.0039     -0.0001
 <0|del|b> * <b|rxdel|0> + <0|del|b> * <b|delr+rdel|0>
 Rotatory Strengths (R) in cgs (10**-40 erg-esu-cm/Gauss)
       state          XX          YY          ZZ    R(velocity)    E-M Angle
         1       -16.8611    -10.3526     -2.5945     -9.9361      140.47
 1/2[<0|r|b>*<b|rxdel|0> + (<0|rxdel|b>*<b|r|0>)*]
 Rotatory Strengths (R) in cgs (10**-40 erg-esu-cm/Gauss)
       state          XX          YY          ZZ     R(length)
         1        -3.3286      1.5634     -8.7976     -3.5209
  1/2[<0|del|b>*<b|r|0> + (<0|r|b>*<b|del|0>)*] (Au)
       state          X           Y           Z        Dip. S.   Osc.(frdel)
         1         0.0001      0.0000     -0.0001      0.0000      0.0000

 Excitation energies and oscillator strengths:
 
 Excited State   1:      Singlet-A      0.3104 eV 3994.05 nm  f=0.0001  <S**2>=0.000
     155 ->156         0.70371
 This state for optimization and/or second-order correction.
 Total Energy, E(TD-HF/TD-DFT) =  -1947.76115389    
 Copying the excited state density for this state as the 1-particle RhoCI density.
 SavETr:  write IOETrn=   770 NScale= 10 NData=  16 NLR=1 NState=    1 LETran=      28.

 **********************************************************************

            Population analysis using the SCF density.

 **********************************************************************

 Orbital symmetries:
       Occupied  (A) (A) (A) (A) (A) (A) (A) (A) (A) (A) (A) (A)
                 (A) (A) (A) (A) (A) (A) (A) (A) (A) (A) (A) (A)
                 (A) (A) (A) (A) (A) (A) (A) (A) (A) (A) (A) (A)
                 (A) (A) (A) (A) (A) (A) (A) (A) (A) (A) (A) (A)
                 (A) (A) (A) (A) (A) (A) (A) (A) (A) (A) (A) (A)
                 (A) (A) (A) (A) (A) (A) (A) (A) (A) (A) (A) (A)
                 (A) (A) (A) (A) (A) (A) (A) (A) (A) (A) (A) (A)
                 (A) (A) (A) (A) (A) (A) (A) (A) (A) (A) (A) (A)
                 (A) (A) (A) (A) (A) (A) (A) (A) (A) (A) (A) (A)
                 (A) (A) (A) (A) (A) (A) (A) (A) (A) (A) (A) (A)
                 (A) (A) (A) (A) (A) (A) (A) (A) (A) (A) (A) (A)
                 (A) (A) (A) (A) (A) (A) (A) (A) (A) (A) (A) (A)
                 (A) (A) (A) (A) (A) (A) (A) (A) (A) (A) (A)
       Virtual   (A) (A) (A) (A) (A) (A) (A) (A) (A) (A) (A) (A)
                 (A) (A) (A) (A) (A) (A) (A) (A) (A) (A) (A) (A)
                 (A) (A) (A) (A) (A) (A) (A) (A) (A) (A) (A) (A)
                 (A) (A) (A) (A) (A) (A) (A) (A) (A) (A) (A) (A)
                 (A) (A) (A) (A) (A) (A) (A) (A) (A) (A) (A) (A)
                 (A) (A) (A) (A) (A) (A) (A) (A) (A) (A) (A) (A)
                 (A) (A) (A) (A) (A) (A) (A) (A) (A) (A) (A) (A)
                 (A) (A) (A) (A) (A) (A) (A) (A) (A) (A) (A) (A)
                 (A) (A) (A) (A) (A) (A) (A) (A) (A) (A) (A) (A)
                 (A) (A) (A) (A) (A) (A) (A) (A) (A) (A) (A) (A)
                 (A) (A) (A) (A) (A) (A) (A) (A) (A) (A) (A) (A)
                 (A) (A) (A) (A) (A) (A) (A) (A) (A) (A) (A) (A)
                 (A) (A) (A) (A) (A) (A) (A) (A) (A) (A) (A) (A)
                 (A) (A) (A) (A) (A) (A) (A) (A) (A) (A) (A) (A)
                 (A) (A) (A) (A) (A) (A) (A) (A) (A) (A) (A) (A)
                 (A) (A) (A) (A) (A) (A) (A) (A) (A) (A) (A) (A)
                 (A) (A) (A) (A) (A) (A) (A) (A) (A) (A) (A) (A)
                 (A) (A) (A) (A) (A) (A) (A) (A) (A) (A) (A) (A)
                 (A) (A) (A) (A) (A) (A) (A) (A) (A) (A) (A) (A)
                 (A) (A) (A) (A) (A) (A) (A) (A) (A) (A) (A) (A)
                 (A) (A) (A) (A) (A) (A) (A) (A) (A) (A) (A) (A)
                 (A) (A) (A) (A) (A) (A) (A) (A) (A) (A) (A) (A)
                 (A) (A) (A) (A) (A) (A) (A) (A) (A) (A) (A) (A)
                 (A) (A) (A) (A) (A) (A) (A) (A) (A) (A) (A) (A)
                 (A) (A) (A) (A) (A) (A) (A) (A) (A) (A) (A) (A)
                 (A) (A) (A) (A) (A) (A) (A) (A) (A) (A) (A) (A)
                 (A) (A) (A) (A) (A) (A) (A) (A) (A) (A) (A) (A)
                 (A) (A) (A) (A) (A) (A) (A) (A) (A) (A) (A) (A)
                 (A) (A) (A) (A) (A) (A) (A) (A) (A) (A) (A) (A)
                 (A) (A) (A) (A) (A) (A) (A) (A) (A) (A) (A) (A)
                 (A) (A) (A) (A) (A) (A) (A) (A) (A) (A) (A) (A)
                 (A) (A) (A) (A) (A) (A) (A) (A) (A) (A) (A) (A)
                 (A) (A) (A) (A) (A) (A) (A) (A) (A) (A) (A) (A)
                 (A) (A) (A) (A) (A) (A) (A) (A) (A) (A) (A) (A)
                 (A) (A) (A) (A) (A) (A) (A) (A) (A) (A) (A) (A)
                 (A) (A) (A) (A) (A) (A) (A) (A) (A) (A) (A) (A)
                 (A) (A) (A) (A) (A) (A) (A) (A) (A) (A) (A) (A)
                 (A) (A) (A) (A) (A) (A) (A) (A) (A) (A) (A) (A)
                 (A) (A) (A) (A) (A) (A) (A) (A) (A) (A) (A) (A)
                 (A) (A) (A) (A) (A) (A) (A) (A) (A) (A) (A) (A)
                 (A) (A) (A) (A) (A) (A) (A) (A) (A) (A) (A) (A)
                 (A) (A) (A) (A) (A) (A) (A) (A) (A) (A) (A) (A)
                 (A) (A) (A) (A) (A) (A) (A) (A) (A) (A) (A) (A)
                 (A) (A) (A) (A) (A) (A) (A) (A) (A) (A) (A) (A)
                 (A) (A) (A) (A) (A) (A) (A) (A) (A) (A) (A) (A)
                 (A) (A) (A) (A) (A) (A) (A) (A) (A) (A) (A) (A)
                 (A) (A) (A) (A) (A) (A) (A) (A) (A) (A) (A) (A)
                 (A) (A) (A) (A) (A) (A) (A) (A) (A) (A) (A) (A)
                 (A) (A) (A) (A) (A) (A) (A) (A) (A) (A) (A) (A)
                 (A) (A) (A) (A) (A) (A) (A) (A) (A) (A) (A) (A)
                 (A) (A) (A) (A) (A) (A) (A) (A) (A) (A) (A) (A)
                 (A) (A) (A) (A) (A) (A) (A) (A) (A) (A) (A) (A)
                 (A) (A) (A)
 The electronic state is 1-A.
 Alpha  occ. eigenvalues --  -19.18068 -19.17274 -19.15077 -19.12639 -19.11654
 Alpha  occ. eigenvalues --  -19.09004 -14.38137 -14.36152 -14.31656 -14.30575
 Alpha  occ. eigenvalues --  -10.34668 -10.30943 -10.27920 -10.27905 -10.27017
 Alpha  occ. eigenvalues --  -10.26700 -10.25112 -10.24678 -10.23989 -10.23889
 Alpha  occ. eigenvalues --  -10.23696 -10.23588 -10.22259 -10.22198 -10.22008
 Alpha  occ. eigenvalues --  -10.21378 -10.20964 -10.20877 -10.20797 -10.20709
 Alpha  occ. eigenvalues --  -10.20388 -10.20218 -10.19856 -10.19283 -10.18546
 Alpha  occ. eigenvalues --  -10.18247 -10.17811 -10.17777 -10.17634 -10.17068
 Alpha  occ. eigenvalues --  -10.16736 -10.16020 -10.15682  -1.10604  -1.06885
 Alpha  occ. eigenvalues --   -1.02537  -1.02222  -1.01354  -1.01080  -0.99071
 Alpha  occ. eigenvalues --   -0.95122  -0.94372  -0.91401  -0.85751  -0.82829
 Alpha  occ. eigenvalues --   -0.81682  -0.80814  -0.79809  -0.79786  -0.78378
 Alpha  occ. eigenvalues --   -0.76933  -0.76248  -0.75890  -0.75035  -0.73777
 Alpha  occ. eigenvalues --   -0.72406  -0.70755  -0.70498  -0.69325  -0.68548
 Alpha  occ. eigenvalues --   -0.67467  -0.65439  -0.63826  -0.61416  -0.60521
 Alpha  occ. eigenvalues --   -0.60421  -0.59335  -0.58741  -0.57786  -0.57559
 Alpha  occ. eigenvalues --   -0.56389  -0.55673  -0.54229  -0.53997  -0.53517
 Alpha  occ. eigenvalues --   -0.52383  -0.51943  -0.51199  -0.50671  -0.50074
 Alpha  occ. eigenvalues --   -0.49005  -0.48610  -0.48396  -0.48171  -0.48117
 Alpha  occ. eigenvalues --   -0.47852  -0.47559  -0.46560  -0.46422  -0.45915
 Alpha  occ. eigenvalues --   -0.45643  -0.45059  -0.44828  -0.44315  -0.43957
 Alpha  occ. eigenvalues --   -0.43688  -0.43494  -0.43156  -0.42579  -0.42428
 Alpha  occ. eigenvalues --   -0.42198  -0.41942  -0.41795  -0.41633  -0.41429
 Alpha  occ. eigenvalues --   -0.41206  -0.41067  -0.40792  -0.40391  -0.40314
 Alpha  occ. eigenvalues --   -0.39845  -0.39775  -0.39280  -0.39223  -0.38931
 Alpha  occ. eigenvalues --   -0.37997  -0.37895  -0.37444  -0.36561  -0.36329
 Alpha  occ. eigenvalues --   -0.36169  -0.35868  -0.35783  -0.35485  -0.34341
 Alpha  occ. eigenvalues --   -0.33529  -0.32901  -0.32724  -0.32608  -0.32436
 Alpha  occ. eigenvalues --   -0.31590  -0.30809  -0.29719  -0.29551  -0.28842
 Alpha  occ. eigenvalues --   -0.28207  -0.27890  -0.25861  -0.24435  -0.24051
 Alpha  occ. eigenvalues --   -0.23552  -0.23044  -0.22359  -0.21739  -0.17856
 Alpha virt. eigenvalues --   -0.14046  -0.08298  -0.04492  -0.03876  -0.01835
 Alpha virt. eigenvalues --    0.01447   0.01843   0.02303   0.02678   0.03354
 Alpha virt. eigenvalues --    0.03498   0.04986   0.05070   0.05254   0.05723
 Alpha virt. eigenvalues --    0.05973   0.06119   0.06304   0.07066   0.07282
 Alpha virt. eigenvalues --    0.07657   0.08251   0.08447   0.08926   0.09438
 Alpha virt. eigenvalues --    0.10245   0.10400   0.10658   0.11007   0.11451
 Alpha virt. eigenvalues --    0.11694   0.11924   0.11983   0.12239   0.12760
 Alpha virt. eigenvalues --    0.13063   0.13255   0.13858   0.14022   0.14475
 Alpha virt. eigenvalues --    0.14806   0.15256   0.15949   0.16260   0.16795
 Alpha virt. eigenvalues --    0.17159   0.17456   0.17863   0.17976   0.18236
 Alpha virt. eigenvalues --    0.18777   0.19076   0.19549   0.19649   0.20039
 Alpha virt. eigenvalues --    0.20480   0.20639   0.21555   0.22088   0.22174
 Alpha virt. eigenvalues --    0.22600   0.23359   0.24090   0.24342   0.24889
 Alpha virt. eigenvalues --    0.25667   0.25886   0.26656   0.26897   0.27540
 Alpha virt. eigenvalues --    0.27854   0.27987   0.28353   0.28632   0.29167
 Alpha virt. eigenvalues --    0.29353   0.29729   0.30471   0.31017   0.31530
 Alpha virt. eigenvalues --    0.31994   0.32276   0.32867   0.33195   0.34284
 Alpha virt. eigenvalues --    0.34450   0.34562   0.35193   0.35397   0.36354
 Alpha virt. eigenvalues --    0.36991   0.37357   0.37882   0.38797   0.39476
 Alpha virt. eigenvalues --    0.39800   0.40164   0.40399   0.40679   0.41356
 Alpha virt. eigenvalues --    0.42147   0.42263   0.42625   0.42889   0.43027
 Alpha virt. eigenvalues --    0.43274   0.43974   0.44417   0.44907   0.45036
 Alpha virt. eigenvalues --    0.45149   0.45530   0.45764   0.45990   0.46538
 Alpha virt. eigenvalues --    0.46961   0.47382   0.47879   0.48411   0.48559
 Alpha virt. eigenvalues --    0.48889   0.48991   0.49473   0.49750   0.50339
 Alpha virt. eigenvalues --    0.50662   0.50977   0.51069   0.51407   0.51618
 Alpha virt. eigenvalues --    0.52230   0.52791   0.53553   0.53784   0.54284
 Alpha virt. eigenvalues --    0.54932   0.55284   0.55478   0.55869   0.56264
 Alpha virt. eigenvalues --    0.56422   0.56639   0.56981   0.57087   0.57568
 Alpha virt. eigenvalues --    0.58078   0.58308   0.58444   0.58739   0.59352
 Alpha virt. eigenvalues --    0.59572   0.59765   0.59848   0.59936   0.60796
 Alpha virt. eigenvalues --    0.61293   0.61525   0.62052   0.62151   0.62277
 Alpha virt. eigenvalues --    0.62598   0.62785   0.63511   0.63604   0.63722
 Alpha virt. eigenvalues --    0.63872   0.63942   0.64234   0.64921   0.65047
 Alpha virt. eigenvalues --    0.65278   0.65804   0.66103   0.66212   0.66326
 Alpha virt. eigenvalues --    0.66904   0.67183   0.67398   0.67754   0.68074
 Alpha virt. eigenvalues --    0.68353   0.68674   0.68953   0.69376   0.69433
 Alpha virt. eigenvalues --    0.69793   0.69956   0.70235   0.70519   0.70913
 Alpha virt. eigenvalues --    0.71239   0.71367   0.71570   0.72170   0.72776
 Alpha virt. eigenvalues --    0.72945   0.73282   0.73613   0.73959   0.74590
 Alpha virt. eigenvalues --    0.75128   0.75346   0.75537   0.75796   0.76156
 Alpha virt. eigenvalues --    0.76908   0.77197   0.77346   0.77824   0.78181
 Alpha virt. eigenvalues --    0.78724   0.79360   0.79584   0.80061   0.80416
 Alpha virt. eigenvalues --    0.80872   0.81029   0.81476   0.82049   0.82506
 Alpha virt. eigenvalues --    0.82772   0.83234   0.83509   0.83748   0.84487
 Alpha virt. eigenvalues --    0.85592   0.85940   0.86342   0.87462   0.88308
 Alpha virt. eigenvalues --    0.88609   0.89026   0.89723   0.90154   0.91848
 Alpha virt. eigenvalues --    0.91937   0.92289   0.93266   0.93332   0.93895
 Alpha virt. eigenvalues --    0.94681   0.94987   0.95402   0.95770   0.96272
 Alpha virt. eigenvalues --    0.96955   0.97447   0.97806   0.98333   0.98442
 Alpha virt. eigenvalues --    0.99358   0.99762   1.00780   1.01828   1.02301
 Alpha virt. eigenvalues --    1.02746   1.04332   1.05213   1.06131   1.06645
 Alpha virt. eigenvalues --    1.07694   1.07913   1.08283   1.09672   1.10225
 Alpha virt. eigenvalues --    1.10522   1.11158   1.11814   1.12569   1.12874
 Alpha virt. eigenvalues --    1.13924   1.14436   1.14697   1.15082   1.15858
 Alpha virt. eigenvalues --    1.16122   1.16359   1.17281   1.17603   1.18506
 Alpha virt. eigenvalues --    1.19001   1.19586   1.20631   1.21116   1.21775
 Alpha virt. eigenvalues --    1.22342   1.23090   1.23377   1.23830   1.24090
 Alpha virt. eigenvalues --    1.24749   1.25909   1.26163   1.27273   1.27763
 Alpha virt. eigenvalues --    1.27970   1.28460   1.30202   1.30941   1.31182
 Alpha virt. eigenvalues --    1.31250   1.31891   1.32615   1.33147   1.33721
 Alpha virt. eigenvalues --    1.34484   1.35011   1.36446   1.37196   1.38348
 Alpha virt. eigenvalues --    1.38997   1.39301   1.39762   1.40109   1.40684
 Alpha virt. eigenvalues --    1.41369   1.42196   1.42642   1.44332   1.44619
 Alpha virt. eigenvalues --    1.45028   1.46271   1.46527   1.47805   1.48088
 Alpha virt. eigenvalues --    1.48877   1.49550   1.50533   1.50880   1.51625
 Alpha virt. eigenvalues --    1.52332   1.52727   1.52944   1.53759   1.54269
 Alpha virt. eigenvalues --    1.54520   1.55106   1.55698   1.56030   1.56916
 Alpha virt. eigenvalues --    1.57280   1.58078   1.59566   1.59719   1.59981
 Alpha virt. eigenvalues --    1.60582   1.60962   1.61731   1.62071   1.62687
 Alpha virt. eigenvalues --    1.63585   1.64100   1.64366   1.65131   1.65945
 Alpha virt. eigenvalues --    1.66076   1.66342   1.66935   1.67242   1.67791
 Alpha virt. eigenvalues --    1.67968   1.68134   1.68731   1.69468   1.69729
 Alpha virt. eigenvalues --    1.69786   1.70086   1.71096   1.71180   1.71849
 Alpha virt. eigenvalues --    1.72917   1.73088   1.73110   1.74086   1.74708
 Alpha virt. eigenvalues --    1.74904   1.74989   1.75876   1.76122   1.76279
 Alpha virt. eigenvalues --    1.76470   1.77037   1.77088   1.77817   1.78164
 Alpha virt. eigenvalues --    1.78656   1.78909   1.79165   1.79643   1.80149
 Alpha virt. eigenvalues --    1.80616   1.81221   1.81230   1.82069   1.82220
 Alpha virt. eigenvalues --    1.82719   1.83672   1.83855   1.84353   1.84692
 Alpha virt. eigenvalues --    1.85135   1.85779   1.86172   1.86590   1.87407
 Alpha virt. eigenvalues --    1.87564   1.88106   1.88224   1.88677   1.89094
 Alpha virt. eigenvalues --    1.89565   1.89850   1.90162   1.90941   1.91789
 Alpha virt. eigenvalues --    1.91938   1.92370   1.92587   1.93041   1.93507
 Alpha virt. eigenvalues --    1.94416   1.94787   1.95922   1.96064   1.96950
 Alpha virt. eigenvalues --    1.97403   1.98061   1.98188   1.98440   1.99078
 Alpha virt. eigenvalues --    1.99330   2.00001   2.00691   2.01635   2.02088
 Alpha virt. eigenvalues --    2.02991   2.03300   2.03536   2.03969   2.05158
 Alpha virt. eigenvalues --    2.05259   2.05701   2.06256   2.06603   2.07119
 Alpha virt. eigenvalues --    2.07398   2.08396   2.08995   2.09156   2.09752
 Alpha virt. eigenvalues --    2.10115   2.10410   2.10747   2.11281   2.12082
 Alpha virt. eigenvalues --    2.12526   2.12923   2.13522   2.14350   2.14954
 Alpha virt. eigenvalues --    2.15039   2.15809   2.16438   2.17386   2.17647
 Alpha virt. eigenvalues --    2.18600   2.18887   2.19545   2.20244   2.21006
 Alpha virt. eigenvalues --    2.21221   2.21685   2.22364   2.24634   2.24842
 Alpha virt. eigenvalues --    2.25390   2.25616   2.26104   2.26517   2.26804
 Alpha virt. eigenvalues --    2.28126   2.28454   2.29606   2.30548   2.31482
 Alpha virt. eigenvalues --    2.32127   2.32853   2.33363   2.33956   2.34519
 Alpha virt. eigenvalues --    2.35083   2.35884   2.36850   2.36962   2.38197
 Alpha virt. eigenvalues --    2.38913   2.39722   2.40213   2.40369   2.40724
 Alpha virt. eigenvalues --    2.41245   2.42189   2.42875   2.43480   2.44009
 Alpha virt. eigenvalues --    2.44613   2.45198   2.46481   2.47257   2.48107
 Alpha virt. eigenvalues --    2.49205   2.49853   2.50496   2.50698   2.51294
 Alpha virt. eigenvalues --    2.51711   2.52363   2.53414   2.54541   2.54836
 Alpha virt. eigenvalues --    2.56219   2.57245   2.58120   2.58501   2.60014
 Alpha virt. eigenvalues --    2.60541   2.60852   2.61719   2.62564   2.62897
 Alpha virt. eigenvalues --    2.63423   2.63842   2.64674   2.65094   2.65721
 Alpha virt. eigenvalues --    2.66671   2.67662   2.68008   2.68671   2.69064
 Alpha virt. eigenvalues --    2.70863   2.71135   2.71826   2.72330   2.73117
 Alpha virt. eigenvalues --    2.73505   2.74088   2.75130   2.76042   2.77305
 Alpha virt. eigenvalues --    2.78070   2.78759   2.79009   2.79922   2.80433
 Alpha virt. eigenvalues --    2.80980   2.81630   2.82456   2.83071   2.83902
 Alpha virt. eigenvalues --    2.84299   2.85396   2.85632   2.86446   2.86763
 Alpha virt. eigenvalues --    2.88379   2.88991   2.89162   2.89449   2.89565
 Alpha virt. eigenvalues --    2.90088   2.90815   2.91667   2.91859   2.93731
 Alpha virt. eigenvalues --    2.93821   2.95408   2.95669   2.96187   2.96855
 Alpha virt. eigenvalues --    2.97439   2.98036   2.98947   3.00041   3.01474
 Alpha virt. eigenvalues --    3.02437   3.03865   3.06012   3.06909   3.09457
 Alpha virt. eigenvalues --    3.10195   3.10772   3.11203   3.11491   3.12348
 Alpha virt. eigenvalues --    3.13390   3.14811   3.16069   3.17581   3.18104
 Alpha virt. eigenvalues --    3.20203   3.21246   3.23559   3.24361   3.24472
 Alpha virt. eigenvalues --    3.24533   3.29034   3.30124   3.33660   3.34383
 Alpha virt. eigenvalues --    3.38276   3.39201   3.39940   3.46220   3.49110
 Alpha virt. eigenvalues --    3.50444   3.52250   3.53261   3.53417   3.53529
 Alpha virt. eigenvalues --    3.58968   3.63192   3.66733   3.70713   3.70777
 Alpha virt. eigenvalues --    3.76069   3.78796
          Condensed to atoms (all electrons):
 Mulliken charges:
               1
     1  O   -0.183444
     2  O   -0.201004
     3  O   -0.186839
     4  O   -0.265881
     5  O   -0.243675
     6  O   -0.253267
     7  N   -0.060749
     8  N   -0.254209
     9  N    0.022134
    10  N   -0.329128
    11  C   -0.012546
    12  C    0.348261
    13  C   -0.142872
    14  C   -0.158826
    15  C   -0.105206
    16  C   -0.013656
    17  C   -0.153733
    18  C    0.183124
    19  C   -0.040203
    20  C   -0.104128
    21  C    0.106912
    22  C    0.136635
    23  C   -0.065921
    24  C    0.198426
    25  C    0.156043
    26  C   -0.097601
    27  C    0.110658
    28  C    0.055615
    29  C    0.037358
    30  C   -0.008506
    31  C   -0.075221
    32  C    0.145218
    33  C   -0.046217
    34  C    0.075211
    35  C    0.083349
    36  C    0.021540
    37  C    0.200853
    38  C    0.081392
    39  C   -0.165463
    40  C    0.156378
    41  C    0.023283
    42  C    0.017687
    43  C   -0.050123
    44  H    0.065053
    45  H   -0.158258
    46  H    0.020280
    47  H    0.087933
    48  H    0.174968
    49  H    0.008991
    50  H   -0.064377
    51  H    0.017983
    52  H    0.011634
    53  H   -0.066318
    54  H    0.018769
    55  H    0.039352
    56  H    0.010375
    57  H   -0.003961
    58  H   -0.008722
    59  H    0.035110
    60  H    0.129008
    61  H    0.051457
    62  H    0.050834
    63  H   -0.016818
    64  H    0.078055
    65  H    0.074340
    66  H   -0.016936
    67  H    0.009980
    68  H    0.039317
    69  H   -0.025036
    70  H    0.010893
    71  H   -0.045822
    72  H    0.166914
    73  H   -0.054186
    74  H    0.056882
    75  H    0.058680
    76  H    0.050438
    77  H    0.191231
    78  H    0.020010
    79  H    0.040293
 Sum of Mulliken charges =  -0.00000
 Mulliken charges with hydrogens summed into heavy atoms:
               1
     1  O   -0.183444
     2  O   -0.034090
     3  O   -0.186839
     4  O   -0.074649
     5  O   -0.243675
     6  O   -0.253267
     7  N    0.027184
     8  N   -0.079241
     9  N    0.151142
    10  N   -0.329128
    11  C    0.052507
    12  C    0.210283
    13  C   -0.142872
    14  C   -0.158826
    15  C   -0.105206
    16  C   -0.013656
    17  C   -0.153733
    18  C    0.127738
    19  C   -0.040203
    20  C   -0.086145
    21  C    0.106912
    22  C    0.136635
    23  C   -0.065921
    24  C    0.162510
    25  C    0.201808
    26  C   -0.097601
    27  C    0.137046
    28  C    0.055615
    29  C    0.139648
    30  C   -0.025324
    31  C    0.077174
    32  C    0.177579
    33  C   -0.071254
    34  C    0.075211
    35  C    0.083349
    36  C   -0.013389
    37  C    0.200853
    38  C    0.081392
    39  C   -0.165463
    40  C    0.156378
    41  C   -0.030904
    42  C    0.183687
    43  C    0.010181
 Electronic spatial extent (au):  <R**2>=          25696.7969
 Charge=             -0.0000 electrons
 Dipole moment (field-independent basis, Debye):
    X=              3.3708    Y=              4.0844    Z=             -2.4059  Tot=              5.8166
 Quadrupole moment (field-independent basis, Debye-Ang):
   XX=           -242.0600   YY=           -238.8151   ZZ=           -261.7330
   XY=              1.3529   XZ=            -18.7836   YZ=            -13.4648
 Traceless Quadrupole moment (field-independent basis, Debye-Ang):
   XX=              5.4760   YY=              8.7210   ZZ=            -14.1970
   XY=              1.3529   XZ=            -18.7836   YZ=            -13.4648
 Octapole moment (field-independent basis, Debye-Ang**2):
  XXX=            110.0116  YYY=            131.9532  ZZZ=            -46.7810  XYY=            -39.0181
  XXY=             33.4056  XXZ=              4.6762  XZZ=             41.1370  YZZ=             65.7579
  YYZ=             26.1114  XYZ=              6.1641
 Hexadecapole moment (field-independent basis, Debye-Ang**3):
 XXXX=         -17295.6640 YYYY=          -7984.7745 ZZZZ=          -7100.6202 XXXY=             66.9227
 XXXZ=           -177.8873 YYYX=            -36.8191 YYYZ=             19.9388 ZZZX=           -306.5466
 ZZZY=             42.0708 XXYY=          -4535.4220 XXZZ=          -4468.1217 YYZZ=          -2445.4965
 XXYZ=           -122.1209 YYXZ=            207.5725 ZZXY=            113.2121
 N-N= 5.198559673584D+03 E-N=-1.492688311485D+04  KE= 1.928828574568D+03
 1\1\GINC-PADAWAN\SP\RB3LYP TD-FC\SVP\C33H36N4O6\PADAWAN\29-Jul-2019\0\
 \# td=(NStates=1) B3LYP/SVP\\TD\\0,1\O,0,-3.0480317134,-1.4819432498,-
 2.8073213864\O,0,2.9965101058,3.1667283313,3.2254068116\O,0,3.60040434
 86,1.3854856769,4.3776222058\O,0,7.7761062135,-1.3674828625,-0.9155223
 14\O,0,6.6857827347,-3.1683876337,-1.8819246406\O,0,-2.7103319397,1.58
 22137105,1.4033803985\N,0,-0.2425600022,-2.4396802823,0.9423590767\N,0
 ,-2.6548175198,-1.153330468,-0.5269148361\N,0,1.1362751769,0.006731582
 9,-0.7750824454\N,0,-1.0749766432,1.4640718151,-0.1909199899\C,0,-3.42
 90880585,-1.3099285553,0.6147684507\C,0,-2.6420728334,-2.336107757,1.7
 084961564\C,0,-1.2086265044,-2.0063084448,1.8191699056\C,0,-0.48430823
 31,-1.2921904107,2.8548435049\C,0,0.8044915618,-1.1757525763,2.5087620
 708\C,0,1.0321058968,-1.8718736221,1.2820530093\C,0,-4.7140963562,-1.8
 77723421,0.2228191692\C,0,1.8689114825,-0.331923522,3.1602381783\C,0,-
 4.8149278542,-2.0250112095,-1.1715274932\C,0,2.0712150779,-1.951673359
 5,0.2782601047\C,0,2.045920614,-0.9479467069,-0.7440983113\C,0,-3.3926
 539353,-1.5836803333,-1.6861659\C,0,3.0318442476,-0.6547162199,-1.7870
 926082\C,0,-1.2844570179,-0.5668605431,3.9348589942\C,0,-5.7802232464,
 -1.9579722775,1.3541564212\C,0,2.5461542723,0.4217095392,-2.5144760576
 \C,0,1.9599354259,1.1155272447,2.6183384754\C,0,1.3056239289,0.8507417
 228,-1.8624323492\C,0,4.1802233714,-1.4514945786,-2.1095705872\C,0,-5.
 7575600921,-2.536485739,-2.0565090991\C,0,5.3043959906,-1.1965013953,-
 1.0640498219\C,0,3.0831384092,1.0872771303,-3.7346099702\C,0,0.4660990
 34,2.0245376007,-1.9639981449\C,0,2.9600146418,1.8344830338,3.51070641
 58\C,0,-0.6449983314,2.3626508973,-1.1830035883\C,0,-6.8634802745,-3.2
 348272468,-1.8380823669\C,0,6.549244494,-2.0456628214,-1.3346241524\C,
 0,-1.4230909639,3.4242646597,-1.2062186966\C,0,-2.2936034497,3.4944299
 22,-0.1855264588\C,0,-2.0621484872,2.1181227458,0.4549444264\C,0,-1.30
 97109495,4.5465809183,-2.2490366717\C,0,-3.3106417007,4.4818986728,0.3
 496692066\C,0,-1.9087547667,5.7515905773,-2.2281065435\H,0,-3.30511900
 51,-0.3759730872,1.2112053251\H,0,-2.7814497714,-3.1321183368,1.288829
 232\H,0,-2.8966194817,-2.5389373381,2.8656859573\H,0,-0.3509203968,-2.
 9830570708,0.1378607961\H,0,-1.9532737171,-0.3332396275,-0.5692910315\
 H,0,1.8428022416,-0.3964110949,4.2804901481\H,0,2.638951228,-0.8992418
 155,2.9843633657\H,0,2.821030917,-2.7399655795,0.2972127745\H,0,-2.009
 6935987,-1.505489823,4.2435814199\H,0,-0.7380135694,-0.1708012837,4.59
 95563121\H,0,-1.8934186557,0.1682892756,3.5192706924\H,0,-5.8663574229
 ,-1.1346815994,2.0809923922\H,0,-5.8245012108,-2.9723113357,1.60725357
 17\H,0,-6.7143288097,-1.8129869421,0.8300593676\H,0,2.2622223616,1.168
 4767896,1.6629039017\H,0,1.145604512,1.7992321675,2.8161395877\H,0,0.3
 155098086,0.3834827181,-0.3773897713\H,0,4.6794436636,-1.2294160006,-3
 .1822338253\H,0,3.815482378,-2.5000117804,-2.1056676748\H,0,-5.5478169
 201,-2.2823991645,-3.0682502888\H,0,4.8536032816,-1.3207725572,-0.0218
 389602\H,0,5.8107725186,-0.1087878749,-1.1104655291\H,0,3.9021501265,0
 .6184683389,-4.1508833178\H,0,3.3131870703,2.0942205008,-3.7076631017\
 H,0,2.2667624655,1.0734918471,-4.5906322152\H,0,0.5551994299,2.6938208
 786,-2.8094818402\H,0,-7.2488239685,-3.5087930632,-0.7632653477\H,0,-7
 .5408423491,-3.4199433248,-2.4741304665\H,0,3.6829320207,3.4752868897,
 3.843497604\H,0,-0.7701708959,4.4293742169,-3.083726268\H,0,-4.0394925
 389,5.0271592977,-0.4098421357\H,0,-3.9086996197,3.8571005037,1.098860
 6975\H,0,-2.7811164278,5.3594762387,0.8157973496\H,0,8.5145271462,-1.9
 857217264,-1.1009507301\H,0,-1.5287357982,6.380638521,-3.0205269049\H,
 0,-2.6299253454,6.2364350193,-1.4267185794\\Version=ES64L-G16RevA.03\S
 tate=1-A\HF=-1947.7725617\RMSD=8.627e-09\PG=C01 [X(C33H36N4O6)]\\@


 THE MORE POWERFUL THE METHOD, THE MORE CATASTROPHIC THE ERRORS.
     -- M.D. KAMEN
 Job cpu time:       0 days  4 hours 21 minutes 59.8 seconds.
 Elapsed time:       0 days  1 hours  5 minutes 38.2 seconds.
 File lengths (MBytes):  RWF=   2533 Int=      0 D2E=      0 Chk=     63 Scr=      1
 Normal termination of Gaussian 16 at Mon Jul 29 15:48:35 2019.
