 Entering Gaussian System, Link 0=g16
 Input=Geometria-421-.com
 Output=Geometria-421-.log
 Initial command:
 /usr/local/g16/l1.exe "/home/padawan/israel-mol/dihydrobiliverdin/spectra/emi/Gau-29142.inp" -scrdir="/home/padawan/israel-mol/dihydrobiliverdin/spectra/emi/"
 Entering Link 1 = /usr/local/g16/l1.exe PID=     29144.
  
 Copyright (c) 1988,1990,1992,1993,1995,1998,2003,2009,2016,
            Gaussian, Inc.  All Rights Reserved.
  
 This is part of the Gaussian(R) 16 program.  It is based on
 the Gaussian(R) 09 system (copyright 2009, Gaussian, Inc.),
 the Gaussian(R) 03 system (copyright 2003, Gaussian, Inc.),
 the Gaussian(R) 98 system (copyright 1998, Gaussian, Inc.),
 the Gaussian(R) 94 system (copyright 1995, Gaussian, Inc.),
 the Gaussian 92(TM) system (copyright 1992, Gaussian, Inc.),
 the Gaussian 90(TM) system (copyright 1990, Gaussian, Inc.),
 the Gaussian 88(TM) system (copyright 1988, Gaussian, Inc.),
 the Gaussian 86(TM) system (copyright 1986, Carnegie Mellon
 University), and the Gaussian 82(TM) system (copyright 1983,
 Carnegie Mellon University). Gaussian is a federally registered
 trademark of Gaussian, Inc.
  
 This software contains proprietary and confidential information,
 including trade secrets, belonging to Gaussian, Inc.
  
 This software is provided under written license and may be
 used, copied, transmitted, or stored only in accord with that
 written license.
  
 The following legend is applicable only to US Government
 contracts under FAR:
  
                    RESTRICTED RIGHTS LEGEND
  
 Use, reproduction and disclosure by the US Government is
 subject to restrictions as set forth in subparagraphs (a)
 and (c) of the Commercial Computer Software - Restricted
 Rights clause in FAR 52.227-19.
  
 Gaussian, Inc.
 340 Quinnipiac St., Bldg. 40, Wallingford CT 06492
  
  
 ---------------------------------------------------------------
 Warning -- This program may not be used in any manner that
 competes with the business of Gaussian, Inc. or will provide
 assistance to any competitor of Gaussian, Inc.  The licensee
 of this program is prohibited from giving any competitor of
 Gaussian, Inc. access to this program.  By using this program,
 the user acknowledges that Gaussian, Inc. is engaged in the
 business of creating and licensing software in the field of
 computational chemistry and represents and warrants to the
 licensee that it is not a competitor of Gaussian, Inc. and that
 it will not use this program in any manner prohibited above.
 ---------------------------------------------------------------
  

 Cite this work as:
 Gaussian 16, Revision A.03,
 M. J. Frisch, G. W. Trucks, H. B. Schlegel, G. E. Scuseria, 
 M. A. Robb, J. R. Cheeseman, G. Scalmani, V. Barone, 
 G. A. Petersson, H. Nakatsuji, X. Li, M. Caricato, A. V. Marenich, 
 J. Bloino, B. G. Janesko, R. Gomperts, B. Mennucci, H. P. Hratchian, 
 J. V. Ortiz, A. F. Izmaylov, J. L. Sonnenberg, D. Williams-Young, 
 F. Ding, F. Lipparini, F. Egidi, J. Goings, B. Peng, A. Petrone, 
 T. Henderson, D. Ranasinghe, V. G. Zakrzewski, J. Gao, N. Rega, 
 G. Zheng, W. Liang, M. Hada, M. Ehara, K. Toyota, R. Fukuda, 
 J. Hasegawa, M. Ishida, T. Nakajima, Y. Honda, O. Kitao, H. Nakai, 
 T. Vreven, K. Throssell, J. A. Montgomery, Jr., J. E. Peralta, 
 F. Ogliaro, M. J. Bearpark, J. J. Heyd, E. N. Brothers, K. N. Kudin, 
 V. N. Staroverov, T. A. Keith, R. Kobayashi, J. Normand, 
 K. Raghavachari, A. P. Rendell, J. C. Burant, S. S. Iyengar, 
 J. Tomasi, M. Cossi, J. M. Millam, M. Klene, C. Adamo, R. Cammi, 
 J. W. Ochterski, R. L. Martin, K. Morokuma, O. Farkas, 
 J. B. Foresman, and D. J. Fox, Gaussian, Inc., Wallingford CT, 2016.
 
 ******************************************
 Gaussian 16:  ES64L-G16RevA.03 25-Dec-2016
                 8-Oct-2019 
 ******************************************
 %nproc=4
 Will use up to    4 processors via shared memory.
 %Mem=4GB
 --------------------------
 # td=(NStates=1) B3LYP/SVP
 --------------------------
 1/38=1,172=1/1;
 2/12=2,17=6,18=5,40=1/2;
 3/5=18,7=101,11=9,25=1,30=1,74=-5/1,2,3,8;
 4//1;
 5/5=2,38=5/2;
 8/6=1,10=1,108=1/1;
 9/41=1,42=1,70=2/14;
 6/7=2,8=2,9=2,10=2/1;
 99/5=1,9=1/99;
 --
 TD
 --
 Symbolic Z-matrix:
 Charge =  0 Multiplicity = 1
 8                    -5.31071   0.24566  -3.30964 
 8                     3.0825    2.8233    3.19965 
 8                     3.43692   0.55375   3.15053 
 8                     1.73973  -7.07396   1.63115 
 8                     0.61652  -6.87842  -0.35314 
 8                     1.66504   3.98886   0.03607 
 7                    -2.34457  -1.0128    0.59778 
 7                    -4.31785   0.57941  -1.26109 
 7                     1.73677  -0.69041  -0.4577 
 7                     2.52528   1.90801  -0.59959 
 6                    -4.69213   1.10304  -0.00377 
 6                    -4.46352   0.22479   1.29504 
 6                    -3.02892  -0.10827   1.45184 
 6                    -2.06951   0.47426   2.16421 
 6                    -0.75437  -0.03944   1.77343 
 6                    -0.99437  -1.02175   0.86111 
 6                    -6.1668    1.31833  -0.16609 
 6                     0.52685   0.11088   2.57857 
 6                    -6.62175   0.83708  -1.36518 
 6                    -0.15268  -2.04445   0.22431 
 6                     1.13236  -1.96709  -0.2808 
 6                    -5.3097    0.52898  -2.12233 
 6                     2.01487  -2.95773  -0.93222 
 6                    -2.19115   1.49041   3.24571 
 6                    -6.97385   1.96619   0.97392 
 6                     3.12799  -2.33873  -1.34875 
 6                     1.25052   1.58131   2.5061 
 6                     2.95039  -0.83481  -1.0407 
 6                     1.62637  -4.33173  -0.97935 
 6                    -7.94378   0.96587  -2.0792 
 6                     1.79706  -4.9762    0.43571 
 6                     4.36056  -2.91304  -1.97492 
 6                     3.91976   0.12576  -1.43361 
 6                     2.67268   1.44651   2.99981 
 6                     3.63008   1.48815  -1.20743 
 6                    -9.10935   1.08346  -1.61005 
 6                     1.3263   -6.37013   0.4586 
 6                     4.49761   2.69931  -1.48391 
 6                     3.82367   3.78101  -1.00938 
 6                     2.56298   3.39868  -0.53283 
 6                     5.75115   2.52941  -2.11449 
 6                     4.06992   5.32522  -1.20349 
 6                     6.61583   3.37104  -2.60695 
 1                    -4.15655   2.06905   0.22174 
 1                    -5.13401  -0.72915   1.08674 
 1                    -4.74651   0.81746   2.16486 
 1                    -2.79456  -1.69232  -0.14335 
 1                    -3.49718   0.62235  -1.82355 
 1                     0.38334  -0.14903   3.64956 
 1                     1.23851  -0.49585   2.18457 
 1                    -0.69004  -2.98261   0.06228 
 1                    -3.20281   1.72951   3.41715 
 1                    -1.66972   1.14866   4.13649 
 1                    -1.62446   2.51928   3.01826 
 1                    -6.3993    2.53704   1.57328 
 1                    -7.51102   1.19846   1.6435 
 1                    -7.76891   2.52915   0.48074 
 1                     1.25505   2.1372    1.45221 
 1                     0.70988   2.3015    3.0801 
 1                     1.54951   0.28837  -0.03808 
 1                     2.37403  -4.90546  -1.55342 
 1                     0.60797  -4.55464  -1.33879 
 1                    -7.94899   0.94453  -3.08943 
 1                     1.18819  -4.51041   1.3739 
 1                     2.91309  -5.0102    0.51171 
 1                     3.99139  -4.13241  -2.09051 
 1                     5.27799  -2.89162  -1.24335 
 1                     4.52573  -2.47906  -2.85861 
 1                     4.79454  -0.08303  -2.12999 
 1                    -9.38145   1.133    -0.65409 
 1                    -10.00298   0.85559  -2.29594 
 1                     3.99955   2.70924   3.61805 
 1                     5.98135   1.49645  -2.44302 
 1                     4.82925   5.71842  -0.35116 
 1                     4.11399   5.74942  -2.3411 
 1                     3.21771   6.08516  -0.88656 
 1                     1.04979  -7.79408   1.66714 
 1                     7.60261   3.15053  -3.02257 
 1                     6.394     4.56944  -2.74008 
 
 Stoichiometry    C33H36N4O6
 Framework group  C1[X(C33H36N4O6)]
 Deg. of freedom   231
 Full point group                 C1      NOp   1
 Largest Abelian subgroup         C1      NOp   1
 Largest concise Abelian subgroup C1      NOp   1
                         Standard orientation:                         
 ---------------------------------------------------------------------
 Center     Atomic      Atomic             Coordinates (Angstroms)
 Number     Number       Type             X           Y           Z
 ---------------------------------------------------------------------
      1          8           0        5.320868   -0.286230   -3.287693
      2          8           0       -3.041159   -2.742537    3.308063
      3          8           0       -3.435418   -0.483556    3.165075
      4          8           0       -1.869324    7.104164    1.336182
      5          8           0       -0.738087    6.847196   -0.636518
      6          8           0       -1.595804   -4.011792    0.197461
      7          7           0        2.323661    1.078957    0.559720
      8          7           0        4.329142   -0.553069   -1.228816
      9          7           0       -1.748830    0.641240   -0.488421
     10          7           0       -2.491063   -1.974371   -0.524657
     11          6           0        4.709581   -1.017898    0.049594
     12          6           0        4.462422   -0.091220    1.310812
     13          6           0        3.021797    0.222542    1.451391
     14          6           0        2.071100   -0.347136    2.185512
     15          6           0        0.748054    0.126704    1.771745
     16          6           0        0.972886    1.074797    0.820207
     17          6           0        6.188205   -1.213519   -0.101273
     18          6           0       -0.532245   -0.013083    2.580245
     19          6           0        6.637475   -0.773957   -1.318376
     20          6           0        0.114823    2.055412    0.140497
     21          6           0       -1.167442    1.934610   -0.363152
     22          6           0        5.322014   -0.520508   -2.089740
     23          6           0       -2.065711    2.881866   -1.056226
     24          6           0        2.208052   -1.315686    3.308080
     25          6           0        7.003824   -1.799607    1.065760
     26          6           0       -3.166749    2.226665   -1.448805
     27          6           0       -1.229705   -1.497831    2.567097
     28          6           0       -2.963406    0.740050   -1.078883
     29          6           0       -1.701382    4.259438   -1.159164
     30          6           0        7.963274   -0.908531   -2.024284
     31          6           0       -1.886796    4.958372    0.227913
     32          6           0       -4.407751    2.752840   -2.100116
     33          6           0       -3.914748   -0.252874   -1.433581
     34          6           0       -2.655195   -1.368079    3.052465
     35          6           0       -3.601633   -1.599479   -1.151089
     36          6           0        9.129605   -0.986087   -1.548752
     37          6           0       -1.440739    6.360190    0.194258
     38          6           0       -4.447013   -2.836143   -1.378980
     39          6           0       -3.755250   -3.885330   -0.859257
     40          6           0       -2.502638   -3.461475   -0.396728
     41          6           0       -5.701840   -2.714523   -2.018111
     42          6           0       -3.973775   -5.440329   -0.990119
     43          6           0       -6.550369   -3.590862   -2.476982
     44          1           0        4.190580   -1.983159    0.313740
     45          1           0        5.116483    0.865091    1.064589
     46          1           0        4.753730   -0.642543    2.204743
     47          1           0        2.763370    1.735317   -0.207970
     48          1           0        3.510710   -0.633617   -1.790398
     49          1           0       -0.395906    0.293113    3.639887
     50          1           0       -1.253541    0.564254    2.160450
     51          1           0        0.635944    2.995486   -0.059077
     52          1           0        3.223352   -1.529584    3.490897
     53          1           0        1.678540   -0.946918    4.183187
     54          1           0        1.660128   -2.362898    3.122183
     55          1           0        6.437991   -2.355436    1.687124
     56          1           0        7.525767   -0.995618    1.704101
     57          1           0        7.809862   -2.368176    0.597467
     58          1           0       -1.221908   -2.096540    1.536948
     59          1           0       -0.677832   -2.184143    3.171125
     60          1           0       -1.545345   -0.316004   -0.028593
     61          1           0       -2.457662    4.795772   -1.757586
     62          1           0       -0.686218    4.485392   -1.525768
     63          1           0        7.970522   -0.928629   -3.034536
     64          1           0       -1.272062    4.542380    1.185481
     65          1           0       -3.003431    4.975693    0.300588
     66          1           0       -4.059861    3.972780   -2.265136
     67          1           0       -5.326407    2.745244   -1.369816
     68          1           0       -4.563130    2.280065   -2.965497
     69          1           0       -4.791398   -0.088393   -2.139416
     70          1           0        9.400251   -0.991485   -0.591113
     71          1           0       10.020721   -0.770791   -2.241939
     72          1           0       -3.961083   -2.627650    3.719889
     73          1           0       -5.949429   -1.700175   -2.389220
     74          1           0       -4.728096   -5.811577   -0.123611
     75          1           0       -4.007636   -5.911625   -2.109391
     76          1           0       -3.109059   -6.171394   -0.640786
     77          1           0       -1.192275    7.837258    1.343684
     78          1           0       -7.539886   -3.405123   -2.902968
     79          1           0       -6.307129   -4.789602   -2.560355
 ---------------------------------------------------------------------
 Rotational constants (GHZ):           0.0744652           0.0456998           0.0354463
 Standard basis: SVP (5D, 7F)
 There are   825 symmetry adapted cartesian basis functions of A   symmetry.
 There are   782 symmetry adapted basis functions of A   symmetry.
   782 basis functions,  1327 primitive gaussians,   825 cartesian basis functions
   155 alpha electrons      155 beta electrons
       nuclear repulsion energy      4936.6802605139 Hartrees.
 NAtoms=   79 NActive=   79 NUniq=   79 SFac= 1.00D+00 NAtFMM=   60 NAOKFM=T Big=T
 Integral buffers will be    131072 words long.
 Regular integral format.
 Two-electron integral symmetry is turned on.
 One-electron integrals computed using PRISM.
 NBasis=   782 RedAO= T EigKep=  3.04D-04  NBF=   782
 NBsUse=   782 1.00D-06 EigRej= -1.00D+00 NBFU=   782
 ExpMin= 1.22D-01 ExpMax= 2.27D+03 ExpMxC= 3.41D+02 IAcc=3 IRadAn=         5 AccDes= 0.00D+00
 Harris functional with IExCor=  402 and IRadAn=       5 diagonalized for initial guess.
 HarFok:  IExCor=  402 AccDes= 0.00D+00 IRadAn=         5 IDoV= 1 UseB2=F ITyADJ=14
 ICtDFT=  3500011 ScaDFX=  1.000000  1.000000  1.000000  1.000000
 FoFCou: FMM=F IPFlag=           0 FMFlag=      100000 FMFlg1=        2001
         NFxFlg=           0 DoJE=T BraDBF=F KetDBF=T FulRan=T
         wScrn=  0.000000 ICntrl=       500 IOpCl=  0 I1Cent=   200000004 NGrid=           0
         NMat0=    1 NMatS0=      1 NMatT0=    0 NMatD0=    1 NMtDS0=    0 NMtDT0=    0
 Petite list used in FoFCou.
 Requested convergence on RMS density matrix=1.00D-08 within 128 cycles.
 Requested convergence on MAX density matrix=1.00D-06.
 Requested convergence on             energy=1.00D-06.
 No special actions if energy rises.
 Integral accuracy reduced to 1.0D-05 until final iterations.
 Initial convergence to 1.0D-05 achieved.  Increase integral accuracy.
 SCF Done:  E(RB3LYP) =  -1947.86870106     A.U. after   16 cycles
            NFock= 16  Conv=0.75D-08     -V/T= 2.0105
 DoSCS=F DFT=T ScalE2(SS,OS)=  1.000000  1.000000
 ExpMin= 1.22D-01 ExpMax= 2.27D+03 ExpMxC= 3.41D+02 IAcc=3 IRadAn=         5 AccDes= 0.00D+00
 HarFok:  IExCor=  205 AccDes= 0.00D+00 IRadAn=         5 IDoV=-2 UseB2=F ITyADJ=14
 ICtDFT= 12500011 ScaDFX=  1.000000  1.000000  1.000000  1.000000
 GSVD:  LWork=       -2193 too small for GESVD, short by        9890 words or        9890 for optimal perf.
 Range of M.O.s used for correlation:    44   782
 NBasis=   782 NAE=   155 NBE=   155 NFC=    43 NFV=     0
 NROrb=    739 NOA=   112 NOB=   112 NVA=   627 NVB=   627

 **** Warning!!: The smallest alpha delta epsilon is  0.83884709D-01

 Orbital symmetries:
       Occupied  (A) (A) (A) (A) (A) (A) (A) (A) (A) (A) (A) (A)
                 (A) (A) (A) (A) (A) (A) (A) (A) (A) (A) (A) (A)
                 (A) (A) (A) (A) (A) (A) (A) (A) (A) (A) (A) (A)
                 (A) (A) (A) (A) (A) (A) (A) (A) (A) (A) (A) (A)
                 (A) (A) (A) (A) (A) (A) (A) (A) (A) (A) (A) (A)
                 (A) (A) (A) (A) (A) (A) (A) (A) (A) (A) (A) (A)
                 (A) (A) (A) (A) (A) (A) (A) (A) (A) (A) (A) (A)
                 (A) (A) (A) (A) (A) (A) (A) (A) (A) (A) (A) (A)
                 (A) (A) (A) (A) (A) (A) (A) (A) (A) (A) (A) (A)
                 (A) (A) (A) (A) (A) (A) (A) (A) (A) (A) (A) (A)
                 (A) (A) (A) (A) (A) (A) (A) (A) (A) (A) (A) (A)
                 (A) (A) (A) (A) (A) (A) (A) (A) (A) (A) (A) (A)
                 (A) (A) (A) (A) (A) (A) (A) (A) (A) (A) (A)
       Virtual   (A) (A) (A) (A) (A) (A) (A) (A) (A) (A) (A) (A)
                 (A) (A) (A) (A) (A) (A) (A) (A) (A) (A) (A) (A)
                 (A) (A) (A) (A) (A) (A) (A) (A) (A) (A) (A) (A)
                 (A) (A) (A) (A) (A) (A) (A) (A) (A) (A) (A) (A)
                 (A) (A) (A) (A) (A) (A) (A) (A) (A) (A) (A) (A)
                 (A) (A) (A) (A) (A) (A) (A) (A) (A) (A) (A) (A)
                 (A) (A) (A) (A) (A) (A) (A) (A) (A) (A) (A) (A)
                 (A) (A) (A) (A) (A) (A) (A) (A) (A) (A) (A) (A)
                 (A) (A) (A) (A) (A) (A) (A) (A) (A) (A) (A) (A)
                 (A) (A) (A) (A) (A) (A) (A) (A) (A) (A) (A) (A)
                 (A) (A) (A) (A) (A) (A) (A) (A) (A) (A) (A) (A)
                 (A) (A) (A) (A) (A) (A) (A) (A) (A) (A) (A) (A)
                 (A) (A) (A) (A) (A) (A) (A) (A) (A) (A) (A) (A)
                 (A) (A) (A) (A) (A) (A) (A) (A) (A) (A) (A) (A)
                 (A) (A) (A) (A) (A) (A) (A) (A) (A) (A) (A) (A)
                 (A) (A) (A) (A) (A) (A) (A) (A) (A) (A) (A) (A)
                 (A) (A) (A) (A) (A) (A) (A) (A) (A) (A) (A) (A)
                 (A) (A) (A) (A) (A) (A) (A) (A) (A) (A) (A) (A)
                 (A) (A) (A) (A) (A) (A) (A) (A) (A) (A) (A) (A)
                 (A) (A) (A) (A) (A) (A) (A) (A) (A) (A) (A) (A)
                 (A) (A) (A) (A) (A) (A) (A) (A) (A) (A) (A) (A)
                 (A) (A) (A) (A) (A) (A) (A) (A) (A) (A) (A) (A)
                 (A) (A) (A) (A) (A) (A) (A) (A) (A) (A) (A) (A)
                 (A) (A) (A) (A) (A) (A) (A) (A) (A) (A) (A) (A)
                 (A) (A) (A) (A) (A) (A) (A) (A) (A) (A) (A) (A)
                 (A) (A) (A) (A) (A) (A) (A) (A) (A) (A) (A) (A)
                 (A) (A) (A) (A) (A) (A) (A) (A) (A) (A) (A) (A)
                 (A) (A) (A) (A) (A) (A) (A) (A) (A) (A) (A) (A)
                 (A) (A) (A) (A) (A) (A) (A) (A) (A) (A) (A) (A)
                 (A) (A) (A) (A) (A) (A) (A) (A) (A) (A) (A) (A)
                 (A) (A) (A) (A) (A) (A) (A) (A) (A) (A) (A) (A)
                 (A) (A) (A) (A) (A) (A) (A) (A) (A) (A) (A) (A)
                 (A) (A) (A) (A) (A) (A) (A) (A) (A) (A) (A) (A)
                 (A) (A) (A) (A) (A) (A) (A) (A) (A) (A) (A) (A)
                 (A) (A) (A) (A) (A) (A) (A) (A) (A) (A) (A) (A)
                 (A) (A) (A) (A) (A) (A) (A) (A) (A) (A) (A) (A)
                 (A) (A) (A) (A) (A) (A) (A) (A) (A) (A) (A) (A)
                 (A) (A) (A) (A) (A) (A) (A) (A) (A) (A) (A) (A)
                 (A) (A) (A) (A) (A) (A) (A) (A) (A) (A) (A) (A)
                 (A) (A) (A) (A) (A) (A) (A) (A) (A) (A) (A) (A)
                 (A) (A) (A) (A) (A) (A) (A) (A) (A) (A) (A) (A)
                 (A) (A) (A) (A) (A) (A) (A) (A) (A) (A) (A) (A)
                 (A) (A) (A) (A) (A) (A) (A) (A) (A) (A) (A) (A)
                 (A) (A) (A) (A) (A) (A) (A) (A) (A) (A) (A) (A)
                 (A) (A) (A) (A) (A) (A) (A) (A) (A) (A) (A) (A)
                 (A) (A) (A) (A) (A) (A) (A) (A) (A) (A) (A) (A)
                 (A) (A) (A) (A) (A) (A) (A) (A) (A) (A) (A) (A)
                 (A) (A) (A) (A) (A) (A) (A) (A) (A) (A) (A) (A)
                 (A) (A) (A) (A) (A) (A) (A) (A) (A) (A) (A) (A)
                 (A) (A) (A) (A) (A) (A) (A) (A) (A) (A) (A) (A)
                 (A) (A) (A) (A) (A) (A) (A) (A) (A) (A) (A) (A)
                 (A) (A) (A) (A) (A) (A) (A) (A) (A) (A) (A) (A)
                 (A) (A) (A)
     4 initial guesses have been made.
 Convergence on wavefunction:    0.001000000000000
 Iteration     1 Dimension     4 NMult     0 NNew      4
 CISAX will form     4 AO SS matrices at one time.
 Iteration     2 Dimension     6 NMult     4 NNew      2
 Iteration     3 Dimension     8 NMult     6 NNew      2
 Iteration     4 Dimension    10 NMult     8 NNew      2
 Iteration     5 Dimension    12 NMult    10 NNew      2
 Iteration     6 Dimension    14 NMult    12 NNew      2
 Iteration     7 Dimension    16 NMult    14 NNew      2
 Iteration     8 Dimension    18 NMult    16 NNew      2
 Iteration     9 Dimension    20 NMult    18 NNew      2
 ***********************************************************************
 Excited states from <AA,BB:AA,BB> singles matrix:
 ***********************************************************************
 
 Ground to excited state transition densities written to RWF  633
 Ground to excited state transition electric dipole moments (Au):
       state          X           Y           Z        Dip. S.      Osc.
         1         1.9093      1.4424      0.7030      6.2202      0.3036
 Ground to excited state transition velocity dipole moments (Au):
       state          X           Y           Z        Dip. S.      Osc.
         1        -0.1341     -0.0944     -0.0530      0.0297      0.2704
 Ground to excited state transition magnetic dipole moments (Au):
       state          X           Y           Z
         1        -0.5658     -0.0045      1.1362
 Ground to excited state transition velocity quadrupole moments (Au):
       state          XX          YY          ZZ          XY          XZ          YZ
         1         0.4853      0.3678     -0.0247      0.7176      0.3500      0.2572
 <0|del|b> * <b|rxdel|0> + <0|del|b> * <b|delr+rdel|0>
 Rotatory Strengths (R) in cgs (10**-40 erg-esu-cm/Gauss)
       state          XX          YY          ZZ    R(velocity)    E-M Angle
         1      -312.9564     92.6078    375.3468     51.6661       85.79
 1/2[<0|r|b>*<b|rxdel|0> + (<0|rxdel|b>*<b|r|0>)*]
 Rotatory Strengths (R) in cgs (10**-40 erg-esu-cm/Gauss)
       state          XX          YY          ZZ     R(length)
         1       763.9196      4.5889   -564.8351     67.8911
  1/2[<0|del|b>*<b|r|0> + (<0|r|b>*<b|del|0>)*] (Au)
       state          X           Y           Z        Dip. S.   Osc.(frdel)
         1        -0.2560     -0.1362     -0.0373      0.4295      0.2863

 Excitation energies and oscillator strengths:
 
 Excited State   1:      Singlet-A      1.9924 eV  622.29 nm  f=0.3036  <S**2>=0.000
     155 ->156         0.69464
 This state for optimization and/or second-order correction.
 Total Energy, E(TD-HF/TD-DFT) =  -1947.79548166    
 Copying the excited state density for this state as the 1-particle RhoCI density.
 SavETr:  write IOETrn=   770 NScale= 10 NData=  16 NLR=1 NState=    1 LETran=      28.

 **********************************************************************

            Population analysis using the SCF density.

 **********************************************************************

 Orbital symmetries:
       Occupied  (A) (A) (A) (A) (A) (A) (A) (A) (A) (A) (A) (A)
                 (A) (A) (A) (A) (A) (A) (A) (A) (A) (A) (A) (A)
                 (A) (A) (A) (A) (A) (A) (A) (A) (A) (A) (A) (A)
                 (A) (A) (A) (A) (A) (A) (A) (A) (A) (A) (A) (A)
                 (A) (A) (A) (A) (A) (A) (A) (A) (A) (A) (A) (A)
                 (A) (A) (A) (A) (A) (A) (A) (A) (A) (A) (A) (A)
                 (A) (A) (A) (A) (A) (A) (A) (A) (A) (A) (A) (A)
                 (A) (A) (A) (A) (A) (A) (A) (A) (A) (A) (A) (A)
                 (A) (A) (A) (A) (A) (A) (A) (A) (A) (A) (A) (A)
                 (A) (A) (A) (A) (A) (A) (A) (A) (A) (A) (A) (A)
                 (A) (A) (A) (A) (A) (A) (A) (A) (A) (A) (A) (A)
                 (A) (A) (A) (A) (A) (A) (A) (A) (A) (A) (A) (A)
                 (A) (A) (A) (A) (A) (A) (A) (A) (A) (A) (A)
       Virtual   (A) (A) (A) (A) (A) (A) (A) (A) (A) (A) (A) (A)
                 (A) (A) (A) (A) (A) (A) (A) (A) (A) (A) (A) (A)
                 (A) (A) (A) (A) (A) (A) (A) (A) (A) (A) (A) (A)
                 (A) (A) (A) (A) (A) (A) (A) (A) (A) (A) (A) (A)
                 (A) (A) (A) (A) (A) (A) (A) (A) (A) (A) (A) (A)
                 (A) (A) (A) (A) (A) (A) (A) (A) (A) (A) (A) (A)
                 (A) (A) (A) (A) (A) (A) (A) (A) (A) (A) (A) (A)
                 (A) (A) (A) (A) (A) (A) (A) (A) (A) (A) (A) (A)
                 (A) (A) (A) (A) (A) (A) (A) (A) (A) (A) (A) (A)
                 (A) (A) (A) (A) (A) (A) (A) (A) (A) (A) (A) (A)
                 (A) (A) (A) (A) (A) (A) (A) (A) (A) (A) (A) (A)
                 (A) (A) (A) (A) (A) (A) (A) (A) (A) (A) (A) (A)
                 (A) (A) (A) (A) (A) (A) (A) (A) (A) (A) (A) (A)
                 (A) (A) (A) (A) (A) (A) (A) (A) (A) (A) (A) (A)
                 (A) (A) (A) (A) (A) (A) (A) (A) (A) (A) (A) (A)
                 (A) (A) (A) (A) (A) (A) (A) (A) (A) (A) (A) (A)
                 (A) (A) (A) (A) (A) (A) (A) (A) (A) (A) (A) (A)
                 (A) (A) (A) (A) (A) (A) (A) (A) (A) (A) (A) (A)
                 (A) (A) (A) (A) (A) (A) (A) (A) (A) (A) (A) (A)
                 (A) (A) (A) (A) (A) (A) (A) (A) (A) (A) (A) (A)
                 (A) (A) (A) (A) (A) (A) (A) (A) (A) (A) (A) (A)
                 (A) (A) (A) (A) (A) (A) (A) (A) (A) (A) (A) (A)
                 (A) (A) (A) (A) (A) (A) (A) (A) (A) (A) (A) (A)
                 (A) (A) (A) (A) (A) (A) (A) (A) (A) (A) (A) (A)
                 (A) (A) (A) (A) (A) (A) (A) (A) (A) (A) (A) (A)
                 (A) (A) (A) (A) (A) (A) (A) (A) (A) (A) (A) (A)
                 (A) (A) (A) (A) (A) (A) (A) (A) (A) (A) (A) (A)
                 (A) (A) (A) (A) (A) (A) (A) (A) (A) (A) (A) (A)
                 (A) (A) (A) (A) (A) (A) (A) (A) (A) (A) (A) (A)
                 (A) (A) (A) (A) (A) (A) (A) (A) (A) (A) (A) (A)
                 (A) (A) (A) (A) (A) (A) (A) (A) (A) (A) (A) (A)
                 (A) (A) (A) (A) (A) (A) (A) (A) (A) (A) (A) (A)
                 (A) (A) (A) (A) (A) (A) (A) (A) (A) (A) (A) (A)
                 (A) (A) (A) (A) (A) (A) (A) (A) (A) (A) (A) (A)
                 (A) (A) (A) (A) (A) (A) (A) (A) (A) (A) (A) (A)
                 (A) (A) (A) (A) (A) (A) (A) (A) (A) (A) (A) (A)
                 (A) (A) (A) (A) (A) (A) (A) (A) (A) (A) (A) (A)
                 (A) (A) (A) (A) (A) (A) (A) (A) (A) (A) (A) (A)
                 (A) (A) (A) (A) (A) (A) (A) (A) (A) (A) (A) (A)
                 (A) (A) (A) (A) (A) (A) (A) (A) (A) (A) (A) (A)
                 (A) (A) (A) (A) (A) (A) (A) (A) (A) (A) (A) (A)
                 (A) (A) (A) (A) (A) (A) (A) (A) (A) (A) (A) (A)
                 (A) (A) (A) (A) (A) (A) (A) (A) (A) (A) (A) (A)
                 (A) (A) (A) (A) (A) (A) (A) (A) (A) (A) (A) (A)
                 (A) (A) (A) (A) (A) (A) (A) (A) (A) (A) (A) (A)
                 (A) (A) (A) (A) (A) (A) (A) (A) (A) (A) (A) (A)
                 (A) (A) (A) (A) (A) (A) (A) (A) (A) (A) (A) (A)
                 (A) (A) (A) (A) (A) (A) (A) (A) (A) (A) (A) (A)
                 (A) (A) (A) (A) (A) (A) (A) (A) (A) (A) (A) (A)
                 (A) (A) (A) (A) (A) (A) (A) (A) (A) (A) (A) (A)
                 (A) (A) (A) (A) (A) (A) (A) (A) (A) (A) (A) (A)
                 (A) (A) (A) (A) (A) (A) (A) (A) (A) (A) (A) (A)
                 (A) (A) (A)
 The electronic state is 1-A.
 Alpha  occ. eigenvalues --  -19.17792 -19.14873 -19.14477 -19.13282 -19.11497
 Alpha  occ. eigenvalues --  -19.09251 -14.37732 -14.37524 -14.35958 -14.28753
 Alpha  occ. eigenvalues --  -10.32758 -10.30985 -10.27738 -10.26770 -10.25702
 Alpha  occ. eigenvalues --  -10.25444 -10.25182 -10.23019 -10.22951 -10.22709
 Alpha  occ. eigenvalues --  -10.22643 -10.22175 -10.22148 -10.22144 -10.21867
 Alpha  occ. eigenvalues --  -10.21777 -10.21661 -10.21420 -10.21349 -10.21338
 Alpha  occ. eigenvalues --  -10.21111 -10.20347 -10.20336 -10.20274 -10.20078
 Alpha  occ. eigenvalues --  -10.20054 -10.19399 -10.19396 -10.19145 -10.18430
 Alpha  occ. eigenvalues --  -10.18288 -10.18098 -10.17601  -1.09296  -1.07100
 Alpha  occ. eigenvalues --   -1.03094  -1.02161  -1.00767  -0.97869  -0.97833
 Alpha  occ. eigenvalues --   -0.97139  -0.95750  -0.91568  -0.84559  -0.82561
 Alpha  occ. eigenvalues --   -0.81446  -0.80954  -0.80243  -0.79614  -0.78634
 Alpha  occ. eigenvalues --   -0.77901  -0.76436  -0.75381  -0.74266  -0.72729
 Alpha  occ. eigenvalues --   -0.71819  -0.71430  -0.69494  -0.68774  -0.68691
 Alpha  occ. eigenvalues --   -0.66551  -0.65941  -0.64216  -0.61134  -0.60553
 Alpha  occ. eigenvalues --   -0.58896  -0.57953  -0.57544  -0.57010  -0.56206
 Alpha  occ. eigenvalues --   -0.55593  -0.55210  -0.54941  -0.54253  -0.53692
 Alpha  occ. eigenvalues --   -0.51979  -0.51774  -0.51667  -0.51347  -0.49952
 Alpha  occ. eigenvalues --   -0.48796  -0.48526  -0.48243  -0.47727  -0.47579
 Alpha  occ. eigenvalues --   -0.47175  -0.46939  -0.46571  -0.46046  -0.45891
 Alpha  occ. eigenvalues --   -0.45848  -0.45185  -0.44935  -0.43888  -0.43780
 Alpha  occ. eigenvalues --   -0.43654  -0.43367  -0.43126  -0.42850  -0.42597
 Alpha  occ. eigenvalues --   -0.42363  -0.42137  -0.41682  -0.41349  -0.41200
 Alpha  occ. eigenvalues --   -0.40835  -0.40485  -0.40428  -0.40119  -0.39611
 Alpha  occ. eigenvalues --   -0.39547  -0.39315  -0.38894  -0.38829  -0.38526
 Alpha  occ. eigenvalues --   -0.38044  -0.37958  -0.37862  -0.37432  -0.36828
 Alpha  occ. eigenvalues --   -0.36227  -0.35514  -0.35370  -0.34924  -0.34735
 Alpha  occ. eigenvalues --   -0.34457  -0.33459  -0.33096  -0.32594  -0.31466
 Alpha  occ. eigenvalues --   -0.31270  -0.30427  -0.29579  -0.28841  -0.27925
 Alpha  occ. eigenvalues --   -0.27434  -0.27074  -0.26935  -0.24817  -0.24729
 Alpha  occ. eigenvalues --   -0.24264  -0.24133  -0.23636  -0.22695  -0.19602
 Alpha virt. eigenvalues --   -0.11213  -0.07180  -0.04612  -0.01252  -0.00434
 Alpha virt. eigenvalues --    0.00866   0.01612   0.02029   0.02409   0.02936
 Alpha virt. eigenvalues --    0.03711   0.04100   0.04477   0.04819   0.05051
 Alpha virt. eigenvalues --    0.05833   0.06035   0.06193   0.06781   0.07121
 Alpha virt. eigenvalues --    0.07584   0.07920   0.08407   0.08537   0.08777
 Alpha virt. eigenvalues --    0.09036   0.09447   0.09589   0.09922   0.10039
 Alpha virt. eigenvalues --    0.10304   0.10576   0.11331   0.11714   0.12564
 Alpha virt. eigenvalues --    0.12676   0.12989   0.13417   0.13912   0.14210
 Alpha virt. eigenvalues --    0.14512   0.14730   0.14893   0.15442   0.15584
 Alpha virt. eigenvalues --    0.16178   0.16426   0.17043   0.17524   0.17853
 Alpha virt. eigenvalues --    0.18261   0.18451   0.18985   0.19450   0.19793
 Alpha virt. eigenvalues --    0.20063   0.20411   0.20611   0.21137   0.21636
 Alpha virt. eigenvalues --    0.21908   0.22363   0.22726   0.23959   0.24197
 Alpha virt. eigenvalues --    0.24736   0.24982   0.25476   0.25740   0.25883
 Alpha virt. eigenvalues --    0.26623   0.27074   0.28039   0.28301   0.28775
 Alpha virt. eigenvalues --    0.29354   0.29604   0.29882   0.30108   0.30667
 Alpha virt. eigenvalues --    0.30988   0.31950   0.32431   0.33057   0.33919
 Alpha virt. eigenvalues --    0.34967   0.35711   0.36064   0.36118   0.37139
 Alpha virt. eigenvalues --    0.37686   0.37841   0.38290   0.38462   0.39074
 Alpha virt. eigenvalues --    0.39078   0.40345   0.41037   0.41547   0.41870
 Alpha virt. eigenvalues --    0.42310   0.42836   0.43013   0.43223   0.43911
 Alpha virt. eigenvalues --    0.44206   0.44548   0.44797   0.44913   0.45441
 Alpha virt. eigenvalues --    0.45598   0.46194   0.46427   0.46693   0.46841
 Alpha virt. eigenvalues --    0.47058   0.47126   0.47771   0.48132   0.48186
 Alpha virt. eigenvalues --    0.48354   0.48753   0.49194   0.49626   0.50235
 Alpha virt. eigenvalues --    0.50642   0.51131   0.51272   0.51472   0.51866
 Alpha virt. eigenvalues --    0.52116   0.52698   0.53134   0.53342   0.53777
 Alpha virt. eigenvalues --    0.53867   0.54001   0.54848   0.54901   0.55346
 Alpha virt. eigenvalues --    0.55673   0.56399   0.56566   0.56788   0.57010
 Alpha virt. eigenvalues --    0.57516   0.57860   0.58207   0.58299   0.58980
 Alpha virt. eigenvalues --    0.59408   0.59712   0.60087   0.60308   0.60556
 Alpha virt. eigenvalues --    0.60724   0.60834   0.61754   0.61835   0.62166
 Alpha virt. eigenvalues --    0.62276   0.62578   0.62740   0.63011   0.63241
 Alpha virt. eigenvalues --    0.63331   0.63775   0.63999   0.64282   0.64485
 Alpha virt. eigenvalues --    0.64656   0.65224   0.65305   0.65452   0.65591
 Alpha virt. eigenvalues --    0.65806   0.65947   0.66158   0.66488   0.66792
 Alpha virt. eigenvalues --    0.66952   0.67318   0.67440   0.67947   0.68377
 Alpha virt. eigenvalues --    0.68591   0.68715   0.69159   0.69575   0.69869
 Alpha virt. eigenvalues --    0.70325   0.70447   0.70679   0.71086   0.71145
 Alpha virt. eigenvalues --    0.71566   0.72154   0.72320   0.72664   0.72716
 Alpha virt. eigenvalues --    0.73281   0.73836   0.73935   0.74445   0.74580
 Alpha virt. eigenvalues --    0.75081   0.75286   0.75931   0.76387   0.76529
 Alpha virt. eigenvalues --    0.76870   0.77104   0.77806   0.77941   0.78069
 Alpha virt. eigenvalues --    0.78889   0.79169   0.80046   0.80478   0.81095
 Alpha virt. eigenvalues --    0.81527   0.81831   0.82603   0.83196   0.83850
 Alpha virt. eigenvalues --    0.83946   0.84385   0.85386   0.85410   0.86920
 Alpha virt. eigenvalues --    0.87593   0.88045   0.88452   0.88843   0.89176
 Alpha virt. eigenvalues --    0.89489   0.91162   0.91875   0.92665   0.93245
 Alpha virt. eigenvalues --    0.93685   0.94293   0.94859   0.95506   0.95800
 Alpha virt. eigenvalues --    0.96015   0.96936   0.97218   0.98179   0.98706
 Alpha virt. eigenvalues --    0.98894   0.99684   1.00331   1.00433   1.02092
 Alpha virt. eigenvalues --    1.02446   1.02882   1.03654   1.04288   1.04397
 Alpha virt. eigenvalues --    1.06035   1.06273   1.06473   1.06934   1.08225
 Alpha virt. eigenvalues --    1.08907   1.09271   1.10389   1.10649   1.11586
 Alpha virt. eigenvalues --    1.11938   1.12434   1.12790   1.13409   1.14212
 Alpha virt. eigenvalues --    1.14643   1.14843   1.15634   1.17268   1.17863
 Alpha virt. eigenvalues --    1.18626   1.19067   1.19553   1.20771   1.21083
 Alpha virt. eigenvalues --    1.21364   1.22413   1.23437   1.23895   1.24689
 Alpha virt. eigenvalues --    1.25239   1.26068   1.26417   1.26761   1.27675
 Alpha virt. eigenvalues --    1.28268   1.28760   1.29613   1.29742   1.30052
 Alpha virt. eigenvalues --    1.30579   1.30856   1.32287   1.32539   1.34194
 Alpha virt. eigenvalues --    1.34329   1.35677   1.36173   1.36935   1.37933
 Alpha virt. eigenvalues --    1.38417   1.39039   1.39747   1.40755   1.41069
 Alpha virt. eigenvalues --    1.41943   1.42386   1.42888   1.44080   1.44864
 Alpha virt. eigenvalues --    1.45471   1.45898   1.46125   1.47118   1.47318
 Alpha virt. eigenvalues --    1.47769   1.48596   1.48804   1.49067   1.50573
 Alpha virt. eigenvalues --    1.51064   1.51659   1.51992   1.52151   1.52325
 Alpha virt. eigenvalues --    1.52787   1.54105   1.54314   1.54744   1.55629
 Alpha virt. eigenvalues --    1.56820   1.57020   1.57737   1.58751   1.59001
 Alpha virt. eigenvalues --    1.59866   1.60558   1.60986   1.61885   1.62575
 Alpha virt. eigenvalues --    1.62681   1.62912   1.63159   1.63578   1.64420
 Alpha virt. eigenvalues --    1.65041   1.65577   1.65870   1.65981   1.66395
 Alpha virt. eigenvalues --    1.66749   1.67128   1.67576   1.68139   1.68509
 Alpha virt. eigenvalues --    1.69567   1.69809   1.70752   1.71044   1.71385
 Alpha virt. eigenvalues --    1.71586   1.71917   1.72073   1.72742   1.73017
 Alpha virt. eigenvalues --    1.73663   1.73757   1.74088   1.74475   1.75245
 Alpha virt. eigenvalues --    1.75565   1.75606   1.75906   1.76189   1.76592
 Alpha virt. eigenvalues --    1.76989   1.77723   1.77969   1.78327   1.78540
 Alpha virt. eigenvalues --    1.78974   1.79421   1.79725   1.80171   1.80402
 Alpha virt. eigenvalues --    1.81097   1.81421   1.81635   1.82524   1.82760
 Alpha virt. eigenvalues --    1.83213   1.83741   1.83959   1.84500   1.84839
 Alpha virt. eigenvalues --    1.85191   1.85620   1.86145   1.86668   1.87232
 Alpha virt. eigenvalues --    1.87669   1.88373   1.88532   1.89276   1.89642
 Alpha virt. eigenvalues --    1.89898   1.90378   1.90833   1.91165   1.91550
 Alpha virt. eigenvalues --    1.92447   1.92549   1.93020   1.93529   1.94436
 Alpha virt. eigenvalues --    1.94800   1.95233   1.95915   1.96187   1.96818
 Alpha virt. eigenvalues --    1.97416   1.97931   1.98567   1.98821   2.00377
 Alpha virt. eigenvalues --    2.00740   2.01747   2.01900   2.02300   2.02577
 Alpha virt. eigenvalues --    2.03077   2.03616   2.04096   2.04954   2.05368
 Alpha virt. eigenvalues --    2.05511   2.05878   2.06233   2.07072   2.07652
 Alpha virt. eigenvalues --    2.08332   2.09013   2.09339   2.09938   2.10711
 Alpha virt. eigenvalues --    2.10900   2.11065   2.11652   2.12414   2.12588
 Alpha virt. eigenvalues --    2.13313   2.13765   2.13983   2.14317   2.14844
 Alpha virt. eigenvalues --    2.15345   2.15468   2.15794   2.17352   2.17625
 Alpha virt. eigenvalues --    2.18904   2.20142   2.20631   2.20795   2.20881
 Alpha virt. eigenvalues --    2.21752   2.22770   2.23445   2.24875   2.25775
 Alpha virt. eigenvalues --    2.26639   2.27368   2.27914   2.28408   2.29031
 Alpha virt. eigenvalues --    2.29220   2.30137   2.30598   2.31614   2.32430
 Alpha virt. eigenvalues --    2.32781   2.33192   2.33679   2.34740   2.35605
 Alpha virt. eigenvalues --    2.36546   2.37095   2.37825   2.38518   2.38720
 Alpha virt. eigenvalues --    2.38854   2.39667   2.40866   2.41096   2.41744
 Alpha virt. eigenvalues --    2.43200   2.43590   2.43635   2.45042   2.45346
 Alpha virt. eigenvalues --    2.46569   2.47347   2.47878   2.48736   2.49224
 Alpha virt. eigenvalues --    2.49630   2.51253   2.51963   2.52618   2.52974
 Alpha virt. eigenvalues --    2.53872   2.55745   2.56811   2.57480   2.57933
 Alpha virt. eigenvalues --    2.59653   2.60056   2.60287   2.60656   2.61520
 Alpha virt. eigenvalues --    2.62215   2.62543   2.63945   2.64116   2.64743
 Alpha virt. eigenvalues --    2.65600   2.66394   2.66805   2.67566   2.67725
 Alpha virt. eigenvalues --    2.68120   2.68716   2.70366   2.70670   2.71099
 Alpha virt. eigenvalues --    2.71178   2.72241   2.72415   2.72588   2.73084
 Alpha virt. eigenvalues --    2.74177   2.74978   2.75339   2.76535   2.77325
 Alpha virt. eigenvalues --    2.77982   2.78641   2.79029   2.80056   2.80584
 Alpha virt. eigenvalues --    2.80988   2.81320   2.81958   2.82507   2.82796
 Alpha virt. eigenvalues --    2.83638   2.84840   2.86240   2.86750   2.86907
 Alpha virt. eigenvalues --    2.87993   2.89278   2.89474   2.90045   2.90617
 Alpha virt. eigenvalues --    2.91669   2.92146   2.92482   2.93542   2.94691
 Alpha virt. eigenvalues --    2.95333   2.95632   2.97632   2.99213   3.00422
 Alpha virt. eigenvalues --    3.01384   3.01678   3.02311   3.02987   3.05399
 Alpha virt. eigenvalues --    3.06063   3.07342   3.07708   3.08433   3.09529
 Alpha virt. eigenvalues --    3.11060   3.12939   3.17122   3.17545   3.18124
 Alpha virt. eigenvalues --    3.18326   3.18480   3.19466   3.19843   3.19960
 Alpha virt. eigenvalues --    3.21505   3.23123   3.23783   3.25824   3.27797
 Alpha virt. eigenvalues --    3.35280   3.37159   3.37818   3.42839   3.44514
 Alpha virt. eigenvalues --    3.45419   3.47268   3.48545   3.52821   3.54472
 Alpha virt. eigenvalues --    3.58254   3.61434   3.64578   3.67721   3.69046
 Alpha virt. eigenvalues --    3.73549   3.75665
          Condensed to atoms (all electrons):
 Mulliken charges:
               1
     1  O   -0.237841
     2  O   -0.282910
     3  O   -0.186085
     4  O   -0.257988
     5  O   -0.198400
     6  O   -0.183104
     7  N   -0.162938
     8  N   -0.077483
     9  N   -0.115554
    10  N   -0.351471
    11  C    0.091043
    12  C    0.171499
    13  C   -0.043113
    14  C   -0.142512
    15  C   -0.088973
    16  C    0.078479
    17  C   -0.211177
    18  C    0.117878
    19  C   -0.015323
    20  C   -0.097595
    21  C    0.116758
    22  C    0.049605
    23  C   -0.021083
    24  C    0.107883
    25  C    0.126723
    26  C   -0.162832
    27  C   -0.079006
    28  C    0.133450
    29  C    0.091936
    30  C    0.057098
    31  C   -0.044200
    32  C    0.084867
    33  C   -0.141326
    34  C    0.164390
    35  C    0.064652
    36  C   -0.016175
    37  C    0.134317
    38  C    0.123866
    39  C   -0.150734
    40  C    0.181672
    41  C   -0.018151
    42  C   -0.046887
    43  C   -0.084134
    44  H    0.022913
    45  H    0.009993
    46  H   -0.001062
    47  H    0.147392
    48  H    0.119503
    49  H    0.018245
    50  H   -0.031880
    51  H   -0.014021
    52  H   -0.022599
    53  H    0.012948
    54  H    0.042032
    55  H   -0.014184
    56  H    0.042946
    57  H    0.033657
    58  H    0.119366
    59  H    0.014288
    60  H    0.192293
    61  H    0.000734
    62  H    0.034885
    63  H   -0.031703
    64  H    0.091775
    65  H    0.047944
    66  H    0.030341
    67  H    0.063358
    68  H    0.013289
    69  H    0.005273
    70  H   -0.042751
    71  H    0.030551
    72  H    0.177641
    73  H   -0.006115
    74  H    0.048684
    75  H    0.059452
    76  H    0.036503
    77  H    0.189691
    78  H    0.030559
    79  H    0.048936
 Sum of Mulliken charges =  -0.00000
 Mulliken charges with hydrogens summed into heavy atoms:
               1
     1  O   -0.237841
     2  O   -0.105269
     3  O   -0.186085
     4  O   -0.068297
     5  O   -0.198400
     6  O   -0.183104
     7  N   -0.015546
     8  N    0.042020
     9  N    0.076739
    10  N   -0.351471
    11  C    0.113957
    12  C    0.180431
    13  C   -0.043113
    14  C   -0.142512
    15  C   -0.088973
    16  C    0.078479
    17  C   -0.211177
    18  C    0.104244
    19  C   -0.015323
    20  C   -0.111615
    21  C    0.116758
    22  C    0.049605
    23  C   -0.021083
    24  C    0.140264
    25  C    0.189141
    26  C   -0.162832
    27  C    0.054649
    28  C    0.133450
    29  C    0.127555
    30  C    0.025395
    31  C    0.095520
    32  C    0.191855
    33  C   -0.136054
    34  C    0.164390
    35  C    0.064652
    36  C   -0.028375
    37  C    0.134317
    38  C    0.123866
    39  C   -0.150734
    40  C    0.181672
    41  C   -0.024266
    42  C    0.097752
    43  C   -0.004640
 Electronic spatial extent (au):  <R**2>=          31641.4898
 Charge=              0.0000 electrons
 Dipole moment (field-independent basis, Debye):
    X=             -0.8472    Y=              1.8124    Z=              1.9957  Tot=              2.8258
 Quadrupole moment (field-independent basis, Debye-Ang):
   XX=           -225.9129   YY=           -251.4162   ZZ=           -260.9341
   XY=              0.1624   XZ=             39.0074   YZ=              4.4370
 Traceless Quadrupole moment (field-independent basis, Debye-Ang):
   XX=             20.1749   YY=             -5.3285   ZZ=            -14.8464
   XY=              0.1624   XZ=             39.0074   YZ=              4.4370
 Octapole moment (field-independent basis, Debye-Ang**2):
  XXX=            -52.1636  YYY=             35.8257  ZZZ=             85.8570  XYY=            -34.6540
  XXY=            -65.7191  XXZ=             47.9220  XZZ=            -87.3695  YZZ=            -20.5022
  YYZ=             32.8021  XYZ=             -4.9489
 Hexadecapole moment (field-independent basis, Debye-Ang**3):
 XXXX=         -23238.9605 YYYY=         -12366.3180 ZZZZ=          -4993.6895 XXXY=            115.8704
 XXXZ=            820.7759 YYYX=            271.1999 YYYZ=            623.7480 ZZZX=            107.6784
 ZZZY=            -99.4612 XXYY=          -6065.1309 XXZZ=          -5086.1044 YYZZ=          -2915.5197
 XXYZ=           -114.1883 YYXZ=            146.0426 ZZXY=            113.9969
 N-N= 4.936680260514D+03 E-N=-1.440241959164D+04  KE= 1.927652601200D+03
 1\1\GINC-PADAWAN\SP\RB3LYP TD-FC\SVP\C33H36N4O6\PADAWAN\09-Oct-2019\0\
 \# td=(NStates=1) B3LYP/SVP\\TD\\0,1\O,0,-5.3107073007,0.2456600056,-3
 .3096407538\O,0,3.0824982553,2.8232995847,3.199646043\O,0,3.4369220408
 ,0.5537507741,3.1505269378\O,0,1.7397316127,-7.0739636665,1.6311516215
 \O,0,0.6165165397,-6.878424266,-0.3531432972\O,0,1.6650435525,3.988862
 009,0.0360731147\N,0,-2.3445740685,-1.0127997102,0.5977767943\N,0,-4.3
 178466661,0.5794056071,-1.2610944642\N,0,1.736774069,-0.6904106141,-0.
 457704248\N,0,2.5252780697,1.9080065462,-0.5995867054\C,0,-4.692125603
 8,1.1030418012,-0.0037745777\C,0,-4.4635237452,0.2247926446,1.29503686
 14\C,0,-3.0289179874,-0.1082705704,1.4518371967\C,0,-2.0695060473,0.47
 42623834,2.1642095906\C,0,-0.7543720475,-0.0394393794,1.7734280204\C,0
 ,-0.9943736252,-1.0217452334,0.8611079302\C,0,-6.166799036,1.318329622
 3,-0.1660918246\C,0,0.5268512917,0.1108817647,2.5785668768\C,0,-6.6217
 526898,0.8370829567,-1.3651822469\C,0,-0.1526815243,-2.0444531822,0.22
 4314513\C,0,1.1323601322,-1.9670862552,-0.2807996622\C,0,-5.3097015705
 ,0.5289811128,-2.1223295445\C,0,2.0148655718,-2.957726311,-0.932220231
 3\C,0,-2.1911548164,1.4904147984,3.2457089611\C,0,-6.9738548787,1.9661
 947487,0.973921378\C,0,3.1279891326,-2.3387338246,-1.3487461197\C,0,1.
 2505210794,1.5813066241,2.5061042463\C,0,2.9503931146,-0.8348121068,-1
 .040698058\C,0,1.6263664068,-4.3317291373,-0.9793496519\C,0,-7.9437802
 84,0.9658682244,-2.0791963074\C,0,1.7970572713,-4.9761985545,0.4357095
 665\C,0,4.3605616652,-2.9130397728,-1.974916723\C,0,3.9197628469,0.125
 7619797,-1.4336080432\C,0,2.672677889,1.4465122394,2.9998058805\C,0,3.
 6300773855,1.4881542269,-1.20742731\C,0,-9.109345918,1.0834605064,-1.6
 100458199\C,0,1.3262976945,-6.3701336636,0.4586045195\C,0,4.4976085955
 ,2.6993066856,-1.4839054736\C,0,3.8236716356,3.7810086246,-1.009382232
 5\C,0,2.5629778686,3.3986777189,-0.5328320459\C,0,5.7511487202,2.52940
 77814,-2.1144934044\C,0,4.0699226121,5.3252173975,-1.2034923626\C,0,6.
 6158316408,3.3710427891,-2.6069451714\H,0,-4.1565501411,2.0690479849,0
 .2217352138\H,0,-5.1340080577,-0.7291543915,1.0867434185\H,0,-4.746511
 491,0.8174557453,2.164863396\H,0,-2.7945584957,-1.6923166272,-0.143351
 2569\H,0,-3.4971807154,0.6223541525,-1.8235499059\H,0,0.383342769,-0.1
 490345915,3.6495645046\H,0,1.2385078602,-0.4958542528,2.1845735902\H,0
 ,-0.6900376647,-2.9826057256,0.0622812304\H,0,-3.2028104263,1.72951421
 55,3.4171517049\H,0,-1.6697181869,1.1486642303,4.1364920371\H,0,-1.624
 458827,2.5192757474,3.0182592477\H,0,-6.3993033812,2.5370425078,1.5732
 79561\H,0,-7.5110208691,1.1984596552,1.6435013608\H,0,-7.7689128285,2.
 529148998,0.4807365539\H,0,1.2550482132,2.1371957562,1.4522132886\H,0,
 0.7098841009,2.3014969717,3.0801038346\H,0,1.5495092773,0.2883694819,-
 0.0380791732\H,0,2.3740251947,-4.9054643768,-1.5534199517\H,0,0.607972
 5948,-4.554635311,-1.3387923626\H,0,-7.9489859604,0.9445346841,-3.0894
 348817\H,0,1.188191008,-4.5104122209,1.3739049671\H,0,2.9130875789,-5.
 0101982243,0.5117089858\H,0,3.9913942017,-4.1324106933,-2.0905125124\H
 ,0,5.2779888973,-2.891618012,-1.2433479524\H,0,4.5257340065,-2.4790601
 386,-2.8586149351\H,0,4.7945390734,-0.0830303975,-2.1299891746\H,0,-9.
 3814517457,1.1330007556,-0.6540880986\H,0,-10.0029784314,0.8555869744,
 -2.2959356936\H,0,3.999554642,2.7092443081,3.6180465704\H,0,5.98135160
 34,1.4964517944,-2.4430231173\H,0,4.8292536252,5.7184246067,-0.3511637
 363\H,0,4.1139934218,5.7494217079,-2.3410966546\H,0,3.2177094405,6.085
 1581222,-0.8865603976\H,0,1.0497922873,-7.7940805652,1.6671427692\H,0,
 7.6026127057,3.150530593,-3.0225695303\H,0,6.3940012876,4.5694424564,-
 2.7400763601\\Version=ES64L-G16RevA.03\State=1-A\HF=-1947.8687011\RMSD
 =7.464e-09\PG=C01 [X(C33H36N4O6)]\\@


 A COMPLEXITY IS MERELY A DISARRANGEMENT OF SIMPLICITIES.

                                    -- G. O. ABELL IN "EXPLORATION OF THE UNIVERSE"
 Job cpu time:       0 days 12 hours 50 minutes  6.8 seconds.
 Elapsed time:       0 days  3 hours 13 minutes  7.6 seconds.
 File lengths (MBytes):  RWF=   2533 Int=      0 D2E=      0 Chk=     63 Scr=      1
 Normal termination of Gaussian 16 at Wed Oct  9 00:21:01 2019.
