 Entering Gaussian System, Link 0=g16
 Input=Geometria-317-.com
 Output=Geometria-317-.log
 Initial command:
 /usr/local/g16/l1.exe "/home/padawan/israel-mol/dihydrobiliverdin/spectra/emi/Gau-2707.inp" -scrdir="/home/padawan/israel-mol/dihydrobiliverdin/spectra/emi/"
 Entering Link 1 = /usr/local/g16/l1.exe PID=      2709.
  
 Copyright (c) 1988,1990,1992,1993,1995,1998,2003,2009,2016,
            Gaussian, Inc.  All Rights Reserved.
  
 This is part of the Gaussian(R) 16 program.  It is based on
 the Gaussian(R) 09 system (copyright 2009, Gaussian, Inc.),
 the Gaussian(R) 03 system (copyright 2003, Gaussian, Inc.),
 the Gaussian(R) 98 system (copyright 1998, Gaussian, Inc.),
 the Gaussian(R) 94 system (copyright 1995, Gaussian, Inc.),
 the Gaussian 92(TM) system (copyright 1992, Gaussian, Inc.),
 the Gaussian 90(TM) system (copyright 1990, Gaussian, Inc.),
 the Gaussian 88(TM) system (copyright 1988, Gaussian, Inc.),
 the Gaussian 86(TM) system (copyright 1986, Carnegie Mellon
 University), and the Gaussian 82(TM) system (copyright 1983,
 Carnegie Mellon University). Gaussian is a federally registered
 trademark of Gaussian, Inc.
  
 This software contains proprietary and confidential information,
 including trade secrets, belonging to Gaussian, Inc.
  
 This software is provided under written license and may be
 used, copied, transmitted, or stored only in accord with that
 written license.
  
 The following legend is applicable only to US Government
 contracts under FAR:
  
                    RESTRICTED RIGHTS LEGEND
  
 Use, reproduction and disclosure by the US Government is
 subject to restrictions as set forth in subparagraphs (a)
 and (c) of the Commercial Computer Software - Restricted
 Rights clause in FAR 52.227-19.
  
 Gaussian, Inc.
 340 Quinnipiac St., Bldg. 40, Wallingford CT 06492
  
  
 ---------------------------------------------------------------
 Warning -- This program may not be used in any manner that
 competes with the business of Gaussian, Inc. or will provide
 assistance to any competitor of Gaussian, Inc.  The licensee
 of this program is prohibited from giving any competitor of
 Gaussian, Inc. access to this program.  By using this program,
 the user acknowledges that Gaussian, Inc. is engaged in the
 business of creating and licensing software in the field of
 computational chemistry and represents and warrants to the
 licensee that it is not a competitor of Gaussian, Inc. and that
 it will not use this program in any manner prohibited above.
 ---------------------------------------------------------------
  

 Cite this work as:
 Gaussian 16, Revision A.03,
 M. J. Frisch, G. W. Trucks, H. B. Schlegel, G. E. Scuseria, 
 M. A. Robb, J. R. Cheeseman, G. Scalmani, V. Barone, 
 G. A. Petersson, H. Nakatsuji, X. Li, M. Caricato, A. V. Marenich, 
 J. Bloino, B. G. Janesko, R. Gomperts, B. Mennucci, H. P. Hratchian, 
 J. V. Ortiz, A. F. Izmaylov, J. L. Sonnenberg, D. Williams-Young, 
 F. Ding, F. Lipparini, F. Egidi, J. Goings, B. Peng, A. Petrone, 
 T. Henderson, D. Ranasinghe, V. G. Zakrzewski, J. Gao, N. Rega, 
 G. Zheng, W. Liang, M. Hada, M. Ehara, K. Toyota, R. Fukuda, 
 J. Hasegawa, M. Ishida, T. Nakajima, Y. Honda, O. Kitao, H. Nakai, 
 T. Vreven, K. Throssell, J. A. Montgomery, Jr., J. E. Peralta, 
 F. Ogliaro, M. J. Bearpark, J. J. Heyd, E. N. Brothers, K. N. Kudin, 
 V. N. Staroverov, T. A. Keith, R. Kobayashi, J. Normand, 
 K. Raghavachari, A. P. Rendell, J. C. Burant, S. S. Iyengar, 
 J. Tomasi, M. Cossi, J. M. Millam, M. Klene, C. Adamo, R. Cammi, 
 J. W. Ochterski, R. L. Martin, K. Morokuma, O. Farkas, 
 J. B. Foresman, and D. J. Fox, Gaussian, Inc., Wallingford CT, 2016.
 
 ******************************************
 Gaussian 16:  ES64L-G16RevA.03 25-Dec-2016
                 1-Oct-2019 
 ******************************************
 %nproc=4
 Will use up to    4 processors via shared memory.
 %Mem=4GB
 --------------------------
 # td=(NStates=1) B3LYP/SVP
 --------------------------
 1/38=1,172=1/1;
 2/12=2,17=6,18=5,40=1/2;
 3/5=18,7=101,11=9,25=1,30=1,74=-5/1,2,3,8;
 4//1;
 5/5=2,38=5/2;
 8/6=1,10=1,108=1/1;
 9/41=1,42=1,70=2/14;
 6/7=2,8=2,9=2,10=2/1;
 99/5=1,9=1/99;
 --
 TD
 --
 Symbolic Z-matrix:
 Charge =  0 Multiplicity = 1
 8                    -5.24078   0.01703  -3.29135 
 8                     2.94809   2.95155   3.40078 
 8                     3.33881   0.7227    2.97347 
 8                     1.52781  -7.06489   1.59486 
 8                     0.7116   -7.1259   -0.49276 
 8                     1.67055   3.96508   0.01356 
 7                    -2.29248  -1.07072   0.78925 
 7                    -4.34999   0.65413  -1.24344 
 7                     1.83368  -0.68798  -0.44062 
 7                     2.52028   1.78966  -0.48061 
 6                    -4.71129   1.11406   0.03391 
 6                    -4.35507   0.27074   1.2212 
 6                    -2.9655   -0.03802   1.40896 
 6                    -1.98177   0.49402   2.26104 
 6                    -0.73433  -0.01544   1.91336 
 6                    -1.02919  -0.99578   0.98797 
 6                    -6.21978   1.3574   -0.18887 
 6                     0.61898   0.11215   2.63104 
 6                    -6.5038    0.86815  -1.33319 
 6                    -0.22321  -2.01413   0.21719 
 6                     1.13657  -1.80421  -0.31837 
 6                    -5.33891   0.39766  -2.1307 
 6                     1.88074  -2.91792  -0.94076 
 6                    -2.15387   1.68959   3.20937 
 6                    -6.91775   1.93322   0.91291 
 6                     3.0208   -2.27556  -1.41489 
 6                     1.11436   1.55859   2.74317 
 6                     3.02038  -0.913    -1.16177 
 6                     1.5925   -4.34914  -0.98707 
 6                    -7.76586   0.87255  -2.11435 
 6                     1.75466  -5.04158   0.40369 
 6                     4.23123  -2.97753  -2.13169 
 6                     3.9141    0.13923  -1.41419 
 6                     2.60784   1.64359   3.08994 
 6                     3.70596   1.4587   -1.13703 
 6                    -9.01938   1.09712  -1.69328 
 6                     1.30595  -6.50981   0.40488 
 6                     4.56271   2.64584  -1.55417 
 6                     3.76757   3.77508  -1.20626 
 6                     2.61923   3.29629  -0.48003 
 6                     5.76307   2.57967  -2.26655 
 6                     4.11916   5.19745  -1.08959 
 6                     6.64771   3.55549  -2.72952 
 1                    -4.29668   2.05495   0.14172 
 1                    -5.05747  -0.56613   1.18539 
 1                    -4.65594   1.07493   2.0065 
 1                    -2.74895  -1.4228   -0.04306 
 1                    -3.5242    0.55714  -1.43624 
 1                     0.47255  -0.09645   3.76701 
 1                     1.33873  -0.42057   2.09041 
 1                    -0.65447  -3.0762   -0.09253 
 1                    -3.33235   1.73351   3.97215 
 1                    -1.54416   1.61907   4.16873 
 1                    -2.08735   2.72966   2.88353 
 1                    -6.24462   2.54488   1.81112 
 1                    -7.47988   1.25776   1.56579 
 1                    -7.70515   2.59116   0.56784 
 1                     1.05663   2.03485   1.78773 
 1                     0.76661   2.31935   3.6522 
 1                     1.53947   0.31052  -0.18543 
 1                     2.19758  -4.84069  -1.92324 
 1                     0.60981  -4.81482  -1.34551 
 1                    -7.7678    0.6819   -3.14339 
 1                     1.06788  -4.36237   0.87982 
 1                     2.79881  -4.90742   0.7991 
 1                     4.13145  -4.11937  -2.29044 
 1                     5.36886  -2.89276  -1.55764 
 1                     4.30465  -2.51908  -3.19465 
 1                     4.89989  -0.08265  -1.93694 
 1                    -9.45435   1.15275  -0.54066 
 1                    -9.8115    0.89734  -2.44345 
 1                     3.79706   3.05068   3.474 
 1                     6.12093   1.4393   -2.17915 
 1                     5.01482   5.27992  -0.41409 
 1                     3.86449   5.87546  -2.09406 
 1                     3.39586   5.5922   -0.30282 
 1                     1.41733  -8.09597   1.57195 
 1                     7.60082   3.36898  -3.00267 
 1                     6.28138   4.61814  -2.3166 
 
 Stoichiometry    C33H36N4O6
 Framework group  C1[X(C33H36N4O6)]
 Deg. of freedom   231
 Full point group                 C1      NOp   1
 Largest Abelian subgroup         C1      NOp   1
 Largest concise Abelian subgroup C1      NOp   1
                         Standard orientation:                         
 ---------------------------------------------------------------------
 Center     Atomic      Atomic             Coordinates (Angstroms)
 Number     Number       Type             X           Y           Z
 ---------------------------------------------------------------------
      1          8           0        5.227789    0.000282   -3.314768
      2          8           0       -2.915098   -2.951503    3.425708
      3          8           0       -3.321836   -0.727464    2.988376
      4          8           0       -1.566442    7.064230    1.561859
      5          8           0       -0.759037    7.119523   -0.529338
      6          8           0       -1.644704   -3.974562    0.038670
      7          7           0        2.288993    1.090492    0.772021
      8          7           0        4.349350   -0.631776   -1.259974
      9          7           0       -1.839538    0.674915   -0.439097
     10          7           0       -2.510361   -1.807250   -0.463389
     11          6           0        4.718727   -1.082686    0.018283
     12          6           0        4.361880   -0.235450    1.202596
     13          6           0        2.971121    0.065389    1.394379
     14          6           0        1.994257   -0.468474    2.253199
     15          6           0        0.742186    0.031164    1.907931
     16          6           0        1.027018    1.008516    0.976254
     17          6           0        6.227847   -1.317530   -0.209343
     18          6           0       -0.607380   -0.101323    2.631747
     19          6           0        6.504112   -0.832465   -1.357334
     20          6           0        0.211424    2.017632    0.203453
     21          6           0       -1.149122    1.796209   -0.325495
     22          6           0        5.333031   -0.373628   -2.152558
     23          6           0       -1.902927    2.901860   -0.950657
     24          6           0        2.177847   -1.657934    3.207039
     25          6           0        6.933920   -1.883088    0.892584
     26          6           0       -3.040731    2.249736   -1.416808
     27          6           0       -1.093003   -1.550300    2.753419
     28          6           0       -3.030545    0.888553   -1.156590
     29          6           0       -1.624073    4.334632   -1.005595
     30          6           0        7.763025   -0.832882   -2.143572
     31          6           0       -1.785084    5.033290    0.382180
     32          6           0       -4.258517    2.940177   -2.132344
     33          6           0       -3.918499   -0.170687   -1.399892
     34          6           0       -2.584504   -1.643038    3.106686
     35          6           0       -3.700779   -1.487326   -1.116709
     36          6           0        9.019639   -1.047218   -1.726427
     37          6           0       -1.345804    6.504351    0.373900
     38          6           0       -4.551548   -2.682094   -1.524180
     39          6           0       -3.747781   -3.804380   -1.173614
     40          6           0       -2.599636   -3.314451   -0.454547
     41          6           0       -5.755168   -2.627343   -2.232019
     42          6           0       -4.089758   -5.228347   -1.048106
     43          6           0       -6.635382   -3.611216   -2.686305
     44          1           0        4.310611   -2.025627    0.132674
     45          1           0        5.058739    0.605695    1.159580
     46          1           0        4.671063   -1.033577    1.990849
     47          1           0        2.739848    1.441125   -0.063954
     48          1           0        3.522189   -0.541080   -1.449925
     49          1           0       -0.457728    0.114159    3.766005
     50          1           0       -1.332702    0.423938    2.091272
     51          1           0        0.634611    3.080798   -0.113553
     52          1           0        3.359645   -1.690313    3.965255
     53          1           0        1.571554   -1.586290    4.168482
     54          1           0        2.116693   -2.700093    2.886897
     55          1           0        6.268348   -2.494333    1.796700
     56          1           0        7.494319   -1.200627    1.539659
     57          1           0        7.724132   -2.537767    0.547759
     58          1           0       -1.036059   -2.031170    1.800247
     59          1           0       -0.736725   -2.304040    3.664988
     60          1           0       -1.537892   -0.320333   -0.179902
     61          1           0       -2.236051    4.817385   -1.941850
     62          1           0       -0.645843    4.804709   -1.370441
     63          1           0        7.759599   -0.647616   -3.173592
     64          1           0       -1.092043    4.360996    0.859055
     65          1           0       -2.826745    4.894525    0.782515
     66          1           0       -4.166711    4.081788   -2.297447
     67          1           0       -5.393261    2.851137   -1.553249
     68          1           0       -4.333268    2.475713   -3.192590
     69          1           0       -4.907784    0.042141   -1.919795
     70          1           0        9.459590   -1.094024   -0.575298
     71          1           0        9.807439   -0.846303   -2.480830
     72          1           0       -3.763112   -3.055676    3.502891
     73          1           0       -6.119985   -1.488838   -2.149113
     74          1           0       -4.982152   -5.313005   -0.368559
     75          1           0       -3.834781   -5.909966   -2.050054
     76          1           0       -3.360780   -5.614327   -0.262229
     77          1           0       -1.462678    8.095860    1.533132
     78          1           0       -7.590758   -3.432246   -2.956557
     79          1           0       -6.260573   -4.669318   -2.269346
 ---------------------------------------------------------------------
 Rotational constants (GHZ):           0.0727331           0.0459705           0.0356123
 Standard basis: SVP (5D, 7F)
 There are   825 symmetry adapted cartesian basis functions of A   symmetry.
 There are   782 symmetry adapted basis functions of A   symmetry.
   782 basis functions,  1327 primitive gaussians,   825 cartesian basis functions
   155 alpha electrons      155 beta electrons
       nuclear repulsion energy      4932.3543044465 Hartrees.
 NAtoms=   79 NActive=   79 NUniq=   79 SFac= 1.00D+00 NAtFMM=   60 NAOKFM=T Big=T
 Integral buffers will be    131072 words long.
 Regular integral format.
 Two-electron integral symmetry is turned on.
 One-electron integrals computed using PRISM.
 NBasis=   782 RedAO= T EigKep=  3.32D-04  NBF=   782
 NBsUse=   782 1.00D-06 EigRej= -1.00D+00 NBFU=   782
 ExpMin= 1.22D-01 ExpMax= 2.27D+03 ExpMxC= 3.41D+02 IAcc=3 IRadAn=         5 AccDes= 0.00D+00
 Harris functional with IExCor=  402 and IRadAn=       5 diagonalized for initial guess.
 HarFok:  IExCor=  402 AccDes= 0.00D+00 IRadAn=         5 IDoV= 1 UseB2=F ITyADJ=14
 ICtDFT=  3500011 ScaDFX=  1.000000  1.000000  1.000000  1.000000
 FoFCou: FMM=F IPFlag=           0 FMFlag=      100000 FMFlg1=        2001
         NFxFlg=           0 DoJE=T BraDBF=F KetDBF=T FulRan=T
         wScrn=  0.000000 ICntrl=       500 IOpCl=  0 I1Cent=   200000004 NGrid=           0
         NMat0=    1 NMatS0=      1 NMatT0=    0 NMatD0=    1 NMtDS0=    0 NMtDT0=    0
 Petite list used in FoFCou.
 Requested convergence on RMS density matrix=1.00D-08 within 128 cycles.
 Requested convergence on MAX density matrix=1.00D-06.
 Requested convergence on             energy=1.00D-06.
 No special actions if energy rises.
 Integral accuracy reduced to 1.0D-05 until final iterations.
 EnCoef did     2 forward-backward iterations
 Initial convergence to 1.0D-05 achieved.  Increase integral accuracy.
 SCF Done:  E(RB3LYP) =  -1947.74796910     A.U. after   19 cycles
            NFock= 19  Conv=0.88D-08     -V/T= 2.0105
 DoSCS=F DFT=T ScalE2(SS,OS)=  1.000000  1.000000
 ExpMin= 1.22D-01 ExpMax= 2.27D+03 ExpMxC= 3.41D+02 IAcc=3 IRadAn=         5 AccDes= 0.00D+00
 HarFok:  IExCor=  205 AccDes= 0.00D+00 IRadAn=         5 IDoV=-2 UseB2=F ITyADJ=14
 ICtDFT= 12500011 ScaDFX=  1.000000  1.000000  1.000000  1.000000
 GSVD:  LWork=       -2193 too small for GESVD, short by        9890 words or        9890 for optimal perf.
 Range of M.O.s used for correlation:    44   782
 NBasis=   782 NAE=   155 NBE=   155 NFC=    43 NFV=     0
 NROrb=    739 NOA=   112 NOB=   112 NVA=   627 NVB=   627

 **** Warning!!: The smallest alpha delta epsilon is  0.69125364D-01

 Orbital symmetries:
       Occupied  (A) (A) (A) (A) (A) (A) (A) (A) (A) (A) (A) (A)
                 (A) (A) (A) (A) (A) (A) (A) (A) (A) (A) (A) (A)
                 (A) (A) (A) (A) (A) (A) (A) (A) (A) (A) (A) (A)
                 (A) (A) (A) (A) (A) (A) (A) (A) (A) (A) (A) (A)
                 (A) (A) (A) (A) (A) (A) (A) (A) (A) (A) (A) (A)
                 (A) (A) (A) (A) (A) (A) (A) (A) (A) (A) (A) (A)
                 (A) (A) (A) (A) (A) (A) (A) (A) (A) (A) (A) (A)
                 (A) (A) (A) (A) (A) (A) (A) (A) (A) (A) (A) (A)
                 (A) (A) (A) (A) (A) (A) (A) (A) (A) (A) (A) (A)
                 (A) (A) (A) (A) (A) (A) (A) (A) (A) (A) (A) (A)
                 (A) (A) (A) (A) (A) (A) (A) (A) (A) (A) (A) (A)
                 (A) (A) (A) (A) (A) (A) (A) (A) (A) (A) (A) (A)
                 (A) (A) (A) (A) (A) (A) (A) (A) (A) (A) (A)
       Virtual   (A) (A) (A) (A) (A) (A) (A) (A) (A) (A) (A) (A)
                 (A) (A) (A) (A) (A) (A) (A) (A) (A) (A) (A) (A)
                 (A) (A) (A) (A) (A) (A) (A) (A) (A) (A) (A) (A)
                 (A) (A) (A) (A) (A) (A) (A) (A) (A) (A) (A) (A)
                 (A) (A) (A) (A) (A) (A) (A) (A) (A) (A) (A) (A)
                 (A) (A) (A) (A) (A) (A) (A) (A) (A) (A) (A) (A)
                 (A) (A) (A) (A) (A) (A) (A) (A) (A) (A) (A) (A)
                 (A) (A) (A) (A) (A) (A) (A) (A) (A) (A) (A) (A)
                 (A) (A) (A) (A) (A) (A) (A) (A) (A) (A) (A) (A)
                 (A) (A) (A) (A) (A) (A) (A) (A) (A) (A) (A) (A)
                 (A) (A) (A) (A) (A) (A) (A) (A) (A) (A) (A) (A)
                 (A) (A) (A) (A) (A) (A) (A) (A) (A) (A) (A) (A)
                 (A) (A) (A) (A) (A) (A) (A) (A) (A) (A) (A) (A)
                 (A) (A) (A) (A) (A) (A) (A) (A) (A) (A) (A) (A)
                 (A) (A) (A) (A) (A) (A) (A) (A) (A) (A) (A) (A)
                 (A) (A) (A) (A) (A) (A) (A) (A) (A) (A) (A) (A)
                 (A) (A) (A) (A) (A) (A) (A) (A) (A) (A) (A) (A)
                 (A) (A) (A) (A) (A) (A) (A) (A) (A) (A) (A) (A)
                 (A) (A) (A) (A) (A) (A) (A) (A) (A) (A) (A) (A)
                 (A) (A) (A) (A) (A) (A) (A) (A) (A) (A) (A) (A)
                 (A) (A) (A) (A) (A) (A) (A) (A) (A) (A) (A) (A)
                 (A) (A) (A) (A) (A) (A) (A) (A) (A) (A) (A) (A)
                 (A) (A) (A) (A) (A) (A) (A) (A) (A) (A) (A) (A)
                 (A) (A) (A) (A) (A) (A) (A) (A) (A) (A) (A) (A)
                 (A) (A) (A) (A) (A) (A) (A) (A) (A) (A) (A) (A)
                 (A) (A) (A) (A) (A) (A) (A) (A) (A) (A) (A) (A)
                 (A) (A) (A) (A) (A) (A) (A) (A) (A) (A) (A) (A)
                 (A) (A) (A) (A) (A) (A) (A) (A) (A) (A) (A) (A)
                 (A) (A) (A) (A) (A) (A) (A) (A) (A) (A) (A) (A)
                 (A) (A) (A) (A) (A) (A) (A) (A) (A) (A) (A) (A)
                 (A) (A) (A) (A) (A) (A) (A) (A) (A) (A) (A) (A)
                 (A) (A) (A) (A) (A) (A) (A) (A) (A) (A) (A) (A)
                 (A) (A) (A) (A) (A) (A) (A) (A) (A) (A) (A) (A)
                 (A) (A) (A) (A) (A) (A) (A) (A) (A) (A) (A) (A)
                 (A) (A) (A) (A) (A) (A) (A) (A) (A) (A) (A) (A)
                 (A) (A) (A) (A) (A) (A) (A) (A) (A) (A) (A) (A)
                 (A) (A) (A) (A) (A) (A) (A) (A) (A) (A) (A) (A)
                 (A) (A) (A) (A) (A) (A) (A) (A) (A) (A) (A) (A)
                 (A) (A) (A) (A) (A) (A) (A) (A) (A) (A) (A) (A)
                 (A) (A) (A) (A) (A) (A) (A) (A) (A) (A) (A) (A)
                 (A) (A) (A) (A) (A) (A) (A) (A) (A) (A) (A) (A)
                 (A) (A) (A) (A) (A) (A) (A) (A) (A) (A) (A) (A)
                 (A) (A) (A) (A) (A) (A) (A) (A) (A) (A) (A) (A)
                 (A) (A) (A) (A) (A) (A) (A) (A) (A) (A) (A) (A)
                 (A) (A) (A) (A) (A) (A) (A) (A) (A) (A) (A) (A)
                 (A) (A) (A) (A) (A) (A) (A) (A) (A) (A) (A) (A)
                 (A) (A) (A) (A) (A) (A) (A) (A) (A) (A) (A) (A)
                 (A) (A) (A) (A) (A) (A) (A) (A) (A) (A) (A) (A)
                 (A) (A) (A) (A) (A) (A) (A) (A) (A) (A) (A) (A)
                 (A) (A) (A) (A) (A) (A) (A) (A) (A) (A) (A) (A)
                 (A) (A) (A) (A) (A) (A) (A) (A) (A) (A) (A) (A)
                 (A) (A) (A) (A) (A) (A) (A) (A) (A) (A) (A) (A)
                 (A) (A) (A)
     4 initial guesses have been made.
 Convergence on wavefunction:    0.001000000000000
 Iteration     1 Dimension     4 NMult     0 NNew      4
 CISAX will form     4 AO SS matrices at one time.
 Iteration     2 Dimension     6 NMult     4 NNew      2
 Iteration     3 Dimension     8 NMult     6 NNew      2
 Iteration     4 Dimension    10 NMult     8 NNew      2
 Iteration     5 Dimension    12 NMult    10 NNew      2
 Iteration     6 Dimension    14 NMult    12 NNew      2
 Iteration     7 Dimension    16 NMult    14 NNew      2
 ***********************************************************************
 Excited states from <AA,BB:AA,BB> singles matrix:
 ***********************************************************************
 
 Ground to excited state transition densities written to RWF  633
 Ground to excited state transition electric dipole moments (Au):
       state          X           Y           Z        Dip. S.      Osc.
         1        -2.3812     -1.4661     -0.9302      8.6850      0.3799
 Ground to excited state transition velocity dipole moments (Au):
       state          X           Y           Z        Dip. S.      Osc.
         1         0.1513      0.0878      0.0585      0.0340      0.3455
 Ground to excited state transition magnetic dipole moments (Au):
       state          X           Y           Z
         1         0.6397     -0.0756     -1.2156
 Ground to excited state transition velocity quadrupole moments (Au):
       state          XX          YY          ZZ          XY          XZ          YZ
         1        -0.4903     -0.3571      0.0583     -0.7228     -0.3494     -0.2469
 <0|del|b> * <b|rxdel|0> + <0|del|b> * <b|delr+rdel|0>
 Rotatory Strengths (R) in cgs (10**-40 erg-esu-cm/Gauss)
       state          XX          YY          ZZ    R(velocity)    E-M Angle
         1      -481.3228    164.9186    521.7039     68.4332       85.69
 1/2[<0|r|b>*<b|rxdel|0> + (<0|rxdel|b>*<b|r|0>)*]
 Rotatory Strengths (R) in cgs (10**-40 erg-esu-cm/Gauss)
       state          XX          YY          ZZ     R(length)
         1      1077.2760    -78.3794   -799.6469     66.4165
  1/2[<0|del|b>*<b|r|0> + (<0|r|b>*<b|del|0>)*] (Au)
       state          X           Y           Z        Dip. S.   Osc.(frdel)
         1        -0.3602     -0.1287     -0.0544      0.5433      0.3622

 Excitation energies and oscillator strengths:
 
 Excited State   1:      Singlet-A      1.7856 eV  694.36 nm  f=0.3799  <S**2>=0.000
     154 ->156         0.15457
     155 ->156         0.68447
     155 ->157         0.10606
     155 <-156        -0.13688
 This state for optimization and/or second-order correction.
 Total Energy, E(TD-HF/TD-DFT) =  -1947.68234993    
 Copying the excited state density for this state as the 1-particle RhoCI density.
 SavETr:  write IOETrn=   770 NScale= 10 NData=  16 NLR=1 NState=    1 LETran=      28.

 **********************************************************************

            Population analysis using the SCF density.

 **********************************************************************

 Orbital symmetries:
       Occupied  (A) (A) (A) (A) (A) (A) (A) (A) (A) (A) (A) (A)
                 (A) (A) (A) (A) (A) (A) (A) (A) (A) (A) (A) (A)
                 (A) (A) (A) (A) (A) (A) (A) (A) (A) (A) (A) (A)
                 (A) (A) (A) (A) (A) (A) (A) (A) (A) (A) (A) (A)
                 (A) (A) (A) (A) (A) (A) (A) (A) (A) (A) (A) (A)
                 (A) (A) (A) (A) (A) (A) (A) (A) (A) (A) (A) (A)
                 (A) (A) (A) (A) (A) (A) (A) (A) (A) (A) (A) (A)
                 (A) (A) (A) (A) (A) (A) (A) (A) (A) (A) (A) (A)
                 (A) (A) (A) (A) (A) (A) (A) (A) (A) (A) (A) (A)
                 (A) (A) (A) (A) (A) (A) (A) (A) (A) (A) (A) (A)
                 (A) (A) (A) (A) (A) (A) (A) (A) (A) (A) (A) (A)
                 (A) (A) (A) (A) (A) (A) (A) (A) (A) (A) (A) (A)
                 (A) (A) (A) (A) (A) (A) (A) (A) (A) (A) (A)
       Virtual   (A) (A) (A) (A) (A) (A) (A) (A) (A) (A) (A) (A)
                 (A) (A) (A) (A) (A) (A) (A) (A) (A) (A) (A) (A)
                 (A) (A) (A) (A) (A) (A) (A) (A) (A) (A) (A) (A)
                 (A) (A) (A) (A) (A) (A) (A) (A) (A) (A) (A) (A)
                 (A) (A) (A) (A) (A) (A) (A) (A) (A) (A) (A) (A)
                 (A) (A) (A) (A) (A) (A) (A) (A) (A) (A) (A) (A)
                 (A) (A) (A) (A) (A) (A) (A) (A) (A) (A) (A) (A)
                 (A) (A) (A) (A) (A) (A) (A) (A) (A) (A) (A) (A)
                 (A) (A) (A) (A) (A) (A) (A) (A) (A) (A) (A) (A)
                 (A) (A) (A) (A) (A) (A) (A) (A) (A) (A) (A) (A)
                 (A) (A) (A) (A) (A) (A) (A) (A) (A) (A) (A) (A)
                 (A) (A) (A) (A) (A) (A) (A) (A) (A) (A) (A) (A)
                 (A) (A) (A) (A) (A) (A) (A) (A) (A) (A) (A) (A)
                 (A) (A) (A) (A) (A) (A) (A) (A) (A) (A) (A) (A)
                 (A) (A) (A) (A) (A) (A) (A) (A) (A) (A) (A) (A)
                 (A) (A) (A) (A) (A) (A) (A) (A) (A) (A) (A) (A)
                 (A) (A) (A) (A) (A) (A) (A) (A) (A) (A) (A) (A)
                 (A) (A) (A) (A) (A) (A) (A) (A) (A) (A) (A) (A)
                 (A) (A) (A) (A) (A) (A) (A) (A) (A) (A) (A) (A)
                 (A) (A) (A) (A) (A) (A) (A) (A) (A) (A) (A) (A)
                 (A) (A) (A) (A) (A) (A) (A) (A) (A) (A) (A) (A)
                 (A) (A) (A) (A) (A) (A) (A) (A) (A) (A) (A) (A)
                 (A) (A) (A) (A) (A) (A) (A) (A) (A) (A) (A) (A)
                 (A) (A) (A) (A) (A) (A) (A) (A) (A) (A) (A) (A)
                 (A) (A) (A) (A) (A) (A) (A) (A) (A) (A) (A) (A)
                 (A) (A) (A) (A) (A) (A) (A) (A) (A) (A) (A) (A)
                 (A) (A) (A) (A) (A) (A) (A) (A) (A) (A) (A) (A)
                 (A) (A) (A) (A) (A) (A) (A) (A) (A) (A) (A) (A)
                 (A) (A) (A) (A) (A) (A) (A) (A) (A) (A) (A) (A)
                 (A) (A) (A) (A) (A) (A) (A) (A) (A) (A) (A) (A)
                 (A) (A) (A) (A) (A) (A) (A) (A) (A) (A) (A) (A)
                 (A) (A) (A) (A) (A) (A) (A) (A) (A) (A) (A) (A)
                 (A) (A) (A) (A) (A) (A) (A) (A) (A) (A) (A) (A)
                 (A) (A) (A) (A) (A) (A) (A) (A) (A) (A) (A) (A)
                 (A) (A) (A) (A) (A) (A) (A) (A) (A) (A) (A) (A)
                 (A) (A) (A) (A) (A) (A) (A) (A) (A) (A) (A) (A)
                 (A) (A) (A) (A) (A) (A) (A) (A) (A) (A) (A) (A)
                 (A) (A) (A) (A) (A) (A) (A) (A) (A) (A) (A) (A)
                 (A) (A) (A) (A) (A) (A) (A) (A) (A) (A) (A) (A)
                 (A) (A) (A) (A) (A) (A) (A) (A) (A) (A) (A) (A)
                 (A) (A) (A) (A) (A) (A) (A) (A) (A) (A) (A) (A)
                 (A) (A) (A) (A) (A) (A) (A) (A) (A) (A) (A) (A)
                 (A) (A) (A) (A) (A) (A) (A) (A) (A) (A) (A) (A)
                 (A) (A) (A) (A) (A) (A) (A) (A) (A) (A) (A) (A)
                 (A) (A) (A) (A) (A) (A) (A) (A) (A) (A) (A) (A)
                 (A) (A) (A) (A) (A) (A) (A) (A) (A) (A) (A) (A)
                 (A) (A) (A) (A) (A) (A) (A) (A) (A) (A) (A) (A)
                 (A) (A) (A) (A) (A) (A) (A) (A) (A) (A) (A) (A)
                 (A) (A) (A) (A) (A) (A) (A) (A) (A) (A) (A) (A)
                 (A) (A) (A) (A) (A) (A) (A) (A) (A) (A) (A) (A)
                 (A) (A) (A) (A) (A) (A) (A) (A) (A) (A) (A) (A)
                 (A) (A) (A) (A) (A) (A) (A) (A) (A) (A) (A) (A)
                 (A) (A) (A)
 The electronic state is 1-A.
 Alpha  occ. eigenvalues --  -19.19662 -19.15970 -19.13460 -19.12012 -19.10482
 Alpha  occ. eigenvalues --  -19.10378 -14.38991 -14.36750 -14.34137 -14.29820
 Alpha  occ. eigenvalues --  -10.33482 -10.30666 -10.28633 -10.26474 -10.25238
 Alpha  occ. eigenvalues --  -10.24720 -10.24350 -10.23579 -10.23477 -10.23217
 Alpha  occ. eigenvalues --  -10.23215 -10.22675 -10.22218 -10.22161 -10.22112
 Alpha  occ. eigenvalues --  -10.22102 -10.21988 -10.21789 -10.21764 -10.21588
 Alpha  occ. eigenvalues --  -10.21297 -10.21186 -10.20897 -10.20430 -10.20396
 Alpha  occ. eigenvalues --  -10.20340 -10.20163 -10.19917 -10.19822 -10.19684
 Alpha  occ. eigenvalues --  -10.19467 -10.19459 -10.19162  -1.09904  -1.09094
 Alpha  occ. eigenvalues --   -1.03275  -1.02413  -1.01827  -0.99892  -0.99290
 Alpha  occ. eigenvalues --   -0.98870  -0.96865  -0.89576  -0.84357  -0.82829
 Alpha  occ. eigenvalues --   -0.82445  -0.82035  -0.80909  -0.79888  -0.77739
 Alpha  occ. eigenvalues --   -0.77503  -0.76510  -0.76052  -0.74762  -0.73338
 Alpha  occ. eigenvalues --   -0.72219  -0.70032  -0.69577  -0.69075  -0.68188
 Alpha  occ. eigenvalues --   -0.67908  -0.66656  -0.64433  -0.62861  -0.61996
 Alpha  occ. eigenvalues --   -0.61116  -0.60701  -0.59816  -0.57823  -0.57140
 Alpha  occ. eigenvalues --   -0.56439  -0.55962  -0.55667  -0.54615  -0.53710
 Alpha  occ. eigenvalues --   -0.53193  -0.51815  -0.51608  -0.50201  -0.49545
 Alpha  occ. eigenvalues --   -0.49073  -0.48792  -0.48458  -0.48120  -0.47929
 Alpha  occ. eigenvalues --   -0.47429  -0.47055  -0.46836  -0.46421  -0.45716
 Alpha  occ. eigenvalues --   -0.45219  -0.45118  -0.44808  -0.44398  -0.43978
 Alpha  occ. eigenvalues --   -0.43579  -0.43286  -0.43151  -0.43081  -0.42388
 Alpha  occ. eigenvalues --   -0.42254  -0.42140  -0.41318  -0.40930  -0.40617
 Alpha  occ. eigenvalues --   -0.40199  -0.40050  -0.39709  -0.39577  -0.39343
 Alpha  occ. eigenvalues --   -0.39095  -0.38968  -0.38627  -0.38344  -0.38258
 Alpha  occ. eigenvalues --   -0.37847  -0.37389  -0.37281  -0.37064  -0.36745
 Alpha  occ. eigenvalues --   -0.36085  -0.35740  -0.34381  -0.33991  -0.33552
 Alpha  occ. eigenvalues --   -0.33159  -0.32724  -0.32495  -0.32261  -0.32226
 Alpha  occ. eigenvalues --   -0.32096  -0.31314  -0.29026  -0.28452  -0.28198
 Alpha  occ. eigenvalues --   -0.27087  -0.26763  -0.26179  -0.26092  -0.25975
 Alpha  occ. eigenvalues --   -0.25020  -0.24069  -0.23919  -0.22215  -0.19124
 Alpha virt. eigenvalues --   -0.12212  -0.08281  -0.05247  -0.01662  -0.01223
 Alpha virt. eigenvalues --    0.00169   0.01106   0.01863   0.02023   0.02396
 Alpha virt. eigenvalues --    0.03080   0.03309   0.03940   0.04300   0.04764
 Alpha virt. eigenvalues --    0.05129   0.05616   0.06010   0.06388   0.06727
 Alpha virt. eigenvalues --    0.07236   0.07643   0.08160   0.08565   0.08764
 Alpha virt. eigenvalues --    0.08995   0.09047   0.09660   0.09667   0.09897
 Alpha virt. eigenvalues --    0.10670   0.10716   0.11152   0.11598   0.11815
 Alpha virt. eigenvalues --    0.12349   0.12506   0.13030   0.13405   0.13620
 Alpha virt. eigenvalues --    0.13832   0.14371   0.14655   0.15095   0.15777
 Alpha virt. eigenvalues --    0.16146   0.16647   0.16801   0.16999   0.17375
 Alpha virt. eigenvalues --    0.18640   0.18864   0.19310   0.19811   0.19939
 Alpha virt. eigenvalues --    0.20718   0.21163   0.21556   0.21966   0.22345
 Alpha virt. eigenvalues --    0.22564   0.22988   0.23517   0.23586   0.24491
 Alpha virt. eigenvalues --    0.24720   0.25139   0.25239   0.26001   0.26638
 Alpha virt. eigenvalues --    0.27022   0.27159   0.27294   0.28369   0.28921
 Alpha virt. eigenvalues --    0.29309   0.29855   0.30394   0.30987   0.31460
 Alpha virt. eigenvalues --    0.31642   0.31899   0.32174   0.33213   0.33311
 Alpha virt. eigenvalues --    0.33654   0.34162   0.34622   0.35684   0.36169
 Alpha virt. eigenvalues --    0.36537   0.37274   0.37353   0.37725   0.38227
 Alpha virt. eigenvalues --    0.39641   0.39867   0.40830   0.41355   0.41631
 Alpha virt. eigenvalues --    0.41810   0.42353   0.42734   0.42921   0.43582
 Alpha virt. eigenvalues --    0.43636   0.44051   0.44466   0.44762   0.44969
 Alpha virt. eigenvalues --    0.45036   0.45264   0.45832   0.46033   0.46461
 Alpha virt. eigenvalues --    0.47270   0.47362   0.47841   0.48232   0.48580
 Alpha virt. eigenvalues --    0.48716   0.48987   0.49218   0.49506   0.49828
 Alpha virt. eigenvalues --    0.50490   0.50590   0.50990   0.51210   0.51512
 Alpha virt. eigenvalues --    0.51605   0.52256   0.52623   0.52918   0.53412
 Alpha virt. eigenvalues --    0.53735   0.54014   0.54573   0.54743   0.55062
 Alpha virt. eigenvalues --    0.55975   0.56029   0.56669   0.57498   0.57710
 Alpha virt. eigenvalues --    0.57953   0.58273   0.58731   0.58795   0.59258
 Alpha virt. eigenvalues --    0.59493   0.59611   0.59827   0.59947   0.60117
 Alpha virt. eigenvalues --    0.60281   0.60717   0.60838   0.61478   0.61781
 Alpha virt. eigenvalues --    0.61884   0.62153   0.62419   0.62635   0.62774
 Alpha virt. eigenvalues --    0.63256   0.63297   0.63463   0.63722   0.63937
 Alpha virt. eigenvalues --    0.63997   0.64497   0.64576   0.65100   0.65254
 Alpha virt. eigenvalues --    0.65334   0.65833   0.66070   0.66460   0.66570
 Alpha virt. eigenvalues --    0.67097   0.67158   0.67339   0.67768   0.67872
 Alpha virt. eigenvalues --    0.68012   0.68531   0.68894   0.69541   0.69831
 Alpha virt. eigenvalues --    0.70037   0.70081   0.70218   0.70568   0.70991
 Alpha virt. eigenvalues --    0.71203   0.71623   0.71840   0.72042   0.72345
 Alpha virt. eigenvalues --    0.72930   0.73146   0.73618   0.74030   0.74396
 Alpha virt. eigenvalues --    0.74911   0.75582   0.75838   0.75957   0.76306
 Alpha virt. eigenvalues --    0.76485   0.77097   0.77521   0.78309   0.78674
 Alpha virt. eigenvalues --    0.79513   0.79762   0.80066   0.80217   0.81374
 Alpha virt. eigenvalues --    0.81838   0.81976   0.82784   0.83455   0.83771
 Alpha virt. eigenvalues --    0.84573   0.85605   0.85857   0.86572   0.87120
 Alpha virt. eigenvalues --    0.87974   0.88518   0.89053   0.89886   0.89989
 Alpha virt. eigenvalues --    0.90381   0.91328   0.91954   0.92574   0.92997
 Alpha virt. eigenvalues --    0.93848   0.94173   0.94617   0.94917   0.95427
 Alpha virt. eigenvalues --    0.95984   0.96067   0.97558   0.98123   0.98577
 Alpha virt. eigenvalues --    0.98810   0.99199   0.99285   1.00198   1.00812
 Alpha virt. eigenvalues --    1.01072   1.02098   1.03332   1.03988   1.04606
 Alpha virt. eigenvalues --    1.05197   1.05439   1.06663   1.07431   1.07851
 Alpha virt. eigenvalues --    1.08196   1.09025   1.09292   1.10596   1.10930
 Alpha virt. eigenvalues --    1.11837   1.12303   1.12683   1.13528   1.13998
 Alpha virt. eigenvalues --    1.15142   1.16288   1.16702   1.17947   1.18079
 Alpha virt. eigenvalues --    1.18805   1.19421   1.19892   1.20590   1.20977
 Alpha virt. eigenvalues --    1.22399   1.22997   1.23564   1.24111   1.25175
 Alpha virt. eigenvalues --    1.25659   1.25739   1.26953   1.27450   1.27998
 Alpha virt. eigenvalues --    1.28214   1.28980   1.29368   1.30453   1.30517
 Alpha virt. eigenvalues --    1.31082   1.32006   1.32449   1.33737   1.34198
 Alpha virt. eigenvalues --    1.34817   1.35137   1.35332   1.35996   1.36780
 Alpha virt. eigenvalues --    1.36988   1.38024   1.38575   1.39235   1.40733
 Alpha virt. eigenvalues --    1.41001   1.41790   1.42236   1.42536   1.43113
 Alpha virt. eigenvalues --    1.43924   1.45809   1.46020   1.46360   1.47003
 Alpha virt. eigenvalues --    1.47599   1.47814   1.47926   1.48591   1.49371
 Alpha virt. eigenvalues --    1.50336   1.50676   1.51413   1.51887   1.52238
 Alpha virt. eigenvalues --    1.52489   1.53099   1.53235   1.54231   1.54609
 Alpha virt. eigenvalues --    1.55444   1.55811   1.56748   1.57218   1.57469
 Alpha virt. eigenvalues --    1.57968   1.58633   1.59253   1.60046   1.60808
 Alpha virt. eigenvalues --    1.61465   1.62122   1.62693   1.62979   1.63075
 Alpha virt. eigenvalues --    1.63841   1.64086   1.64856   1.65130   1.65621
 Alpha virt. eigenvalues --    1.66199   1.66297   1.66438   1.66546   1.67320
 Alpha virt. eigenvalues --    1.67989   1.68068   1.68763   1.69066   1.69217
 Alpha virt. eigenvalues --    1.69273   1.70339   1.70957   1.71365   1.71828
 Alpha virt. eigenvalues --    1.72355   1.73172   1.73828   1.74051   1.74467
 Alpha virt. eigenvalues --    1.75043   1.75303   1.75787   1.76050   1.76237
 Alpha virt. eigenvalues --    1.77030   1.77066   1.77518   1.78399   1.78851
 Alpha virt. eigenvalues --    1.79591   1.79767   1.80094   1.80207   1.80342
 Alpha virt. eigenvalues --    1.80705   1.81254   1.82079   1.82702   1.82803
 Alpha virt. eigenvalues --    1.83180   1.83600   1.83819   1.84278   1.85268
 Alpha virt. eigenvalues --    1.85689   1.86011   1.86743   1.86810   1.87234
 Alpha virt. eigenvalues --    1.87400   1.88009   1.88166   1.88564   1.88772
 Alpha virt. eigenvalues --    1.89535   1.89867   1.90344   1.91097   1.91368
 Alpha virt. eigenvalues --    1.91776   1.92080   1.92374   1.93479   1.93906
 Alpha virt. eigenvalues --    1.94514   1.94960   1.95728   1.96277   1.96885
 Alpha virt. eigenvalues --    1.97397   1.97565   1.97804   1.98175   1.98436
 Alpha virt. eigenvalues --    1.99324   1.99557   1.99984   2.00598   2.01104
 Alpha virt. eigenvalues --    2.01422   2.02468   2.02875   2.03299   2.04620
 Alpha virt. eigenvalues --    2.04913   2.05432   2.05708   2.06322   2.07210
 Alpha virt. eigenvalues --    2.07518   2.08012   2.08397   2.09052   2.09119
 Alpha virt. eigenvalues --    2.09579   2.09926   2.10069   2.11812   2.12204
 Alpha virt. eigenvalues --    2.12831   2.13939   2.14825   2.15615   2.15746
 Alpha virt. eigenvalues --    2.16370   2.16573   2.17549   2.18018   2.18178
 Alpha virt. eigenvalues --    2.19376   2.19755   2.20929   2.21787   2.21982
 Alpha virt. eigenvalues --    2.22860   2.24152   2.24308   2.24548   2.25830
 Alpha virt. eigenvalues --    2.25927   2.26249   2.26796   2.27245   2.27529
 Alpha virt. eigenvalues --    2.28291   2.28895   2.30259   2.30413   2.30872
 Alpha virt. eigenvalues --    2.32163   2.32970   2.33323   2.33857   2.34473
 Alpha virt. eigenvalues --    2.34987   2.35409   2.35941   2.36643   2.37505
 Alpha virt. eigenvalues --    2.38261   2.39453   2.39822   2.41232   2.42044
 Alpha virt. eigenvalues --    2.42320   2.42366   2.42731   2.42860   2.43962
 Alpha virt. eigenvalues --    2.44453   2.45100   2.45699   2.46800   2.46947
 Alpha virt. eigenvalues --    2.47497   2.48101   2.48759   2.49160   2.50767
 Alpha virt. eigenvalues --    2.52332   2.52850   2.54553   2.54822   2.55334
 Alpha virt. eigenvalues --    2.56477   2.56710   2.58158   2.58721   2.59370
 Alpha virt. eigenvalues --    2.59996   2.60692   2.61694   2.63033   2.63385
 Alpha virt. eigenvalues --    2.64086   2.64562   2.64865   2.65112   2.65974
 Alpha virt. eigenvalues --    2.66445   2.66897   2.68501   2.69264   2.69887
 Alpha virt. eigenvalues --    2.70269   2.70974   2.71730   2.72219   2.73330
 Alpha virt. eigenvalues --    2.74338   2.74536   2.74895   2.75589   2.76781
 Alpha virt. eigenvalues --    2.77592   2.77602   2.78228   2.78748   2.79168
 Alpha virt. eigenvalues --    2.79249   2.80514   2.81192   2.82411   2.82930
 Alpha virt. eigenvalues --    2.83721   2.84350   2.85468   2.86377   2.87051
 Alpha virt. eigenvalues --    2.87260   2.88414   2.89209   2.89693   2.90335
 Alpha virt. eigenvalues --    2.90921   2.91671   2.92213   2.93640   2.96257
 Alpha virt. eigenvalues --    2.97517   2.98731   2.99010   2.99530   2.99925
 Alpha virt. eigenvalues --    3.00639   3.01430   3.02378   3.02531   3.02902
 Alpha virt. eigenvalues --    3.04869   3.05865   3.06303   3.08231   3.09814
 Alpha virt. eigenvalues --    3.10580   3.12130   3.13064   3.13474   3.13984
 Alpha virt. eigenvalues --    3.14900   3.16748   3.17079   3.19058   3.21221
 Alpha virt. eigenvalues --    3.21340   3.23838   3.25446   3.25842   3.29156
 Alpha virt. eigenvalues --    3.31297   3.33513   3.37537   3.43541   3.48041
 Alpha virt. eigenvalues --    3.48646   3.50443   3.56911   3.57151   3.57564
 Alpha virt. eigenvalues --    3.58899   3.61218   3.62748   3.67642   3.70219
 Alpha virt. eigenvalues --    3.79287   3.89752
          Condensed to atoms (all electrons):
 Mulliken charges:
               1
     1  O   -0.222012
     2  O   -0.148497
     3  O   -0.189384
     4  O   -0.200980
     5  O   -0.251199
     6  O   -0.246278
     7  N    0.025702
     8  N   -0.050617
     9  N   -0.070104
    10  N   -0.370760
    11  C    0.067585
    12  C    0.207453
    13  C   -0.092196
    14  C   -0.068431
    15  C   -0.103234
    16  C    0.026186
    17  C   -0.119454
    18  C    0.164418
    19  C   -0.044122
    20  C   -0.094081
    21  C    0.013086
    22  C    0.145584
    23  C   -0.023805
    24  C   -0.036312
    25  C    0.015275
    26  C   -0.083726
    27  C   -0.090730
    28  C    0.137200
    29  C   -0.070504
    30  C    0.015903
    31  C    0.016040
    32  C   -0.029623
    33  C   -0.131058
    34  C    0.126377
    35  C    0.119529
    36  C   -0.095796
    37  C    0.161188
    38  C    0.076064
    39  C   -0.179099
    40  C    0.193247
    41  C   -0.089541
    42  C    0.026684
    43  C   -0.002512
    44  H   -0.017541
    45  H   -0.008283
    46  H    0.009939
    47  H    0.113339
    48  H    0.015253
    49  H    0.028543
    50  H   -0.002056
    51  H    0.046573
    52  H   -0.001626
    53  H    0.029352
    54  H    0.056187
    55  H    0.046895
    56  H    0.035971
    57  H    0.031192
    58  H    0.056098
    59  H    0.051612
    60  H    0.178940
    61  H    0.034642
    62  H    0.042165
    63  H   -0.003432
    64  H    0.032881
    65  H    0.054478
    66  H    0.033429
    67  H    0.055041
    68  H    0.048498
    69  H   -0.012761
    70  H    0.036503
    71  H    0.029014
    72  H    0.110243
    73  H    0.018711
    74  H    0.037646
    75  H    0.070141
    76  H    0.026370
    77  H    0.221875
    78  H    0.005865
    79  H    0.054838
 Sum of Mulliken charges =  -0.00000
 Mulliken charges with hydrogens summed into heavy atoms:
               1
     1  O   -0.222012
     2  O   -0.038254
     3  O   -0.189384
     4  O    0.020896
     5  O   -0.251199
     6  O   -0.246278
     7  N    0.139041
     8  N   -0.035364
     9  N    0.108836
    10  N   -0.370760
    11  C    0.050044
    12  C    0.209109
    13  C   -0.092196
    14  C   -0.068431
    15  C   -0.103234
    16  C    0.026186
    17  C   -0.119454
    18  C    0.190905
    19  C   -0.044122
    20  C   -0.047509
    21  C    0.013086
    22  C    0.145584
    23  C   -0.023805
    24  C    0.047601
    25  C    0.129333
    26  C   -0.083726
    27  C    0.016980
    28  C    0.137200
    29  C    0.006303
    30  C    0.012471
    31  C    0.103399
    32  C    0.107345
    33  C   -0.143819
    34  C    0.126377
    35  C    0.119529
    36  C   -0.030279
    37  C    0.161188
    38  C    0.076064
    39  C   -0.179099
    40  C    0.193247
    41  C   -0.070829
    42  C    0.160841
    43  C    0.058190
 Electronic spatial extent (au):  <R**2>=          31662.3099
 Charge=              0.0000 electrons
 Dipole moment (field-independent basis, Debye):
    X=             -0.6902    Y=              2.1647    Z=              3.7427  Tot=              4.3784
 Quadrupole moment (field-independent basis, Debye-Ang):
   XX=           -220.8022   YY=           -244.1223   ZZ=           -265.8556
   XY=             -6.8763   XZ=             27.0183   YZ=              4.3238
 Traceless Quadrupole moment (field-independent basis, Debye-Ang):
   XX=             22.7912   YY=             -0.5290   ZZ=            -22.2622
   XY=             -6.8763   XZ=             27.0183   YZ=              4.3238
 Octapole moment (field-independent basis, Debye-Ang**2):
  XXX=            -29.5762  YYY=            162.5385  ZZZ=             97.5605  XYY=           -117.2541
  XXY=            -64.2851  XXZ=             79.8626  XZZ=            -67.7190  YZZ=            -14.4455
  YYZ=            105.6436  XYZ=              2.1184
 Hexadecapole moment (field-independent basis, Debye-Ang**3):
 XXXX=         -22780.8568 YYYY=         -11576.0519 ZZZZ=          -5290.0570 XXXY=            109.0965
 XXXZ=            544.2176 YYYX=           -372.9396 YYYZ=            923.6460 ZZZX=            -38.5423
 ZZZY=           -146.5414 XXYY=          -5833.7873 XXZZ=          -5184.6782 YYZZ=          -2951.5105
 XXYZ=           -170.1242 YYXZ=           -118.6569 ZZXY=             13.5212
 N-N= 4.932354304446D+03 E-N=-1.439270516372D+04  KE= 1.927433090960D+03
 1\1\GINC-PADAWAN\SP\RB3LYP TD-FC\SVP\C33H36N4O6\PADAWAN\01-Oct-2019\0\
 \# td=(NStates=1) B3LYP/SVP\\TD\\0,1\O,0,-5.240780308,0.0170271423,-3.
 2913489246\O,0,2.948094815,2.9515524099,3.400776156\O,0,3.3388122298,0
 .7226976688,2.973469232\O,0,1.5278104205,-7.0648927594,1.5948579921\O,
 0,0.7115960476,-7.1258990135,-0.4927572586\O,0,1.6705541035,3.96507963
 08,0.0135608635\N,0,-2.292478859,-1.0707155018,0.7892459412\N,0,-4.349
 9898804,0.6541330798,-1.2434426991\N,0,1.83368376,-0.687980371,-0.4406
 225399\N,0,2.5202775697,1.789664712,-0.4806148082\C,0,-4.71128752,1.11
 40629033,0.0339091907\C,0,-4.3550729001,0.270737239,1.2211994776\C,0,-
 2.9655016458,-0.0380235457,1.4089629093\C,0,-1.9817672734,0.4940243596
 ,2.2610392735\C,0,-0.7343300433,-0.0154369792,1.9133620138\C,0,-1.0291
 871065,-0.9957826372,0.9879706165\C,0,-6.2197843345,1.3574035297,-0.18
 88741028\C,0,0.6189805047,0.1121518917,2.6310421243\C,0,-6.5038008946,
 0.868146063,-1.3331890476\C,0,-0.223208577,-2.0141301499,0.2171938009\
 C,0,1.1365705533,-1.8042099676,-0.3183734195\C,0,-5.3389144917,0.39765
 79805,-2.1307003815\C,0,1.8807421594,-2.9179223306,-0.9407610854\C,0,-
 2.153871088,1.6895947164,3.2093653267\C,0,-6.9177492681,1.9332214513,0
 .9129052764\C,0,3.0207984135,-2.275557507,-1.4148927344\C,0,1.11435746
 3,1.5585943528,2.7431679527\C,0,3.0203801133,-0.9129999256,-1.16177016
 52\C,0,1.5925030205,-4.3491408785,-0.9870704239\C,0,-7.7658624922,0.87
 25488925,-2.1143498228\C,0,1.7546630319,-5.0415750921,0.4036863641\C,0
 ,4.2312287319,-2.9775262214,-2.1316924005\C,0,3.9141022808,0.139233326
 8,-1.414186101\C,0,2.6078414053,1.6435919474,3.0899448944\C,0,3.705964
 9743,1.4587012816,-1.1370302703\C,0,-9.0193769211,1.0971218725,-1.6932
 841437\C,0,1.3059456593,-6.509807631,0.4048791469\C,0,4.5627051051,2.6
 45841339,-1.5541725004\C,0,3.767566025,3.7750780315,-1.2062619205\C,0,
 2.6192334941,3.2962874798,-0.4800267654\C,0,5.7630699123,2.5796728079,
 -2.26654861\C,0,4.1191575356,5.1974546213,-1.0895909725\C,0,6.64771482
 91,3.5554912339,-2.7295174286\H,0,-4.2966841545,2.0549465748,0.1417172
 12\H,0,-5.0574704039,-0.5661280889,1.1853932835\H,0,-4.6559424341,1.07
 49314928,2.0064975595\H,0,-2.7489539353,-1.4227996755,-0.0430612279\H,
 0,-3.5242034176,0.5571376309,-1.436241175\H,0,0.4725516899,-0.09644933
 29,3.7670062487\H,0,1.3387278822,-0.4205667241,2.0904141742\H,0,-0.654
 4741083,-3.0761950845,-0.0925342511\H,0,-3.3323533806,1.7335146156,3.9
 721472044\H,0,-1.5441556307,1.619071271,4.1687252604\H,0,-2.0873451156
 ,2.7296567855,2.8835257744\H,0,-6.2446179127,2.5448832918,1.8111233453
 \H,0,-7.4798777548,1.2577555848,1.5657935901\H,0,-7.7051464518,2.59115
 51986,0.5678352637\H,0,1.0566283712,2.0348455212,1.78772684\H,0,0.7666
 097735,2.3193487569,3.6522010443\H,0,1.5394682732,0.3105216972,-0.1854
 339087\H,0,2.19757755,-4.8406878992,-1.9232369334\H,0,0.6098127788,-4.
 8148213296,-1.3455130347\H,0,-7.7677978416,0.6818984204,-3.1433902772\
 H,0,1.0678789768,-4.3623674164,0.8798155582\H,0,2.7988061507,-4.907417
 9463,0.7990977247\H,0,4.1314482071,-4.1193693891,-2.2904425054\H,0,5.3
 688579842,-2.892758126,-1.5576393815\H,0,4.3046518983,-2.519084141,-3.
 1946485385\H,0,4.8998896085,-0.0826503595,-1.9369398697\H,0,-9.4543490
 354,1.1527527308,-0.5406567555\H,0,-9.8114992835,0.8973411498,-2.44345
 0445\H,0,3.7970643929,3.0506784515,3.4740021659\H,0,6.1209255608,1.439
 2960788,-2.1791467297\H,0,5.014822182,5.2799207563,-0.4140900289\H,0,3
 .8644884713,5.8754643121,-2.0940619511\H,0,3.3958572553,5.5921988263,-
 0.3028220238\H,0,1.417329041,-8.0959707542,1.5719532502\H,0,7.60082252
 67,3.3689824381,-3.0026675401\H,0,6.2813800255,4.6181373259,-2.3166040
 129\\Version=ES64L-G16RevA.03\State=1-A\HF=-1947.7479691\RMSD=8.755e-0
 9\PG=C01 [X(C33H36N4O6)]\\@


 Just remember, when you're over the hill, you begin to pick up speed.
 -- Charles Schulz
 Job cpu time:       0 days 11 hours  0 minutes 32.9 seconds.
 Elapsed time:       0 days  2 hours 45 minutes 44.1 seconds.
 File lengths (MBytes):  RWF=   2533 Int=      0 D2E=      0 Chk=     63 Scr=      1
 Normal termination of Gaussian 16 at Tue Oct  1 05:04:16 2019.
