 Entering Gaussian System, Link 0=g16
 Input=Geometria-121-.com
 Output=Geometria-121-.log
 Initial command:
 /usr/local/g16/l1.exe "/home/padawan/israel-mol/dihydrobiliverdin/spectra/emi/Gau-24469.inp" -scrdir="/home/padawan/israel-mol/dihydrobiliverdin/spectra/emi/"
 Entering Link 1 = /usr/local/g16/l1.exe PID=     24471.
  
 Copyright (c) 1988,1990,1992,1993,1995,1998,2003,2009,2016,
            Gaussian, Inc.  All Rights Reserved.
  
 This is part of the Gaussian(R) 16 program.  It is based on
 the Gaussian(R) 09 system (copyright 2009, Gaussian, Inc.),
 the Gaussian(R) 03 system (copyright 2003, Gaussian, Inc.),
 the Gaussian(R) 98 system (copyright 1998, Gaussian, Inc.),
 the Gaussian(R) 94 system (copyright 1995, Gaussian, Inc.),
 the Gaussian 92(TM) system (copyright 1992, Gaussian, Inc.),
 the Gaussian 90(TM) system (copyright 1990, Gaussian, Inc.),
 the Gaussian 88(TM) system (copyright 1988, Gaussian, Inc.),
 the Gaussian 86(TM) system (copyright 1986, Carnegie Mellon
 University), and the Gaussian 82(TM) system (copyright 1983,
 Carnegie Mellon University). Gaussian is a federally registered
 trademark of Gaussian, Inc.
  
 This software contains proprietary and confidential information,
 including trade secrets, belonging to Gaussian, Inc.
  
 This software is provided under written license and may be
 used, copied, transmitted, or stored only in accord with that
 written license.
  
 The following legend is applicable only to US Government
 contracts under FAR:
  
                    RESTRICTED RIGHTS LEGEND
  
 Use, reproduction and disclosure by the US Government is
 subject to restrictions as set forth in subparagraphs (a)
 and (c) of the Commercial Computer Software - Restricted
 Rights clause in FAR 52.227-19.
  
 Gaussian, Inc.
 340 Quinnipiac St., Bldg. 40, Wallingford CT 06492
  
  
 ---------------------------------------------------------------
 Warning -- This program may not be used in any manner that
 competes with the business of Gaussian, Inc. or will provide
 assistance to any competitor of Gaussian, Inc.  The licensee
 of this program is prohibited from giving any competitor of
 Gaussian, Inc. access to this program.  By using this program,
 the user acknowledges that Gaussian, Inc. is engaged in the
 business of creating and licensing software in the field of
 computational chemistry and represents and warrants to the
 licensee that it is not a competitor of Gaussian, Inc. and that
 it will not use this program in any manner prohibited above.
 ---------------------------------------------------------------
  

 Cite this work as:
 Gaussian 16, Revision A.03,
 M. J. Frisch, G. W. Trucks, H. B. Schlegel, G. E. Scuseria, 
 M. A. Robb, J. R. Cheeseman, G. Scalmani, V. Barone, 
 G. A. Petersson, H. Nakatsuji, X. Li, M. Caricato, A. V. Marenich, 
 J. Bloino, B. G. Janesko, R. Gomperts, B. Mennucci, H. P. Hratchian, 
 J. V. Ortiz, A. F. Izmaylov, J. L. Sonnenberg, D. Williams-Young, 
 F. Ding, F. Lipparini, F. Egidi, J. Goings, B. Peng, A. Petrone, 
 T. Henderson, D. Ranasinghe, V. G. Zakrzewski, J. Gao, N. Rega, 
 G. Zheng, W. Liang, M. Hada, M. Ehara, K. Toyota, R. Fukuda, 
 J. Hasegawa, M. Ishida, T. Nakajima, Y. Honda, O. Kitao, H. Nakai, 
 T. Vreven, K. Throssell, J. A. Montgomery, Jr., J. E. Peralta, 
 F. Ogliaro, M. J. Bearpark, J. J. Heyd, E. N. Brothers, K. N. Kudin, 
 V. N. Staroverov, T. A. Keith, R. Kobayashi, J. Normand, 
 K. Raghavachari, A. P. Rendell, J. C. Burant, S. S. Iyengar, 
 J. Tomasi, M. Cossi, J. M. Millam, M. Klene, C. Adamo, R. Cammi, 
 J. W. Ochterski, R. L. Martin, K. Morokuma, O. Farkas, 
 J. B. Foresman, and D. J. Fox, Gaussian, Inc., Wallingford CT, 2016.
 
 ******************************************
 Gaussian 16:  ES64L-G16RevA.03 25-Dec-2016
                25-Jul-2019 
 ******************************************
 %nproc=4
 Will use up to    4 processors via shared memory.
 %Mem=3GB
 --------------------------
 # td=(NStates=1) B3LYP/SVP
 --------------------------
 1/38=1,172=1/1;
 2/12=2,17=6,18=5,40=1/2;
 3/5=18,7=101,11=9,25=1,30=1,74=-5/1,2,3,8;
 4//1;
 5/5=2,38=5/2;
 8/6=1,10=1,108=1/1;
 9/41=1,42=1,70=2/14;
 6/7=2,8=2,9=2,10=2/1;
 99/5=1,9=1/99;
 --
 TD
 --
 Symbolic Z-matrix:
 Charge =  0 Multiplicity = 1
 8                    -3.32095  -1.21259  -2.86746 
 8                     2.91728   3.16938   3.29731 
 8                     3.85413   1.37932   4.32514 
 8                     7.84079  -1.33054  -0.85735 
 8                     6.8151   -2.90731  -2.10525 
 8                    -2.5247    1.83188   1.58104 
 7                    -0.23178  -2.52963   0.92927 
 7                    -2.70794  -1.12535  -0.76368 
 7                     1.15494   0.03151  -0.71463 
 7                    -0.96659   1.52401   0.00174 
 6                    -3.28813  -1.23624   0.60918 
 6                    -2.75152  -2.23847   1.61022 
 6                    -1.25255  -2.02713   1.76624 
 6                    -0.6393   -1.23629   2.71245 
 6                     0.72153  -1.14142   2.45018 
 6                     0.95781  -2.05623   1.25684 
 6                    -4.75428  -1.7645    0.16815 
 6                     1.88371  -0.42579   3.25194 
 6                    -4.75846  -2.08983  -1.14834 
 6                     2.1378   -1.99262   0.27025 
 6                     2.10871  -1.01285  -0.65582 
 6                    -3.58836  -1.43225  -1.73244 
 6                     2.9811   -0.69295  -1.80153 
 6                    -1.2742   -0.4204    3.83632 
 6                    -5.80618  -2.03728   1.24317 
 6                     2.51878   0.34948  -2.4862 
 6                     1.79418   1.03727   2.88667 
 6                     1.32008   0.81472  -1.79506 
 6                     4.21397  -1.71644  -2.01023 
 6                    -5.76609  -2.54085  -1.99688 
 6                     5.37611  -1.17316  -1.17684 
 6                     3.10564   0.95431  -3.73435 
 6                     0.48264   1.89826  -2.03396 
 6                     2.91052   1.81538   3.60351 
 6                    -0.56901   2.29202  -1.06106 
 6                    -6.84013  -3.22439  -1.71347 
 6                     6.75651  -1.92792  -1.39296 
 6                    -1.43606   3.56632  -1.16512 
 6                    -2.23047   3.42807  -0.09258 
 6                    -1.95468   2.15731   0.57864 
 6                    -1.23432   4.54895  -2.32264 
 6                    -3.43119   4.25743   0.36229 
 6                    -2.20295   5.51732  -2.6762 
 1                    -3.37192  -0.31429   1.17134 
 1                    -2.81957  -3.30077   1.31092 
 1                    -3.07533  -2.34394   2.68864 
 1                    -0.47213  -3.00781   0.0985 
 1                    -1.99963  -0.40985  -0.57158 
 1                     1.83586  -0.53685   4.28176 
 1                     2.89566  -0.50713   2.94036 
 1                     2.78437  -2.76225   0.38548 
 1                    -2.30036  -1.11623   3.9519 
 1                    -0.87551  -0.05268   4.69719 
 1                    -1.84484   0.34801   3.15154 
 1                    -5.73745  -1.65109   2.32633 
 1                    -5.72871  -3.13747   1.40016 
 1                    -6.95294  -1.76919   0.98928 
 1                     1.89109   1.1776    1.96586 
 1                     0.90971   1.54218   3.37044 
 1                     0.46016   0.7519    0.0123 
 1                     4.33734  -1.85379  -3.15269 
 1                     3.97426  -2.62831  -1.68681 
 1                    -5.63949  -2.13195  -3.07332 
 1                     5.22335  -1.46642  -0.11818 
 1                     5.64351  -0.21144  -1.17214 
 1                     4.01516   0.35896  -4.25707 
 1                     3.51472   2.0306   -3.42109 
 1                     2.2942    1.07337  -4.60261 
 1                     0.77518   2.5924   -2.96383 
 1                    -7.10634  -3.86672  -0.83237 
 1                    -7.73019  -3.39443  -2.5099 
 1                     3.79397   3.40268   3.75429 
 1                    -0.31309   4.52156  -2.76386 
 1                    -4.34075   4.19526  -0.38659 
 1                    -3.68826   3.88641   1.38487 
 1                    -3.20368   5.39727   0.47718 
 1                     8.56151  -1.99406  -0.96536 
 1                    -2.0499    6.19685  -3.49723 
 1                    -2.98181   5.60856  -1.87588 
 
 Stoichiometry    C33H36N4O6
 Framework group  C1[X(C33H36N4O6)]
 Deg. of freedom   231
 Full point group                 C1      NOp   1
 Largest Abelian subgroup         C1      NOp   1
 Largest concise Abelian subgroup C1      NOp   1
                         Standard orientation:                         
 ---------------------------------------------------------------------
 Center     Atomic      Atomic             Coordinates (Angstroms)
 Number     Number       Type             X           Y           Z
 ---------------------------------------------------------------------
      1          8           0       -3.305693   -1.614390   -2.673056
      2          8           0        2.881739    3.612530    2.851122
      3          8           0        3.845334    1.983337    4.098377
      4          8           0        7.860184   -1.319393   -0.704527
      5          8           0        6.854381   -3.058120   -1.734433
      6          8           0       -2.544095    1.990331    1.341647
      7          7           0       -0.191644   -2.387205    1.250993
      8          7           0       -2.690204   -1.247493   -0.600417
      9          7           0        1.156222   -0.041501   -0.715160
     10          7           0       -0.984655    1.502065   -0.190164
     11          6           0       -3.266334   -1.187814    0.777323
     12          6           0       -2.713989   -2.044774    1.897600
     13          6           0       -1.217837   -1.794640    2.019632
     14          6           0       -0.614005   -0.879808    2.853457
     15          6           0        0.744903   -0.801121    2.576251
     16          6           0        0.991799   -1.859266    1.510357
     17          6           0       -4.725745   -1.788589    0.413543
     18          6           0        1.898406    0.027938    3.274604
     19          6           0       -4.727737   -2.281452   -0.849818
     20          6           0        2.169022   -1.907703    0.519604
     21          6           0        2.124590   -1.056408   -0.525246
     22          6           0       -3.567983   -1.689051   -1.518217
     23          6           0        2.990379   -0.875499   -1.705818
     24          6           0       -1.258220    0.065852    3.864683
     25          6           0       -5.771804   -1.934361    1.518555
     26          6           0        2.512323    0.063249   -2.517846
     27          6           0        1.787793    1.430124    2.723577
     28          6           0        1.308473    0.597586   -1.888358
     29          6           0        4.237046   -1.900498   -1.784859
     30          6           0       -5.730483   -2.852095   -1.629326
     31          6           0        5.392979   -1.238231   -1.032863
     32          6           0        3.088444    0.509533   -3.835803
     33          6           0        0.455560    1.629635   -2.262333
     34          6           0        2.894436    2.309531    3.329809
     35          6           0       -0.599747    2.131539   -1.344750
     36          6           0       -6.794360   -3.507809   -1.256082
     37          6           0        6.783390   -1.995733   -1.154533
     38          6           0       -1.484697    3.369750   -1.609575
     39          6           0       -2.275175    3.360556   -0.525320
     40          6           0       -1.980463    2.191133    0.303553
     41          6           0       -1.298773    4.197102   -2.885129
     42          6           0       -3.486553    4.225337   -0.177192
     43          6           0       -2.281466    5.098334   -3.357439
     44          1           0       -3.361979   -0.202132    1.215876
     45          1           0       -2.767729   -3.137683    1.738394
     46          1           0       -3.034359   -2.014302    2.981759
     47          1           0       -0.426781   -2.972030    0.489877
     48          1           0       -1.991610   -0.503579   -0.504967
     49          1           0        1.853952    0.050349    4.310306
     50          1           0        2.910829   -0.079222    2.972536
     51          1           0        2.826479   -2.647092    0.731051
     52          1           0       -2.274360   -0.623104    4.072924
     53          1           0       -0.863168    0.547199    4.669355
     54          1           0       -1.840769    0.731407    3.088363
     55          1           0       -5.706547   -1.410447    2.542449
     56          1           0       -5.678700   -3.003851    1.816188
     57          1           0       -6.922656   -1.716999    1.236244
     58          1           0        1.881083    1.451507    1.792021
     59          1           0        0.897225    1.981258    3.141176
     60          1           0        0.452756    0.757309   -0.084983
     61          1           0        4.360282   -2.182737   -2.900410
     62          1           0        4.010676   -2.766070   -1.345407
     63          1           0       -5.611527   -2.584150   -2.750038
     64          1           0        5.246221   -1.394178    0.055368
     65          1           0        5.646921   -0.280426   -1.153490
     66          1           0        4.005255   -0.135974   -4.280427
     67          1           0        3.483007    1.622765   -3.665784
     68          1           0        2.273863    0.504249   -4.709262
     69          1           0        0.736714    2.201615   -3.275180
     70          1           0       -7.049998   -4.034374   -0.298391
     71          1           0       -7.683384   -3.791523   -2.020659
     72          1           0        3.755901    3.914884    3.270960
     73          1           0       -0.378033    4.125436   -3.322400
     74          1           0       -4.396492    4.054465   -0.908490
     75          1           0       -3.736581    3.986208    0.885683
     76          1           0       -3.274775    5.373459   -0.211435
     77          1           0        8.589906   -1.981435   -0.728431
     78          1           0       -2.139384    5.668010   -4.259974
     79          1           0       -3.060088    5.281691   -2.572851
 ---------------------------------------------------------------------
 Rotational constants (GHZ):           0.0907893           0.0499383           0.0480928
 Standard basis: SVP (5D, 7F)
 There are   825 symmetry adapted cartesian basis functions of A   symmetry.
 There are   782 symmetry adapted basis functions of A   symmetry.
   782 basis functions,  1327 primitive gaussians,   825 cartesian basis functions
   155 alpha electrons      155 beta electrons
       nuclear repulsion energy      5181.6452915887 Hartrees.
 NAtoms=   79 NActive=   79 NUniq=   79 SFac= 1.00D+00 NAtFMM=   60 NAOKFM=T Big=T
 Integral buffers will be    131072 words long.
 Regular integral format.
 Two-electron integral symmetry is turned on.
 One-electron integrals computed using PRISM.
 NBasis=   782 RedAO= T EigKep=  3.53D-04  NBF=   782
 NBsUse=   782 1.00D-06 EigRej= -1.00D+00 NBFU=   782
 ExpMin= 1.22D-01 ExpMax= 2.27D+03 ExpMxC= 3.41D+02 IAcc=3 IRadAn=         5 AccDes= 0.00D+00
 Harris functional with IExCor=  402 and IRadAn=       5 diagonalized for initial guess.
 HarFok:  IExCor=  402 AccDes= 0.00D+00 IRadAn=         5 IDoV= 1 UseB2=F ITyADJ=14
 ICtDFT=  3500011 ScaDFX=  1.000000  1.000000  1.000000  1.000000
 FoFCou: FMM=F IPFlag=           0 FMFlag=      100000 FMFlg1=        2001
         NFxFlg=           0 DoJE=T BraDBF=F KetDBF=T FulRan=T
         wScrn=  0.000000 ICntrl=       500 IOpCl=  0 I1Cent=   200000004 NGrid=           0
         NMat0=    1 NMatS0=      1 NMatT0=    0 NMatD0=    1 NMtDS0=    0 NMtDT0=    0
 Petite list used in FoFCou.
 Requested convergence on RMS density matrix=1.00D-08 within 128 cycles.
 Requested convergence on MAX density matrix=1.00D-06.
 Requested convergence on             energy=1.00D-06.
 No special actions if energy rises.
 Integral accuracy reduced to 1.0D-05 until final iterations.
 Initial convergence to 1.0D-05 achieved.  Increase integral accuracy.
 SCF Done:  E(RB3LYP) =  -1947.78048539     A.U. after   16 cycles
            NFock= 16  Conv=0.60D-08     -V/T= 2.0106
 DoSCS=F DFT=T ScalE2(SS,OS)=  1.000000  1.000000
 ExpMin= 1.22D-01 ExpMax= 2.27D+03 ExpMxC= 3.41D+02 IAcc=3 IRadAn=         5 AccDes= 0.00D+00
 HarFok:  IExCor=  205 AccDes= 0.00D+00 IRadAn=         5 IDoV=-2 UseB2=F ITyADJ=14
 ICtDFT= 12500011 ScaDFX=  1.000000  1.000000  1.000000  1.000000
 GSVD:  LWork=       -2193 too small for GESVD, short by        9890 words or        9890 for optimal perf.
 Range of M.O.s used for correlation:    44   782
 NBasis=   782 NAE=   155 NBE=   155 NFC=    43 NFV=     0
 NROrb=    739 NOA=   112 NOB=   112 NVA=   627 NVB=   627

 **** Warning!!: The smallest alpha delta epsilon is  0.61766247D-01

 Orbital symmetries:
       Occupied  (A) (A) (A) (A) (A) (A) (A) (A) (A) (A) (A) (A)
                 (A) (A) (A) (A) (A) (A) (A) (A) (A) (A) (A) (A)
                 (A) (A) (A) (A) (A) (A) (A) (A) (A) (A) (A) (A)
                 (A) (A) (A) (A) (A) (A) (A) (A) (A) (A) (A) (A)
                 (A) (A) (A) (A) (A) (A) (A) (A) (A) (A) (A) (A)
                 (A) (A) (A) (A) (A) (A) (A) (A) (A) (A) (A) (A)
                 (A) (A) (A) (A) (A) (A) (A) (A) (A) (A) (A) (A)
                 (A) (A) (A) (A) (A) (A) (A) (A) (A) (A) (A) (A)
                 (A) (A) (A) (A) (A) (A) (A) (A) (A) (A) (A) (A)
                 (A) (A) (A) (A) (A) (A) (A) (A) (A) (A) (A) (A)
                 (A) (A) (A) (A) (A) (A) (A) (A) (A) (A) (A) (A)
                 (A) (A) (A) (A) (A) (A) (A) (A) (A) (A) (A) (A)
                 (A) (A) (A) (A) (A) (A) (A) (A) (A) (A) (A)
       Virtual   (A) (A) (A) (A) (A) (A) (A) (A) (A) (A) (A) (A)
                 (A) (A) (A) (A) (A) (A) (A) (A) (A) (A) (A) (A)
                 (A) (A) (A) (A) (A) (A) (A) (A) (A) (A) (A) (A)
                 (A) (A) (A) (A) (A) (A) (A) (A) (A) (A) (A) (A)
                 (A) (A) (A) (A) (A) (A) (A) (A) (A) (A) (A) (A)
                 (A) (A) (A) (A) (A) (A) (A) (A) (A) (A) (A) (A)
                 (A) (A) (A) (A) (A) (A) (A) (A) (A) (A) (A) (A)
                 (A) (A) (A) (A) (A) (A) (A) (A) (A) (A) (A) (A)
                 (A) (A) (A) (A) (A) (A) (A) (A) (A) (A) (A) (A)
                 (A) (A) (A) (A) (A) (A) (A) (A) (A) (A) (A) (A)
                 (A) (A) (A) (A) (A) (A) (A) (A) (A) (A) (A) (A)
                 (A) (A) (A) (A) (A) (A) (A) (A) (A) (A) (A) (A)
                 (A) (A) (A) (A) (A) (A) (A) (A) (A) (A) (A) (A)
                 (A) (A) (A) (A) (A) (A) (A) (A) (A) (A) (A) (A)
                 (A) (A) (A) (A) (A) (A) (A) (A) (A) (A) (A) (A)
                 (A) (A) (A) (A) (A) (A) (A) (A) (A) (A) (A) (A)
                 (A) (A) (A) (A) (A) (A) (A) (A) (A) (A) (A) (A)
                 (A) (A) (A) (A) (A) (A) (A) (A) (A) (A) (A) (A)
                 (A) (A) (A) (A) (A) (A) (A) (A) (A) (A) (A) (A)
                 (A) (A) (A) (A) (A) (A) (A) (A) (A) (A) (A) (A)
                 (A) (A) (A) (A) (A) (A) (A) (A) (A) (A) (A) (A)
                 (A) (A) (A) (A) (A) (A) (A) (A) (A) (A) (A) (A)
                 (A) (A) (A) (A) (A) (A) (A) (A) (A) (A) (A) (A)
                 (A) (A) (A) (A) (A) (A) (A) (A) (A) (A) (A) (A)
                 (A) (A) (A) (A) (A) (A) (A) (A) (A) (A) (A) (A)
                 (A) (A) (A) (A) (A) (A) (A) (A) (A) (A) (A) (A)
                 (A) (A) (A) (A) (A) (A) (A) (A) (A) (A) (A) (A)
                 (A) (A) (A) (A) (A) (A) (A) (A) (A) (A) (A) (A)
                 (A) (A) (A) (A) (A) (A) (A) (A) (A) (A) (A) (A)
                 (A) (A) (A) (A) (A) (A) (A) (A) (A) (A) (A) (A)
                 (A) (A) (A) (A) (A) (A) (A) (A) (A) (A) (A) (A)
                 (A) (A) (A) (A) (A) (A) (A) (A) (A) (A) (A) (A)
                 (A) (A) (A) (A) (A) (A) (A) (A) (A) (A) (A) (A)
                 (A) (A) (A) (A) (A) (A) (A) (A) (A) (A) (A) (A)
                 (A) (A) (A) (A) (A) (A) (A) (A) (A) (A) (A) (A)
                 (A) (A) (A) (A) (A) (A) (A) (A) (A) (A) (A) (A)
                 (A) (A) (A) (A) (A) (A) (A) (A) (A) (A) (A) (A)
                 (A) (A) (A) (A) (A) (A) (A) (A) (A) (A) (A) (A)
                 (A) (A) (A) (A) (A) (A) (A) (A) (A) (A) (A) (A)
                 (A) (A) (A) (A) (A) (A) (A) (A) (A) (A) (A) (A)
                 (A) (A) (A) (A) (A) (A) (A) (A) (A) (A) (A) (A)
                 (A) (A) (A) (A) (A) (A) (A) (A) (A) (A) (A) (A)
                 (A) (A) (A) (A) (A) (A) (A) (A) (A) (A) (A) (A)
                 (A) (A) (A) (A) (A) (A) (A) (A) (A) (A) (A) (A)
                 (A) (A) (A) (A) (A) (A) (A) (A) (A) (A) (A) (A)
                 (A) (A) (A) (A) (A) (A) (A) (A) (A) (A) (A) (A)
                 (A) (A) (A) (A) (A) (A) (A) (A) (A) (A) (A) (A)
                 (A) (A) (A) (A) (A) (A) (A) (A) (A) (A) (A) (A)
                 (A) (A) (A) (A) (A) (A) (A) (A) (A) (A) (A) (A)
                 (A) (A) (A) (A) (A) (A) (A) (A) (A) (A) (A) (A)
                 (A) (A) (A) (A) (A) (A) (A) (A) (A) (A) (A) (A)
                 (A) (A) (A) (A) (A) (A) (A) (A) (A) (A) (A) (A)
                 (A) (A) (A)
     4 initial guesses have been made.
 Convergence on wavefunction:    0.001000000000000
 Iteration     1 Dimension     4 NMult     0 NNew      4
 CISAX will form     4 AO SS matrices at one time.
 Iteration     2 Dimension     6 NMult     4 NNew      2
 Iteration     3 Dimension     8 NMult     6 NNew      2
 Iteration     4 Dimension    10 NMult     8 NNew      2
 Iteration     5 Dimension    12 NMult    10 NNew      2
 ***********************************************************************
 Excited states from <AA,BB:AA,BB> singles matrix:
 ***********************************************************************
 
 Ground to excited state transition densities written to RWF  633
 Ground to excited state transition electric dipole moments (Au):
       state          X           Y           Z        Dip. S.      Osc.
         1        -0.0193     -0.0240     -0.0016      0.0010      0.0000
 Ground to excited state transition velocity dipole moments (Au):
       state          X           Y           Z        Dip. S.      Osc.
         1         0.0000     -0.0009      0.0006      0.0000      0.0000
 Ground to excited state transition magnetic dipole moments (Au):
       state          X           Y           Z
         1        -0.0153     -0.0741     -0.0775
 Ground to excited state transition velocity quadrupole moments (Au):
       state          XX          YY          ZZ          XY          XZ          YZ
         1        -0.0078      0.0098      0.0039     -0.0093      0.0044     -0.0066
 <0|del|b> * <b|rxdel|0> + <0|del|b> * <b|delr+rdel|0>
 Rotatory Strengths (R) in cgs (10**-40 erg-esu-cm/Gauss)
       state          XX          YY          ZZ    R(velocity)    E-M Angle
         1         0.1684     -0.4132      0.6027      0.1193       90.00
 1/2[<0|r|b>*<b|rxdel|0> + (<0|rxdel|b>*<b|r|0>)*]
 Rotatory Strengths (R) in cgs (10**-40 erg-esu-cm/Gauss)
       state          XX          YY          ZZ     R(length)
         1        -0.2091     -1.2571     -0.0890     -0.5184
  1/2[<0|del|b>*<b|r|0> + (<0|r|b>*<b|del|0>)*] (Au)
       state          X           Y           Z        Dip. S.   Osc.(frdel)
         1        -0.0000      0.0000     -0.0000     -0.0000     -0.0000

 Excitation energies and oscillator strengths:
 
 Excited State   1:      Singlet-A      0.9950 eV 1246.02 nm  f=0.0000  <S**2>=0.000
     155 ->156         0.70383
 This state for optimization and/or second-order correction.
 Total Energy, E(TD-HF/TD-DFT) =  -1947.74391841    
 Copying the excited state density for this state as the 1-particle RhoCI density.
 SavETr:  write IOETrn=   770 NScale= 10 NData=  16 NLR=1 NState=    1 LETran=      28.

 **********************************************************************

            Population analysis using the SCF density.

 **********************************************************************

 Orbital symmetries:
       Occupied  (A) (A) (A) (A) (A) (A) (A) (A) (A) (A) (A) (A)
                 (A) (A) (A) (A) (A) (A) (A) (A) (A) (A) (A) (A)
                 (A) (A) (A) (A) (A) (A) (A) (A) (A) (A) (A) (A)
                 (A) (A) (A) (A) (A) (A) (A) (A) (A) (A) (A) (A)
                 (A) (A) (A) (A) (A) (A) (A) (A) (A) (A) (A) (A)
                 (A) (A) (A) (A) (A) (A) (A) (A) (A) (A) (A) (A)
                 (A) (A) (A) (A) (A) (A) (A) (A) (A) (A) (A) (A)
                 (A) (A) (A) (A) (A) (A) (A) (A) (A) (A) (A) (A)
                 (A) (A) (A) (A) (A) (A) (A) (A) (A) (A) (A) (A)
                 (A) (A) (A) (A) (A) (A) (A) (A) (A) (A) (A) (A)
                 (A) (A) (A) (A) (A) (A) (A) (A) (A) (A) (A) (A)
                 (A) (A) (A) (A) (A) (A) (A) (A) (A) (A) (A) (A)
                 (A) (A) (A) (A) (A) (A) (A) (A) (A) (A) (A)
       Virtual   (A) (A) (A) (A) (A) (A) (A) (A) (A) (A) (A) (A)
                 (A) (A) (A) (A) (A) (A) (A) (A) (A) (A) (A) (A)
                 (A) (A) (A) (A) (A) (A) (A) (A) (A) (A) (A) (A)
                 (A) (A) (A) (A) (A) (A) (A) (A) (A) (A) (A) (A)
                 (A) (A) (A) (A) (A) (A) (A) (A) (A) (A) (A) (A)
                 (A) (A) (A) (A) (A) (A) (A) (A) (A) (A) (A) (A)
                 (A) (A) (A) (A) (A) (A) (A) (A) (A) (A) (A) (A)
                 (A) (A) (A) (A) (A) (A) (A) (A) (A) (A) (A) (A)
                 (A) (A) (A) (A) (A) (A) (A) (A) (A) (A) (A) (A)
                 (A) (A) (A) (A) (A) (A) (A) (A) (A) (A) (A) (A)
                 (A) (A) (A) (A) (A) (A) (A) (A) (A) (A) (A) (A)
                 (A) (A) (A) (A) (A) (A) (A) (A) (A) (A) (A) (A)
                 (A) (A) (A) (A) (A) (A) (A) (A) (A) (A) (A) (A)
                 (A) (A) (A) (A) (A) (A) (A) (A) (A) (A) (A) (A)
                 (A) (A) (A) (A) (A) (A) (A) (A) (A) (A) (A) (A)
                 (A) (A) (A) (A) (A) (A) (A) (A) (A) (A) (A) (A)
                 (A) (A) (A) (A) (A) (A) (A) (A) (A) (A) (A) (A)
                 (A) (A) (A) (A) (A) (A) (A) (A) (A) (A) (A) (A)
                 (A) (A) (A) (A) (A) (A) (A) (A) (A) (A) (A) (A)
                 (A) (A) (A) (A) (A) (A) (A) (A) (A) (A) (A) (A)
                 (A) (A) (A) (A) (A) (A) (A) (A) (A) (A) (A) (A)
                 (A) (A) (A) (A) (A) (A) (A) (A) (A) (A) (A) (A)
                 (A) (A) (A) (A) (A) (A) (A) (A) (A) (A) (A) (A)
                 (A) (A) (A) (A) (A) (A) (A) (A) (A) (A) (A) (A)
                 (A) (A) (A) (A) (A) (A) (A) (A) (A) (A) (A) (A)
                 (A) (A) (A) (A) (A) (A) (A) (A) (A) (A) (A) (A)
                 (A) (A) (A) (A) (A) (A) (A) (A) (A) (A) (A) (A)
                 (A) (A) (A) (A) (A) (A) (A) (A) (A) (A) (A) (A)
                 (A) (A) (A) (A) (A) (A) (A) (A) (A) (A) (A) (A)
                 (A) (A) (A) (A) (A) (A) (A) (A) (A) (A) (A) (A)
                 (A) (A) (A) (A) (A) (A) (A) (A) (A) (A) (A) (A)
                 (A) (A) (A) (A) (A) (A) (A) (A) (A) (A) (A) (A)
                 (A) (A) (A) (A) (A) (A) (A) (A) (A) (A) (A) (A)
                 (A) (A) (A) (A) (A) (A) (A) (A) (A) (A) (A) (A)
                 (A) (A) (A) (A) (A) (A) (A) (A) (A) (A) (A) (A)
                 (A) (A) (A) (A) (A) (A) (A) (A) (A) (A) (A) (A)
                 (A) (A) (A) (A) (A) (A) (A) (A) (A) (A) (A) (A)
                 (A) (A) (A) (A) (A) (A) (A) (A) (A) (A) (A) (A)
                 (A) (A) (A) (A) (A) (A) (A) (A) (A) (A) (A) (A)
                 (A) (A) (A) (A) (A) (A) (A) (A) (A) (A) (A) (A)
                 (A) (A) (A) (A) (A) (A) (A) (A) (A) (A) (A) (A)
                 (A) (A) (A) (A) (A) (A) (A) (A) (A) (A) (A) (A)
                 (A) (A) (A) (A) (A) (A) (A) (A) (A) (A) (A) (A)
                 (A) (A) (A) (A) (A) (A) (A) (A) (A) (A) (A) (A)
                 (A) (A) (A) (A) (A) (A) (A) (A) (A) (A) (A) (A)
                 (A) (A) (A) (A) (A) (A) (A) (A) (A) (A) (A) (A)
                 (A) (A) (A) (A) (A) (A) (A) (A) (A) (A) (A) (A)
                 (A) (A) (A) (A) (A) (A) (A) (A) (A) (A) (A) (A)
                 (A) (A) (A) (A) (A) (A) (A) (A) (A) (A) (A) (A)
                 (A) (A) (A) (A) (A) (A) (A) (A) (A) (A) (A) (A)
                 (A) (A) (A) (A) (A) (A) (A) (A) (A) (A) (A) (A)
                 (A) (A) (A) (A) (A) (A) (A) (A) (A) (A) (A) (A)
                 (A) (A) (A)
 The electronic state is 1-A.
 Alpha  occ. eigenvalues --  -19.19981 -19.18014 -19.13446 -19.12809 -19.12077
 Alpha  occ. eigenvalues --  -19.07803 -14.37227 -14.36541 -14.32698 -14.32460
 Alpha  occ. eigenvalues --  -10.33115 -10.32096 -10.27830 -10.27422 -10.26355
 Alpha  occ. eigenvalues --  -10.26302 -10.25644 -10.23955 -10.22745 -10.22702
 Alpha  occ. eigenvalues --  -10.22561 -10.22507 -10.22464 -10.22412 -10.22380
 Alpha  occ. eigenvalues --  -10.22255 -10.21890 -10.21826 -10.21492 -10.21427
 Alpha  occ. eigenvalues --  -10.20978 -10.20925 -10.20792 -10.20183 -10.19707
 Alpha  occ. eigenvalues --  -10.19230 -10.18986 -10.18546 -10.18407 -10.18291
 Alpha  occ. eigenvalues --  -10.18122 -10.17518 -10.17015  -1.10834  -1.07590
 Alpha  occ. eigenvalues --   -1.05406  -1.02608  -1.01517  -0.99070  -0.97588
 Alpha  occ. eigenvalues --   -0.96947  -0.95613  -0.91714  -0.83327  -0.81857
 Alpha  occ. eigenvalues --   -0.81366  -0.81232  -0.81014  -0.79031  -0.78924
 Alpha  occ. eigenvalues --   -0.76740  -0.76376  -0.75517  -0.74069  -0.71951
 Alpha  occ. eigenvalues --   -0.70229  -0.69957  -0.68860  -0.68400  -0.67211
 Alpha  occ. eigenvalues --   -0.66616  -0.65858  -0.63133  -0.61666  -0.60931
 Alpha  occ. eigenvalues --   -0.60769  -0.60396  -0.57522  -0.57342  -0.56617
 Alpha  occ. eigenvalues --   -0.56308  -0.56132  -0.55080  -0.54540  -0.53251
 Alpha  occ. eigenvalues --   -0.51868  -0.50999  -0.50801  -0.50083  -0.49611
 Alpha  occ. eigenvalues --   -0.49077  -0.48947  -0.48612  -0.48121  -0.48092
 Alpha  occ. eigenvalues --   -0.47545  -0.47465  -0.47075  -0.46912  -0.45781
 Alpha  occ. eigenvalues --   -0.45355  -0.45172  -0.44379  -0.44021  -0.43858
 Alpha  occ. eigenvalues --   -0.43540  -0.43181  -0.42906  -0.42674  -0.42203
 Alpha  occ. eigenvalues --   -0.41818  -0.41718  -0.41585  -0.41267  -0.41034
 Alpha  occ. eigenvalues --   -0.40688  -0.40519  -0.40286  -0.40053  -0.39843
 Alpha  occ. eigenvalues --   -0.39447  -0.39100  -0.38643  -0.38315  -0.38083
 Alpha  occ. eigenvalues --   -0.37861  -0.37221  -0.37198  -0.37062  -0.36338
 Alpha  occ. eigenvalues --   -0.35812  -0.35293  -0.34945  -0.34818  -0.34178
 Alpha  occ. eigenvalues --   -0.33771  -0.33507  -0.32394  -0.31414  -0.31324
 Alpha  occ. eigenvalues --   -0.30985  -0.30708  -0.30293  -0.29354  -0.28659
 Alpha  occ. eigenvalues --   -0.27826  -0.27481  -0.26711  -0.24956  -0.24741
 Alpha  occ. eigenvalues --   -0.24170  -0.23045  -0.22760  -0.22590  -0.18618
 Alpha virt. eigenvalues --   -0.12441  -0.07321  -0.04056  -0.03214  -0.00816
 Alpha virt. eigenvalues --   -0.00084   0.01844   0.02454   0.03206   0.03307
 Alpha virt. eigenvalues --    0.03509   0.04292   0.04880   0.05435   0.05507
 Alpha virt. eigenvalues --    0.05676   0.06222   0.06565   0.06946   0.07225
 Alpha virt. eigenvalues --    0.07318   0.07751   0.07937   0.08039   0.08650
 Alpha virt. eigenvalues --    0.09310   0.09365   0.09779   0.10200   0.10480
 Alpha virt. eigenvalues --    0.11234   0.11360   0.11488   0.11655   0.12590
 Alpha virt. eigenvalues --    0.12719   0.12748   0.13262   0.13364   0.13825
 Alpha virt. eigenvalues --    0.14434   0.14548   0.15093   0.15431   0.15488
 Alpha virt. eigenvalues --    0.15818   0.16465   0.16645   0.17003   0.17296
 Alpha virt. eigenvalues --    0.17355   0.17893   0.18562   0.18791   0.19370
 Alpha virt. eigenvalues --    0.19893   0.20148   0.21092   0.21584   0.22005
 Alpha virt. eigenvalues --    0.22053   0.22286   0.22486   0.23506   0.23847
 Alpha virt. eigenvalues --    0.24107   0.25024   0.25301   0.25949   0.26195
 Alpha virt. eigenvalues --    0.26953   0.27655   0.27816   0.28427   0.28812
 Alpha virt. eigenvalues --    0.29447   0.30055   0.30248   0.31086   0.31649
 Alpha virt. eigenvalues --    0.31747   0.32320   0.32837   0.33092   0.33495
 Alpha virt. eigenvalues --    0.33740   0.34446   0.35172   0.35519   0.36084
 Alpha virt. eigenvalues --    0.37077   0.37375   0.38197   0.38705   0.39338
 Alpha virt. eigenvalues --    0.39600   0.40164   0.40740   0.40827   0.41328
 Alpha virt. eigenvalues --    0.41878   0.42007   0.42210   0.42607   0.42862
 Alpha virt. eigenvalues --    0.43644   0.44092   0.44460   0.44680   0.44880
 Alpha virt. eigenvalues --    0.45045   0.45391   0.45787   0.46270   0.46584
 Alpha virt. eigenvalues --    0.46928   0.47414   0.47743   0.48056   0.48240
 Alpha virt. eigenvalues --    0.48729   0.49048   0.49211   0.49576   0.49879
 Alpha virt. eigenvalues --    0.50128   0.50625   0.51181   0.51796   0.52260
 Alpha virt. eigenvalues --    0.52543   0.52989   0.53398   0.53444   0.53750
 Alpha virt. eigenvalues --    0.54037   0.54274   0.54611   0.54935   0.55223
 Alpha virt. eigenvalues --    0.55595   0.55812   0.56238   0.57005   0.57315
 Alpha virt. eigenvalues --    0.57376   0.57821   0.58600   0.58789   0.59080
 Alpha virt. eigenvalues --    0.59271   0.59458   0.59985   0.60309   0.60663
 Alpha virt. eigenvalues --    0.60738   0.60921   0.61161   0.61644   0.61977
 Alpha virt. eigenvalues --    0.62192   0.62725   0.62766   0.62984   0.63501
 Alpha virt. eigenvalues --    0.63572   0.63970   0.64239   0.64535   0.64753
 Alpha virt. eigenvalues --    0.64871   0.64897   0.65244   0.65646   0.65751
 Alpha virt. eigenvalues --    0.66093   0.66197   0.66560   0.66893   0.67186
 Alpha virt. eigenvalues --    0.67269   0.67700   0.67726   0.68204   0.68412
 Alpha virt. eigenvalues --    0.68613   0.68912   0.69186   0.69395   0.69770
 Alpha virt. eigenvalues --    0.69894   0.70653   0.71021   0.71465   0.71672
 Alpha virt. eigenvalues --    0.71974   0.72204   0.72510   0.72779   0.73036
 Alpha virt. eigenvalues --    0.73468   0.74172   0.74488   0.74714   0.74970
 Alpha virt. eigenvalues --    0.75325   0.75579   0.76068   0.76519   0.77005
 Alpha virt. eigenvalues --    0.77240   0.77920   0.78767   0.78936   0.79311
 Alpha virt. eigenvalues --    0.79700   0.80372   0.80777   0.81844   0.81983
 Alpha virt. eigenvalues --    0.82481   0.82712   0.83936   0.84052   0.84754
 Alpha virt. eigenvalues --    0.85278   0.86386   0.86553   0.87488   0.87903
 Alpha virt. eigenvalues --    0.88301   0.88849   0.89271   0.89619   0.90648
 Alpha virt. eigenvalues --    0.90914   0.91226   0.91957   0.92433   0.93194
 Alpha virt. eigenvalues --    0.93781   0.94464   0.94662   0.95261   0.95559
 Alpha virt. eigenvalues --    0.96553   0.96746   0.97267   0.97446   0.98429
 Alpha virt. eigenvalues --    0.98827   0.99405   0.99729   1.00555   1.00926
 Alpha virt. eigenvalues --    1.02890   1.02976   1.04581   1.04854   1.05852
 Alpha virt. eigenvalues --    1.06090   1.07047   1.07731   1.08354   1.09220
 Alpha virt. eigenvalues --    1.10969   1.11131   1.11362   1.12189   1.12684
 Alpha virt. eigenvalues --    1.12912   1.14106   1.14511   1.14770   1.15887
 Alpha virt. eigenvalues --    1.16269   1.16996   1.17075   1.18085   1.18196
 Alpha virt. eigenvalues --    1.18896   1.19618   1.20474   1.20949   1.21562
 Alpha virt. eigenvalues --    1.22099   1.22230   1.22679   1.23235   1.24273
 Alpha virt. eigenvalues --    1.24673   1.25211   1.26346   1.26547   1.26970
 Alpha virt. eigenvalues --    1.27119   1.27721   1.28252   1.29190   1.30002
 Alpha virt. eigenvalues --    1.30222   1.30747   1.31604   1.31646   1.32801
 Alpha virt. eigenvalues --    1.33234   1.33978   1.35516   1.36107   1.36403
 Alpha virt. eigenvalues --    1.37616   1.38238   1.38853   1.39406   1.40044
 Alpha virt. eigenvalues --    1.41377   1.41837   1.43212   1.43848   1.44376
 Alpha virt. eigenvalues --    1.45184   1.45410   1.46870   1.47363   1.47796
 Alpha virt. eigenvalues --    1.48349   1.48617   1.49128   1.49790   1.50076
 Alpha virt. eigenvalues --    1.51091   1.51287   1.52186   1.52516   1.53344
 Alpha virt. eigenvalues --    1.53689   1.54050   1.54750   1.55062   1.56205
 Alpha virt. eigenvalues --    1.57135   1.58302   1.58793   1.59344   1.60273
 Alpha virt. eigenvalues --    1.60778   1.61327   1.61819   1.62408   1.62564
 Alpha virt. eigenvalues --    1.63211   1.63344   1.63638   1.64197   1.64375
 Alpha virt. eigenvalues --    1.64677   1.66073   1.66311   1.66832   1.66987
 Alpha virt. eigenvalues --    1.67307   1.67808   1.68069   1.68505   1.68755
 Alpha virt. eigenvalues --    1.69119   1.69692   1.69895   1.70062   1.70896
 Alpha virt. eigenvalues --    1.71028   1.71474   1.72070   1.72352   1.72572
 Alpha virt. eigenvalues --    1.72820   1.73172   1.74244   1.74701   1.75132
 Alpha virt. eigenvalues --    1.75561   1.76003   1.76383   1.76867   1.77281
 Alpha virt. eigenvalues --    1.77578   1.78213   1.78265   1.78416   1.78988
 Alpha virt. eigenvalues --    1.79731   1.79990   1.80530   1.80862   1.81201
 Alpha virt. eigenvalues --    1.81528   1.82560   1.82824   1.83018   1.83402
 Alpha virt. eigenvalues --    1.83838   1.84033   1.84100   1.84583   1.84920
 Alpha virt. eigenvalues --    1.85910   1.85929   1.86525   1.86720   1.87460
 Alpha virt. eigenvalues --    1.87924   1.88387   1.88728   1.89029   1.90045
 Alpha virt. eigenvalues --    1.90560   1.90918   1.90981   1.91309   1.91876
 Alpha virt. eigenvalues --    1.92503   1.93247   1.93451   1.94281   1.94929
 Alpha virt. eigenvalues --    1.95203   1.95698   1.96331   1.96587   1.97003
 Alpha virt. eigenvalues --    1.97362   1.98447   1.98909   1.99691   2.00742
 Alpha virt. eigenvalues --    2.01403   2.01445   2.01745   2.02331   2.02570
 Alpha virt. eigenvalues --    2.02747   2.04083   2.04447   2.04686   2.05418
 Alpha virt. eigenvalues --    2.05863   2.07056   2.07307   2.07690   2.07939
 Alpha virt. eigenvalues --    2.08165   2.08664   2.09496   2.10195   2.10243
 Alpha virt. eigenvalues --    2.10664   2.11076   2.11444   2.12444   2.12840
 Alpha virt. eigenvalues --    2.13500   2.13847   2.14270   2.14361   2.15294
 Alpha virt. eigenvalues --    2.16427   2.16718   2.17274   2.18063   2.18495
 Alpha virt. eigenvalues --    2.18817   2.19650   2.20635   2.21304   2.22036
 Alpha virt. eigenvalues --    2.22851   2.22923   2.23555   2.24923   2.25247
 Alpha virt. eigenvalues --    2.25540   2.26554   2.26726   2.27391   2.28296
 Alpha virt. eigenvalues --    2.29054   2.29358   2.30386   2.30995   2.31496
 Alpha virt. eigenvalues --    2.32153   2.32630   2.33229   2.33600   2.34310
 Alpha virt. eigenvalues --    2.35428   2.35978   2.36569   2.37111   2.37301
 Alpha virt. eigenvalues --    2.38255   2.38924   2.39233   2.40498   2.41099
 Alpha virt. eigenvalues --    2.42003   2.42619   2.43373   2.43790   2.44405
 Alpha virt. eigenvalues --    2.45313   2.46509   2.48028   2.48785   2.50614
 Alpha virt. eigenvalues --    2.50648   2.51789   2.52006   2.53123   2.53409
 Alpha virt. eigenvalues --    2.53769   2.55024   2.55332   2.55930   2.56353
 Alpha virt. eigenvalues --    2.57174   2.57540   2.58287   2.58876   2.59720
 Alpha virt. eigenvalues --    2.60610   2.61507   2.62340   2.62859   2.62952
 Alpha virt. eigenvalues --    2.63737   2.64645   2.65293   2.65549   2.66332
 Alpha virt. eigenvalues --    2.66959   2.67334   2.68870   2.70610   2.70662
 Alpha virt. eigenvalues --    2.71201   2.71502   2.71993   2.72881   2.73633
 Alpha virt. eigenvalues --    2.73902   2.74569   2.76499   2.77273   2.77948
 Alpha virt. eigenvalues --    2.78664   2.79008   2.80173   2.81468   2.81809
 Alpha virt. eigenvalues --    2.82298   2.82865   2.83963   2.84426   2.84847
 Alpha virt. eigenvalues --    2.85263   2.86030   2.86797   2.87853   2.88032
 Alpha virt. eigenvalues --    2.88369   2.89352   2.89675   2.90792   2.91049
 Alpha virt. eigenvalues --    2.91553   2.91712   2.92439   2.93620   2.95425
 Alpha virt. eigenvalues --    2.95876   2.96706   2.97387   2.98101   3.00240
 Alpha virt. eigenvalues --    3.01700   3.02226   3.04235   3.05181   3.06022
 Alpha virt. eigenvalues --    3.07196   3.09131   3.09784   3.10547   3.12366
 Alpha virt. eigenvalues --    3.12925   3.14548   3.15524   3.16411   3.17378
 Alpha virt. eigenvalues --    3.18433   3.18826   3.20460   3.21116   3.21632
 Alpha virt. eigenvalues --    3.23321   3.23569   3.24155   3.26973   3.30163
 Alpha virt. eigenvalues --    3.34454   3.36191   3.36742   3.37581   3.39374
 Alpha virt. eigenvalues --    3.44560   3.45756   3.48598   3.54823   3.56144
 Alpha virt. eigenvalues --    3.59819   3.61984   3.70403   3.72290   3.72757
 Alpha virt. eigenvalues --    3.72759   3.76271
          Condensed to atoms (all electrons):
 Mulliken charges:
               1
     1  O   -0.197647
     2  O   -0.225129
     3  O   -0.289209
     4  O   -0.181176
     5  O   -0.228579
     6  O   -0.186138
     7  N   -0.002674
     8  N   -0.177048
     9  N   -0.208801
    10  N   -0.261037
    11  C    0.102143
    12  C    0.196989
    13  C   -0.189816
    14  C   -0.095730
    15  C   -0.156436
    16  C   -0.050339
    17  C   -0.165774
    18  C    0.189409
    19  C   -0.027890
    20  C   -0.088137
    21  C    0.210984
    22  C    0.121194
    23  C   -0.097548
    24  C    0.085163
    25  C   -0.001700
    26  C   -0.091744
    27  C    0.085511
    28  C    0.075522
    29  C    0.194854
    30  C    0.009612
    31  C    0.050231
    32  C   -0.033051
    33  C   -0.098498
    34  C    0.134645
    35  C    0.038790
    36  C   -0.112829
    37  C    0.102309
    38  C    0.063532
    39  C   -0.217228
    40  C    0.129705
    41  C    0.005957
    42  C    0.013578
    43  C    0.007561
    44  H    0.031248
    45  H   -0.032033
    46  H    0.021842
    47  H    0.100827
    48  H    0.143466
    49  H   -0.013167
    50  H   -0.018994
    51  H   -0.025721
    52  H   -0.015963
    53  H    0.003866
    54  H    0.057871
    55  H    0.029744
    56  H    0.037464
    57  H    0.054123
    58  H   -0.052262
    59  H    0.050734
    60  H    0.287665
    61  H    0.040175
    62  H   -0.030760
    63  H    0.036445
    64  H    0.037670
    65  H   -0.002304
    66  H    0.053747
    67  H    0.054588
    68  H    0.061746
    69  H    0.029329
    70  H    0.022975
    71  H    0.030867
    72  H    0.191791
    73  H   -0.030244
    74  H    0.061555
    75  H    0.042640
    76  H    0.039243
    77  H    0.191481
    78  H    0.036336
    79  H    0.038478
 Sum of Mulliken charges =  -0.00000
 Mulliken charges with hydrogens summed into heavy atoms:
               1
     1  O   -0.197647
     2  O   -0.033338
     3  O   -0.289209
     4  O    0.010304
     5  O   -0.228579
     6  O   -0.186138
     7  N    0.098153
     8  N   -0.033582
     9  N    0.078863
    10  N   -0.261037
    11  C    0.133391
    12  C    0.186798
    13  C   -0.189816
    14  C   -0.095730
    15  C   -0.156436
    16  C   -0.050339
    17  C   -0.165774
    18  C    0.157248
    19  C   -0.027890
    20  C   -0.113858
    21  C    0.210984
    22  C    0.121194
    23  C   -0.097548
    24  C    0.130937
    25  C    0.119631
    26  C   -0.091744
    27  C    0.083983
    28  C    0.075522
    29  C    0.204269
    30  C    0.046057
    31  C    0.085596
    32  C    0.137030
    33  C   -0.069169
    34  C    0.134645
    35  C    0.038790
    36  C   -0.058987
    37  C    0.102309
    38  C    0.063532
    39  C   -0.217228
    40  C    0.129705
    41  C   -0.024288
    42  C    0.157015
    43  C    0.082375
 Electronic spatial extent (au):  <R**2>=          25913.6663
 Charge=             -0.0000 electrons
 Dipole moment (field-independent basis, Debye):
    X=              2.7496    Y=              2.2907    Z=             -1.4193  Tot=              3.8499
 Quadrupole moment (field-independent basis, Debye-Ang):
   XX=           -237.1880   YY=           -241.7116   ZZ=           -264.5577
   XY=              0.2165   XZ=            -21.0453   YZ=            -20.7062
 Traceless Quadrupole moment (field-independent basis, Debye-Ang):
   XX=             10.6311   YY=              6.1075   ZZ=            -16.7386
   XY=              0.2165   XZ=            -21.0453   YZ=            -20.7062
 Octapole moment (field-independent basis, Debye-Ang**2):
  XXX=            183.8273  YYY=             83.6435  ZZZ=            -45.0834  XYY=            -22.4132
  XXY=             -5.8816  XXZ=             37.5139  XZZ=              9.4747  YZZ=             64.3471
  YYZ=              4.2429  XYZ=             11.7713
 Hexadecapole moment (field-independent basis, Debye-Ang**3):
 XXXX=         -17113.2173 YYYY=          -7864.4232 ZZZZ=          -7229.3872 XXXY=           -124.0934
 XXXZ=           -147.4248 YYYX=             50.0469 YYYZ=            -98.8849 ZZZX=           -370.6369
 ZZZY=            -46.3488 XXYY=          -4481.3352 XXZZ=          -4753.6990 YYZZ=          -2422.6937
 XXYZ=           -329.1951 YYXZ=            233.4834 ZZXY=             -3.0589
 N-N= 5.181645291589D+03 E-N=-1.489188440197D+04  KE= 1.927268600684D+03
 1\1\GINC-PADAWAN\SP\RB3LYP TD-FC\SVP\C33H36N4O6\PADAWAN\25-Jul-2019\0\
 \# td=(NStates=1) B3LYP/SVP\\TD\\0,1\O,0,-3.3209490051,-1.2125863141,-
 2.8674574\O,0,2.917282183,3.1693785964,3.2973140023\O,0,3.8541297212,1
 .3793150598,4.3251369573\O,0,7.8407926822,-1.3305391681,-0.8573464964\
 O,0,6.815095666,-2.9073115261,-2.1052469728\O,0,-2.5247033768,1.831878
 677,1.5810381643\N,0,-0.2317789241,-2.5296292772,0.9292677676\N,0,-2.7
 079428323,-1.1253476698,-0.7636785125\N,0,1.1549370431,0.0315140611,-0
 .7146263998\N,0,-0.9665858041,1.5240078087,0.001739276\C,0,-3.28813396
 31,-1.2362411865,0.6091778917\C,0,-2.7515237785,-2.238467993,1.6102163
 284\C,0,-1.2525508968,-2.0271305271,1.7662446131\C,0,-0.6393037327,-1.
 2362948212,2.7124492654\C,0,0.7215332659,-1.1414191429,2.4501762122\C,
 0,0.957808467,-2.0562320579,1.256840488\C,0,-4.7542803746,-1.764502098
 9,0.1681537027\C,0,1.8837129627,-0.4257929089,3.2519373482\C,0,-4.7584
 622076,-2.0898276912,-1.148335174\C,0,2.1378017366,-1.9926174539,0.270
 2493036\C,0,2.1087068926,-1.0128531975,-0.6558194834\C,0,-3.5883635063
 ,-1.4322451898,-1.7324405275\C,0,2.9810991731,-0.6929500433,-1.8015340
 523\C,0,-1.2741959918,-0.4203958966,3.8363191402\C,0,-5.8061758417,-2.
 0372802083,1.2431653221\C,0,2.5187815351,0.3494823164,-2.4862032303\C,
 0,1.7941788503,1.0372694189,2.8866653081\C,0,1.320075374,0.8147181204,
 -1.7950556116\C,0,4.2139667458,-1.7164410732,-2.0102306532\C,0,-5.7660
 909452,-2.540846175,-1.9968831365\C,0,5.3761131623,-1.1731590611,-1.17
 6841101\C,0,3.1056406595,0.954313834,-3.7343499442\C,0,0.4826406882,1.
 8982649734,-2.0339551406\C,0,2.9105196923,1.8153811236,3.6035056958\C,
 0,-0.5690107327,2.2920238346,-1.061061394\C,0,-6.8401279393,-3.2243862
 027,-1.7134699057\C,0,6.7565052201,-1.9279210472,-1.392959986\C,0,-1.4
 36062261,3.5663188651,-1.1651245872\C,0,-2.2304671361,3.4280732863,-0.
 0925771639\C,0,-1.9546777402,2.1573066642,0.5786367957\C,0,-1.23432341
 07,4.5489511553,-2.3226440324\C,0,-3.4311937559,4.2574262255,0.3622904
 687\C,0,-2.2029541866,5.5173171499,-2.6762013529\H,0,-3.3719156848,-0.
 3142869186,1.1713413387\H,0,-2.8195735838,-3.3007652015,1.3109214412\H
 ,0,-3.0753273525,-2.3439378382,2.6886382525\H,0,-0.4721325181,-3.00780
 95461,0.0984968597\H,0,-1.9996283525,-0.4098472882,-0.5715812605\H,0,1
 .8358615476,-0.5368451383,4.2817602751\H,0,2.8956568986,-0.5071326046,
 2.9403589653\H,0,2.7843672506,-2.7622478077,0.3854816014\H,0,-2.300362
 6656,-1.1162308971,3.951902252\H,0,-0.8755073187,-0.0526794715,4.69718
 60751\H,0,-1.8448437982,0.3480072474,3.1515439197\H,0,-5.7374545327,-1
 .6510932405,2.3263269257\H,0,-5.7287116319,-3.1374678514,1.4001628626\
 H,0,-6.9529426711,-1.7691925627,0.9892752892\H,0,1.8910852479,1.177597
 7017,1.9658641977\H,0,0.9097109226,1.5421764619,3.3704350172\H,0,0.460
 164274,0.7518995598,0.0122991976\H,0,4.3373394531,-1.8537884378,-3.152
 690871\H,0,3.9742582556,-2.6283146107,-1.6868057886\H,0,-5.639486087,-
 2.13195412,-3.0733207959\H,0,5.2233502563,-1.4664171216,-0.1181785942\
 H,0,5.6435057919,-0.2114381399,-1.1721416967\H,0,4.0151614276,0.358962
 3883,-4.2570739369\H,0,3.5147172233,2.0306041391,-3.4210944448\H,0,2.2
 941952088,1.0733718351,-4.6026134133\H,0,0.7751814281,2.5924007366,-2.
 9638272747\H,0,-7.1063397201,-3.8667188558,-0.8323722584\H,0,-7.730191
 284,-3.3944307736,-2.5099040439\H,0,3.7939731248,3.402679629,3.7542886
 831\H,0,-0.3130851873,4.5215634358,-2.7638642818\H,0,-4.3407526649,4.1
 952561074,-0.3865898105\H,0,-3.6882575755,3.8864134349,1.3848692983\H,
 0,-3.2036786841,5.3972700181,0.4771834882\H,0,8.5615118447,-1.99406256
 05,-0.9653571707\H,0,-2.0498979144,6.1968501421,-3.4972345757\H,0,-2.9
 81810534,5.608562232,-1.8758834958\\Version=ES64L-G16RevA.03\State=1-A
 \HF=-1947.7804854\RMSD=5.986e-09\PG=C01 [X(C33H36N4O6)]\\@


 I DO NOT DEFINE TIME, SPACE, PLACE, AND MOTION, AS BEING WELL KNOWN TO ALL.
                                            -- NEWTON (1642-1726), PRINCIPIA
 Job cpu time:       0 days  3 hours 44 minutes 21.3 seconds.
 Elapsed time:       0 days  0 hours 56 minutes 10.0 seconds.
 File lengths (MBytes):  RWF=   2533 Int=      0 D2E=      0 Chk=     63 Scr=      1
 Normal termination of Gaussian 16 at Thu Jul 25 19:01:43 2019.
