 Entering Gaussian System, Link 0=g16
 Input=Geometria-268-.com
 Output=Geometria-268-.log
 Initial command:
 /usr/local/g16/l1.exe "/home/padawan/israel-mol/dihydrobiliverdin/spectra/emi/Gau-25539.inp" -scrdir="/home/padawan/israel-mol/dihydrobiliverdin/spectra/emi/"
 Entering Link 1 = /usr/local/g16/l1.exe PID=     25541.
  
 Copyright (c) 1988,1990,1992,1993,1995,1998,2003,2009,2016,
            Gaussian, Inc.  All Rights Reserved.
  
 This is part of the Gaussian(R) 16 program.  It is based on
 the Gaussian(R) 09 system (copyright 2009, Gaussian, Inc.),
 the Gaussian(R) 03 system (copyright 2003, Gaussian, Inc.),
 the Gaussian(R) 98 system (copyright 1998, Gaussian, Inc.),
 the Gaussian(R) 94 system (copyright 1995, Gaussian, Inc.),
 the Gaussian 92(TM) system (copyright 1992, Gaussian, Inc.),
 the Gaussian 90(TM) system (copyright 1990, Gaussian, Inc.),
 the Gaussian 88(TM) system (copyright 1988, Gaussian, Inc.),
 the Gaussian 86(TM) system (copyright 1986, Carnegie Mellon
 University), and the Gaussian 82(TM) system (copyright 1983,
 Carnegie Mellon University). Gaussian is a federally registered
 trademark of Gaussian, Inc.
  
 This software contains proprietary and confidential information,
 including trade secrets, belonging to Gaussian, Inc.
  
 This software is provided under written license and may be
 used, copied, transmitted, or stored only in accord with that
 written license.
  
 The following legend is applicable only to US Government
 contracts under FAR:
  
                    RESTRICTED RIGHTS LEGEND
  
 Use, reproduction and disclosure by the US Government is
 subject to restrictions as set forth in subparagraphs (a)
 and (c) of the Commercial Computer Software - Restricted
 Rights clause in FAR 52.227-19.
  
 Gaussian, Inc.
 340 Quinnipiac St., Bldg. 40, Wallingford CT 06492
  
  
 ---------------------------------------------------------------
 Warning -- This program may not be used in any manner that
 competes with the business of Gaussian, Inc. or will provide
 assistance to any competitor of Gaussian, Inc.  The licensee
 of this program is prohibited from giving any competitor of
 Gaussian, Inc. access to this program.  By using this program,
 the user acknowledges that Gaussian, Inc. is engaged in the
 business of creating and licensing software in the field of
 computational chemistry and represents and warrants to the
 licensee that it is not a competitor of Gaussian, Inc. and that
 it will not use this program in any manner prohibited above.
 ---------------------------------------------------------------
  

 Cite this work as:
 Gaussian 16, Revision A.03,
 M. J. Frisch, G. W. Trucks, H. B. Schlegel, G. E. Scuseria, 
 M. A. Robb, J. R. Cheeseman, G. Scalmani, V. Barone, 
 G. A. Petersson, H. Nakatsuji, X. Li, M. Caricato, A. V. Marenich, 
 J. Bloino, B. G. Janesko, R. Gomperts, B. Mennucci, H. P. Hratchian, 
 J. V. Ortiz, A. F. Izmaylov, J. L. Sonnenberg, D. Williams-Young, 
 F. Ding, F. Lipparini, F. Egidi, J. Goings, B. Peng, A. Petrone, 
 T. Henderson, D. Ranasinghe, V. G. Zakrzewski, J. Gao, N. Rega, 
 G. Zheng, W. Liang, M. Hada, M. Ehara, K. Toyota, R. Fukuda, 
 J. Hasegawa, M. Ishida, T. Nakajima, Y. Honda, O. Kitao, H. Nakai, 
 T. Vreven, K. Throssell, J. A. Montgomery, Jr., J. E. Peralta, 
 F. Ogliaro, M. J. Bearpark, J. J. Heyd, E. N. Brothers, K. N. Kudin, 
 V. N. Staroverov, T. A. Keith, R. Kobayashi, J. Normand, 
 K. Raghavachari, A. P. Rendell, J. C. Burant, S. S. Iyengar, 
 J. Tomasi, M. Cossi, J. M. Millam, M. Klene, C. Adamo, R. Cammi, 
 J. W. Ochterski, R. L. Martin, K. Morokuma, O. Farkas, 
 J. B. Foresman, and D. J. Fox, Gaussian, Inc., Wallingford CT, 2016.
 
 ******************************************
 Gaussian 16:  ES64L-G16RevA.03 25-Dec-2016
                28-Sep-2019 
 ******************************************
 %nproc=4
 Will use up to    4 processors via shared memory.
 %Mem=4GB
 --------------------------
 # td=(NStates=1) B3LYP/SVP
 --------------------------
 1/38=1,172=1/1;
 2/12=2,17=6,18=5,40=1/2;
 3/5=18,7=101,11=9,25=1,30=1,74=-5/1,2,3,8;
 4//1;
 5/5=2,38=5/2;
 8/6=1,10=1,108=1/1;
 9/41=1,42=1,70=2/14;
 6/7=2,8=2,9=2,10=2/1;
 99/5=1,9=1/99;
 --
 TD
 --
 Symbolic Z-matrix:
 Charge =  0 Multiplicity = 1
 8                    -5.35332   0.04575  -3.22408 
 8                     3.02741   3.04217   3.16773 
 8                     3.433     0.87459   2.80623 
 8                     1.74806  -7.27255   1.36184 
 8                     0.46048  -7.06001  -0.5487 
 8                     1.66621   3.9492    0.0182 
 7                    -2.27391  -0.77963   0.61535 
 7                    -4.30389   0.57668  -1.26934 
 7                     1.84711  -0.67184  -0.23247 
 7                     2.5067    1.84611  -0.49635 
 6                    -4.7421    1.23514  -0.01008 
 6                    -4.39008   0.32652   1.1298 
 6                    -2.86641   0.10411   1.41109 
 6                    -1.89636   0.64272   2.23232 
 6                    -0.66253   0.02218   1.90121 
 6                    -0.97874  -0.99656   0.96051 
 6                    -6.30378   1.25641  -0.22203 
 6                     0.6737    0.24151   2.52878 
 6                    -6.66701   0.71487  -1.33923 
 6                    -0.17503  -1.9783    0.25422 
 6                     1.07359  -1.8622   -0.28832 
 6                    -5.44143   0.34077  -2.13243 
 6                     1.95795  -2.9665   -0.96123 
 6                    -2.07039   1.82366   3.19588 
 6                    -7.18636   1.79994   0.89557 
 6                     3.07127  -2.28463  -1.36126 
 6                     1.22015   1.65782   2.53023 
 6                     2.96869  -0.8574   -1.05358 
 6                     1.54312  -4.41496  -1.01353 
 6                    -7.95632   0.63033  -2.0295 
 6                     1.59276  -5.0503    0.3424 
 6                     4.20752  -2.96354  -2.01882 
 6                     3.91248   0.14316  -1.43381 
 6                     2.65547   1.83469   2.91159 
 6                     3.57465   1.45391  -1.07646 
 6                    -9.17969   0.7312   -1.47671 
 6                     1.08528  -6.52969   0.2838 
 6                     4.68318   2.5477   -1.33697 
 6                     3.89702   3.80797  -0.98805 
 6                     2.60983   3.30094  -0.34597 
 6                     5.88943   2.43985  -1.97561 
 6                     4.39607   5.19621  -0.99526 
 6                     6.75903   3.4363   -2.43064 
 1                    -4.37305   2.29669   0.41393 
 1                    -4.91006  -0.72829   1.02082 
 1                    -4.85632   0.65233   2.10702 
 1                    -2.81244  -1.48254   0.05206 
 1                    -3.37144   0.8973   -1.67925 
 1                     0.65071   0.28547   3.65704 
 1                     1.36929  -0.47605   2.15266 
 1                    -0.74675  -3.06848   0.16614 
 1                    -3.3078    1.78842   3.43439 
 1                    -1.42135   1.56143   4.16126 
 1                    -1.65614   2.75967   2.87569 
 1                    -6.74565   2.64427   1.36913 
 1                    -7.51773   1.01921   1.6521 
 1                    -8.15892   2.3433    0.58264 
 1                     0.97144   2.14835   1.49312 
 1                     0.76429   2.60353   3.14371 
 1                     1.41743   0.28045   0.00496 
 1                     2.24969  -4.73735  -1.67038 
 1                     0.54724  -4.65497  -1.3578 
 1                    -7.88904   0.75835  -3.05609 
 1                     1.06898  -4.60367   1.12923 
 1                     2.52438  -5.06171   0.71658 
 1                     4.12859  -4.20275  -1.97965 
 1                     5.18658  -2.7932   -1.55342 
 1                     4.3239   -2.36716  -3.21233 
 1                     4.91151  -0.29724  -1.86631 
 1                    -9.56037   0.73999  -0.40117 
 1                    -10.12217   0.73322  -2.15999 
 1                     4.11312   3.05613   3.24603 
 1                     6.06742   1.32728  -2.17434 
 1                     5.32727   5.36321  -0.33871 
 1                     4.84721   5.48056  -2.13641 
 1                     3.6105    6.17247  -0.93892 
 1                     1.28179  -8.16975   1.49397 
 1                     7.60925   3.25111  -3.11851 
 1                     6.73158   4.45214  -2.31626 
 
 Stoichiometry    C33H36N4O6
 Framework group  C1[X(C33H36N4O6)]
 Deg. of freedom   231
 Full point group                 C1      NOp   1
 Largest Abelian subgroup         C1      NOp   1
 Largest concise Abelian subgroup C1      NOp   1
                         Standard orientation:                         
 ---------------------------------------------------------------------
 Center     Atomic      Atomic             Coordinates (Angstroms)
 Number     Number       Type             X           Y           Z
 ---------------------------------------------------------------------
      1          8           0        5.363093   -0.110122   -3.207938
      2          8           0       -3.122148   -3.037488    3.077105
      3          8           0       -3.466635   -0.851002    2.770202
      4          8           0       -1.552929    7.281001    1.541576
      5          8           0       -0.264064    7.082140   -0.369579
      6          8           0       -1.773821   -3.900596   -0.090255
      7          7           0        2.292221    0.701030    0.641354
      8          7           0        4.291695   -0.661894   -1.270959
      9          7           0       -1.826786    0.728578   -0.222466
     10          7           0       -2.554195   -1.762651   -0.553240
     11          6           0        4.706647   -1.364253   -0.027639
     12          6           0        4.375159   -0.475820    1.134092
     13          6           0        2.857066   -0.218809    1.416021
     14          6           0        1.869327   -0.751376    2.219920
     15          6           0        0.654331   -0.088795    1.900857
     16          6           0        1.002134    0.944637    0.987736
     17          6           0        6.267989   -1.423098   -0.234947
     18          6           0       -0.689906   -0.287265    2.518189
     19          6           0        6.650392   -0.863293   -1.336640
     20          6           0        0.228501    1.965928    0.304324
     21          6           0       -1.020672    1.898217   -0.245114
     22          6           0        5.438723   -0.435358   -2.123961
     23          6           0       -1.871690    3.043354   -0.892269
     24          6           0        2.007034   -1.960983    3.153330
     25          6           0        7.130848   -2.019210    0.871177
     26          6           0       -3.001709    2.402894   -1.313363
     27          6           0       -1.275035   -1.687555    2.481379
     28          6           0       -2.939577    0.965965   -1.042197
     29          6           0       -1.417045    4.480702   -0.905900
     30          6           0        7.944282   -0.796630   -2.020276
     31          6           0       -1.454627    5.082184    0.465771
     32          6           0       -4.116257    3.129492   -1.956951
     33          6           0       -3.908954    0.001854   -1.451152
     34          6           0       -2.716176   -1.834540    2.853352
     35          6           0       -3.608661   -1.326434   -1.126566
     36          6           0        9.162211   -0.945294   -1.466259
     37          6           0       -0.906503    6.548054    0.446939
     38          6           0       -4.745749   -2.382234   -1.418780
     39          6           0       -3.995881   -3.672215   -1.099845
     40          6           0       -2.697829   -3.217463   -0.440711
     41          6           0       -5.946034   -2.224852   -2.058381
     42          6           0       -4.532817   -5.045543   -1.144431
     43          6           0       -6.840834   -3.184974   -2.541761
     44          1           0        4.306908   -2.425765    0.367688
     45          1           0        4.924330    0.566721    1.054006
     46          1           0        4.828387   -0.839300    2.104120
     47          1           0        2.852088    1.403053    0.098115
     48          1           0        3.352438   -0.946096   -1.692042
     49          1           0       -0.672631   -0.360755    3.645006
     50          1           0       -1.364036    0.458601    2.158388
     51          1           0        0.830280    3.041853    0.246219
     52          1           0        3.243983   -1.965972    3.396723
     53          1           0        1.361596   -1.705816    4.123009
     54          1           0        1.568523   -2.876709    2.807793
     55          1           0        6.665243   -2.862952    1.321391
     56          1           0        7.480513   -1.267567    1.648638
     57          1           0        8.089369   -2.580952    0.547545
     58          1           0       -1.035755   -2.157984    1.432805
     59          1           0       -0.847758   -2.660878    3.071803
     60          1           0       -1.424361   -0.240960   -0.008228
     61          1           0       -2.111880    4.839172   -1.556543
     62          1           0       -0.413586    4.701937   -1.240611
     63          1           0        7.877604   -0.896370   -3.050037
     64          1           0       -0.946448    4.601270    1.242555
     65          1           0       -2.387068    5.109660    0.837064
     66          1           0       -4.003496    4.364638   -1.885632
     67          1           0       -5.101474    2.974299   -1.499301
     68          1           0       -4.244215    2.567342   -3.165794
     69          1           0       -4.893784    0.480559   -1.875448
     70          1           0        9.538213   -0.992153   -0.390061
     71          1           0       10.106993   -0.955760   -2.146271
     72          1           0       -4.208129   -3.023538    3.151456
     73          1           0       -6.092619   -1.103077   -2.228981
     74          1           0       -5.470868   -5.203606   -0.495456
     75          1           0       -4.987043   -5.287999   -2.293991
     76          1           0       -3.774578   -6.044187   -1.110663
     77          1           0       -1.062728    8.161328    1.698280
     78          1           0       -7.682909   -2.958855   -3.227420
     79          1           0       -6.841737   -4.203785   -2.453489
 ---------------------------------------------------------------------
 Rotational constants (GHZ):           0.0744761           0.0454798           0.0347848
 Standard basis: SVP (5D, 7F)
 There are   825 symmetry adapted cartesian basis functions of A   symmetry.
 There are   782 symmetry adapted basis functions of A   symmetry.
   782 basis functions,  1327 primitive gaussians,   825 cartesian basis functions
   155 alpha electrons      155 beta electrons
       nuclear repulsion energy      4933.6536619309 Hartrees.
 NAtoms=   79 NActive=   79 NUniq=   79 SFac= 1.00D+00 NAtFMM=   60 NAOKFM=T Big=T
 Integral buffers will be    131072 words long.
 Regular integral format.
 Two-electron integral symmetry is turned on.
 One-electron integrals computed using PRISM.
 NBasis=   782 RedAO= T EigKep=  3.41D-04  NBF=   782
 NBsUse=   782 1.00D-06 EigRej= -1.00D+00 NBFU=   782
 ExpMin= 1.22D-01 ExpMax= 2.27D+03 ExpMxC= 3.41D+02 IAcc=3 IRadAn=         5 AccDes= 0.00D+00
 Harris functional with IExCor=  402 and IRadAn=       5 diagonalized for initial guess.
 HarFok:  IExCor=  402 AccDes= 0.00D+00 IRadAn=         5 IDoV= 1 UseB2=F ITyADJ=14
 ICtDFT=  3500011 ScaDFX=  1.000000  1.000000  1.000000  1.000000
 FoFCou: FMM=F IPFlag=           0 FMFlag=      100000 FMFlg1=        2001
         NFxFlg=           0 DoJE=T BraDBF=F KetDBF=T FulRan=T
         wScrn=  0.000000 ICntrl=       500 IOpCl=  0 I1Cent=   200000004 NGrid=           0
         NMat0=    1 NMatS0=      1 NMatT0=    0 NMatD0=    1 NMtDS0=    0 NMtDT0=    0
 Petite list used in FoFCou.
 Requested convergence on RMS density matrix=1.00D-08 within 128 cycles.
 Requested convergence on MAX density matrix=1.00D-06.
 Requested convergence on             energy=1.00D-06.
 No special actions if energy rises.
 Integral accuracy reduced to 1.0D-05 until final iterations.
 Initial convergence to 1.0D-05 achieved.  Increase integral accuracy.
 SCF Done:  E(RB3LYP) =  -1947.79418450     A.U. after   16 cycles
            NFock= 16  Conv=0.83D-08     -V/T= 2.0111
 DoSCS=F DFT=T ScalE2(SS,OS)=  1.000000  1.000000
 ExpMin= 1.22D-01 ExpMax= 2.27D+03 ExpMxC= 3.41D+02 IAcc=3 IRadAn=         5 AccDes= 0.00D+00
 HarFok:  IExCor=  205 AccDes= 0.00D+00 IRadAn=         5 IDoV=-2 UseB2=F ITyADJ=14
 ICtDFT= 12500011 ScaDFX=  1.000000  1.000000  1.000000  1.000000
 GSVD:  LWork=       -2193 too small for GESVD, short by        9890 words or        9890 for optimal perf.
 Range of M.O.s used for correlation:    44   782
 NBasis=   782 NAE=   155 NBE=   155 NFC=    43 NFV=     0
 NROrb=    739 NOA=   112 NOB=   112 NVA=   627 NVB=   627

 **** Warning!!: The smallest alpha delta epsilon is  0.83340812D-01

 Orbital symmetries:
       Occupied  (A) (A) (A) (A) (A) (A) (A) (A) (A) (A) (A) (A)
                 (A) (A) (A) (A) (A) (A) (A) (A) (A) (A) (A) (A)
                 (A) (A) (A) (A) (A) (A) (A) (A) (A) (A) (A) (A)
                 (A) (A) (A) (A) (A) (A) (A) (A) (A) (A) (A) (A)
                 (A) (A) (A) (A) (A) (A) (A) (A) (A) (A) (A) (A)
                 (A) (A) (A) (A) (A) (A) (A) (A) (A) (A) (A) (A)
                 (A) (A) (A) (A) (A) (A) (A) (A) (A) (A) (A) (A)
                 (A) (A) (A) (A) (A) (A) (A) (A) (A) (A) (A) (A)
                 (A) (A) (A) (A) (A) (A) (A) (A) (A) (A) (A) (A)
                 (A) (A) (A) (A) (A) (A) (A) (A) (A) (A) (A) (A)
                 (A) (A) (A) (A) (A) (A) (A) (A) (A) (A) (A) (A)
                 (A) (A) (A) (A) (A) (A) (A) (A) (A) (A) (A) (A)
                 (A) (A) (A) (A) (A) (A) (A) (A) (A) (A) (A)
       Virtual   (A) (A) (A) (A) (A) (A) (A) (A) (A) (A) (A) (A)
                 (A) (A) (A) (A) (A) (A) (A) (A) (A) (A) (A) (A)
                 (A) (A) (A) (A) (A) (A) (A) (A) (A) (A) (A) (A)
                 (A) (A) (A) (A) (A) (A) (A) (A) (A) (A) (A) (A)
                 (A) (A) (A) (A) (A) (A) (A) (A) (A) (A) (A) (A)
                 (A) (A) (A) (A) (A) (A) (A) (A) (A) (A) (A) (A)
                 (A) (A) (A) (A) (A) (A) (A) (A) (A) (A) (A) (A)
                 (A) (A) (A) (A) (A) (A) (A) (A) (A) (A) (A) (A)
                 (A) (A) (A) (A) (A) (A) (A) (A) (A) (A) (A) (A)
                 (A) (A) (A) (A) (A) (A) (A) (A) (A) (A) (A) (A)
                 (A) (A) (A) (A) (A) (A) (A) (A) (A) (A) (A) (A)
                 (A) (A) (A) (A) (A) (A) (A) (A) (A) (A) (A) (A)
                 (A) (A) (A) (A) (A) (A) (A) (A) (A) (A) (A) (A)
                 (A) (A) (A) (A) (A) (A) (A) (A) (A) (A) (A) (A)
                 (A) (A) (A) (A) (A) (A) (A) (A) (A) (A) (A) (A)
                 (A) (A) (A) (A) (A) (A) (A) (A) (A) (A) (A) (A)
                 (A) (A) (A) (A) (A) (A) (A) (A) (A) (A) (A) (A)
                 (A) (A) (A) (A) (A) (A) (A) (A) (A) (A) (A) (A)
                 (A) (A) (A) (A) (A) (A) (A) (A) (A) (A) (A) (A)
                 (A) (A) (A) (A) (A) (A) (A) (A) (A) (A) (A) (A)
                 (A) (A) (A) (A) (A) (A) (A) (A) (A) (A) (A) (A)
                 (A) (A) (A) (A) (A) (A) (A) (A) (A) (A) (A) (A)
                 (A) (A) (A) (A) (A) (A) (A) (A) (A) (A) (A) (A)
                 (A) (A) (A) (A) (A) (A) (A) (A) (A) (A) (A) (A)
                 (A) (A) (A) (A) (A) (A) (A) (A) (A) (A) (A) (A)
                 (A) (A) (A) (A) (A) (A) (A) (A) (A) (A) (A) (A)
                 (A) (A) (A) (A) (A) (A) (A) (A) (A) (A) (A) (A)
                 (A) (A) (A) (A) (A) (A) (A) (A) (A) (A) (A) (A)
                 (A) (A) (A) (A) (A) (A) (A) (A) (A) (A) (A) (A)
                 (A) (A) (A) (A) (A) (A) (A) (A) (A) (A) (A) (A)
                 (A) (A) (A) (A) (A) (A) (A) (A) (A) (A) (A) (A)
                 (A) (A) (A) (A) (A) (A) (A) (A) (A) (A) (A) (A)
                 (A) (A) (A) (A) (A) (A) (A) (A) (A) (A) (A) (A)
                 (A) (A) (A) (A) (A) (A) (A) (A) (A) (A) (A) (A)
                 (A) (A) (A) (A) (A) (A) (A) (A) (A) (A) (A) (A)
                 (A) (A) (A) (A) (A) (A) (A) (A) (A) (A) (A) (A)
                 (A) (A) (A) (A) (A) (A) (A) (A) (A) (A) (A) (A)
                 (A) (A) (A) (A) (A) (A) (A) (A) (A) (A) (A) (A)
                 (A) (A) (A) (A) (A) (A) (A) (A) (A) (A) (A) (A)
                 (A) (A) (A) (A) (A) (A) (A) (A) (A) (A) (A) (A)
                 (A) (A) (A) (A) (A) (A) (A) (A) (A) (A) (A) (A)
                 (A) (A) (A) (A) (A) (A) (A) (A) (A) (A) (A) (A)
                 (A) (A) (A) (A) (A) (A) (A) (A) (A) (A) (A) (A)
                 (A) (A) (A) (A) (A) (A) (A) (A) (A) (A) (A) (A)
                 (A) (A) (A) (A) (A) (A) (A) (A) (A) (A) (A) (A)
                 (A) (A) (A) (A) (A) (A) (A) (A) (A) (A) (A) (A)
                 (A) (A) (A) (A) (A) (A) (A) (A) (A) (A) (A) (A)
                 (A) (A) (A) (A) (A) (A) (A) (A) (A) (A) (A) (A)
                 (A) (A) (A) (A) (A) (A) (A) (A) (A) (A) (A) (A)
                 (A) (A) (A) (A) (A) (A) (A) (A) (A) (A) (A) (A)
                 (A) (A) (A) (A) (A) (A) (A) (A) (A) (A) (A) (A)
                 (A) (A) (A) (A) (A) (A) (A) (A) (A) (A) (A) (A)
                 (A) (A) (A)
     4 initial guesses have been made.
 Convergence on wavefunction:    0.001000000000000
 Iteration     1 Dimension     4 NMult     0 NNew      4
 CISAX will form     4 AO SS matrices at one time.
 Iteration     2 Dimension     6 NMult     4 NNew      2
 Iteration     3 Dimension     8 NMult     6 NNew      2
 Iteration     4 Dimension    10 NMult     8 NNew      2
 Iteration     5 Dimension    12 NMult    10 NNew      2
 Iteration     6 Dimension    14 NMult    12 NNew      2
 Iteration     7 Dimension    16 NMult    14 NNew      2
 Iteration     8 Dimension    18 NMult    16 NNew      2
 ***********************************************************************
 Excited states from <AA,BB:AA,BB> singles matrix:
 ***********************************************************************
 
 Ground to excited state transition densities written to RWF  633
 Ground to excited state transition electric dipole moments (Au):
       state          X           Y           Z        Dip. S.      Osc.
         1        -1.9716     -1.0683     -0.8008      5.6697      0.2716
 Ground to excited state transition velocity dipole moments (Au):
       state          X           Y           Z        Dip. S.      Osc.
         1         0.1353      0.0693      0.0544      0.0261      0.2418
 Ground to excited state transition magnetic dipole moments (Au):
       state          X           Y           Z
         1         0.6403     -0.0532     -1.1267
 Ground to excited state transition velocity quadrupole moments (Au):
       state          XX          YY          ZZ          XY          XZ          YZ
         1        -0.5461     -0.3268      0.0616     -0.6308     -0.3115     -0.2196
 <0|del|b> * <b|rxdel|0> + <0|del|b> * <b|delr+rdel|0>
 Rotatory Strengths (R) in cgs (10**-40 erg-esu-cm/Gauss)
       state          XX          YY          ZZ    R(velocity)    E-M Angle
         1      -382.6555    147.2249    448.1009     70.8901       84.08
 1/2[<0|r|b>*<b|rxdel|0> + (<0|rxdel|b>*<b|r|0>)*]
 Rotatory Strengths (R) in cgs (10**-40 erg-esu-cm/Gauss)
       state          XX          YY          ZZ     R(length)
         1       892.7664    -40.1539   -638.0710     71.5138
  1/2[<0|del|b>*<b|r|0> + (<0|r|b>*<b|del|0>)*] (Au)
       state          X           Y           Z        Dip. S.   Osc.(frdel)
         1        -0.2667     -0.0740     -0.0436      0.3843      0.2562

 Excitation energies and oscillator strengths:
 
 Excited State   1:      Singlet-A      1.9556 eV  634.00 nm  f=0.2716  <S**2>=0.000
     155 ->156         0.69665
 This state for optimization and/or second-order correction.
 Total Energy, E(TD-HF/TD-DFT) =  -1947.72231754    
 Copying the excited state density for this state as the 1-particle RhoCI density.
 SavETr:  write IOETrn=   770 NScale= 10 NData=  16 NLR=1 NState=    1 LETran=      28.

 **********************************************************************

            Population analysis using the SCF density.

 **********************************************************************

 Orbital symmetries:
       Occupied  (A) (A) (A) (A) (A) (A) (A) (A) (A) (A) (A) (A)
                 (A) (A) (A) (A) (A) (A) (A) (A) (A) (A) (A) (A)
                 (A) (A) (A) (A) (A) (A) (A) (A) (A) (A) (A) (A)
                 (A) (A) (A) (A) (A) (A) (A) (A) (A) (A) (A) (A)
                 (A) (A) (A) (A) (A) (A) (A) (A) (A) (A) (A) (A)
                 (A) (A) (A) (A) (A) (A) (A) (A) (A) (A) (A) (A)
                 (A) (A) (A) (A) (A) (A) (A) (A) (A) (A) (A) (A)
                 (A) (A) (A) (A) (A) (A) (A) (A) (A) (A) (A) (A)
                 (A) (A) (A) (A) (A) (A) (A) (A) (A) (A) (A) (A)
                 (A) (A) (A) (A) (A) (A) (A) (A) (A) (A) (A) (A)
                 (A) (A) (A) (A) (A) (A) (A) (A) (A) (A) (A) (A)
                 (A) (A) (A) (A) (A) (A) (A) (A) (A) (A) (A) (A)
                 (A) (A) (A) (A) (A) (A) (A) (A) (A) (A) (A)
       Virtual   (A) (A) (A) (A) (A) (A) (A) (A) (A) (A) (A) (A)
                 (A) (A) (A) (A) (A) (A) (A) (A) (A) (A) (A) (A)
                 (A) (A) (A) (A) (A) (A) (A) (A) (A) (A) (A) (A)
                 (A) (A) (A) (A) (A) (A) (A) (A) (A) (A) (A) (A)
                 (A) (A) (A) (A) (A) (A) (A) (A) (A) (A) (A) (A)
                 (A) (A) (A) (A) (A) (A) (A) (A) (A) (A) (A) (A)
                 (A) (A) (A) (A) (A) (A) (A) (A) (A) (A) (A) (A)
                 (A) (A) (A) (A) (A) (A) (A) (A) (A) (A) (A) (A)
                 (A) (A) (A) (A) (A) (A) (A) (A) (A) (A) (A) (A)
                 (A) (A) (A) (A) (A) (A) (A) (A) (A) (A) (A) (A)
                 (A) (A) (A) (A) (A) (A) (A) (A) (A) (A) (A) (A)
                 (A) (A) (A) (A) (A) (A) (A) (A) (A) (A) (A) (A)
                 (A) (A) (A) (A) (A) (A) (A) (A) (A) (A) (A) (A)
                 (A) (A) (A) (A) (A) (A) (A) (A) (A) (A) (A) (A)
                 (A) (A) (A) (A) (A) (A) (A) (A) (A) (A) (A) (A)
                 (A) (A) (A) (A) (A) (A) (A) (A) (A) (A) (A) (A)
                 (A) (A) (A) (A) (A) (A) (A) (A) (A) (A) (A) (A)
                 (A) (A) (A) (A) (A) (A) (A) (A) (A) (A) (A) (A)
                 (A) (A) (A) (A) (A) (A) (A) (A) (A) (A) (A) (A)
                 (A) (A) (A) (A) (A) (A) (A) (A) (A) (A) (A) (A)
                 (A) (A) (A) (A) (A) (A) (A) (A) (A) (A) (A) (A)
                 (A) (A) (A) (A) (A) (A) (A) (A) (A) (A) (A) (A)
                 (A) (A) (A) (A) (A) (A) (A) (A) (A) (A) (A) (A)
                 (A) (A) (A) (A) (A) (A) (A) (A) (A) (A) (A) (A)
                 (A) (A) (A) (A) (A) (A) (A) (A) (A) (A) (A) (A)
                 (A) (A) (A) (A) (A) (A) (A) (A) (A) (A) (A) (A)
                 (A) (A) (A) (A) (A) (A) (A) (A) (A) (A) (A) (A)
                 (A) (A) (A) (A) (A) (A) (A) (A) (A) (A) (A) (A)
                 (A) (A) (A) (A) (A) (A) (A) (A) (A) (A) (A) (A)
                 (A) (A) (A) (A) (A) (A) (A) (A) (A) (A) (A) (A)
                 (A) (A) (A) (A) (A) (A) (A) (A) (A) (A) (A) (A)
                 (A) (A) (A) (A) (A) (A) (A) (A) (A) (A) (A) (A)
                 (A) (A) (A) (A) (A) (A) (A) (A) (A) (A) (A) (A)
                 (A) (A) (A) (A) (A) (A) (A) (A) (A) (A) (A) (A)
                 (A) (A) (A) (A) (A) (A) (A) (A) (A) (A) (A) (A)
                 (A) (A) (A) (A) (A) (A) (A) (A) (A) (A) (A) (A)
                 (A) (A) (A) (A) (A) (A) (A) (A) (A) (A) (A) (A)
                 (A) (A) (A) (A) (A) (A) (A) (A) (A) (A) (A) (A)
                 (A) (A) (A) (A) (A) (A) (A) (A) (A) (A) (A) (A)
                 (A) (A) (A) (A) (A) (A) (A) (A) (A) (A) (A) (A)
                 (A) (A) (A) (A) (A) (A) (A) (A) (A) (A) (A) (A)
                 (A) (A) (A) (A) (A) (A) (A) (A) (A) (A) (A) (A)
                 (A) (A) (A) (A) (A) (A) (A) (A) (A) (A) (A) (A)
                 (A) (A) (A) (A) (A) (A) (A) (A) (A) (A) (A) (A)
                 (A) (A) (A) (A) (A) (A) (A) (A) (A) (A) (A) (A)
                 (A) (A) (A) (A) (A) (A) (A) (A) (A) (A) (A) (A)
                 (A) (A) (A) (A) (A) (A) (A) (A) (A) (A) (A) (A)
                 (A) (A) (A) (A) (A) (A) (A) (A) (A) (A) (A) (A)
                 (A) (A) (A) (A) (A) (A) (A) (A) (A) (A) (A) (A)
                 (A) (A) (A) (A) (A) (A) (A) (A) (A) (A) (A) (A)
                 (A) (A) (A) (A) (A) (A) (A) (A) (A) (A) (A) (A)
                 (A) (A) (A) (A) (A) (A) (A) (A) (A) (A) (A) (A)
                 (A) (A) (A)
 The electronic state is 1-A.
 Alpha  occ. eigenvalues --  -19.18782 -19.16930 -19.15398 -19.11706 -19.11198
 Alpha  occ. eigenvalues --  -19.09626 -14.37443 -14.36952 -14.34599 -14.29457
 Alpha  occ. eigenvalues --  -10.33165 -10.29951 -10.28645 -10.27572 -10.25511
 Alpha  occ. eigenvalues --  -10.25398 -10.24422 -10.23546 -10.23471 -10.22332
 Alpha  occ. eigenvalues --  -10.22307 -10.22240 -10.21849 -10.21834 -10.21720
 Alpha  occ. eigenvalues --  -10.21596 -10.21595 -10.21462 -10.21417 -10.21313
 Alpha  occ. eigenvalues --  -10.20999 -10.20825 -10.20740 -10.20557 -10.20479
 Alpha  occ. eigenvalues --  -10.20385 -10.20124 -10.19763 -10.19689 -10.19456
 Alpha  occ. eigenvalues --  -10.18477 -10.18288 -10.18030  -1.09525  -1.09136
 Alpha  occ. eigenvalues --   -1.07800  -1.02757  -0.99532  -0.99161  -0.97265
 Alpha  occ. eigenvalues --   -0.96345  -0.92431  -0.91796  -0.83648  -0.82165
 Alpha  occ. eigenvalues --   -0.81030  -0.80336  -0.80187  -0.78939  -0.77718
 Alpha  occ. eigenvalues --   -0.76401  -0.75615  -0.74887  -0.73879  -0.71715
 Alpha  occ. eigenvalues --   -0.71059  -0.69989  -0.68710  -0.68257  -0.67679
 Alpha  occ. eigenvalues --   -0.66627  -0.64271  -0.62779  -0.61294  -0.60266
 Alpha  occ. eigenvalues --   -0.58769  -0.58325  -0.58040  -0.56918  -0.56658
 Alpha  occ. eigenvalues --   -0.55474  -0.54561  -0.54348  -0.53367  -0.52808
 Alpha  occ. eigenvalues --   -0.52557  -0.51669  -0.50509  -0.50268  -0.49609
 Alpha  occ. eigenvalues --   -0.48482  -0.48278  -0.48076  -0.47584  -0.46841
 Alpha  occ. eigenvalues --   -0.46706  -0.46651  -0.46464  -0.46002  -0.45513
 Alpha  occ. eigenvalues --   -0.44900  -0.44470  -0.44245  -0.43970  -0.43537
 Alpha  occ. eigenvalues --   -0.43497  -0.43157  -0.43022  -0.42802  -0.42707
 Alpha  occ. eigenvalues --   -0.42370  -0.41874  -0.41474  -0.41381  -0.41201
 Alpha  occ. eigenvalues --   -0.40554  -0.40253  -0.39841  -0.39534  -0.39396
 Alpha  occ. eigenvalues --   -0.38990  -0.38686  -0.38437  -0.38295  -0.38008
 Alpha  occ. eigenvalues --   -0.37769  -0.37441  -0.37246  -0.37054  -0.36101
 Alpha  occ. eigenvalues --   -0.35858  -0.35487  -0.35036  -0.34643  -0.33995
 Alpha  occ. eigenvalues --   -0.33310  -0.32988  -0.32587  -0.32136  -0.31220
 Alpha  occ. eigenvalues --   -0.30754  -0.29869  -0.29332  -0.28569  -0.28011
 Alpha  occ. eigenvalues --   -0.27674  -0.26186  -0.25961  -0.25299  -0.25258
 Alpha  occ. eigenvalues --   -0.24152  -0.23493  -0.22914  -0.21389  -0.19179
 Alpha virt. eigenvalues --   -0.10845  -0.07134  -0.05019  -0.01036  -0.00832
 Alpha virt. eigenvalues --    0.00713   0.01038   0.01638   0.02048   0.02249
 Alpha virt. eigenvalues --    0.02964   0.03491   0.04504   0.04802   0.05022
 Alpha virt. eigenvalues --    0.05344   0.05546   0.05752   0.06320   0.06369
 Alpha virt. eigenvalues --    0.06534   0.07372   0.08041   0.08162   0.08429
 Alpha virt. eigenvalues --    0.08479   0.08521   0.09696   0.09885   0.10091
 Alpha virt. eigenvalues --    0.10414   0.10595   0.10965   0.11651   0.12091
 Alpha virt. eigenvalues --    0.12387   0.12490   0.12995   0.13380   0.13729
 Alpha virt. eigenvalues --    0.14014   0.14495   0.14585   0.15085   0.15483
 Alpha virt. eigenvalues --    0.15986   0.16106   0.16657   0.17455   0.17735
 Alpha virt. eigenvalues --    0.18509   0.18653   0.18844   0.19320   0.20102
 Alpha virt. eigenvalues --    0.20502   0.20650   0.21294   0.21498   0.22022
 Alpha virt. eigenvalues --    0.22697   0.23145   0.23351   0.23833   0.24117
 Alpha virt. eigenvalues --    0.24467   0.25503   0.25840   0.26298   0.26383
 Alpha virt. eigenvalues --    0.26876   0.27380   0.28188   0.28326   0.28953
 Alpha virt. eigenvalues --    0.29138   0.29757   0.29850   0.30350   0.30572
 Alpha virt. eigenvalues --    0.31207   0.31542   0.32694   0.33292   0.33978
 Alpha virt. eigenvalues --    0.34911   0.35284   0.35644   0.36081   0.36347
 Alpha virt. eigenvalues --    0.36583   0.37239   0.37534   0.38317   0.39093
 Alpha virt. eigenvalues --    0.39741   0.40152   0.40561   0.41071   0.41466
 Alpha virt. eigenvalues --    0.41521   0.42282   0.42508   0.43225   0.43500
 Alpha virt. eigenvalues --    0.43786   0.44043   0.44275   0.44415   0.45119
 Alpha virt. eigenvalues --    0.45275   0.45594   0.46082   0.46295   0.46442
 Alpha virt. eigenvalues --    0.46831   0.47173   0.47892   0.48005   0.48601
 Alpha virt. eigenvalues --    0.48766   0.49163   0.49448   0.49758   0.50457
 Alpha virt. eigenvalues --    0.50663   0.50873   0.51252   0.51545   0.51812
 Alpha virt. eigenvalues --    0.52077   0.52292   0.52606   0.52998   0.53293
 Alpha virt. eigenvalues --    0.53669   0.53920   0.54378   0.54652   0.54812
 Alpha virt. eigenvalues --    0.55415   0.55595   0.55957   0.56545   0.56977
 Alpha virt. eigenvalues --    0.57164   0.57629   0.58198   0.58453   0.58630
 Alpha virt. eigenvalues --    0.58831   0.59134   0.59532   0.60055   0.60257
 Alpha virt. eigenvalues --    0.60381   0.60452   0.61026   0.61717   0.61850
 Alpha virt. eigenvalues --    0.62050   0.62294   0.62570   0.62906   0.62965
 Alpha virt. eigenvalues --    0.63064   0.63218   0.63804   0.64075   0.64210
 Alpha virt. eigenvalues --    0.64356   0.64826   0.65144   0.65586   0.65666
 Alpha virt. eigenvalues --    0.66085   0.66327   0.66355   0.66494   0.67077
 Alpha virt. eigenvalues --    0.67189   0.67494   0.67825   0.68115   0.68462
 Alpha virt. eigenvalues --    0.68557   0.68742   0.69055   0.69232   0.69383
 Alpha virt. eigenvalues --    0.69758   0.69868   0.70229   0.70506   0.70670
 Alpha virt. eigenvalues --    0.71044   0.71650   0.71947   0.72502   0.72600
 Alpha virt. eigenvalues --    0.73174   0.73358   0.73772   0.73981   0.74193
 Alpha virt. eigenvalues --    0.74695   0.75224   0.75467   0.75950   0.76378
 Alpha virt. eigenvalues --    0.76559   0.76816   0.77056   0.77424   0.78172
 Alpha virt. eigenvalues --    0.78506   0.78728   0.79534   0.80098   0.80295
 Alpha virt. eigenvalues --    0.81391   0.82156   0.82436   0.83043   0.83261
 Alpha virt. eigenvalues --    0.84166   0.84329   0.85033   0.85382   0.85778
 Alpha virt. eigenvalues --    0.86389   0.87647   0.88106   0.89171   0.90208
 Alpha virt. eigenvalues --    0.90818   0.91605   0.91790   0.92212   0.92925
 Alpha virt. eigenvalues --    0.94152   0.94385   0.95151   0.95925   0.96086
 Alpha virt. eigenvalues --    0.96297   0.96665   0.96830   0.97394   0.98018
 Alpha virt. eigenvalues --    0.98605   0.98745   0.99630   1.00386   1.00469
 Alpha virt. eigenvalues --    1.01437   1.02298   1.03153   1.03989   1.04720
 Alpha virt. eigenvalues --    1.05693   1.06328   1.07509   1.07658   1.09261
 Alpha virt. eigenvalues --    1.09334   1.10012   1.10511   1.11620   1.11816
 Alpha virt. eigenvalues --    1.12533   1.12726   1.13252   1.14673   1.15038
 Alpha virt. eigenvalues --    1.15915   1.16420   1.16972   1.17670   1.18287
 Alpha virt. eigenvalues --    1.18860   1.19844   1.20505   1.20593   1.21077
 Alpha virt. eigenvalues --    1.21378   1.22342   1.22896   1.23189   1.23883
 Alpha virt. eigenvalues --    1.24118   1.24488   1.24696   1.25815   1.26368
 Alpha virt. eigenvalues --    1.27017   1.28090   1.28900   1.29268   1.29715
 Alpha virt. eigenvalues --    1.30645   1.31403   1.31791   1.31954   1.32955
 Alpha virt. eigenvalues --    1.33659   1.34069   1.34962   1.35758   1.36774
 Alpha virt. eigenvalues --    1.38106   1.38710   1.39371   1.39693   1.41284
 Alpha virt. eigenvalues --    1.41882   1.42226   1.42582   1.43526   1.44067
 Alpha virt. eigenvalues --    1.45122   1.46098   1.46485   1.47530   1.48016
 Alpha virt. eigenvalues --    1.48470   1.48742   1.49066   1.49179   1.50260
 Alpha virt. eigenvalues --    1.50566   1.51041   1.51795   1.52293   1.52912
 Alpha virt. eigenvalues --    1.53588   1.54446   1.54809   1.55188   1.55577
 Alpha virt. eigenvalues --    1.57326   1.57756   1.57847   1.58224   1.59016
 Alpha virt. eigenvalues --    1.59157   1.60471   1.60840   1.61142   1.62362
 Alpha virt. eigenvalues --    1.62814   1.63186   1.63385   1.64038   1.64146
 Alpha virt. eigenvalues --    1.64432   1.65282   1.65376   1.65569   1.65694
 Alpha virt. eigenvalues --    1.66458   1.66790   1.66968   1.67577   1.68054
 Alpha virt. eigenvalues --    1.68456   1.68774   1.69303   1.69409   1.69872
 Alpha virt. eigenvalues --    1.70681   1.71328   1.71791   1.72149   1.72434
 Alpha virt. eigenvalues --    1.72753   1.73183   1.73494   1.73924   1.74076
 Alpha virt. eigenvalues --    1.74839   1.75478   1.75587   1.76481   1.76560
 Alpha virt. eigenvalues --    1.76643   1.77051   1.77247   1.77468   1.77971
 Alpha virt. eigenvalues --    1.78499   1.78659   1.79003   1.79204   1.79661
 Alpha virt. eigenvalues --    1.79868   1.80885   1.81269   1.81487   1.82036
 Alpha virt. eigenvalues --    1.82419   1.83288   1.83413   1.83638   1.84103
 Alpha virt. eigenvalues --    1.84542   1.85165   1.85356   1.85732   1.86536
 Alpha virt. eigenvalues --    1.87407   1.87698   1.87819   1.88545   1.88852
 Alpha virt. eigenvalues --    1.89094   1.89426   1.90273   1.90327   1.90636
 Alpha virt. eigenvalues --    1.91104   1.91352   1.91983   1.92643   1.93474
 Alpha virt. eigenvalues --    1.93746   1.94333   1.94673   1.95019   1.95453
 Alpha virt. eigenvalues --    1.95720   1.96012   1.96889   1.97466   1.97806
 Alpha virt. eigenvalues --    1.97994   1.98840   1.99124   1.99507   2.00485
 Alpha virt. eigenvalues --    2.00640   2.00714   2.01933   2.02479   2.03215
 Alpha virt. eigenvalues --    2.03576   2.04230   2.05079   2.05279   2.06074
 Alpha virt. eigenvalues --    2.06307   2.06924   2.07045   2.07323   2.08029
 Alpha virt. eigenvalues --    2.08523   2.08997   2.09632   2.09827   2.10863
 Alpha virt. eigenvalues --    2.11584   2.11906   2.12695   2.13032   2.13720
 Alpha virt. eigenvalues --    2.14288   2.14608   2.15131   2.15848   2.16418
 Alpha virt. eigenvalues --    2.17149   2.17882   2.18594   2.19318   2.19940
 Alpha virt. eigenvalues --    2.20436   2.21715   2.22868   2.23727   2.24276
 Alpha virt. eigenvalues --    2.24773   2.24956   2.25538   2.27002   2.27687
 Alpha virt. eigenvalues --    2.28649   2.28951   2.29142   2.29931   2.30936
 Alpha virt. eigenvalues --    2.31339   2.31972   2.33429   2.33829   2.34120
 Alpha virt. eigenvalues --    2.34590   2.35094   2.35463   2.36058   2.36499
 Alpha virt. eigenvalues --    2.37133   2.37612   2.39063   2.39729   2.40249
 Alpha virt. eigenvalues --    2.40751   2.40814   2.41373   2.41863   2.42274
 Alpha virt. eigenvalues --    2.42834   2.45135   2.45496   2.46721   2.46907
 Alpha virt. eigenvalues --    2.47956   2.48549   2.50286   2.50474   2.51585
 Alpha virt. eigenvalues --    2.52006   2.52501   2.53607   2.54028   2.55796
 Alpha virt. eigenvalues --    2.56467   2.57354   2.58712   2.59043   2.60099
 Alpha virt. eigenvalues --    2.60301   2.61643   2.61866   2.62123   2.62956
 Alpha virt. eigenvalues --    2.63570   2.64071   2.65102   2.66152   2.66690
 Alpha virt. eigenvalues --    2.67301   2.67462   2.68053   2.68645   2.68924
 Alpha virt. eigenvalues --    2.69425   2.69578   2.70149   2.70949   2.71428
 Alpha virt. eigenvalues --    2.72869   2.73337   2.74543   2.74867   2.76513
 Alpha virt. eigenvalues --    2.77156   2.77454   2.78329   2.78588   2.79538
 Alpha virt. eigenvalues --    2.80685   2.80995   2.82549   2.82688   2.82954
 Alpha virt. eigenvalues --    2.84470   2.84903   2.84973   2.86136   2.86832
 Alpha virt. eigenvalues --    2.87402   2.87739   2.87900   2.88408   2.89523
 Alpha virt. eigenvalues --    2.89986   2.91488   2.92219   2.93220   2.93608
 Alpha virt. eigenvalues --    2.94165   2.94512   2.95806   2.96728   2.97624
 Alpha virt. eigenvalues --    2.98571   2.99153   3.00418   3.01711   3.02845
 Alpha virt. eigenvalues --    3.04396   3.04679   3.06706   3.06966   3.08499
 Alpha virt. eigenvalues --    3.09566   3.10347   3.11211   3.11847   3.12998
 Alpha virt. eigenvalues --    3.13611   3.17763   3.19989   3.20781   3.21783
 Alpha virt. eigenvalues --    3.22113   3.23890   3.26644   3.26941   3.29683
 Alpha virt. eigenvalues --    3.32622   3.36875   3.37368   3.39966   3.44197
 Alpha virt. eigenvalues --    3.45026   3.46699   3.48401   3.49681   3.53934
 Alpha virt. eigenvalues --    3.60245   3.63415   3.66193   3.66851   3.68709
 Alpha virt. eigenvalues --    3.69134   3.73336
          Condensed to atoms (all electrons):
 Mulliken charges:
               1
     1  O   -0.105286
     2  O   -0.181785
     3  O   -0.281606
     4  O   -0.305276
     5  O   -0.149074
     6  O   -0.175211
     7  N   -0.017341
     8  N   -0.278150
     9  N   -0.141046
    10  N   -0.258320
    11  C    0.075610
    12  C    0.102540
    13  C   -0.085146
    14  C   -0.141050
    15  C   -0.092362
    16  C    0.003437
    17  C   -0.145852
    18  C    0.140496
    19  C   -0.036364
    20  C   -0.136278
    21  C    0.089016
    22  C    0.130010
    23  C   -0.087885
    24  C    0.028350
    25  C    0.053720
    26  C   -0.101379
    27  C   -0.147328
    28  C    0.141002
    29  C    0.203589
    30  C    0.046307
    31  C    0.073711
    32  C   -0.042255
    33  C   -0.184589
    34  C    0.137183
    35  C    0.137167
    36  C   -0.091819
    37  C    0.140324
    38  C    0.004078
    39  C   -0.133763
    40  C    0.171901
    41  C   -0.024991
    42  C   -0.069161
    43  C   -0.013320
    44  H    0.041039
    45  H    0.000255
    46  H    0.002013
    47  H    0.127214
    48  H    0.153077
    49  H    0.008464
    50  H    0.018083
    51  H    0.026016
    52  H    0.029322
    53  H    0.025557
    54  H    0.042839
    55  H    0.000707
    56  H    0.054159
    57  H    0.030536
    58  H    0.086020
    59  H    0.032286
    60  H    0.198500
    61  H   -0.029462
    62  H    0.019762
    63  H   -0.001201
    64  H    0.023961
    65  H   -0.010730
    66  H    0.053874
    67  H    0.040321
    68  H    0.056639
    69  H    0.025979
    70  H    0.036437
    71  H    0.034899
    72  H    0.236506
    73  H    0.005154
    74  H    0.057307
    75  H    0.041441
    76  H    0.062853
    77  H    0.199033
    78  H    0.028765
    79  H   -0.009428
 Sum of Mulliken charges =  -0.00000
 Mulliken charges with hydrogens summed into heavy atoms:
               1
     1  O   -0.105286
     2  O    0.054721
     3  O   -0.281606
     4  O   -0.106244
     5  O   -0.149074
     6  O   -0.175211
     7  N    0.109873
     8  N   -0.125073
     9  N    0.057454
    10  N   -0.258320
    11  C    0.116650
    12  C    0.104808
    13  C   -0.085146
    14  C   -0.141050
    15  C   -0.092362
    16  C    0.003437
    17  C   -0.145852
    18  C    0.167043
    19  C   -0.036364
    20  C   -0.110262
    21  C    0.089016
    22  C    0.130010
    23  C   -0.087885
    24  C    0.126067
    25  C    0.139123
    26  C   -0.101379
    27  C   -0.029021
    28  C    0.141002
    29  C    0.193889
    30  C    0.045106
    31  C    0.086942
    32  C    0.108578
    33  C   -0.158610
    34  C    0.137183
    35  C    0.137167
    36  C   -0.020483
    37  C    0.140324
    38  C    0.004078
    39  C   -0.133763
    40  C    0.171901
    41  C   -0.019837
    42  C    0.092441
    43  C    0.006016
 Electronic spatial extent (au):  <R**2>=          31970.3761
 Charge=             -0.0000 electrons
 Dipole moment (field-independent basis, Debye):
    X=              0.2335    Y=              0.6853    Z=              1.8056  Tot=              1.9453
 Quadrupole moment (field-independent basis, Debye-Ang):
   XX=           -214.6004   YY=           -242.1998   ZZ=           -262.9102
   XY=             -2.3585   XZ=             26.9436   YZ=              4.0385
 Traceless Quadrupole moment (field-independent basis, Debye-Ang):
   XX=             25.3031   YY=             -2.2963   ZZ=            -23.0068
   XY=             -2.3585   XZ=             26.9436   YZ=              4.0385
 Octapole moment (field-independent basis, Debye-Ang**2):
  XXX=             37.5738  YYY=             86.0014  ZZZ=             57.3373  XYY=            -68.8665
  XXY=           -135.6971  XXZ=             39.0636  XZZ=            -64.0224  YZZ=            -16.7974
  YYZ=             70.9682  XYZ=             22.5337
 Hexadecapole moment (field-independent basis, Debye-Ang**3):
 XXXX=         -23008.7376 YYYY=         -12075.5853 ZZZZ=          -4832.4835 XXXY=            -26.1086
 XXXZ=            587.5531 YYYX=            199.5268 YYYZ=            753.1513 ZZZX=            -60.9593
 ZZZY=            -34.4531 XXYY=          -5896.9045 XXZZ=          -5101.4732 YYZZ=          -2817.3018
 XXYZ=            -52.4071 YYXZ=             85.9331 ZZXY=            113.0846
 N-N= 4.933653661931D+03 E-N=-1.439585765200D+04  KE= 1.926398206381D+03
 1\1\GINC-PADAWAN\SP\RB3LYP TD-FC\SVP\C33H36N4O6\PADAWAN\28-Sep-2019\0\
 \# td=(NStates=1) B3LYP/SVP\\TD\\0,1\O,0,-5.3533215622,0.0457500146,-3
 .2240821979\O,0,3.0274127468,3.0421714718,3.1677328517\O,0,3.433001648
 8,0.8745928583,2.8062325084\O,0,1.7480624457,-7.2725535255,1.361844690
 8\O,0,0.4604809361,-7.0600124248,-0.5487028532\O,0,1.6662136695,3.9491
 980426,0.0182013275\N,0,-2.2739070018,-0.7796263928,0.6153485515\N,0,-
 4.3038852699,0.576675334,-1.2693352883\N,0,1.8471051021,-0.6718387569,
 -0.2324717248\N,0,2.5066962115,1.8461103565,-0.4963463813\C,0,-4.74210
 06013,1.2351350105,-0.0100752077\C,0,-4.3900764004,0.3265228176,1.1298
 003377\C,0,-2.8664117368,0.1041106678,1.4110931223\C,0,-1.8963587326,0
 .6427192291,2.2323164012\C,0,-0.6625328636,0.0221767822,1.9012107987\C
 ,0,-0.978742062,-0.9965627152,0.9605078702\C,0,-6.3037827344,1.2564134
 306,-0.2220274181\C,0,0.6736959762,0.241514828,2.5287818983\C,0,-6.667
 0072152,0.7148707355,-1.3392296517\C,0,-0.1750337595,-1.9782965666,0.2
 542175033\C,0,1.0735942556,-1.8621957662,-0.2883204142\C,0,-5.44143474
 38,0.3407722919,-2.1324305546\C,0,1.9579498802,-2.9664971881,-0.961233
 1326\C,0,-2.0703927402,1.8236581227,3.1958839786\C,0,-7.1863561288,1.7
 99938123,0.8955735433\C,0,3.071273461,-2.284628414,-1.3612573708\C,0,1
 .2201480421,1.6578242758,2.5302266586\C,0,2.9686949448,-0.857404366,-1
 .0535793461\C,0,1.543118082,-4.4149574601,-1.0135330702\C,0,-7.9563215
 382,0.6303346711,-2.0295013379\C,0,1.5927568413,-5.0502959642,0.342400
 2355\C,0,4.2075163606,-2.9635448233,-2.0188211134\C,0,3.9124821188,0.1
 431637199,-1.4338080632\C,0,2.6554661678,1.8346910573,2.9115870586\C,0
 ,3.574651843,1.4539108026,-1.0764642137\C,0,-9.1796929527,0.7311952798
 ,-1.4767124865\C,0,1.0852835931,-6.5296896192,0.2837970387\C,0,4.68317
 71523,2.5477015251,-1.3369707802\C,0,3.8970189703,3.8079713208,-0.9880
 500993\C,0,2.6098325541,3.3009379449,-0.34597336\C,0,5.8894325486,2.43
 98488255,-1.9756095161\C,0,4.3960652263,5.1962144972,-0.9952615396\C,0
 ,6.7590259602,3.4362993147,-2.4306375407\H,0,-4.3730517913,2.296690749
 2,0.4139344337\H,0,-4.9100556625,-0.7282943055,1.0208168259\H,0,-4.856
 3224721,0.6523292326,2.1070176115\H,0,-2.8124402839,-1.4825356491,0.05
 2058284\H,0,-3.3714381411,0.8973016473,-1.6792454754\H,0,0.6507095057,
 0.2854688589,3.6570352516\H,0,1.3692909385,-0.4760522726,2.1526603988\
 H,0,-0.7467533362,-3.0684843134,0.1661416165\H,0,-3.3078009254,1.78842
 01061,3.434393429\H,0,-1.4213533504,1.5614255065,4.1612645144\H,0,-1.6
 561419953,2.7596697868,2.8756949913\H,0,-6.7456480157,2.6442732308,1.3
 691291459\H,0,-7.5177315402,1.0192117304,1.6521022209\H,0,-8.158921829
 4,2.3433004131,0.5826367439\H,0,0.9714398524,2.1483468713,1.493117379\
 H,0,0.7642895415,2.6035271747,3.1437101952\H,0,1.417426069,0.280448689
 9,0.0049551302\H,0,2.2496927615,-4.7373475652,-1.6703816479\H,0,0.5472
 365212,-4.654965344,-1.3578042638\H,0,-7.8890399658,0.7583460652,-3.05
 60915474\H,0,1.0689790868,-4.6036715469,1.1292304996\H,0,2.524378708,-
 5.0617133758,0.7165794728\H,0,4.1285879211,-4.202747727,-1.9796514262\
 H,0,5.1865797564,-2.79319817,-1.5534189595\H,0,4.3239038235,-2.3671589
 485,-3.2123303066\H,0,4.9115107706,-0.2972418187,-1.866312807\H,0,-9.5
 603696375,0.7399914546,-0.4011728071\H,0,-10.1221703506,0.7332247382,-
 2.1599920992\H,0,4.1131159981,3.0561289966,3.2460293686\H,0,6.06742021
 02,1.3272848777,-2.1743362486\H,0,5.3272734271,5.3632090851,-0.3387124
 911\H,0,4.8472067432,5.4805648222,-2.1364061855\H,0,3.6104987195,6.172
 4668531,-0.9389156332\H,0,1.2817854866,-8.1697481319,1.4939654514\H,0,
 7.6092533697,3.251110651,-3.1185091242\H,0,6.731575045,4.4521407263,-2
 .3162639789\\Version=ES64L-G16RevA.03\State=1-A\HF=-1947.7941845\RMSD=
 8.260e-09\PG=C01 [X(C33H36N4O6)]\\@


 ALTHOUGH J.J. COULD DIAGNOSE THE FAULTS OF AN
 APPARATUS WITH UNCANNY ACCURACY, IT WAS JUST AS
 WELL NOT TO LET HIM HANDLE IT.
   -- GEORGE THOMPSON, ABOUT HIS FATHER
 Job cpu time:       0 days 11 hours 27 minutes 51.2 seconds.
 Elapsed time:       0 days  2 hours 52 minutes 40.6 seconds.
 File lengths (MBytes):  RWF=   2533 Int=      0 D2E=      0 Chk=     63 Scr=      1
 Normal termination of Gaussian 16 at Sat Sep 28 06:04:33 2019.
