 Entering Gaussian System, Link 0=g16
 Input=Geometria-286-.com
 Output=Geometria-286-.log
 Initial command:
 /usr/local/g16/l1.exe "/home/padawan/israel-mol/dihydrobiliverdin/spectra/emi/Gau-8851.inp" -scrdir="/home/padawan/israel-mol/dihydrobiliverdin/spectra/emi/"
 Entering Link 1 = /usr/local/g16/l1.exe PID=      8853.
  
 Copyright (c) 1988,1990,1992,1993,1995,1998,2003,2009,2016,
            Gaussian, Inc.  All Rights Reserved.
  
 This is part of the Gaussian(R) 16 program.  It is based on
 the Gaussian(R) 09 system (copyright 2009, Gaussian, Inc.),
 the Gaussian(R) 03 system (copyright 2003, Gaussian, Inc.),
 the Gaussian(R) 98 system (copyright 1998, Gaussian, Inc.),
 the Gaussian(R) 94 system (copyright 1995, Gaussian, Inc.),
 the Gaussian 92(TM) system (copyright 1992, Gaussian, Inc.),
 the Gaussian 90(TM) system (copyright 1990, Gaussian, Inc.),
 the Gaussian 88(TM) system (copyright 1988, Gaussian, Inc.),
 the Gaussian 86(TM) system (copyright 1986, Carnegie Mellon
 University), and the Gaussian 82(TM) system (copyright 1983,
 Carnegie Mellon University). Gaussian is a federally registered
 trademark of Gaussian, Inc.
  
 This software contains proprietary and confidential information,
 including trade secrets, belonging to Gaussian, Inc.
  
 This software is provided under written license and may be
 used, copied, transmitted, or stored only in accord with that
 written license.
  
 The following legend is applicable only to US Government
 contracts under FAR:
  
                    RESTRICTED RIGHTS LEGEND
  
 Use, reproduction and disclosure by the US Government is
 subject to restrictions as set forth in subparagraphs (a)
 and (c) of the Commercial Computer Software - Restricted
 Rights clause in FAR 52.227-19.
  
 Gaussian, Inc.
 340 Quinnipiac St., Bldg. 40, Wallingford CT 06492
  
  
 ---------------------------------------------------------------
 Warning -- This program may not be used in any manner that
 competes with the business of Gaussian, Inc. or will provide
 assistance to any competitor of Gaussian, Inc.  The licensee
 of this program is prohibited from giving any competitor of
 Gaussian, Inc. access to this program.  By using this program,
 the user acknowledges that Gaussian, Inc. is engaged in the
 business of creating and licensing software in the field of
 computational chemistry and represents and warrants to the
 licensee that it is not a competitor of Gaussian, Inc. and that
 it will not use this program in any manner prohibited above.
 ---------------------------------------------------------------
  

 Cite this work as:
 Gaussian 16, Revision A.03,
 M. J. Frisch, G. W. Trucks, H. B. Schlegel, G. E. Scuseria, 
 M. A. Robb, J. R. Cheeseman, G. Scalmani, V. Barone, 
 G. A. Petersson, H. Nakatsuji, X. Li, M. Caricato, A. V. Marenich, 
 J. Bloino, B. G. Janesko, R. Gomperts, B. Mennucci, H. P. Hratchian, 
 J. V. Ortiz, A. F. Izmaylov, J. L. Sonnenberg, D. Williams-Young, 
 F. Ding, F. Lipparini, F. Egidi, J. Goings, B. Peng, A. Petrone, 
 T. Henderson, D. Ranasinghe, V. G. Zakrzewski, J. Gao, N. Rega, 
 G. Zheng, W. Liang, M. Hada, M. Ehara, K. Toyota, R. Fukuda, 
 J. Hasegawa, M. Ishida, T. Nakajima, Y. Honda, O. Kitao, H. Nakai, 
 T. Vreven, K. Throssell, J. A. Montgomery, Jr., J. E. Peralta, 
 F. Ogliaro, M. J. Bearpark, J. J. Heyd, E. N. Brothers, K. N. Kudin, 
 V. N. Staroverov, T. A. Keith, R. Kobayashi, J. Normand, 
 K. Raghavachari, A. P. Rendell, J. C. Burant, S. S. Iyengar, 
 J. Tomasi, M. Cossi, J. M. Millam, M. Klene, C. Adamo, R. Cammi, 
 J. W. Ochterski, R. L. Martin, K. Morokuma, O. Farkas, 
 J. B. Foresman, and D. J. Fox, Gaussian, Inc., Wallingford CT, 2016.
 
 ******************************************
 Gaussian 16:  ES64L-G16RevA.03 25-Dec-2016
                28-Jul-2019 
 ******************************************
 %nproc=4
 Will use up to    4 processors via shared memory.
 %Mem=3GB
 --------------------------
 # td=(NStates=1) B3LYP/SVP
 --------------------------
 1/38=1,172=1/1;
 2/12=2,17=6,18=5,40=1/2;
 3/5=18,7=101,11=9,25=1,30=1,74=-5/1,2,3,8;
 4//1;
 5/5=2,38=5/2;
 8/6=1,10=1,108=1/1;
 9/41=1,42=1,70=2/14;
 6/7=2,8=2,9=2,10=2/1;
 99/5=1,9=1/99;
 --
 TD
 --
 Symbolic Z-matrix:
 Charge =  0 Multiplicity = 1
 8                    -3.17052  -1.25337  -2.87084 
 8                     2.86935   3.10933   2.94741 
 8                     3.35061   1.63581   4.63999 
 8                     7.84888  -1.57223  -0.86611 
 8                     6.61578  -3.03008  -2.24418 
 8                    -2.61171   1.6195    1.54538 
 7                    -0.33899  -2.50069   0.93802 
 7                    -2.71376  -1.09864  -0.54948 
 7                     1.14683  -0.00602  -0.78114 
 7                    -0.98318   1.4764   -0.14466 
 6                    -3.45398  -1.26992   0.70971 
 6                    -2.64995  -2.35419   1.61192 
 6                    -1.21003  -2.15845   1.81146 
 6                    -0.56835  -1.20801   2.72918 
 6                     0.72134  -1.07145   2.44024 
 6                     0.91948  -1.91393   1.19303 
 6                    -4.78632  -1.89434   0.26968 
 6                     1.84249  -0.33667   3.11476 
 6                    -4.78047  -2.05826  -1.05059 
 6                     2.05458  -1.93083   0.2862 
 6                     2.06121  -1.02673  -0.72599 
 6                    -3.46988  -1.35462  -1.69298 
 6                     3.07736  -0.65376  -1.78277 
 6                    -1.29529  -0.61122   3.95404 
 6                    -5.73905  -2.0839    1.36601 
 6                     2.62843   0.42152  -2.42504 
 6                     1.79801   1.08989   2.74768 
 6                     1.29419   0.84292  -1.81804 
 6                     4.2283   -1.57715  -1.96755 
 6                    -5.7918   -2.48962  -1.98172 
 6                     5.48376  -1.05026  -1.28685 
 6                     3.16405   1.12003  -3.54309 
 6                     0.54492   1.923    -2.04397 
 6                     2.76086   1.88403   3.60458 
 6                    -0.57751   2.26988  -1.17387 
 6                    -6.75155  -3.38661  -1.64637 
 6                     6.68053  -2.01154  -1.5166 
 6                    -1.33764   3.43684  -1.2591 
 6                    -2.25074   3.4081   -0.18004 
 6                    -1.97206   2.1516    0.57749 
 6                    -1.19038   4.54425  -2.29587 
 6                    -3.31831   4.38322   0.24297 
 6                    -1.73786   5.79618  -2.29109 
 1                    -3.46292  -0.35174   1.21496 
 1                    -2.7892   -3.32054   1.13342 
 1                    -3.0581   -2.38794   2.61649 
 1                    -0.50394  -3.03483   0.05472 
 1                    -1.90707  -0.42155  -0.46881 
 1                     1.82414  -0.51773   4.32037 
 1                     2.73205  -0.86589   2.50543 
 1                     2.98681  -2.65916   0.35042 
 1                    -1.87477  -1.58553   4.40754 
 1                    -0.49222  -0.1557    4.75791 
 1                    -2.09763   0.20197   3.66907 
 1                    -5.83074  -1.14034   2.10465 
 1                    -5.63892  -3.21695   1.78299 
 1                    -6.84947  -2.03935   0.97598 
 1                     1.95803   1.06008   1.7441 
 1                     0.84805   1.46817   2.96052 
 1                     0.34971   0.09593  -0.20426 
 1                     4.4475   -1.69921  -3.05465 
 1                     4.31013  -2.58405  -1.53965 
 1                    -5.5247   -2.09736  -2.96471 
 1                     5.34879  -0.97904  -0.12235 
 1                     5.81304  -0.16579  -1.45554 
 1                     4.07946   0.70902  -4.06443 
 1                     3.40837   2.33435  -3.39809 
 1                     2.33928   1.32377  -4.30807 
 1                     0.82903   2.30887  -2.89641 
 1                    -6.67297  -3.74168  -0.65883 
 1                    -7.69753  -3.5711   -2.13917 
 1                     3.38415   3.6939    3.65195 
 1                    -0.57052   4.40668  -3.04212 
 1                    -4.0277    4.83735  -0.63308 
 1                    -3.86606   3.81724   1.00778 
 1                    -3.00154   5.32249   0.79849 
 1                     8.56848  -2.17695  -1.04198 
 1                    -1.47584   6.48144  -3.15703 
 1                    -2.68733   6.22992  -1.66686 
 
 Stoichiometry    C33H36N4O6
 Framework group  C1[X(C33H36N4O6)]
 Deg. of freedom   231
 Full point group                 C1      NOp   1
 Largest Abelian subgroup         C1      NOp   1
 Largest concise Abelian subgroup C1      NOp   1
                         Standard orientation:                         
 ---------------------------------------------------------------------
 Center     Atomic      Atomic             Coordinates (Angstroms)
 Number     Number       Type             X           Y           Z
 ---------------------------------------------------------------------
      1          8           0       -3.078345   -1.370382   -2.920329
      2          8           0        2.766512    3.228257    2.915370
      3          8           0        3.199873    1.819983    4.675104
      4          8           0        7.875056   -1.569797   -0.568479
      5          8           0        6.689316   -3.082423   -1.928975
      6          8           0       -2.664316    1.665247    1.401962
      7          7           0       -0.361640   -2.465068    1.016922
      8          7           0       -2.693704   -1.128501   -0.593350
      9          7           0        1.168894   -0.029204   -0.746756
     10          7           0       -0.984122    1.466818   -0.230953
     11          6           0       -3.471804   -1.256408    0.648022
     12          6           0       -2.692676   -2.303428    1.613827
     13          6           0       -1.260165   -2.094542    1.850043
     14          6           0       -0.649883   -1.108350    2.751312
     15          6           0        0.647673   -0.977185    2.497180
     16          6           0        0.886626   -1.864136    1.288563
     17          6           0       -4.788097   -1.902076    0.190711
     18          6           0        1.745323   -0.213473    3.178183
     19          6           0       -4.741130   -2.114426   -1.121813
     20          6           0        2.049140   -1.909693    0.418179
     21          6           0        2.084205   -1.043415   -0.625991
     22          6           0       -3.413504   -1.429476   -1.749261
     23          6           0        3.131269   -0.705364   -1.664182
     24          6           0       -1.415959   -0.469924    3.930473
     25          6           0       -5.773537   -2.055128    1.263573
     26          6           0        2.699099    0.343700   -2.359129
     27          6           0        1.707885    1.198434    2.757537
     28          6           0        1.345555    0.781628   -1.809258
     29          6           0        4.290112   -1.630166   -1.779414
     30          6           0       -5.722028   -2.583909   -2.066955
     31          6           0        5.522451   -1.073418   -1.080468
     32          6           0        3.266771    1.002823   -3.485251
     33          6           0        0.600353    1.849562   -2.097728
     34          6           0        2.641530    2.027514    3.613655
     35          6           0       -0.549355    2.223574   -1.275825
     36          6           0       -6.688946   -3.471915   -1.728314
     37          6           0        6.728594   -2.037550   -1.237822
     38          6           0       -1.309997    3.383456   -1.427298
     39          6           0       -2.255778    3.390657   -0.376391
     40          6           0       -1.996778    2.164024    0.435150
     41          6           0       -1.134218    4.452589   -2.499210
     42          6           0       -3.338782    4.376256   -0.022557
     43          6           0       -1.685334    5.701571   -2.557395
     44          1           0       -3.499045   -0.320308    1.118545
     45          1           0       -2.814235   -3.287287    1.167265
     46          1           0       -3.131437   -2.301896    2.605984
     47          1           0       -0.497723   -3.032015    0.149292
     48          1           0       -1.891908   -0.445570   -0.513034
     49          1           0        1.690424   -0.350143    4.388523
     50          1           0        2.654797   -0.761063    2.616326
     51          1           0        2.981125   -2.631309    0.537755
     52          1           0       -2.006200   -1.429273    4.401631
     53          1           0       -0.639378    0.018170    4.741224
     54          1           0       -2.211584    0.328922    3.591242
     55          1           0       -5.890748   -1.085424    1.963754
     56          1           0       -5.682895   -3.171643    1.724940
     57          1           0       -6.871561   -2.029533    0.838328
     58          1           0        1.898805    1.132386    1.761115
     59          1           0        0.750701    1.580355    2.927071
     60          1           0        0.354104    0.090606   -0.198725
     61          1           0        4.543030   -1.791225   -2.854048
     62          1           0        4.361756   -2.620304   -1.312360
     63          1           0       -5.425982   -2.226967   -3.055098
     64          1           0        5.351494   -0.959976    0.075933
     65          1           0        5.854112   -0.194405   -1.271498
     66          1           0        4.199020    0.576697   -3.962783
     67          1           0        3.502872    2.222657   -3.377726
     68          1           0        2.465329    1.174880   -4.282142
     69          1           0        0.909403    2.204993   -2.954720
     70          1           0       -6.639727   -3.790091   -0.726406
     71          1           0       -7.618754   -3.678305   -2.242722
     72          1           0        3.257637    3.840461    3.613310
     73          1           0       -0.491279    4.290228   -3.220534
     74          1           0       -4.022233    4.794928   -0.936091
     75          1           0       -3.908102    3.836529    0.745470
     76          1           0       -3.042070    5.336626    0.507380
     77          1           0        8.601536   -2.177597   -0.699797
     78          1           0       -1.398848    6.355599   -3.439585
     79          1           0       -2.654864    6.154061   -1.978977
 ---------------------------------------------------------------------
 Rotational constants (GHZ):           0.0898690           0.0509200           0.0485250
 Standard basis: SVP (5D, 7F)
 There are   825 symmetry adapted cartesian basis functions of A   symmetry.
 There are   782 symmetry adapted basis functions of A   symmetry.
   782 basis functions,  1327 primitive gaussians,   825 cartesian basis functions
   155 alpha electrons      155 beta electrons
       nuclear repulsion energy      5198.8160164259 Hartrees.
 NAtoms=   79 NActive=   79 NUniq=   79 SFac= 1.00D+00 NAtFMM=   60 NAOKFM=T Big=T
 Integral buffers will be    131072 words long.
 Regular integral format.
 Two-electron integral symmetry is turned on.
 One-electron integrals computed using PRISM.
 NBasis=   782 RedAO= T EigKep=  3.56D-04  NBF=   782
 NBsUse=   782 1.00D-06 EigRej= -1.00D+00 NBFU=   782
 ExpMin= 1.22D-01 ExpMax= 2.27D+03 ExpMxC= 3.41D+02 IAcc=3 IRadAn=         5 AccDes= 0.00D+00
 Harris functional with IExCor=  402 and IRadAn=       5 diagonalized for initial guess.
 HarFok:  IExCor=  402 AccDes= 0.00D+00 IRadAn=         5 IDoV= 1 UseB2=F ITyADJ=14
 ICtDFT=  3500011 ScaDFX=  1.000000  1.000000  1.000000  1.000000
 FoFCou: FMM=F IPFlag=           0 FMFlag=      100000 FMFlg1=        2001
         NFxFlg=           0 DoJE=T BraDBF=F KetDBF=T FulRan=T
         wScrn=  0.000000 ICntrl=       500 IOpCl=  0 I1Cent=   200000004 NGrid=           0
         NMat0=    1 NMatS0=      1 NMatT0=    0 NMatD0=    1 NMtDS0=    0 NMtDT0=    0
 Petite list used in FoFCou.
 Requested convergence on RMS density matrix=1.00D-08 within 128 cycles.
 Requested convergence on MAX density matrix=1.00D-06.
 Requested convergence on             energy=1.00D-06.
 No special actions if energy rises.
 Integral accuracy reduced to 1.0D-05 until final iterations.
 Initial convergence to 1.0D-05 achieved.  Increase integral accuracy.
 SCF Done:  E(RB3LYP) =  -1947.83118406     A.U. after   20 cycles
            NFock= 20  Conv=0.29D-08     -V/T= 2.0108
 DoSCS=F DFT=T ScalE2(SS,OS)=  1.000000  1.000000
 ExpMin= 1.22D-01 ExpMax= 2.27D+03 ExpMxC= 3.41D+02 IAcc=3 IRadAn=         5 AccDes= 0.00D+00
 HarFok:  IExCor=  205 AccDes= 0.00D+00 IRadAn=         5 IDoV=-2 UseB2=F ITyADJ=14
 ICtDFT= 12500011 ScaDFX=  1.000000  1.000000  1.000000  1.000000
 GSVD:  LWork=       -2193 too small for GESVD, short by        9890 words or        9890 for optimal perf.
 Range of M.O.s used for correlation:    44   782
 NBasis=   782 NAE=   155 NBE=   155 NFC=    43 NFV=     0
 NROrb=    739 NOA=   112 NOB=   112 NVA=   627 NVB=   627

 **** Warning!!: The smallest alpha delta epsilon is  0.44703997D-01

 Orbital symmetries:
       Occupied  (A) (A) (A) (A) (A) (A) (A) (A) (A) (A) (A) (A)
                 (A) (A) (A) (A) (A) (A) (A) (A) (A) (A) (A) (A)
                 (A) (A) (A) (A) (A) (A) (A) (A) (A) (A) (A) (A)
                 (A) (A) (A) (A) (A) (A) (A) (A) (A) (A) (A) (A)
                 (A) (A) (A) (A) (A) (A) (A) (A) (A) (A) (A) (A)
                 (A) (A) (A) (A) (A) (A) (A) (A) (A) (A) (A) (A)
                 (A) (A) (A) (A) (A) (A) (A) (A) (A) (A) (A) (A)
                 (A) (A) (A) (A) (A) (A) (A) (A) (A) (A) (A) (A)
                 (A) (A) (A) (A) (A) (A) (A) (A) (A) (A) (A) (A)
                 (A) (A) (A) (A) (A) (A) (A) (A) (A) (A) (A) (A)
                 (A) (A) (A) (A) (A) (A) (A) (A) (A) (A) (A) (A)
                 (A) (A) (A) (A) (A) (A) (A) (A) (A) (A) (A) (A)
                 (A) (A) (A) (A) (A) (A) (A) (A) (A) (A) (A)
       Virtual   (A) (A) (A) (A) (A) (A) (A) (A) (A) (A) (A) (A)
                 (A) (A) (A) (A) (A) (A) (A) (A) (A) (A) (A) (A)
                 (A) (A) (A) (A) (A) (A) (A) (A) (A) (A) (A) (A)
                 (A) (A) (A) (A) (A) (A) (A) (A) (A) (A) (A) (A)
                 (A) (A) (A) (A) (A) (A) (A) (A) (A) (A) (A) (A)
                 (A) (A) (A) (A) (A) (A) (A) (A) (A) (A) (A) (A)
                 (A) (A) (A) (A) (A) (A) (A) (A) (A) (A) (A) (A)
                 (A) (A) (A) (A) (A) (A) (A) (A) (A) (A) (A) (A)
                 (A) (A) (A) (A) (A) (A) (A) (A) (A) (A) (A) (A)
                 (A) (A) (A) (A) (A) (A) (A) (A) (A) (A) (A) (A)
                 (A) (A) (A) (A) (A) (A) (A) (A) (A) (A) (A) (A)
                 (A) (A) (A) (A) (A) (A) (A) (A) (A) (A) (A) (A)
                 (A) (A) (A) (A) (A) (A) (A) (A) (A) (A) (A) (A)
                 (A) (A) (A) (A) (A) (A) (A) (A) (A) (A) (A) (A)
                 (A) (A) (A) (A) (A) (A) (A) (A) (A) (A) (A) (A)
                 (A) (A) (A) (A) (A) (A) (A) (A) (A) (A) (A) (A)
                 (A) (A) (A) (A) (A) (A) (A) (A) (A) (A) (A) (A)
                 (A) (A) (A) (A) (A) (A) (A) (A) (A) (A) (A) (A)
                 (A) (A) (A) (A) (A) (A) (A) (A) (A) (A) (A) (A)
                 (A) (A) (A) (A) (A) (A) (A) (A) (A) (A) (A) (A)
                 (A) (A) (A) (A) (A) (A) (A) (A) (A) (A) (A) (A)
                 (A) (A) (A) (A) (A) (A) (A) (A) (A) (A) (A) (A)
                 (A) (A) (A) (A) (A) (A) (A) (A) (A) (A) (A) (A)
                 (A) (A) (A) (A) (A) (A) (A) (A) (A) (A) (A) (A)
                 (A) (A) (A) (A) (A) (A) (A) (A) (A) (A) (A) (A)
                 (A) (A) (A) (A) (A) (A) (A) (A) (A) (A) (A) (A)
                 (A) (A) (A) (A) (A) (A) (A) (A) (A) (A) (A) (A)
                 (A) (A) (A) (A) (A) (A) (A) (A) (A) (A) (A) (A)
                 (A) (A) (A) (A) (A) (A) (A) (A) (A) (A) (A) (A)
                 (A) (A) (A) (A) (A) (A) (A) (A) (A) (A) (A) (A)
                 (A) (A) (A) (A) (A) (A) (A) (A) (A) (A) (A) (A)
                 (A) (A) (A) (A) (A) (A) (A) (A) (A) (A) (A) (A)
                 (A) (A) (A) (A) (A) (A) (A) (A) (A) (A) (A) (A)
                 (A) (A) (A) (A) (A) (A) (A) (A) (A) (A) (A) (A)
                 (A) (A) (A) (A) (A) (A) (A) (A) (A) (A) (A) (A)
                 (A) (A) (A) (A) (A) (A) (A) (A) (A) (A) (A) (A)
                 (A) (A) (A) (A) (A) (A) (A) (A) (A) (A) (A) (A)
                 (A) (A) (A) (A) (A) (A) (A) (A) (A) (A) (A) (A)
                 (A) (A) (A) (A) (A) (A) (A) (A) (A) (A) (A) (A)
                 (A) (A) (A) (A) (A) (A) (A) (A) (A) (A) (A) (A)
                 (A) (A) (A) (A) (A) (A) (A) (A) (A) (A) (A) (A)
                 (A) (A) (A) (A) (A) (A) (A) (A) (A) (A) (A) (A)
                 (A) (A) (A) (A) (A) (A) (A) (A) (A) (A) (A) (A)
                 (A) (A) (A) (A) (A) (A) (A) (A) (A) (A) (A) (A)
                 (A) (A) (A) (A) (A) (A) (A) (A) (A) (A) (A) (A)
                 (A) (A) (A) (A) (A) (A) (A) (A) (A) (A) (A) (A)
                 (A) (A) (A) (A) (A) (A) (A) (A) (A) (A) (A) (A)
                 (A) (A) (A) (A) (A) (A) (A) (A) (A) (A) (A) (A)
                 (A) (A) (A) (A) (A) (A) (A) (A) (A) (A) (A) (A)
                 (A) (A) (A) (A) (A) (A) (A) (A) (A) (A) (A) (A)
                 (A) (A) (A) (A) (A) (A) (A) (A) (A) (A) (A) (A)
                 (A) (A) (A) (A) (A) (A) (A) (A) (A) (A) (A) (A)
                 (A) (A) (A)
     4 initial guesses have been made.
 Convergence on wavefunction:    0.001000000000000
 Iteration     1 Dimension     4 NMult     0 NNew      4
 CISAX will form     4 AO SS matrices at one time.
 Iteration     2 Dimension     6 NMult     4 NNew      2
 Iteration     3 Dimension     8 NMult     6 NNew      2
 Iteration     4 Dimension    10 NMult     8 NNew      2
 Iteration     5 Dimension    12 NMult    10 NNew      2
 ***********************************************************************
 Excited states from <AA,BB:AA,BB> singles matrix:
 ***********************************************************************
 
 Ground to excited state transition densities written to RWF  633
 Ground to excited state transition electric dipole moments (Au):
       state          X           Y           Z        Dip. S.      Osc.
         1        -0.0467      0.1793     -0.1506      0.0570      0.0008
 Ground to excited state transition velocity dipole moments (Au):
       state          X           Y           Z        Dip. S.      Osc.
         1        -0.0006     -0.0033      0.0033      0.0000      0.0007
 Ground to excited state transition magnetic dipole moments (Au):
       state          X           Y           Z
         1        -0.1104     -0.1731     -0.2252
 Ground to excited state transition velocity quadrupole moments (Au):
       state          XX          YY          ZZ          XY          XZ          YZ
         1        -0.0047     -0.0156      0.0181      0.0095     -0.0019      0.0014
 <0|del|b> * <b|rxdel|0> + <0|del|b> * <b|delr+rdel|0>
 Rotatory Strengths (R) in cgs (10**-40 erg-esu-cm/Gauss)
       state          XX          YY          ZZ    R(velocity)    E-M Angle
         1        -2.5321    -11.8599     10.5448     -1.2824       94.66
 1/2[<0|r|b>*<b|rxdel|0> + (<0|rxdel|b>*<b|r|0>)*]
 Rotatory Strengths (R) in cgs (10**-40 erg-esu-cm/Gauss)
       state          XX          YY          ZZ     R(length)
         1        -3.6479     21.9547    -23.9844     -1.8925
  1/2[<0|del|b>*<b|r|0> + (<0|r|b>*<b|del|0>)*] (Au)
       state          X           Y           Z        Dip. S.   Osc.(frdel)
         1         0.0000     -0.0006     -0.0005      0.0011      0.0007

 Excitation energies and oscillator strengths:
 
 Excited State   1:      Singlet-A      0.5799 eV 2138.13 nm  f=0.0008  <S**2>=0.000
     155 ->156         0.70451
 This state for optimization and/or second-order correction.
 Total Energy, E(TD-HF/TD-DFT) =  -1947.80987415    
 Copying the excited state density for this state as the 1-particle RhoCI density.
 SavETr:  write IOETrn=   770 NScale= 10 NData=  16 NLR=1 NState=    1 LETran=      28.

 **********************************************************************

            Population analysis using the SCF density.

 **********************************************************************

 Orbital symmetries:
       Occupied  (A) (A) (A) (A) (A) (A) (A) (A) (A) (A) (A) (A)
                 (A) (A) (A) (A) (A) (A) (A) (A) (A) (A) (A) (A)
                 (A) (A) (A) (A) (A) (A) (A) (A) (A) (A) (A) (A)
                 (A) (A) (A) (A) (A) (A) (A) (A) (A) (A) (A) (A)
                 (A) (A) (A) (A) (A) (A) (A) (A) (A) (A) (A) (A)
                 (A) (A) (A) (A) (A) (A) (A) (A) (A) (A) (A) (A)
                 (A) (A) (A) (A) (A) (A) (A) (A) (A) (A) (A) (A)
                 (A) (A) (A) (A) (A) (A) (A) (A) (A) (A) (A) (A)
                 (A) (A) (A) (A) (A) (A) (A) (A) (A) (A) (A) (A)
                 (A) (A) (A) (A) (A) (A) (A) (A) (A) (A) (A) (A)
                 (A) (A) (A) (A) (A) (A) (A) (A) (A) (A) (A) (A)
                 (A) (A) (A) (A) (A) (A) (A) (A) (A) (A) (A) (A)
                 (A) (A) (A) (A) (A) (A) (A) (A) (A) (A) (A)
       Virtual   (A) (A) (A) (A) (A) (A) (A) (A) (A) (A) (A) (A)
                 (A) (A) (A) (A) (A) (A) (A) (A) (A) (A) (A) (A)
                 (A) (A) (A) (A) (A) (A) (A) (A) (A) (A) (A) (A)
                 (A) (A) (A) (A) (A) (A) (A) (A) (A) (A) (A) (A)
                 (A) (A) (A) (A) (A) (A) (A) (A) (A) (A) (A) (A)
                 (A) (A) (A) (A) (A) (A) (A) (A) (A) (A) (A) (A)
                 (A) (A) (A) (A) (A) (A) (A) (A) (A) (A) (A) (A)
                 (A) (A) (A) (A) (A) (A) (A) (A) (A) (A) (A) (A)
                 (A) (A) (A) (A) (A) (A) (A) (A) (A) (A) (A) (A)
                 (A) (A) (A) (A) (A) (A) (A) (A) (A) (A) (A) (A)
                 (A) (A) (A) (A) (A) (A) (A) (A) (A) (A) (A) (A)
                 (A) (A) (A) (A) (A) (A) (A) (A) (A) (A) (A) (A)
                 (A) (A) (A) (A) (A) (A) (A) (A) (A) (A) (A) (A)
                 (A) (A) (A) (A) (A) (A) (A) (A) (A) (A) (A) (A)
                 (A) (A) (A) (A) (A) (A) (A) (A) (A) (A) (A) (A)
                 (A) (A) (A) (A) (A) (A) (A) (A) (A) (A) (A) (A)
                 (A) (A) (A) (A) (A) (A) (A) (A) (A) (A) (A) (A)
                 (A) (A) (A) (A) (A) (A) (A) (A) (A) (A) (A) (A)
                 (A) (A) (A) (A) (A) (A) (A) (A) (A) (A) (A) (A)
                 (A) (A) (A) (A) (A) (A) (A) (A) (A) (A) (A) (A)
                 (A) (A) (A) (A) (A) (A) (A) (A) (A) (A) (A) (A)
                 (A) (A) (A) (A) (A) (A) (A) (A) (A) (A) (A) (A)
                 (A) (A) (A) (A) (A) (A) (A) (A) (A) (A) (A) (A)
                 (A) (A) (A) (A) (A) (A) (A) (A) (A) (A) (A) (A)
                 (A) (A) (A) (A) (A) (A) (A) (A) (A) (A) (A) (A)
                 (A) (A) (A) (A) (A) (A) (A) (A) (A) (A) (A) (A)
                 (A) (A) (A) (A) (A) (A) (A) (A) (A) (A) (A) (A)
                 (A) (A) (A) (A) (A) (A) (A) (A) (A) (A) (A) (A)
                 (A) (A) (A) (A) (A) (A) (A) (A) (A) (A) (A) (A)
                 (A) (A) (A) (A) (A) (A) (A) (A) (A) (A) (A) (A)
                 (A) (A) (A) (A) (A) (A) (A) (A) (A) (A) (A) (A)
                 (A) (A) (A) (A) (A) (A) (A) (A) (A) (A) (A) (A)
                 (A) (A) (A) (A) (A) (A) (A) (A) (A) (A) (A) (A)
                 (A) (A) (A) (A) (A) (A) (A) (A) (A) (A) (A) (A)
                 (A) (A) (A) (A) (A) (A) (A) (A) (A) (A) (A) (A)
                 (A) (A) (A) (A) (A) (A) (A) (A) (A) (A) (A) (A)
                 (A) (A) (A) (A) (A) (A) (A) (A) (A) (A) (A) (A)
                 (A) (A) (A) (A) (A) (A) (A) (A) (A) (A) (A) (A)
                 (A) (A) (A) (A) (A) (A) (A) (A) (A) (A) (A) (A)
                 (A) (A) (A) (A) (A) (A) (A) (A) (A) (A) (A) (A)
                 (A) (A) (A) (A) (A) (A) (A) (A) (A) (A) (A) (A)
                 (A) (A) (A) (A) (A) (A) (A) (A) (A) (A) (A) (A)
                 (A) (A) (A) (A) (A) (A) (A) (A) (A) (A) (A) (A)
                 (A) (A) (A) (A) (A) (A) (A) (A) (A) (A) (A) (A)
                 (A) (A) (A) (A) (A) (A) (A) (A) (A) (A) (A) (A)
                 (A) (A) (A) (A) (A) (A) (A) (A) (A) (A) (A) (A)
                 (A) (A) (A) (A) (A) (A) (A) (A) (A) (A) (A) (A)
                 (A) (A) (A) (A) (A) (A) (A) (A) (A) (A) (A) (A)
                 (A) (A) (A) (A) (A) (A) (A) (A) (A) (A) (A) (A)
                 (A) (A) (A) (A) (A) (A) (A) (A) (A) (A) (A) (A)
                 (A) (A) (A) (A) (A) (A) (A) (A) (A) (A) (A) (A)
                 (A) (A) (A) (A) (A) (A) (A) (A) (A) (A) (A) (A)
                 (A) (A) (A)
 The electronic state is 1-A.
 Alpha  occ. eigenvalues --  -19.19540 -19.17638 -19.14823 -19.13537 -19.13413
 Alpha  occ. eigenvalues --  -19.09424 -14.38392 -14.37277 -14.33060 -14.31119
 Alpha  occ. eigenvalues --  -10.34420 -10.31934 -10.29320 -10.27634 -10.26252
 Alpha  occ. eigenvalues --  -10.26115 -10.25165 -10.23105 -10.22818 -10.22746
 Alpha  occ. eigenvalues --  -10.22555 -10.22461 -10.22370 -10.22174 -10.22007
 Alpha  occ. eigenvalues --  -10.21922 -10.21585 -10.21537 -10.21516 -10.21309
 Alpha  occ. eigenvalues --  -10.20730 -10.20289 -10.20202 -10.20151 -10.19948
 Alpha  occ. eigenvalues --  -10.19726 -10.19076 -10.18513 -10.18486 -10.18314
 Alpha  occ. eigenvalues --  -10.17689 -10.17538 -10.16547  -1.08577  -1.07568
 Alpha  occ. eigenvalues --   -1.01466  -1.00776  -1.00567  -1.00544  -0.99350
 Alpha  occ. eigenvalues --   -0.98223  -0.93915  -0.91093  -0.84838  -0.83660
 Alpha  occ. eigenvalues --   -0.81740  -0.80803  -0.80329  -0.80069  -0.78488
 Alpha  occ. eigenvalues --   -0.76962  -0.76438  -0.75922  -0.74424  -0.73297
 Alpha  occ. eigenvalues --   -0.71625  -0.69567  -0.69111  -0.68261  -0.66976
 Alpha  occ. eigenvalues --   -0.66055  -0.65540  -0.63782  -0.61583  -0.60787
 Alpha  occ. eigenvalues --   -0.60094  -0.59723  -0.59445  -0.57850  -0.57036
 Alpha  occ. eigenvalues --   -0.56245  -0.55612  -0.55508  -0.53951  -0.52381
 Alpha  occ. eigenvalues --   -0.52117  -0.51899  -0.50981  -0.50358  -0.49782
 Alpha  occ. eigenvalues --   -0.49611  -0.48747  -0.48477  -0.47901  -0.47705
 Alpha  occ. eigenvalues --   -0.47565  -0.47186  -0.46517  -0.46193  -0.45696
 Alpha  occ. eigenvalues --   -0.45318  -0.44865  -0.44595  -0.44180  -0.44137
 Alpha  occ. eigenvalues --   -0.43788  -0.43328  -0.42552  -0.42482  -0.41872
 Alpha  occ. eigenvalues --   -0.41809  -0.41717  -0.41536  -0.40988  -0.40773
 Alpha  occ. eigenvalues --   -0.40662  -0.40341  -0.40192  -0.39978  -0.39647
 Alpha  occ. eigenvalues --   -0.39153  -0.38943  -0.38696  -0.38029  -0.37966
 Alpha  occ. eigenvalues --   -0.37488  -0.37401  -0.37089  -0.36769  -0.36369
 Alpha  occ. eigenvalues --   -0.35988  -0.35643  -0.35498  -0.35462  -0.35214
 Alpha  occ. eigenvalues --   -0.33541  -0.33432  -0.32603  -0.32051  -0.31901
 Alpha  occ. eigenvalues --   -0.31544  -0.30116  -0.29832  -0.29389  -0.29104
 Alpha  occ. eigenvalues --   -0.28641  -0.27426  -0.26664  -0.24872  -0.24413
 Alpha  occ. eigenvalues --   -0.24013  -0.23736  -0.22841  -0.22194  -0.18069
 Alpha virt. eigenvalues --   -0.13599  -0.07511  -0.03941  -0.02701  -0.02584
 Alpha virt. eigenvalues --   -0.00058   0.01029   0.01785   0.02714   0.02883
 Alpha virt. eigenvalues --    0.03817   0.04195   0.04498   0.04504   0.04949
 Alpha virt. eigenvalues --    0.05212   0.05566   0.05681   0.05901   0.06397
 Alpha virt. eigenvalues --    0.06934   0.07873   0.08914   0.08981   0.09135
 Alpha virt. eigenvalues --    0.09522   0.09687   0.10053   0.10238   0.10829
 Alpha virt. eigenvalues --    0.11236   0.11293   0.11908   0.12268   0.12491
 Alpha virt. eigenvalues --    0.12844   0.12907   0.13579   0.13851   0.14032
 Alpha virt. eigenvalues --    0.14168   0.14488   0.15031   0.15184   0.15518
 Alpha virt. eigenvalues --    0.16418   0.16594   0.17087   0.17549   0.17777
 Alpha virt. eigenvalues --    0.18796   0.18959   0.19260   0.19787   0.20555
 Alpha virt. eigenvalues --    0.20792   0.21230   0.21759   0.22004   0.22455
 Alpha virt. eigenvalues --    0.22578   0.23133   0.23881   0.24547   0.25099
 Alpha virt. eigenvalues --    0.25542   0.25605   0.26482   0.26809   0.27228
 Alpha virt. eigenvalues --    0.27318   0.27762   0.28015   0.28521   0.28884
 Alpha virt. eigenvalues --    0.29297   0.30140   0.30717   0.30854   0.31232
 Alpha virt. eigenvalues --    0.31756   0.32187   0.32544   0.32747   0.33066
 Alpha virt. eigenvalues --    0.33488   0.34457   0.35055   0.35930   0.36513
 Alpha virt. eigenvalues --    0.36917   0.37733   0.38112   0.38705   0.38806
 Alpha virt. eigenvalues --    0.39553   0.40322   0.40838   0.40975   0.41529
 Alpha virt. eigenvalues --    0.41991   0.42295   0.42410   0.42456   0.42730
 Alpha virt. eigenvalues --    0.43208   0.43882   0.44073   0.44409   0.44592
 Alpha virt. eigenvalues --    0.44737   0.45158   0.45781   0.46085   0.47057
 Alpha virt. eigenvalues --    0.47440   0.47616   0.47792   0.48184   0.48348
 Alpha virt. eigenvalues --    0.48611   0.48910   0.49474   0.49507   0.49880
 Alpha virt. eigenvalues --    0.50335   0.50762   0.50937   0.51567   0.51850
 Alpha virt. eigenvalues --    0.52004   0.52509   0.53054   0.53173   0.53296
 Alpha virt. eigenvalues --    0.54107   0.54417   0.55161   0.55328   0.55624
 Alpha virt. eigenvalues --    0.55753   0.55970   0.56713   0.57192   0.57462
 Alpha virt. eigenvalues --    0.57786   0.58000   0.58380   0.58538   0.59143
 Alpha virt. eigenvalues --    0.59417   0.59542   0.59596   0.59970   0.60315
 Alpha virt. eigenvalues --    0.60451   0.60798   0.60982   0.61296   0.61599
 Alpha virt. eigenvalues --    0.61907   0.62176   0.62194   0.62557   0.63041
 Alpha virt. eigenvalues --    0.63276   0.63516   0.63728   0.63921   0.64387
 Alpha virt. eigenvalues --    0.64773   0.64931   0.65193   0.65283   0.65684
 Alpha virt. eigenvalues --    0.65779   0.66171   0.66287   0.66431   0.66680
 Alpha virt. eigenvalues --    0.66991   0.67454   0.67571   0.67759   0.68269
 Alpha virt. eigenvalues --    0.68725   0.68977   0.69190   0.69283   0.69968
 Alpha virt. eigenvalues --    0.70371   0.70733   0.70894   0.71112   0.71341
 Alpha virt. eigenvalues --    0.71515   0.71595   0.72025   0.72346   0.72560
 Alpha virt. eigenvalues --    0.73024   0.73504   0.74058   0.74400   0.74914
 Alpha virt. eigenvalues --    0.75580   0.75829   0.76432   0.77259   0.77649
 Alpha virt. eigenvalues --    0.77900   0.78516   0.78707   0.79164   0.79660
 Alpha virt. eigenvalues --    0.80345   0.80615   0.81122   0.81590   0.81839
 Alpha virt. eigenvalues --    0.82040   0.82937   0.83016   0.83647   0.84195
 Alpha virt. eigenvalues --    0.84547   0.85206   0.85839   0.86966   0.87785
 Alpha virt. eigenvalues --    0.88187   0.88601   0.89645   0.89936   0.90357
 Alpha virt. eigenvalues --    0.90804   0.91235   0.91914   0.92230   0.92897
 Alpha virt. eigenvalues --    0.94005   0.94585   0.94974   0.95241   0.95977
 Alpha virt. eigenvalues --    0.96451   0.97140   0.97510   0.97790   0.98082
 Alpha virt. eigenvalues --    0.98792   0.99733   1.00184   1.00585   1.01975
 Alpha virt. eigenvalues --    1.02654   1.04140   1.04740   1.05440   1.06032
 Alpha virt. eigenvalues --    1.06400   1.07450   1.08020   1.08765   1.09935
 Alpha virt. eigenvalues --    1.10230   1.10854   1.11271   1.12045   1.12187
 Alpha virt. eigenvalues --    1.12617   1.13846   1.14547   1.15252   1.15616
 Alpha virt. eigenvalues --    1.16268   1.16773   1.17690   1.18415   1.19006
 Alpha virt. eigenvalues --    1.19192   1.20194   1.20528   1.21150   1.21803
 Alpha virt. eigenvalues --    1.22639   1.22807   1.23649   1.24165   1.24904
 Alpha virt. eigenvalues --    1.25454   1.26023   1.26379   1.27095   1.27480
 Alpha virt. eigenvalues --    1.28412   1.29214   1.29406   1.30844   1.31403
 Alpha virt. eigenvalues --    1.31920   1.32217   1.32725   1.33411   1.34346
 Alpha virt. eigenvalues --    1.34913   1.35674   1.36241   1.37191   1.37714
 Alpha virt. eigenvalues --    1.37917   1.38789   1.40115   1.41010   1.42134
 Alpha virt. eigenvalues --    1.42442   1.42744   1.43091   1.43570   1.44353
 Alpha virt. eigenvalues --    1.44837   1.45203   1.46559   1.47099   1.47251
 Alpha virt. eigenvalues --    1.48130   1.48191   1.48651   1.49210   1.49741
 Alpha virt. eigenvalues --    1.50062   1.50578   1.52373   1.52757   1.52929
 Alpha virt. eigenvalues --    1.53587   1.54625   1.54697   1.55949   1.56323
 Alpha virt. eigenvalues --    1.56626   1.57512   1.58144   1.58454   1.59723
 Alpha virt. eigenvalues --    1.59939   1.60637   1.61103   1.61452   1.61870
 Alpha virt. eigenvalues --    1.62104   1.62727   1.62901   1.63032   1.63463
 Alpha virt. eigenvalues --    1.63967   1.65088   1.65738   1.66458   1.67083
 Alpha virt. eigenvalues --    1.67409   1.67684   1.67965   1.68170   1.68451
 Alpha virt. eigenvalues --    1.68534   1.69190   1.69338   1.69540   1.70784
 Alpha virt. eigenvalues --    1.71160   1.71840   1.72098   1.72451   1.72601
 Alpha virt. eigenvalues --    1.73226   1.73795   1.74036   1.74469   1.75029
 Alpha virt. eigenvalues --    1.75268   1.75683   1.76159   1.76477   1.76830
 Alpha virt. eigenvalues --    1.77467   1.77613   1.78582   1.78884   1.79222
 Alpha virt. eigenvalues --    1.79539   1.79899   1.80353   1.80669   1.81168
 Alpha virt. eigenvalues --    1.81272   1.81573   1.81949   1.82360   1.82991
 Alpha virt. eigenvalues --    1.83592   1.83870   1.84775   1.85297   1.85355
 Alpha virt. eigenvalues --    1.85930   1.86493   1.86641   1.87289   1.87541
 Alpha virt. eigenvalues --    1.88263   1.88696   1.89285   1.89912   1.90639
 Alpha virt. eigenvalues --    1.90732   1.91303   1.91642   1.91926   1.92590
 Alpha virt. eigenvalues --    1.92947   1.93173   1.93584   1.94430   1.94572
 Alpha virt. eigenvalues --    1.94927   1.95662   1.96386   1.97057   1.97535
 Alpha virt. eigenvalues --    1.98198   1.98775   1.99092   1.99793   2.00307
 Alpha virt. eigenvalues --    2.00655   2.01199   2.01689   2.02731   2.02997
 Alpha virt. eigenvalues --    2.03280   2.03468   2.04007   2.04259   2.04881
 Alpha virt. eigenvalues --    2.05417   2.05867   2.06419   2.06821   2.07201
 Alpha virt. eigenvalues --    2.07510   2.07990   2.08356   2.09117   2.09691
 Alpha virt. eigenvalues --    2.10705   2.10915   2.11193   2.11888   2.12229
 Alpha virt. eigenvalues --    2.13030   2.13506   2.14262   2.14952   2.15378
 Alpha virt. eigenvalues --    2.15855   2.16408   2.17131   2.18023   2.18437
 Alpha virt. eigenvalues --    2.19656   2.20452   2.21786   2.22056   2.22176
 Alpha virt. eigenvalues --    2.22988   2.23432   2.24746   2.25035   2.25387
 Alpha virt. eigenvalues --    2.25984   2.26080   2.27364   2.28186   2.28695
 Alpha virt. eigenvalues --    2.28817   2.29505   2.30153   2.31137   2.31487
 Alpha virt. eigenvalues --    2.32386   2.33021   2.33542   2.34115   2.34585
 Alpha virt. eigenvalues --    2.35130   2.35789   2.36070   2.37064   2.37439
 Alpha virt. eigenvalues --    2.38000   2.38515   2.39831   2.40906   2.41343
 Alpha virt. eigenvalues --    2.41785   2.42676   2.43577   2.43863   2.44441
 Alpha virt. eigenvalues --    2.45209   2.46860   2.47687   2.48744   2.49239
 Alpha virt. eigenvalues --    2.50310   2.50696   2.51665   2.52327   2.52906
 Alpha virt. eigenvalues --    2.53831   2.54188   2.55148   2.57243   2.57681
 Alpha virt. eigenvalues --    2.57818   2.59313   2.59517   2.60313   2.61034
 Alpha virt. eigenvalues --    2.62068   2.62485   2.63442   2.63590   2.63838
 Alpha virt. eigenvalues --    2.64380   2.66202   2.66221   2.67145   2.67740
 Alpha virt. eigenvalues --    2.68495   2.69123   2.69226   2.70398   2.70740
 Alpha virt. eigenvalues --    2.71330   2.72130   2.72357   2.72977   2.74165
 Alpha virt. eigenvalues --    2.74744   2.74938   2.75705   2.76545   2.77336
 Alpha virt. eigenvalues --    2.77867   2.79149   2.79631   2.80475   2.80939
 Alpha virt. eigenvalues --    2.81804   2.81954   2.83239   2.83398   2.83866
 Alpha virt. eigenvalues --    2.83994   2.84548   2.85270   2.85580   2.85928
 Alpha virt. eigenvalues --    2.87184   2.87430   2.87722   2.88447   2.89486
 Alpha virt. eigenvalues --    2.90243   2.91263   2.92578   2.94422   2.95644
 Alpha virt. eigenvalues --    2.95809   2.96830   2.97455   2.98173   3.00024
 Alpha virt. eigenvalues --    3.01070   3.01361   3.01999   3.03618   3.04636
 Alpha virt. eigenvalues --    3.05812   3.07910   3.08604   3.09885   3.10331
 Alpha virt. eigenvalues --    3.10717   3.11841   3.12324   3.13618   3.14892
 Alpha virt. eigenvalues --    3.16126   3.16943   3.18145   3.18638   3.18695
 Alpha virt. eigenvalues --    3.19583   3.22392   3.25093   3.28438   3.32162
 Alpha virt. eigenvalues --    3.34147   3.35464   3.37459   3.41787   3.43421
 Alpha virt. eigenvalues --    3.43510   3.46810   3.51278   3.52993   3.56325
 Alpha virt. eigenvalues --    3.57601   3.61016   3.61868   3.62339   3.67458
 Alpha virt. eigenvalues --    3.71187   3.73812
          Condensed to atoms (all electrons):
 Mulliken charges:
               1
     1  O   -0.233681
     2  O   -0.255597
     3  O   -0.216106
     4  O   -0.211778
     5  O   -0.253523
     6  O   -0.246897
     7  N    0.010222
     8  N   -0.264107
     9  N   -0.041590
    10  N   -0.335061
    11  C    0.106347
    12  C    0.212991
    13  C   -0.147309
    14  C   -0.113252
    15  C   -0.068393
    16  C   -0.067304
    17  C   -0.138911
    18  C    0.012577
    19  C   -0.103483
    20  C   -0.161748
    21  C    0.104828
    22  C    0.187229
    23  C   -0.037628
    24  C   -0.048715
    25  C   -0.007929
    26  C   -0.045621
    27  C    0.111602
    28  C    0.069825
    29  C    0.098336
    30  C    0.000332
    31  C    0.017493
    32  C   -0.021394
    33  C    0.002596
    34  C    0.158938
    35  C    0.162175
    36  C    0.001249
    37  C    0.176513
    38  C    0.046603
    39  C   -0.176564
    40  C    0.217840
    41  C    0.076965
    42  C    0.015202
    43  C   -0.081660
    44  H    0.017145
    45  H   -0.032561
    46  H   -0.011452
    47  H    0.134026
    48  H    0.158652
    49  H    0.051987
    50  H    0.015490
    51  H    0.031663
    52  H    0.037945
    53  H    0.029857
    54  H    0.064266
    55  H    0.055078
    56  H    0.065140
    57  H    0.027738
    58  H   -0.005208
    59  H    0.029816
    60  H    0.158714
    61  H    0.029316
    62  H    0.028674
    63  H    0.005148
    64  H    0.051269
    65  H   -0.028015
    66  H    0.040990
    67  H    0.042683
    68  H    0.043179
    69  H   -0.116585
    70  H   -0.003573
    71  H    0.022704
    72  H    0.199867
    73  H   -0.064776
    74  H    0.057372
    75  H    0.030148
    76  H    0.046443
    77  H    0.182426
    78  H    0.037463
    79  H    0.055358
 Sum of Mulliken charges =  -0.00000
 Mulliken charges with hydrogens summed into heavy atoms:
               1
     1  O   -0.233681
     2  O   -0.055730
     3  O   -0.216106
     4  O   -0.029352
     5  O   -0.253523
     6  O   -0.246897
     7  N    0.144248
     8  N   -0.105454
     9  N    0.117124
    10  N   -0.335061
    11  C    0.123492
    12  C    0.168978
    13  C   -0.147309
    14  C   -0.113252
    15  C   -0.068393
    16  C   -0.067304
    17  C   -0.138911
    18  C    0.080054
    19  C   -0.103483
    20  C   -0.130085
    21  C    0.104828
    22  C    0.187229
    23  C   -0.037628
    24  C    0.083353
    25  C    0.140027
    26  C   -0.045621
    27  C    0.136210
    28  C    0.069825
    29  C    0.156326
    30  C    0.005480
    31  C    0.040747
    32  C    0.105459
    33  C   -0.113989
    34  C    0.158938
    35  C    0.162175
    36  C    0.020380
    37  C    0.176513
    38  C    0.046603
    39  C   -0.176564
    40  C    0.217840
    41  C    0.012189
    42  C    0.149165
    43  C    0.011162
 Electronic spatial extent (au):  <R**2>=          25699.6103
 Charge=             -0.0000 electrons
 Dipole moment (field-independent basis, Debye):
    X=              3.2368    Y=              3.4734    Z=             -1.6472  Tot=              5.0254
 Quadrupole moment (field-independent basis, Debye-Ang):
   XX=           -232.7372   YY=           -236.9291   ZZ=           -271.2793
   XY=             -0.8815   XZ=            -20.7438   YZ=            -17.1307
 Traceless Quadrupole moment (field-independent basis, Debye-Ang):
   XX=             14.2447   YY=             10.0527   ZZ=            -24.2974
   XY=             -0.8815   XZ=            -20.7438   YZ=            -17.1307
 Octapole moment (field-independent basis, Debye-Ang**2):
  XXX=            224.6658  YYY=            128.8277  ZZZ=            -59.1354  XYY=            -31.3566
  XXY=             -2.7085  XXZ=             18.2649  XZZ=             23.1199  YZZ=             74.9169
  YYZ=             23.8778  XYZ=              1.9732
 Hexadecapole moment (field-independent basis, Debye-Ang**3):
 XXXX=         -16395.0412 YYYY=          -7928.2698 ZZZZ=          -7433.9490 XXXY=           -321.4812
 XXXZ=           -178.5714 YYYX=            -99.4459 YYYZ=            -10.1118 ZZZX=           -394.4040
 ZZZY=            -51.7100 XXYY=          -4421.5155 XXZZ=          -4653.8160 YYZZ=          -2441.7782
 XXYZ=           -243.8768 YYXZ=            224.0471 ZZXY=             63.6853
 N-N= 5.198816016426D+03 E-N=-1.492599698048D+04  KE= 1.926967393528D+03
 1\1\GINC-PADAWAN\SP\RB3LYP TD-FC\SVP\C33H36N4O6\PADAWAN\28-Jul-2019\0\
 \# td=(NStates=1) B3LYP/SVP\\TD\\0,1\O,0,-3.1705239626,-1.2533703925,-
 2.8708377381\O,0,2.8693473895,3.1093325918,2.9474090118\O,0,3.35060936
 91,1.6358107094,4.6399884424\O,0,7.8488834912,-1.5722333375,-0.8661073
 725\O,0,6.615775734,-3.0300838033,-2.2441808662\O,0,-2.6117120777,1.61
 94974388,1.545384599\N,0,-0.3389896452,-2.5006863829,0.9380186427\N,0,
 -2.7137634143,-1.0986449995,-0.5494770923\N,0,1.146826232,-0.006019692
 3,-0.7811430515\N,0,-0.9831774632,1.4764030482,-0.1446553634\C,0,-3.45
 39805478,-1.2699245549,0.7097079447\C,0,-2.6499536215,-2.3541895652,1.
 6119164984\C,0,-1.2100266444,-2.1584536594,1.8114591345\C,0,-0.5683466
 37,-1.2080119929,2.7291809386\C,0,0.7213432469,-1.0714521462,2.4402352
 181\C,0,0.9194846347,-1.9139278275,1.1930341074\C,0,-4.786323579,-1.89
 43350822,0.2696838557\C,0,1.8424888403,-0.336673997,3.1147636309\C,0,-
 4.7804744088,-2.0582645349,-1.050585399\C,0,2.0545834147,-1.9308312753
 ,0.2862008988\C,0,2.0612121431,-1.0267345857,-0.7259865002\C,0,-3.4698
 816581,-1.354617427,-1.6929765811\C,0,3.0773587991,-0.6537561239,-1.78
 27721761\C,0,-1.295288101,-0.6112249795,3.9540409124\C,0,-5.739049129,
 -2.0839048708,1.3660076064\C,0,2.6284325002,0.4215195202,-2.4250371137
 \C,0,1.7980092333,1.0898946815,2.7476814097\C,0,1.2941927858,0.8429209
 407,-1.8180379098\C,0,4.2282981789,-1.5771471438,-1.9675463847\C,0,-5.
 7918035165,-2.4896210525,-1.9817216204\C,0,5.4837639274,-1.0502567709,
 -1.2868521021\C,0,3.1640465001,1.1200304056,-3.5430908183\C,0,0.544916
 9158,1.9229974466,-2.0439661417\C,0,2.7608647268,1.8840279883,3.604575
 8028\C,0,-0.5775115828,2.2698816204,-1.1738726752\C,0,-6.7515490814,-3
 .3866124253,-1.646373196\C,0,6.6805276224,-2.011539409,-1.5166023502\C
 ,0,-1.337642419,3.4368359168,-1.2591039851\C,0,-2.2507391633,3.4081012
 891,-0.1800359098\C,0,-1.9720594783,2.1515960931,0.5774866807\C,0,-1.1
 903790163,4.5442506853,-2.2958713551\C,0,-3.3183124677,4.3832188048,0.
 2429685366\C,0,-1.737857677,5.7961750357,-2.2910928421\H,0,-3.46292478
 57,-0.351740664,1.2149557002\H,0,-2.7892005465,-3.3205371787,1.1334236
 915\H,0,-3.0580956294,-2.3879422386,2.6164910378\H,0,-0.5039356984,-3.
 0348322483,0.0547224822\H,0,-1.9070690966,-0.4215484583,-0.4688109835\
 H,0,1.8241403754,-0.5177332271,4.3203741365\H,0,2.732050538,-0.8658884
 801,2.5054254719\H,0,2.9868074946,-2.6591574986,0.350418095\H,0,-1.874
 7701063,-1.5855278268,4.4075378156\H,0,-0.4922189899,-0.1556997736,4.7
 579121477\H,0,-2.0976290767,0.201972644,3.6690656719\H,0,-5.8307438616
 ,-1.1403421654,2.1046547585\H,0,-5.638922653,-3.2169457992,1.782991145
 4\H,0,-6.849472324,-2.0393495784,0.9759839601\H,0,1.9580319426,1.06007
 59495,1.7441020215\H,0,0.848054757,1.4681690612,2.9605240261\H,0,0.349
 7132289,0.0959339632,-0.2042624585\H,0,4.4475004692,-1.6992129803,-3.0
 54651067\H,0,4.310131843,-2.5840501842,-1.5396510731\H,0,-5.5247046089
 ,-2.0973606607,-2.9647099348\H,0,5.3487928006,-0.9790383837,-0.1223490
 112\H,0,5.8130427456,-0.1657935755,-1.4555400365\H,0,4.0794578573,0.70
 90173938,-4.064434673\H,0,3.4083665883,2.3343545142,-3.3980921446\H,0,
 2.3392797173,1.3237668746,-4.3080739594\H,0,0.8290268127,2.3088723837,
 -2.8964105331\H,0,-6.6729663827,-3.7416763515,-0.6588349047\H,0,-7.697
 5280177,-3.5710984403,-2.1391669702\H,0,3.3841521427,3.6938987509,3.65
 1948449\H,0,-0.5705209309,4.4066819477,-3.0421221076\H,0,-4.0277013597
 ,4.8373503168,-0.6330844599\H,0,-3.8660553552,3.8172365173,1.007781589
 6\H,0,-3.00153847,5.3224925404,0.7984856185\H,0,8.5684825418,-2.176950
 8493,-1.0419848335\H,0,-1.4758405087,6.481438601,-3.1570305553\H,0,-2.
 687331086,6.2299243682,-1.6668625938\\Version=ES64L-G16RevA.03\State=1
 -A\HF=-1947.8311841\RMSD=2.943e-09\PG=C01 [X(C33H36N4O6)]\\@


 ROSE IS A RED
 TY COBB IS BLUE
 'CAUSE PETE JUST HIT
 NO. 4592.
 Job cpu time:       0 days  4 hours 15 minutes 24.4 seconds.
 Elapsed time:       0 days  1 hours  4 minutes  0.3 seconds.
 File lengths (MBytes):  RWF=   2533 Int=      0 D2E=      0 Chk=     63 Scr=      1
 Normal termination of Gaussian 16 at Sun Jul 28 06:34:00 2019.
