 Entering Gaussian System, Link 0=g16
 Input=Geometria-156-.com
 Output=Geometria-156-.log
 Initial command:
 /usr/local/g16/l1.exe "/home/padawan/israel-mol/dihydrobiliverdin/spectra/emi/Gau-13317.inp" -scrdir="/home/padawan/israel-mol/dihydrobiliverdin/spectra/emi/"
 Entering Link 1 = /usr/local/g16/l1.exe PID=     13319.
  
 Copyright (c) 1988,1990,1992,1993,1995,1998,2003,2009,2016,
            Gaussian, Inc.  All Rights Reserved.
  
 This is part of the Gaussian(R) 16 program.  It is based on
 the Gaussian(R) 09 system (copyright 2009, Gaussian, Inc.),
 the Gaussian(R) 03 system (copyright 2003, Gaussian, Inc.),
 the Gaussian(R) 98 system (copyright 1998, Gaussian, Inc.),
 the Gaussian(R) 94 system (copyright 1995, Gaussian, Inc.),
 the Gaussian 92(TM) system (copyright 1992, Gaussian, Inc.),
 the Gaussian 90(TM) system (copyright 1990, Gaussian, Inc.),
 the Gaussian 88(TM) system (copyright 1988, Gaussian, Inc.),
 the Gaussian 86(TM) system (copyright 1986, Carnegie Mellon
 University), and the Gaussian 82(TM) system (copyright 1983,
 Carnegie Mellon University). Gaussian is a federally registered
 trademark of Gaussian, Inc.
  
 This software contains proprietary and confidential information,
 including trade secrets, belonging to Gaussian, Inc.
  
 This software is provided under written license and may be
 used, copied, transmitted, or stored only in accord with that
 written license.
  
 The following legend is applicable only to US Government
 contracts under FAR:
  
                    RESTRICTED RIGHTS LEGEND
  
 Use, reproduction and disclosure by the US Government is
 subject to restrictions as set forth in subparagraphs (a)
 and (c) of the Commercial Computer Software - Restricted
 Rights clause in FAR 52.227-19.
  
 Gaussian, Inc.
 340 Quinnipiac St., Bldg. 40, Wallingford CT 06492
  
  
 ---------------------------------------------------------------
 Warning -- This program may not be used in any manner that
 competes with the business of Gaussian, Inc. or will provide
 assistance to any competitor of Gaussian, Inc.  The licensee
 of this program is prohibited from giving any competitor of
 Gaussian, Inc. access to this program.  By using this program,
 the user acknowledges that Gaussian, Inc. is engaged in the
 business of creating and licensing software in the field of
 computational chemistry and represents and warrants to the
 licensee that it is not a competitor of Gaussian, Inc. and that
 it will not use this program in any manner prohibited above.
 ---------------------------------------------------------------
  

 Cite this work as:
 Gaussian 16, Revision A.03,
 M. J. Frisch, G. W. Trucks, H. B. Schlegel, G. E. Scuseria, 
 M. A. Robb, J. R. Cheeseman, G. Scalmani, V. Barone, 
 G. A. Petersson, H. Nakatsuji, X. Li, M. Caricato, A. V. Marenich, 
 J. Bloino, B. G. Janesko, R. Gomperts, B. Mennucci, H. P. Hratchian, 
 J. V. Ortiz, A. F. Izmaylov, J. L. Sonnenberg, D. Williams-Young, 
 F. Ding, F. Lipparini, F. Egidi, J. Goings, B. Peng, A. Petrone, 
 T. Henderson, D. Ranasinghe, V. G. Zakrzewski, J. Gao, N. Rega, 
 G. Zheng, W. Liang, M. Hada, M. Ehara, K. Toyota, R. Fukuda, 
 J. Hasegawa, M. Ishida, T. Nakajima, Y. Honda, O. Kitao, H. Nakai, 
 T. Vreven, K. Throssell, J. A. Montgomery, Jr., J. E. Peralta, 
 F. Ogliaro, M. J. Bearpark, J. J. Heyd, E. N. Brothers, K. N. Kudin, 
 V. N. Staroverov, T. A. Keith, R. Kobayashi, J. Normand, 
 K. Raghavachari, A. P. Rendell, J. C. Burant, S. S. Iyengar, 
 J. Tomasi, M. Cossi, J. M. Millam, M. Klene, C. Adamo, R. Cammi, 
 J. W. Ochterski, R. L. Martin, K. Morokuma, O. Farkas, 
 J. B. Foresman, and D. J. Fox, Gaussian, Inc., Wallingford CT, 2016.
 
 ******************************************
 Gaussian 16:  ES64L-G16RevA.03 25-Dec-2016
                21-Sep-2019 
 ******************************************
 %nproc=4
 Will use up to    4 processors via shared memory.
 %Mem=4GB
 --------------------------
 # td=(NStates=1) B3LYP/SVP
 --------------------------
 1/38=1,172=1/1;
 2/12=2,17=6,18=5,40=1/2;
 3/5=18,7=101,11=9,25=1,30=1,74=-5/1,2,3,8;
 4//1;
 5/5=2,38=5/2;
 8/6=1,10=1,108=1/1;
 9/41=1,42=1,70=2/14;
 6/7=2,8=2,9=2,10=2/1;
 99/5=1,9=1/99;
 --
 TD
 --
 Symbolic Z-matrix:
 Charge =  0 Multiplicity = 1
 8                    -5.3994   -0.00545  -3.27041 
 8                     3.09519   2.89422   3.17686 
 8                     3.51227   0.7033    2.97384 
 8                     1.52428  -6.96563   1.63691 
 8                     0.52448  -6.87073  -0.46985 
 8                     1.70226   3.91969   0.04521 
 7                    -2.25457  -0.90202   0.65188 
 7                    -4.37215   0.57671  -1.27947 
 7                     1.85886  -0.69207  -0.50744 
 7                     2.47717   1.89758  -0.58472 
 6                    -4.78165   1.09236  -0.03939 
 6                    -4.35662   0.39632   1.25429 
 6                    -2.9102    0.0868    1.4416 
 6                    -1.88052   0.69308   2.12485 
 6                    -0.65637   0.03227   1.77217 
 6                    -0.98508  -0.87475   0.75553 
 6                    -6.26917   1.25443  -0.18036 
 6                     0.60923   0.12888   2.52496 
 6                    -6.65499   0.75103  -1.31882 
 6                    -0.16113  -1.92041   0.16624 
 6                     1.11461  -1.80919  -0.47511 
 6                    -5.46965   0.30505  -2.10947 
 6                     1.89942  -2.8604   -0.94548 
 6                    -2.0239    1.84315   3.1644 
 6                    -7.16307   1.86772   0.9669 
 6                     3.03505  -2.36477  -1.53437 
 6                     1.2157    1.59912   2.63928 
 6                     3.09914  -0.87525  -1.22612 
 6                     1.48436  -4.37264  -1.05437 
 6                    -7.9712    0.52538  -2.07353 
 6                     1.6452   -4.95749   0.40788 
 6                     4.31495  -3.01166  -2.10239 
 6                     3.93121   0.04427  -1.43922 
 6                     2.71606   1.64931   2.99453 
 6                     3.67163   1.51057  -1.08898 
 6                    -9.18471   0.73967  -1.46021 
 6                     1.15909  -6.3871    0.43804 
 6                     4.58697   2.60112  -1.33153 
 6                     3.77829   3.69796  -1.03072 
 6                     2.52292   3.27347  -0.48779 
 6                     5.84423   2.46615  -1.86498 
 6                     4.40509   5.16364  -0.8861 
 6                     6.69989   3.52125  -2.36609 
 1                    -4.52415   2.11682   0.19124 
 1                    -4.67582  -0.56308   1.28634 
 1                    -4.45189   1.19283   2.177 
 1                    -2.71249  -1.32539  -0.0521 
 1                    -3.47526   0.85358  -1.52541 
 1                     0.55295  -0.4125    3.51185 
 1                     1.50044  -0.39191   1.87255 
 1                    -0.35115  -2.89907   0.1722 
 1                    -3.09423   2.33795   3.24364 
 1                    -1.64695   1.34629   4.20974 
 1                    -1.13551   2.68279   2.97395 
 1                    -6.49917   2.56355   1.60746 
 1                    -7.899     1.10048   1.33219 
 1                    -7.91019   2.54798   0.19425 
 1                     1.12667   2.07317   1.8177 
 1                     0.65766   2.07485   3.49554 
 1                     1.5818    0.2382   -0.27226 
 1                     2.1473   -4.8703   -1.8412 
 1                     0.53167  -4.38743  -1.49323 
 1                    -7.74743   0.1293   -3.03728 
 1                     0.96991  -4.27205   1.03709 
 1                     2.7125   -4.92242   0.86182 
 1                     4.18349  -4.1244   -2.46994 
 1                     5.08582  -2.91431  -1.44605 
 1                     4.58187  -2.61396  -3.06522 
 1                     4.79849  -0.08967  -1.99547 
 1                    -9.44772   1.18742  -0.44399 
 1                    -9.95802   0.42409  -2.04022 
 1                     4.06564   2.77648   3.57577 
 1                     6.27773   1.39023  -1.85562 
 1                     5.32455   5.11827  -0.21412 
 1                     4.13153   5.69847  -1.78296 
 1                     3.53964   5.70843  -0.44466 
 1                     1.62343  -7.99377   1.45292 
 1                     7.70347   3.27392  -2.70361 
 1                     6.31476   4.70357  -2.54928 
 
 Stoichiometry    C33H36N4O6
 Framework group  C1[X(C33H36N4O6)]
 Deg. of freedom   231
 Full point group                 C1      NOp   1
 Largest Abelian subgroup         C1      NOp   1
 Largest concise Abelian subgroup C1      NOp   1
                         Standard orientation:                         
 ---------------------------------------------------------------------
 Center     Atomic      Atomic             Coordinates (Angstroms)
 Number     Number       Type             X           Y           Z
 ---------------------------------------------------------------------
      1          8           0        5.429592   -0.042804   -3.226714
      2          8           0       -3.184592   -2.894673    3.081694
      3          8           0       -3.549359   -0.690504    2.927118
      4          8           0       -1.373916    6.959409    1.787724
      5          8           0       -0.358496    6.890696   -0.312581
      6          8           0       -1.788779   -3.878570   -0.061987
      7          7           0        2.272647    0.834425    0.690215
      8          7           0        4.372146   -0.647422   -1.258410
      9          7           0       -1.834403    0.747259   -0.506814
     10          7           0       -2.511492   -1.824812   -0.650202
     11          6           0        4.758996   -1.201354   -0.027600
     12          6           0        4.339001   -0.526126    1.278695
     13          6           0        2.898528   -0.187576    1.461608
     14          6           0        1.849330   -0.785628    2.122038
     15          6           0        0.643800   -0.088486    1.775223
     16          6           0        1.002030    0.834221    0.782965
     17          6           0        6.243542   -1.394575   -0.160385
     18          6           0       -0.630113   -0.173297    2.515313
     19          6           0        6.650615   -0.873740   -1.283491
     20          6           0        0.207467    1.912247    0.211923
     21          6           0       -1.064938    1.845732   -0.442121
     22          6           0        5.482697   -0.381954   -2.072904
     23          6           0       -1.821272    2.925607   -0.893838
     24          6           0        1.957256   -1.962748    3.135262
     25          6           0        7.113197   -2.055162    0.979233
     26          6           0       -2.962906    2.470410   -1.503394
     27          6           0       -1.271231   -1.631328    2.589989
     28          6           0       -3.063917    0.975967   -1.230925
     29          6           0       -1.370583    4.429944   -0.963634
     30          6           0        7.978115   -0.661096   -2.022040
     31          6           0       -1.530475    4.983952    0.510672
     32          6           0       -4.222642    3.159975   -2.066256
     33          6           0       -3.915081    0.081259   -1.472375
     34          6           0       -2.775350   -1.654978    2.931864
     35          6           0       -3.692346   -1.398467   -1.154780
     36          6           0        9.181055   -0.917805   -1.404209
     37          6           0       -1.011855    6.400789    0.578504
     38          6           0       -4.630430   -2.461489   -1.430382
     39          6           0       -3.849831   -3.583559   -1.149065
     40          6           0       -2.589740   -3.201161   -0.586167
     41          6           0       -5.879619   -2.284909   -1.970597
     42          6           0       -4.511429   -5.037276   -1.044146
     43          6           0       -6.755008   -3.307825   -2.503359
     44          1           0        4.475998   -2.224681    0.176691
     45          1           0        4.679917    0.424587    1.335963
     46          1           0        4.407974   -1.346032    2.183076
     47          1           0        2.746231    1.263424    0.000134
     48          1           0        3.471262   -0.897557   -1.518035
     49          1           0       -0.569867    0.343369    3.515134
     50          1           0       -1.503462    0.383193    1.868233
     51          1           0        0.419912    2.885819    0.242527
     52          1           0        3.015191   -2.483982    3.211411
     53          1           0        1.582874   -1.481896    4.188976
     54          1           0        1.051441   -2.776844    2.917895
     55          1           0        6.427973   -2.750193    1.597819
     56          1           0        7.863427   -1.313979    1.368452
     57          1           0        7.851063   -2.734297    0.196769
     58          1           0       -1.186079   -2.087943    1.758189
     59          1           0       -0.731672   -2.139819    3.439237
     60          1           0       -1.580872   -0.194452   -0.291451
     61          1           0       -2.015104    4.961155   -1.743804
     62          1           0       -0.414072    4.432881   -1.394340
     63          1           0        7.771806   -0.237459   -2.977941
     64          1           0       -0.876574    4.268468    1.128939
     65          1           0       -2.602156    4.963052    0.955059
     66          1           0       -4.062450    4.277667   -2.406355
     67          1           0       -5.001163    3.065203   -1.418623
     68          1           0       -4.490366    2.791246   -3.040324
     69          1           0       -4.774231    0.248299   -2.032266
     70          1           0        9.424939   -1.395222   -0.396759
     71          1           0        9.966382   -0.606773   -1.970361
     72          1           0       -4.155468   -2.763813    3.475447
     73          1           0       -6.288300   -1.199727   -1.939326
     74          1           0       -5.435348   -4.986326   -0.378704
     75          1           0       -4.242557   -5.557154   -1.951156
     76          1           0       -3.662582   -5.612205   -0.608739
     77          1           0       -1.447783    7.993599    1.627274
     78          1           0       -7.749693   -3.029426   -2.843008
     79          1           0       -6.395645   -4.494151   -2.711311
 ---------------------------------------------------------------------
 Rotational constants (GHZ):           0.0761747           0.0453417           0.0353074
 Standard basis: SVP (5D, 7F)
 There are   825 symmetry adapted cartesian basis functions of A   symmetry.
 There are   782 symmetry adapted basis functions of A   symmetry.
   782 basis functions,  1327 primitive gaussians,   825 cartesian basis functions
   155 alpha electrons      155 beta electrons
       nuclear repulsion energy      4949.4405975395 Hartrees.
 NAtoms=   79 NActive=   79 NUniq=   79 SFac= 1.00D+00 NAtFMM=   60 NAOKFM=T Big=T
 Integral buffers will be    131072 words long.
 Regular integral format.
 Two-electron integral symmetry is turned on.
 One-electron integrals computed using PRISM.
 NBasis=   782 RedAO= T EigKep=  4.00D-04  NBF=   782
 NBsUse=   782 1.00D-06 EigRej= -1.00D+00 NBFU=   782
 ExpMin= 1.22D-01 ExpMax= 2.27D+03 ExpMxC= 3.41D+02 IAcc=3 IRadAn=         5 AccDes= 0.00D+00
 Harris functional with IExCor=  402 and IRadAn=       5 diagonalized for initial guess.
 HarFok:  IExCor=  402 AccDes= 0.00D+00 IRadAn=         5 IDoV= 1 UseB2=F ITyADJ=14
 ICtDFT=  3500011 ScaDFX=  1.000000  1.000000  1.000000  1.000000
 FoFCou: FMM=F IPFlag=           0 FMFlag=      100000 FMFlg1=        2001
         NFxFlg=           0 DoJE=T BraDBF=F KetDBF=T FulRan=T
         wScrn=  0.000000 ICntrl=       500 IOpCl=  0 I1Cent=   200000004 NGrid=           0
         NMat0=    1 NMatS0=      1 NMatT0=    0 NMatD0=    1 NMtDS0=    0 NMtDT0=    0
 Petite list used in FoFCou.
 Requested convergence on RMS density matrix=1.00D-08 within 128 cycles.
 Requested convergence on MAX density matrix=1.00D-06.
 Requested convergence on             energy=1.00D-06.
 No special actions if energy rises.
 Integral accuracy reduced to 1.0D-05 until final iterations.
 Initial convergence to 1.0D-05 achieved.  Increase integral accuracy.
 SCF Done:  E(RB3LYP) =  -1947.76852845     A.U. after   17 cycles
            NFock= 17  Conv=0.28D-08     -V/T= 2.0103
 DoSCS=F DFT=T ScalE2(SS,OS)=  1.000000  1.000000
 ExpMin= 1.22D-01 ExpMax= 2.27D+03 ExpMxC= 3.41D+02 IAcc=3 IRadAn=         5 AccDes= 0.00D+00
 HarFok:  IExCor=  205 AccDes= 0.00D+00 IRadAn=         5 IDoV=-2 UseB2=F ITyADJ=14
 ICtDFT= 12500011 ScaDFX=  1.000000  1.000000  1.000000  1.000000
 GSVD:  LWork=       -2193 too small for GESVD, short by        9890 words or        9890 for optimal perf.
 Range of M.O.s used for correlation:    44   782
 NBasis=   782 NAE=   155 NBE=   155 NFC=    43 NFV=     0
 NROrb=    739 NOA=   112 NOB=   112 NVA=   627 NVB=   627

 **** Warning!!: The smallest alpha delta epsilon is  0.66381382D-01

 Orbital symmetries:
       Occupied  (A) (A) (A) (A) (A) (A) (A) (A) (A) (A) (A) (A)
                 (A) (A) (A) (A) (A) (A) (A) (A) (A) (A) (A) (A)
                 (A) (A) (A) (A) (A) (A) (A) (A) (A) (A) (A) (A)
                 (A) (A) (A) (A) (A) (A) (A) (A) (A) (A) (A) (A)
                 (A) (A) (A) (A) (A) (A) (A) (A) (A) (A) (A) (A)
                 (A) (A) (A) (A) (A) (A) (A) (A) (A) (A) (A) (A)
                 (A) (A) (A) (A) (A) (A) (A) (A) (A) (A) (A) (A)
                 (A) (A) (A) (A) (A) (A) (A) (A) (A) (A) (A) (A)
                 (A) (A) (A) (A) (A) (A) (A) (A) (A) (A) (A) (A)
                 (A) (A) (A) (A) (A) (A) (A) (A) (A) (A) (A) (A)
                 (A) (A) (A) (A) (A) (A) (A) (A) (A) (A) (A) (A)
                 (A) (A) (A) (A) (A) (A) (A) (A) (A) (A) (A) (A)
                 (A) (A) (A) (A) (A) (A) (A) (A) (A) (A) (A)
       Virtual   (A) (A) (A) (A) (A) (A) (A) (A) (A) (A) (A) (A)
                 (A) (A) (A) (A) (A) (A) (A) (A) (A) (A) (A) (A)
                 (A) (A) (A) (A) (A) (A) (A) (A) (A) (A) (A) (A)
                 (A) (A) (A) (A) (A) (A) (A) (A) (A) (A) (A) (A)
                 (A) (A) (A) (A) (A) (A) (A) (A) (A) (A) (A) (A)
                 (A) (A) (A) (A) (A) (A) (A) (A) (A) (A) (A) (A)
                 (A) (A) (A) (A) (A) (A) (A) (A) (A) (A) (A) (A)
                 (A) (A) (A) (A) (A) (A) (A) (A) (A) (A) (A) (A)
                 (A) (A) (A) (A) (A) (A) (A) (A) (A) (A) (A) (A)
                 (A) (A) (A) (A) (A) (A) (A) (A) (A) (A) (A) (A)
                 (A) (A) (A) (A) (A) (A) (A) (A) (A) (A) (A) (A)
                 (A) (A) (A) (A) (A) (A) (A) (A) (A) (A) (A) (A)
                 (A) (A) (A) (A) (A) (A) (A) (A) (A) (A) (A) (A)
                 (A) (A) (A) (A) (A) (A) (A) (A) (A) (A) (A) (A)
                 (A) (A) (A) (A) (A) (A) (A) (A) (A) (A) (A) (A)
                 (A) (A) (A) (A) (A) (A) (A) (A) (A) (A) (A) (A)
                 (A) (A) (A) (A) (A) (A) (A) (A) (A) (A) (A) (A)
                 (A) (A) (A) (A) (A) (A) (A) (A) (A) (A) (A) (A)
                 (A) (A) (A) (A) (A) (A) (A) (A) (A) (A) (A) (A)
                 (A) (A) (A) (A) (A) (A) (A) (A) (A) (A) (A) (A)
                 (A) (A) (A) (A) (A) (A) (A) (A) (A) (A) (A) (A)
                 (A) (A) (A) (A) (A) (A) (A) (A) (A) (A) (A) (A)
                 (A) (A) (A) (A) (A) (A) (A) (A) (A) (A) (A) (A)
                 (A) (A) (A) (A) (A) (A) (A) (A) (A) (A) (A) (A)
                 (A) (A) (A) (A) (A) (A) (A) (A) (A) (A) (A) (A)
                 (A) (A) (A) (A) (A) (A) (A) (A) (A) (A) (A) (A)
                 (A) (A) (A) (A) (A) (A) (A) (A) (A) (A) (A) (A)
                 (A) (A) (A) (A) (A) (A) (A) (A) (A) (A) (A) (A)
                 (A) (A) (A) (A) (A) (A) (A) (A) (A) (A) (A) (A)
                 (A) (A) (A) (A) (A) (A) (A) (A) (A) (A) (A) (A)
                 (A) (A) (A) (A) (A) (A) (A) (A) (A) (A) (A) (A)
                 (A) (A) (A) (A) (A) (A) (A) (A) (A) (A) (A) (A)
                 (A) (A) (A) (A) (A) (A) (A) (A) (A) (A) (A) (A)
                 (A) (A) (A) (A) (A) (A) (A) (A) (A) (A) (A) (A)
                 (A) (A) (A) (A) (A) (A) (A) (A) (A) (A) (A) (A)
                 (A) (A) (A) (A) (A) (A) (A) (A) (A) (A) (A) (A)
                 (A) (A) (A) (A) (A) (A) (A) (A) (A) (A) (A) (A)
                 (A) (A) (A) (A) (A) (A) (A) (A) (A) (A) (A) (A)
                 (A) (A) (A) (A) (A) (A) (A) (A) (A) (A) (A) (A)
                 (A) (A) (A) (A) (A) (A) (A) (A) (A) (A) (A) (A)
                 (A) (A) (A) (A) (A) (A) (A) (A) (A) (A) (A) (A)
                 (A) (A) (A) (A) (A) (A) (A) (A) (A) (A) (A) (A)
                 (A) (A) (A) (A) (A) (A) (A) (A) (A) (A) (A) (A)
                 (A) (A) (A) (A) (A) (A) (A) (A) (A) (A) (A) (A)
                 (A) (A) (A) (A) (A) (A) (A) (A) (A) (A) (A) (A)
                 (A) (A) (A) (A) (A) (A) (A) (A) (A) (A) (A) (A)
                 (A) (A) (A) (A) (A) (A) (A) (A) (A) (A) (A) (A)
                 (A) (A) (A) (A) (A) (A) (A) (A) (A) (A) (A) (A)
                 (A) (A) (A) (A) (A) (A) (A) (A) (A) (A) (A) (A)
                 (A) (A) (A) (A) (A) (A) (A) (A) (A) (A) (A) (A)
                 (A) (A) (A) (A) (A) (A) (A) (A) (A) (A) (A) (A)
                 (A) (A) (A) (A) (A) (A) (A) (A) (A) (A) (A) (A)
                 (A) (A) (A)
     4 initial guesses have been made.
 Convergence on wavefunction:    0.001000000000000
 Iteration     1 Dimension     4 NMult     0 NNew      4
 CISAX will form     4 AO SS matrices at one time.
 Iteration     2 Dimension     6 NMult     4 NNew      2
 Iteration     3 Dimension     8 NMult     6 NNew      2
 Iteration     4 Dimension    10 NMult     8 NNew      2
 Iteration     5 Dimension    12 NMult    10 NNew      2
 Iteration     6 Dimension    14 NMult    12 NNew      2
 ***********************************************************************
 Excited states from <AA,BB:AA,BB> singles matrix:
 ***********************************************************************
 
 Ground to excited state transition densities written to RWF  633
 Ground to excited state transition electric dipole moments (Au):
       state          X           Y           Z        Dip. S.      Osc.
         1        -2.0351     -1.2366     -0.8226      6.3474      0.2548
 Ground to excited state transition velocity dipole moments (Au):
       state          X           Y           Z        Dip. S.      Osc.
         1         0.1193      0.0672      0.0471      0.0210      0.2321
 Ground to excited state transition magnetic dipole moments (Au):
       state          X           Y           Z
         1         0.5674     -0.0860     -1.0853
 Ground to excited state transition velocity quadrupole moments (Au):
       state          XX          YY          ZZ          XY          XZ          YZ
         1        -0.4310     -0.3131      0.0587     -0.6043     -0.2728     -0.2125
 <0|del|b> * <b|rxdel|0> + <0|del|b> * <b|delr+rdel|0>
 Rotatory Strengths (R) in cgs (10**-40 erg-esu-cm/Gauss)
       state          XX          YY          ZZ    R(velocity)    E-M Angle
         1      -393.3858    115.5875    404.7815     42.3277       86.51
 1/2[<0|r|b>*<b|rxdel|0> + (<0|rxdel|b>*<b|r|0>)*]
 Rotatory Strengths (R) in cgs (10**-40 erg-esu-cm/Gauss)
       state          XX          YY          ZZ     R(length)
         1       816.5135    -75.2005   -631.3053     36.6692
  1/2[<0|del|b>*<b|r|0> + (<0|r|b>*<b|del|0>)*] (Au)
       state          X           Y           Z        Dip. S.   Osc.(frdel)
         1        -0.2428     -0.0831     -0.0387      0.3646      0.2430

 Excitation energies and oscillator strengths:
 
 Excited State   1:      Singlet-A      1.6383 eV  756.78 nm  f=0.2548  <S**2>=0.000
     155 ->156         0.70258
     155 <-156        -0.10476
 This state for optimization and/or second-order correction.
 Total Energy, E(TD-HF/TD-DFT) =  -1947.70832149    
 Copying the excited state density for this state as the 1-particle RhoCI density.
 SavETr:  write IOETrn=   770 NScale= 10 NData=  16 NLR=1 NState=    1 LETran=      28.

 **********************************************************************

            Population analysis using the SCF density.

 **********************************************************************

 Orbital symmetries:
       Occupied  (A) (A) (A) (A) (A) (A) (A) (A) (A) (A) (A) (A)
                 (A) (A) (A) (A) (A) (A) (A) (A) (A) (A) (A) (A)
                 (A) (A) (A) (A) (A) (A) (A) (A) (A) (A) (A) (A)
                 (A) (A) (A) (A) (A) (A) (A) (A) (A) (A) (A) (A)
                 (A) (A) (A) (A) (A) (A) (A) (A) (A) (A) (A) (A)
                 (A) (A) (A) (A) (A) (A) (A) (A) (A) (A) (A) (A)
                 (A) (A) (A) (A) (A) (A) (A) (A) (A) (A) (A) (A)
                 (A) (A) (A) (A) (A) (A) (A) (A) (A) (A) (A) (A)
                 (A) (A) (A) (A) (A) (A) (A) (A) (A) (A) (A) (A)
                 (A) (A) (A) (A) (A) (A) (A) (A) (A) (A) (A) (A)
                 (A) (A) (A) (A) (A) (A) (A) (A) (A) (A) (A) (A)
                 (A) (A) (A) (A) (A) (A) (A) (A) (A) (A) (A) (A)
                 (A) (A) (A) (A) (A) (A) (A) (A) (A) (A) (A)
       Virtual   (A) (A) (A) (A) (A) (A) (A) (A) (A) (A) (A) (A)
                 (A) (A) (A) (A) (A) (A) (A) (A) (A) (A) (A) (A)
                 (A) (A) (A) (A) (A) (A) (A) (A) (A) (A) (A) (A)
                 (A) (A) (A) (A) (A) (A) (A) (A) (A) (A) (A) (A)
                 (A) (A) (A) (A) (A) (A) (A) (A) (A) (A) (A) (A)
                 (A) (A) (A) (A) (A) (A) (A) (A) (A) (A) (A) (A)
                 (A) (A) (A) (A) (A) (A) (A) (A) (A) (A) (A) (A)
                 (A) (A) (A) (A) (A) (A) (A) (A) (A) (A) (A) (A)
                 (A) (A) (A) (A) (A) (A) (A) (A) (A) (A) (A) (A)
                 (A) (A) (A) (A) (A) (A) (A) (A) (A) (A) (A) (A)
                 (A) (A) (A) (A) (A) (A) (A) (A) (A) (A) (A) (A)
                 (A) (A) (A) (A) (A) (A) (A) (A) (A) (A) (A) (A)
                 (A) (A) (A) (A) (A) (A) (A) (A) (A) (A) (A) (A)
                 (A) (A) (A) (A) (A) (A) (A) (A) (A) (A) (A) (A)
                 (A) (A) (A) (A) (A) (A) (A) (A) (A) (A) (A) (A)
                 (A) (A) (A) (A) (A) (A) (A) (A) (A) (A) (A) (A)
                 (A) (A) (A) (A) (A) (A) (A) (A) (A) (A) (A) (A)
                 (A) (A) (A) (A) (A) (A) (A) (A) (A) (A) (A) (A)
                 (A) (A) (A) (A) (A) (A) (A) (A) (A) (A) (A) (A)
                 (A) (A) (A) (A) (A) (A) (A) (A) (A) (A) (A) (A)
                 (A) (A) (A) (A) (A) (A) (A) (A) (A) (A) (A) (A)
                 (A) (A) (A) (A) (A) (A) (A) (A) (A) (A) (A) (A)
                 (A) (A) (A) (A) (A) (A) (A) (A) (A) (A) (A) (A)
                 (A) (A) (A) (A) (A) (A) (A) (A) (A) (A) (A) (A)
                 (A) (A) (A) (A) (A) (A) (A) (A) (A) (A) (A) (A)
                 (A) (A) (A) (A) (A) (A) (A) (A) (A) (A) (A) (A)
                 (A) (A) (A) (A) (A) (A) (A) (A) (A) (A) (A) (A)
                 (A) (A) (A) (A) (A) (A) (A) (A) (A) (A) (A) (A)
                 (A) (A) (A) (A) (A) (A) (A) (A) (A) (A) (A) (A)
                 (A) (A) (A) (A) (A) (A) (A) (A) (A) (A) (A) (A)
                 (A) (A) (A) (A) (A) (A) (A) (A) (A) (A) (A) (A)
                 (A) (A) (A) (A) (A) (A) (A) (A) (A) (A) (A) (A)
                 (A) (A) (A) (A) (A) (A) (A) (A) (A) (A) (A) (A)
                 (A) (A) (A) (A) (A) (A) (A) (A) (A) (A) (A) (A)
                 (A) (A) (A) (A) (A) (A) (A) (A) (A) (A) (A) (A)
                 (A) (A) (A) (A) (A) (A) (A) (A) (A) (A) (A) (A)
                 (A) (A) (A) (A) (A) (A) (A) (A) (A) (A) (A) (A)
                 (A) (A) (A) (A) (A) (A) (A) (A) (A) (A) (A) (A)
                 (A) (A) (A) (A) (A) (A) (A) (A) (A) (A) (A) (A)
                 (A) (A) (A) (A) (A) (A) (A) (A) (A) (A) (A) (A)
                 (A) (A) (A) (A) (A) (A) (A) (A) (A) (A) (A) (A)
                 (A) (A) (A) (A) (A) (A) (A) (A) (A) (A) (A) (A)
                 (A) (A) (A) (A) (A) (A) (A) (A) (A) (A) (A) (A)
                 (A) (A) (A) (A) (A) (A) (A) (A) (A) (A) (A) (A)
                 (A) (A) (A) (A) (A) (A) (A) (A) (A) (A) (A) (A)
                 (A) (A) (A) (A) (A) (A) (A) (A) (A) (A) (A) (A)
                 (A) (A) (A) (A) (A) (A) (A) (A) (A) (A) (A) (A)
                 (A) (A) (A) (A) (A) (A) (A) (A) (A) (A) (A) (A)
                 (A) (A) (A) (A) (A) (A) (A) (A) (A) (A) (A) (A)
                 (A) (A) (A) (A) (A) (A) (A) (A) (A) (A) (A) (A)
                 (A) (A) (A) (A) (A) (A) (A) (A) (A) (A) (A) (A)
                 (A) (A) (A) (A) (A) (A) (A) (A) (A) (A) (A) (A)
                 (A) (A) (A)
 The electronic state is 1-A.
 Alpha  occ. eigenvalues --  -19.18920 -19.18371 -19.13725 -19.11597 -19.11070
 Alpha  occ. eigenvalues --  -19.10603 -14.36290 -14.34702 -14.34495 -14.29392
 Alpha  occ. eigenvalues --  -10.32504 -10.30656 -10.28531 -10.26479 -10.24772
 Alpha  occ. eigenvalues --  -10.23513 -10.23487 -10.23316 -10.23198 -10.22718
 Alpha  occ. eigenvalues --  -10.22260 -10.22095 -10.21978 -10.21500 -10.21297
 Alpha  occ. eigenvalues --  -10.21253 -10.21238 -10.21164 -10.20956 -10.20617
 Alpha  occ. eigenvalues --  -10.20377 -10.20286 -10.20221 -10.20130 -10.19782
 Alpha  occ. eigenvalues --  -10.19686 -10.19618 -10.19200 -10.19115 -10.18791
 Alpha  occ. eigenvalues --  -10.18295 -10.17922 -10.17372  -1.08997  -1.08355
 Alpha  occ. eigenvalues --   -1.05158  -1.03497  -1.01015  -0.99758  -0.97966
 Alpha  occ. eigenvalues --   -0.97030  -0.95373  -0.93391  -0.81987  -0.81832
 Alpha  occ. eigenvalues --   -0.81133  -0.80785  -0.80602  -0.79854  -0.76813
 Alpha  occ. eigenvalues --   -0.76313  -0.75326  -0.74918  -0.74196  -0.72288
 Alpha  occ. eigenvalues --   -0.71036  -0.70001  -0.69779  -0.67927  -0.67496
 Alpha  occ. eigenvalues --   -0.66579  -0.66009  -0.64447  -0.61666  -0.61233
 Alpha  occ. eigenvalues --   -0.59731  -0.58588  -0.58443  -0.58375  -0.56569
 Alpha  occ. eigenvalues --   -0.55607  -0.54896  -0.54798  -0.54189  -0.53023
 Alpha  occ. eigenvalues --   -0.52309  -0.51819  -0.51540  -0.49943  -0.49022
 Alpha  occ. eigenvalues --   -0.48744  -0.48470  -0.48140  -0.47988  -0.47578
 Alpha  occ. eigenvalues --   -0.47060  -0.46917  -0.46701  -0.46141  -0.46103
 Alpha  occ. eigenvalues --   -0.45495  -0.45057  -0.44283  -0.44019  -0.43723
 Alpha  occ. eigenvalues --   -0.43110  -0.43062  -0.42886  -0.42795  -0.42470
 Alpha  occ. eigenvalues --   -0.42239  -0.42029  -0.41837  -0.41127  -0.40772
 Alpha  occ. eigenvalues --   -0.40520  -0.39876  -0.39354  -0.39287  -0.38890
 Alpha  occ. eigenvalues --   -0.38765  -0.38585  -0.38064  -0.38003  -0.37833
 Alpha  occ. eigenvalues --   -0.37753  -0.37479  -0.37377  -0.37053  -0.36219
 Alpha  occ. eigenvalues --   -0.36032  -0.35851  -0.35281  -0.35200  -0.34124
 Alpha  occ. eigenvalues --   -0.33294  -0.33266  -0.32603  -0.31602  -0.31064
 Alpha  occ. eigenvalues --   -0.30829  -0.30305  -0.28895  -0.28636  -0.28216
 Alpha  occ. eigenvalues --   -0.27089  -0.26506  -0.25951  -0.25580  -0.25023
 Alpha  occ. eigenvalues --   -0.24438  -0.23669  -0.22968  -0.22122  -0.18543
 Alpha virt. eigenvalues --   -0.11905  -0.06853  -0.04692  -0.02545  -0.01247
 Alpha virt. eigenvalues --    0.00601   0.01188   0.01780   0.02739   0.03290
 Alpha virt. eigenvalues --    0.03717   0.04405   0.04888   0.05290   0.05827
 Alpha virt. eigenvalues --    0.05985   0.06154   0.06346   0.06684   0.07102
 Alpha virt. eigenvalues --    0.07744   0.08029   0.08282   0.09098   0.09480
 Alpha virt. eigenvalues --    0.09976   0.10439   0.10803   0.10933   0.11355
 Alpha virt. eigenvalues --    0.11739   0.12081   0.12398   0.12606   0.12718
 Alpha virt. eigenvalues --    0.12770   0.13011   0.13315   0.13602   0.14092
 Alpha virt. eigenvalues --    0.14199   0.14622   0.15089   0.15124   0.15616
 Alpha virt. eigenvalues --    0.15910   0.16548   0.16621   0.17351   0.17492
 Alpha virt. eigenvalues --    0.18247   0.18673   0.18970   0.19387   0.19804
 Alpha virt. eigenvalues --    0.20430   0.20564   0.20946   0.21810   0.21989
 Alpha virt. eigenvalues --    0.22535   0.23187   0.23804   0.24081   0.24317
 Alpha virt. eigenvalues --    0.24662   0.25767   0.26345   0.26493   0.26840
 Alpha virt. eigenvalues --    0.27419   0.27976   0.28180   0.28792   0.29499
 Alpha virt. eigenvalues --    0.29911   0.30113   0.30204   0.31320   0.31765
 Alpha virt. eigenvalues --    0.32338   0.32560   0.32949   0.32998   0.34246
 Alpha virt. eigenvalues --    0.34399   0.35763   0.35824   0.36331   0.36814
 Alpha virt. eigenvalues --    0.37462   0.37882   0.38599   0.39136   0.40288
 Alpha virt. eigenvalues --    0.40359   0.40763   0.41382   0.41559   0.42194
 Alpha virt. eigenvalues --    0.42541   0.42965   0.43617   0.43951   0.44138
 Alpha virt. eigenvalues --    0.44205   0.44566   0.44656   0.45327   0.45771
 Alpha virt. eigenvalues --    0.45854   0.46040   0.46415   0.46558   0.46831
 Alpha virt. eigenvalues --    0.47019   0.47318   0.47548   0.48202   0.48650
 Alpha virt. eigenvalues --    0.48755   0.49086   0.49274   0.49709   0.50119
 Alpha virt. eigenvalues --    0.50302   0.50749   0.51155   0.51263   0.51358
 Alpha virt. eigenvalues --    0.51770   0.52086   0.52578   0.52977   0.53326
 Alpha virt. eigenvalues --    0.53631   0.54045   0.54376   0.54913   0.55547
 Alpha virt. eigenvalues --    0.55911   0.56313   0.56664   0.57479   0.57631
 Alpha virt. eigenvalues --    0.57819   0.58082   0.58372   0.58569   0.58644
 Alpha virt. eigenvalues --    0.59234   0.59985   0.60097   0.60572   0.60940
 Alpha virt. eigenvalues --    0.61073   0.61207   0.61441   0.61735   0.62007
 Alpha virt. eigenvalues --    0.62426   0.62582   0.62944   0.63138   0.63206
 Alpha virt. eigenvalues --    0.63751   0.64023   0.64057   0.64271   0.64608
 Alpha virt. eigenvalues --    0.64786   0.65078   0.65163   0.65460   0.65829
 Alpha virt. eigenvalues --    0.66411   0.66440   0.66517   0.66974   0.67286
 Alpha virt. eigenvalues --    0.67316   0.67784   0.67899   0.68122   0.68594
 Alpha virt. eigenvalues --    0.68608   0.69260   0.69369   0.69633   0.69846
 Alpha virt. eigenvalues --    0.70400   0.70565   0.70626   0.70915   0.71398
 Alpha virt. eigenvalues --    0.71700   0.71805   0.72458   0.72859   0.72972
 Alpha virt. eigenvalues --    0.73181   0.73382   0.73961   0.74235   0.74576
 Alpha virt. eigenvalues --    0.75258   0.75796   0.76256   0.76749   0.77102
 Alpha virt. eigenvalues --    0.77170   0.77385   0.77968   0.79178   0.79636
 Alpha virt. eigenvalues --    0.79701   0.80280   0.80911   0.81190   0.82134
 Alpha virt. eigenvalues --    0.82420   0.83269   0.83361   0.83893   0.84042
 Alpha virt. eigenvalues --    0.84958   0.85375   0.85874   0.86661   0.86890
 Alpha virt. eigenvalues --    0.87196   0.87891   0.89104   0.89323   0.90349
 Alpha virt. eigenvalues --    0.90942   0.91055   0.91567   0.92145   0.92626
 Alpha virt. eigenvalues --    0.93397   0.94462   0.94591   0.94924   0.95884
 Alpha virt. eigenvalues --    0.96504   0.96733   0.97453   0.97716   0.97784
 Alpha virt. eigenvalues --    0.98281   1.00016   1.00587   1.00872   1.01575
 Alpha virt. eigenvalues --    1.02151   1.02753   1.03687   1.05170   1.05270
 Alpha virt. eigenvalues --    1.06095   1.07570   1.07633   1.10025   1.10075
 Alpha virt. eigenvalues --    1.10517   1.10880   1.11157   1.11921   1.12595
 Alpha virt. eigenvalues --    1.12942   1.13761   1.14158   1.14292   1.15479
 Alpha virt. eigenvalues --    1.15736   1.16331   1.17020   1.18436   1.19261
 Alpha virt. eigenvalues --    1.19742   1.20354   1.21094   1.21397   1.21787
 Alpha virt. eigenvalues --    1.22265   1.22530   1.23063   1.23807   1.24113
 Alpha virt. eigenvalues --    1.24750   1.25096   1.25578   1.26013   1.27064
 Alpha virt. eigenvalues --    1.27779   1.28344   1.28716   1.29290   1.30202
 Alpha virt. eigenvalues --    1.31033   1.31388   1.31696   1.32980   1.34053
 Alpha virt. eigenvalues --    1.34241   1.34658   1.35669   1.36738   1.37436
 Alpha virt. eigenvalues --    1.38023   1.38709   1.39956   1.40326   1.40905
 Alpha virt. eigenvalues --    1.41230   1.41999   1.42327   1.42865   1.43620
 Alpha virt. eigenvalues --    1.43810   1.44353   1.45048   1.46245   1.46607
 Alpha virt. eigenvalues --    1.47515   1.48577   1.49427   1.50270   1.50382
 Alpha virt. eigenvalues --    1.50863   1.51198   1.52375   1.52731   1.52925
 Alpha virt. eigenvalues --    1.53609   1.53972   1.54870   1.55065   1.55888
 Alpha virt. eigenvalues --    1.56039   1.56721   1.56769   1.57659   1.57762
 Alpha virt. eigenvalues --    1.59653   1.59920   1.60520   1.60957   1.61586
 Alpha virt. eigenvalues --    1.61962   1.62695   1.62866   1.63169   1.63410
 Alpha virt. eigenvalues --    1.64273   1.65000   1.65208   1.65419   1.65676
 Alpha virt. eigenvalues --    1.66520   1.67165   1.67357   1.67616   1.68410
 Alpha virt. eigenvalues --    1.68626   1.69044   1.69883   1.70113   1.71212
 Alpha virt. eigenvalues --    1.71308   1.71631   1.72017   1.72450   1.72702
 Alpha virt. eigenvalues --    1.72943   1.73098   1.73370   1.74125   1.74444
 Alpha virt. eigenvalues --    1.75411   1.76252   1.76346   1.76609   1.76822
 Alpha virt. eigenvalues --    1.77746   1.78064   1.78426   1.78773   1.79195
 Alpha virt. eigenvalues --    1.79743   1.79922   1.80156   1.80729   1.80864
 Alpha virt. eigenvalues --    1.81327   1.81629   1.81705   1.81872   1.82650
 Alpha virt. eigenvalues --    1.83001   1.83402   1.83742   1.84362   1.84630
 Alpha virt. eigenvalues --    1.85976   1.86224   1.86467   1.87326   1.87632
 Alpha virt. eigenvalues --    1.88874   1.89327   1.89686   1.90501   1.90528
 Alpha virt. eigenvalues --    1.91276   1.91619   1.92395   1.92857   1.93207
 Alpha virt. eigenvalues --    1.93333   1.94071   1.94685   1.94897   1.95146
 Alpha virt. eigenvalues --    1.96318   1.96734   1.96852   1.97984   1.98215
 Alpha virt. eigenvalues --    1.99097   1.99549   2.00043   2.00369   2.00781
 Alpha virt. eigenvalues --    2.01300   2.01924   2.02205   2.02724   2.03099
 Alpha virt. eigenvalues --    2.03353   2.03683   2.04263   2.04415   2.05112
 Alpha virt. eigenvalues --    2.05520   2.05729   2.06249   2.07451   2.07665
 Alpha virt. eigenvalues --    2.08321   2.08979   2.09535   2.09598   2.10368
 Alpha virt. eigenvalues --    2.10777   2.11141   2.12174   2.12803   2.12977
 Alpha virt. eigenvalues --    2.13961   2.14402   2.14912   2.15608   2.16417
 Alpha virt. eigenvalues --    2.16833   2.17755   2.17773   2.18527   2.19006
 Alpha virt. eigenvalues --    2.19837   2.20315   2.21709   2.21795   2.22014
 Alpha virt. eigenvalues --    2.22440   2.22616   2.23245   2.23431   2.24280
 Alpha virt. eigenvalues --    2.25352   2.25736   2.26551   2.26870   2.27326
 Alpha virt. eigenvalues --    2.29691   2.30056   2.30795   2.30985   2.31678
 Alpha virt. eigenvalues --    2.32302   2.33705   2.34623   2.35155   2.35798
 Alpha virt. eigenvalues --    2.36262   2.36342   2.37061   2.37647   2.37955
 Alpha virt. eigenvalues --    2.38651   2.38843   2.39049   2.39984   2.41488
 Alpha virt. eigenvalues --    2.42268   2.43070   2.43153   2.43944   2.45342
 Alpha virt. eigenvalues --    2.45906   2.46478   2.48198   2.48583   2.50080
 Alpha virt. eigenvalues --    2.50304   2.51629   2.52436   2.53040   2.53318
 Alpha virt. eigenvalues --    2.54318   2.54943   2.56279   2.56485   2.56698
 Alpha virt. eigenvalues --    2.58085   2.58797   2.60362   2.60747   2.61585
 Alpha virt. eigenvalues --    2.61875   2.62319   2.63444   2.63859   2.65163
 Alpha virt. eigenvalues --    2.65641   2.66311   2.66744   2.67565   2.68283
 Alpha virt. eigenvalues --    2.68994   2.69226   2.70067   2.70311   2.71164
 Alpha virt. eigenvalues --    2.72294   2.72620   2.73427   2.74042   2.74730
 Alpha virt. eigenvalues --    2.75367   2.75402   2.75966   2.76150   2.77066
 Alpha virt. eigenvalues --    2.77815   2.77900   2.79842   2.80052   2.80707
 Alpha virt. eigenvalues --    2.81017   2.82608   2.82767   2.82811   2.83235
 Alpha virt. eigenvalues --    2.83615   2.84011   2.85056   2.86125   2.87444
 Alpha virt. eigenvalues --    2.87815   2.90446   2.91486   2.92376   2.93719
 Alpha virt. eigenvalues --    2.93800   2.94853   2.95256   2.95671   2.96208
 Alpha virt. eigenvalues --    2.96669   2.96798   2.98188   2.99796   3.01095
 Alpha virt. eigenvalues --    3.01595   3.04495   3.04957   3.06107   3.07028
 Alpha virt. eigenvalues --    3.07720   3.08581   3.09280   3.10742   3.11868
 Alpha virt. eigenvalues --    3.12612   3.13016   3.16031   3.17493   3.18476
 Alpha virt. eigenvalues --    3.18755   3.20198   3.21410   3.22663   3.22993
 Alpha virt. eigenvalues --    3.24865   3.25288   3.27238   3.28720   3.31813
 Alpha virt. eigenvalues --    3.31983   3.33023   3.40373   3.41266   3.43659
 Alpha virt. eigenvalues --    3.44887   3.54699   3.58207   3.59512   3.60945
 Alpha virt. eigenvalues --    3.62580   3.62920   3.64988   3.69415   3.69483
 Alpha virt. eigenvalues --    3.71321   3.71922
          Condensed to atoms (all electrons):
 Mulliken charges:
               1
     1  O   -0.204655
     2  O   -0.185707
     3  O   -0.265859
     4  O   -0.249815
     5  O   -0.207470
     6  O   -0.132955
     7  N    0.032311
     8  N   -0.148047
     9  N   -0.091999
    10  N   -0.262574
    11  C    0.095649
    12  C    0.248906
    13  C   -0.165762
    14  C   -0.092406
    15  C   -0.060060
    16  C    0.059440
    17  C   -0.200136
    18  C   -0.026107
    19  C   -0.099416
    20  C   -0.054889
    21  C    0.033587
    22  C    0.158412
    23  C   -0.125098
    24  C   -0.040885
    25  C   -0.000065
    26  C   -0.103346
    27  C    0.082856
    28  C    0.201739
    29  C    0.132227
    30  C    0.037676
    31  C   -0.063265
    32  C    0.108954
    33  C   -0.104198
    34  C    0.126599
    35  C    0.038009
    36  C   -0.005646
    37  C    0.169925
    38  C    0.101340
    39  C   -0.260504
    40  C    0.143641
    41  C   -0.107269
    42  C    0.125278
    43  C   -0.067556
    44  H   -0.011396
    45  H   -0.049880
    46  H    0.025384
    47  H    0.062333
    48  H    0.112299
    49  H    0.023878
    50  H    0.043009
    51  H   -0.078215
    52  H    0.034701
    53  H    0.042671
    54  H    0.069123
    55  H    0.050412
    56  H    0.066861
    57  H    0.061081
    58  H   -0.020133
    59  H    0.031744
    60  H    0.127728
    61  H    0.015938
    62  H    0.016921
    63  H    0.009446
    64  H    0.065138
    65  H    0.058729
    66  H    0.017894
    67  H    0.020438
    68  H    0.010973
    69  H   -0.059256
    70  H    0.039690
    71  H   -0.000402
    72  H    0.208840
    73  H    0.028856
    74  H    0.073623
    75  H    0.005955
    76  H   -0.006045
    77  H    0.217981
    78  H    0.032690
    79  H    0.080132
 Sum of Mulliken charges =  -0.00000
 Mulliken charges with hydrogens summed into heavy atoms:
               1
     1  O   -0.204655
     2  O    0.023134
     3  O   -0.265859
     4  O   -0.031833
     5  O   -0.207470
     6  O   -0.132955
     7  N    0.094644
     8  N   -0.035748
     9  N    0.035729
    10  N   -0.262574
    11  C    0.084253
    12  C    0.224410
    13  C   -0.165762
    14  C   -0.092406
    15  C   -0.060060
    16  C    0.059440
    17  C   -0.200136
    18  C    0.040780
    19  C   -0.099416
    20  C   -0.133104
    21  C    0.033587
    22  C    0.158412
    23  C   -0.125098
    24  C    0.105609
    25  C    0.178289
    26  C   -0.103346
    27  C    0.094467
    28  C    0.201739
    29  C    0.165085
    30  C    0.047121
    31  C    0.060602
    32  C    0.158260
    33  C   -0.163454
    34  C    0.126599
    35  C    0.038009
    36  C    0.033642
    37  C    0.169925
    38  C    0.101340
    39  C   -0.260504
    40  C    0.143641
    41  C   -0.078413
    42  C    0.198811
    43  C    0.045266
 Electronic spatial extent (au):  <R**2>=          31605.7736
 Charge=             -0.0000 electrons
 Dipole moment (field-independent basis, Debye):
    X=             -2.3322    Y=              0.5872    Z=              2.2245  Tot=              3.2760
 Quadrupole moment (field-independent basis, Debye-Ang):
   XX=           -216.9263   YY=           -237.7933   ZZ=           -260.0756
   XY=            -11.8195   XZ=             29.1011   YZ=              1.9631
 Traceless Quadrupole moment (field-independent basis, Debye-Ang):
   XX=             21.3388   YY=              0.4717   ZZ=            -21.8106
   XY=            -11.8195   XZ=             29.1011   YZ=              1.9631
 Octapole moment (field-independent basis, Debye-Ang**2):
  XXX=            -62.4266  YYY=            159.3450  ZZZ=             80.7933  XYY=           -139.4898
  XXY=            -71.0080  XXZ=             57.0755  XZZ=            -96.4022  YZZ=            -22.4412
  YYZ=             57.3294  XYZ=              0.2536
 Hexadecapole moment (field-independent basis, Debye-Ang**3):
 XXXX=         -23294.8043 YYYY=         -11009.4323 ZZZZ=          -4854.4785 XXXY=             50.3242
 XXXZ=            650.5078 YYYX=           -559.2152 YYYZ=            760.7551 ZZZX=            -27.9238
 ZZZY=           -148.2723 XXYY=          -5817.5155 XXZZ=          -5199.4900 YYZZ=          -2764.1326
 XXYZ=           -155.0580 YYXZ=             -9.8388 ZZXY=            114.0124
 N-N= 4.949440597540D+03 E-N=-1.442867089583D+04  KE= 1.927905450968D+03
 1\1\GINC-PADAWAN\SP\RB3LYP TD-FC\SVP\C33H36N4O6\PADAWAN\21-Sep-2019\0\
 \# td=(NStates=1) B3LYP/SVP\\TD\\0,1\O,0,-5.3993961696,-0.0054451049,-
 3.2704068304\O,0,3.0951895245,2.8942166764,3.1768637648\O,0,3.51226957
 56,0.7032957286,2.973839269\O,0,1.5242800675,-6.9656328334,1.636912197
 5\O,0,0.5244773357,-6.8707334969,-0.4698549684\O,0,1.7022572738,3.9196
 850913,0.0452140288\N,0,-2.2545650676,-0.9020186321,0.6518822048\N,0,-
 4.3721520966,0.576705337,-1.2794663014\N,0,1.8588562772,-0.6920707801,
 -0.5074392215\N,0,2.4771732592,1.8975755031,-0.5847152182\C,0,-4.78165
 45567,1.0923607331,-0.039388139\C,0,-4.3566230551,0.3963197973,1.25429
 2787\C,0,-2.9101961152,0.0867989366,1.4415961726\C,0,-1.8805171484,0.6
 930842656,2.1248456542\C,0,-0.6563722475,0.0322677913,1.7721678944\C,0
 ,-0.9850826961,-0.874750534,0.7555273721\C,0,-6.269169273,1.2544332326
 ,-0.1803632517\C,0,0.6092295296,0.1288835649,2.5249615163\C,0,-6.65498
 60131,0.7510343518,-1.3188176105\C,0,-0.1611323693,-1.920410778,0.1662
 387054\C,0,1.114608357,-1.8091904656,-0.4751090931\C,0,-5.4696475651,0
 .3050487196,-2.1094682583\C,0,1.8994240276,-2.8603965781,-0.9454815575
 \C,0,-2.0238980907,1.8431500719,3.1644008303\C,0,-7.1630738006,1.86772
 49017,0.966900676\C,0,3.0350498387,-2.3647664278,-1.5343746826\C,0,1.2
 156975971,1.5991184052,2.6392775637\C,0,3.0991379891,-0.8752461502,-1.
 2261165999\C,0,1.4843622064,-4.3726432287,-1.0543671536\C,0,-7.9712030
 263,0.525384176,-2.0735257404\C,0,1.6452020858,-4.9574866833,0.4078767
 832\C,0,4.3149471037,-3.0116596348,-2.1023894702\C,0,3.931213992,0.044
 2738309,-1.4392186043\C,0,2.7160622274,1.6493125195,2.9945253524\C,0,3
 .671631541,1.5105664681,-1.0889754648\C,0,-9.1847134547,0.7396661269,-
 1.4602108364\C,0,1.1590909738,-6.3870953597,0.4380424632\C,0,4.5869675
 314,2.6011168666,-1.3315302361\C,0,3.7782870971,3.6979603197,-1.030724
 3667\C,0,2.5229238632,3.2734651976,-0.4877875415\C,0,5.8442280281,2.46
 61514557,-1.8649784529\C,0,4.4050861284,5.1636412399,-0.8861006235\C,0
 ,6.6998900466,3.5212478096,-2.366091086\H,0,-4.5241469008,2.1168227624
 ,0.1912421645\H,0,-4.6758222391,-0.5630777839,1.2863433785\H,0,-4.4518
 920291,1.192833283,2.1770046102\H,0,-2.7124902889,-1.3253899345,-0.052
 102132\H,0,-3.4752585232,0.8535772748,-1.5254100919\H,0,0.5529497297,-
 0.4125009381,3.5118507332\H,0,1.5004440538,-0.3919138588,1.872552388\H
 ,0,-0.3511537763,-2.8990673717,0.1722022225\H,0,-3.0942295683,2.337945
 0586,3.2436443541\H,0,-1.6469459097,1.3462939933,4.2097393618\H,0,-1.1
 355099321,2.682792099,2.9739548173\H,0,-6.4991733682,2.563545158,1.607
 4629793\H,0,-7.898999667,1.1004798572,1.3321902297\H,0,-7.9101869559,2
 .5479808812,0.194247905\H,0,1.1266653749,2.0731693535,1.8176998373\H,0
 ,0.6576588784,2.0748543074,3.4955353777\H,0,1.5818025067,0.2382044654,
 -0.2722625916\H,0,2.1473025225,-4.8703008605,-1.8411987296\H,0,0.53167
 4965,-4.3874285904,-1.4932278062\H,0,-7.7474258044,0.1293031609,-3.037
 2796662\H,0,0.9699091798,-4.2720483845,1.0370912857\H,0,2.7124975199,-
 4.9224194464,0.8618239973\H,0,4.1834934116,-4.1243998922,-2.4699404551
 \H,0,5.0858196804,-2.9143102812,-1.4460482224\H,0,4.5818696201,-2.6139
 63629,-3.0652155952\H,0,4.7984894684,-0.0896710616,-1.9954657223\H,0,-
 9.4477183723,1.1874161971,-0.4439870885\H,0,-9.958023936,0.4240938251,
 -2.040220122\H,0,4.0656412506,2.7764810318,3.5757723429\H,0,6.27773124
 13,1.3902311723,-1.8556243774\H,0,5.3245531551,5.1182745917,-0.2141200
 319\H,0,4.131525175,5.6984666124,-1.782960841\H,0,3.5396416338,5.70843
 04494,-0.4446562072\H,0,1.6234296511,-7.9937705342,1.452921347\H,0,7.7
 034727917,3.2739229322,-2.7036076341\H,0,6.3147633638,4.7035658688,-2.
 5492772802\\Version=ES64L-G16RevA.03\State=1-A\HF=-1947.7685285\RMSD=2
 .768e-09\PG=C01 [X(C33H36N4O6)]\\@


 CHARLIE BROWN.."I CAN'T GET THAT STUPID KITE IN THE
 AIR... I CAN'T... I C A N N O T..."
 LUCY.."OH COME NOW CHARLIE BROWN...THAT'S NO WAY TO TALK...
 THE TROUBLE WITH YOU IS YOU DON'T BELIEVE IN YOURSELF... YOU
 DON'T BELIEVE IN YOUR OWN ABILITIES...  YOU'VE GOT TO SAY TO
 YOURSELF...'I BELIEVE I CAN FLY THIS KITE.'... GO AHEAD SAY
 IT...."
 CHARLIE BROWN.."I BELIEVE THAT I CAN FLY THIS STUPID
 KITE.....I BELIEVE THAT I CAN FLY THIS KITE........
 I  A C T U A L L Y  B E L I E V E  T H A T  I  C A N ******"
 LUCY.."I'LL BET YOU TEN-TO-ONE YOU'RE WRONG......."    SCHULZ
 Job cpu time:       0 days  9 hours 28 minutes 43.4 seconds.
 Elapsed time:       0 days  2 hours 22 minutes 42.8 seconds.
 File lengths (MBytes):  RWF=   2533 Int=      0 D2E=      0 Chk=     63 Scr=      1
 Normal termination of Gaussian 16 at Sat Sep 21 15:22:24 2019.
