 Entering Gaussian System, Link 0=g16
 Input=Geometria-273-.com
 Output=Geometria-273-.log
 Initial command:
 /usr/local/g16/l1.exe "/home/padawan/israel-mol/dihydrobiliverdin/spectra/emi/Gau-7732.inp" -scrdir="/home/padawan/israel-mol/dihydrobiliverdin/spectra/emi/"
 Entering Link 1 = /usr/local/g16/l1.exe PID=      7734.
  
 Copyright (c) 1988,1990,1992,1993,1995,1998,2003,2009,2016,
            Gaussian, Inc.  All Rights Reserved.
  
 This is part of the Gaussian(R) 16 program.  It is based on
 the Gaussian(R) 09 system (copyright 2009, Gaussian, Inc.),
 the Gaussian(R) 03 system (copyright 2003, Gaussian, Inc.),
 the Gaussian(R) 98 system (copyright 1998, Gaussian, Inc.),
 the Gaussian(R) 94 system (copyright 1995, Gaussian, Inc.),
 the Gaussian 92(TM) system (copyright 1992, Gaussian, Inc.),
 the Gaussian 90(TM) system (copyright 1990, Gaussian, Inc.),
 the Gaussian 88(TM) system (copyright 1988, Gaussian, Inc.),
 the Gaussian 86(TM) system (copyright 1986, Carnegie Mellon
 University), and the Gaussian 82(TM) system (copyright 1983,
 Carnegie Mellon University). Gaussian is a federally registered
 trademark of Gaussian, Inc.
  
 This software contains proprietary and confidential information,
 including trade secrets, belonging to Gaussian, Inc.
  
 This software is provided under written license and may be
 used, copied, transmitted, or stored only in accord with that
 written license.
  
 The following legend is applicable only to US Government
 contracts under FAR:
  
                    RESTRICTED RIGHTS LEGEND
  
 Use, reproduction and disclosure by the US Government is
 subject to restrictions as set forth in subparagraphs (a)
 and (c) of the Commercial Computer Software - Restricted
 Rights clause in FAR 52.227-19.
  
 Gaussian, Inc.
 340 Quinnipiac St., Bldg. 40, Wallingford CT 06492
  
  
 ---------------------------------------------------------------
 Warning -- This program may not be used in any manner that
 competes with the business of Gaussian, Inc. or will provide
 assistance to any competitor of Gaussian, Inc.  The licensee
 of this program is prohibited from giving any competitor of
 Gaussian, Inc. access to this program.  By using this program,
 the user acknowledges that Gaussian, Inc. is engaged in the
 business of creating and licensing software in the field of
 computational chemistry and represents and warrants to the
 licensee that it is not a competitor of Gaussian, Inc. and that
 it will not use this program in any manner prohibited above.
 ---------------------------------------------------------------
  

 Cite this work as:
 Gaussian 16, Revision A.03,
 M. J. Frisch, G. W. Trucks, H. B. Schlegel, G. E. Scuseria, 
 M. A. Robb, J. R. Cheeseman, G. Scalmani, V. Barone, 
 G. A. Petersson, H. Nakatsuji, X. Li, M. Caricato, A. V. Marenich, 
 J. Bloino, B. G. Janesko, R. Gomperts, B. Mennucci, H. P. Hratchian, 
 J. V. Ortiz, A. F. Izmaylov, J. L. Sonnenberg, D. Williams-Young, 
 F. Ding, F. Lipparini, F. Egidi, J. Goings, B. Peng, A. Petrone, 
 T. Henderson, D. Ranasinghe, V. G. Zakrzewski, J. Gao, N. Rega, 
 G. Zheng, W. Liang, M. Hada, M. Ehara, K. Toyota, R. Fukuda, 
 J. Hasegawa, M. Ishida, T. Nakajima, Y. Honda, O. Kitao, H. Nakai, 
 T. Vreven, K. Throssell, J. A. Montgomery, Jr., J. E. Peralta, 
 F. Ogliaro, M. J. Bearpark, J. J. Heyd, E. N. Brothers, K. N. Kudin, 
 V. N. Staroverov, T. A. Keith, R. Kobayashi, J. Normand, 
 K. Raghavachari, A. P. Rendell, J. C. Burant, S. S. Iyengar, 
 J. Tomasi, M. Cossi, J. M. Millam, M. Klene, C. Adamo, R. Cammi, 
 J. W. Ochterski, R. L. Martin, K. Morokuma, O. Farkas, 
 J. B. Foresman, and D. J. Fox, Gaussian, Inc., Wallingford CT, 2016.
 
 ******************************************
 Gaussian 16:  ES64L-G16RevA.03 25-Dec-2016
                28-Jul-2019 
 ******************************************
 %nproc=4
 Will use up to    4 processors via shared memory.
 %Mem=3GB
 --------------------------
 # td=(NStates=1) B3LYP/SVP
 --------------------------
 1/38=1,172=1/1;
 2/12=2,17=6,18=5,40=1/2;
 3/5=18,7=101,11=9,25=1,30=1,74=-5/1,2,3,8;
 4//1;
 5/5=2,38=5/2;
 8/6=1,10=1,108=1/1;
 9/41=1,42=1,70=2/14;
 6/7=2,8=2,9=2,10=2/1;
 99/5=1,9=1/99;
 --
 TD
 --
 Symbolic Z-matrix:
 Charge =  0 Multiplicity = 1
 8                    -3.25965  -1.27372  -2.92111 
 8                     3.28182   3.10857   3.24735 
 8                     3.75264   1.28899   4.51416 
 8                     7.67157  -1.61055  -0.6623 
 8                     6.61213  -2.96443  -2.17633 
 8                    -2.68182   1.60157   1.38235 
 7                    -0.17294  -2.4321    0.98309 
 7                    -2.59231  -1.15383  -0.6635 
 7                     1.16815   0.07338  -0.74371 
 7                    -0.98937   1.4723   -0.13338 
 6                    -3.25832  -1.34675   0.57667 
 6                    -2.65979  -2.48915   1.56775 
 6                    -1.1796   -2.08605   1.81979 
 6                    -0.61281  -1.19946   2.74729 
 6                     0.70463  -1.0258    2.52494 
 6                     1.01143  -1.75626   1.32569 
 6                    -4.63855  -1.84356   0.18086 
 6                     1.79863  -0.31906   3.28897 
 6                    -4.75252  -2.00837  -1.12685 
 6                     2.17307  -1.79882   0.49777 
 6                     2.1348   -0.86964  -0.66231 
 6                    -3.42776  -1.41243  -1.72368 
 6                     2.99845  -0.69842  -1.83525 
 6                    -1.46877  -0.3438    3.69224 
 6                    -5.78122  -2.05355   1.30496 
 6                     2.55167   0.56779  -2.49819 
 6                     1.98201   1.17844   2.80749 
 6                     1.34755   0.91145  -1.77418 
 6                     4.20132  -1.51699  -2.08848 
 6                    -5.89287  -2.46552  -1.89516 
 6                     5.32339  -1.19904  -1.11237 
 6                     3.01012   1.05408  -3.72567 
 6                     0.48506   1.99101  -1.96024 
 6                     3.05573   1.79601   3.56873 
 6                    -0.65724   2.37455  -1.19535 
 6                    -6.86188  -3.3374   -1.69146 
 6                     6.55565  -1.99905  -1.43742 
 6                    -1.43814   3.43939  -1.23226 
 6                    -2.34023   3.3421   -0.19575 
 6                    -1.99224   2.03051   0.46072 
 6                    -1.46355   4.42049  -2.34362 
 6                    -3.46402   4.21846   0.1882 
 6                    -1.82002   5.70444  -2.21681 
 1                    -3.2997   -0.49208   1.07139 
 1                    -2.84418  -3.35348   1.16113 
 1                    -3.01291  -2.63003   2.55754 
 1                    -0.24199  -2.83374  -0.06571 
 1                    -2.12839  -0.36314  -0.89803 
 1                     1.72371  -0.30726   4.34164 
 1                     2.72669  -0.82056   3.21474 
 1                     2.98087  -2.68581   0.39259 
 1                    -2.19699  -0.85708   4.41775 
 1                    -0.74075  -0.15466   4.57239 
 1                    -1.85782   0.54519   3.17235 
 1                    -5.77394  -1.17128   1.9776 
 1                    -5.79597  -3.13215   1.79747 
 1                    -6.77211  -2.01307   0.76568 
 1                     2.02297   1.36766   1.78633 
 1                     0.94735   1.54396   3.08708 
 1                     0.34471   0.35281  -0.30691 
 1                     4.56059  -1.29541  -3.05894 
 1                     4.06987  -2.60207  -1.90199 
 1                    -6.13247  -2.02799  -2.94634 
 1                     5.13989  -1.53083  -0.08531 
 1                     5.71896  -0.06511  -1.18115 
 1                     3.9101    0.43334  -4.17176 
 1                     3.10987   2.26198  -3.71759 
 1                     2.19282   0.96152  -4.68571 
 1                     0.5225    2.62836  -2.81332 
 1                    -7.08362  -3.99624  -0.83009 
 1                    -7.58543  -3.81234  -2.46206 
 1                     3.9959    3.16901   3.9513 
 1                    -1.18716   3.91841  -3.54696 
 1                    -4.15456   4.38609  -0.61383 
 1                    -3.96743   3.65228   1.04614 
 1                    -3.12055   5.18894   0.52123 
 1                     8.42645  -2.22009  -0.91214 
 1                    -1.82736   6.30114  -3.37547 
 1                    -2.23479   6.35456  -1.14826 
 
 Stoichiometry    C33H36N4O6
 Framework group  C1[X(C33H36N4O6)]
 Deg. of freedom   231
 Full point group                 C1      NOp   1
 Largest Abelian subgroup         C1      NOp   1
 Largest concise Abelian subgroup C1      NOp   1
                         Standard orientation:                         
 ---------------------------------------------------------------------
 Center     Atomic      Atomic             Coordinates (Angstroms)
 Number     Number       Type             X           Y           Z
 ---------------------------------------------------------------------
      1          8           0       -3.295235   -1.423824   -2.802811
      2          8           0        3.322838    3.278377    3.039765
      3          8           0        3.817271    1.526115    4.389758
      4          8           0        7.668651   -1.622898   -0.690747
      5          8           0        6.591145   -3.053783   -2.118774
      6          8           0       -2.662999    1.666419    1.341055
      7          7           0       -0.148670   -2.376930    1.109114
      8          7           0       -2.595420   -1.188617   -0.564178
      9          7           0        1.159944    0.040954   -0.761490
     10          7           0       -0.992447    1.464341   -0.190926
     11          6           0       -3.242736   -1.320053    0.693805
     12          6           0       -2.626567   -2.409654    1.732388
     13          6           0       -1.144021   -1.991188    1.941977
     14          6           0       -0.566316   -1.057677    2.815111
     15          6           0        0.747245   -0.892671    2.564943
     16          6           0        1.038633   -1.682135    1.399713
     17          6           0       -4.627156   -1.839152    0.343905
     18          6           0        1.850235   -0.145919    3.276160
     19          6           0       -4.759696   -2.070057   -0.952009
     20          6           0        2.188196   -1.763996    0.558021
     21          6           0        2.130374   -0.894693   -0.646802
     22          6           0       -3.445479   -1.502221   -1.597561
     23          6           0        2.976352   -0.781116   -1.839451
     24          6           0       -1.410859   -0.157187    3.728138
     25          6           0       -5.752727   -1.994512    1.493839
     26          6           0        2.516342    0.449040   -2.558838
     27          6           0        2.022287    1.325736    2.717049
     28          6           0        1.321913    0.826274   -1.835483
     29          6           0        4.177738   -1.608878   -2.068684
     30          6           0       -5.909807   -2.567856   -1.679421
     31          6           0        5.312997   -1.239642   -1.126470
     32          6           0        2.955463    0.873670   -3.815900
     33          6           0        0.453720    1.893229   -2.063105
     34          6           0        3.105218    1.983249    3.430287
     35          6           0       -0.678409    2.312492   -1.301856
     36          6           0       -6.873244   -3.430386   -1.417744
     37          6           0        6.542673   -2.052430   -1.428792
     38          6           0       -1.462812    3.372442   -1.380992
     39          6           0       -2.349419    3.325733   -0.327745
     40          6           0       -1.988153    2.049723    0.388909
     41          6           0       -1.507212    4.296090   -2.539964
     42          6           0       -3.469999    4.217981    0.027948
     43          6           0       -1.865470    5.584045   -2.472908
     44          1           0       -3.279348   -0.441574    1.145300
     45          1           0       -2.814378   -3.293809    1.372668
     46          1           0       -2.964821   -2.501094    2.733103
     47          1           0       -0.231839   -2.831190    0.083053
     48          1           0       -2.137231   -0.409804   -0.845122
     49          1           0        1.790621   -0.081114    4.327874
     50          1           0        2.778542   -0.648560    3.213707
     51          1           0        2.996915   -2.653452    0.485894
     52          1           0       -2.126966   -0.634712    4.489251
     53          1           0       -0.670646    0.077719    4.586823
     54          1           0       -1.809984    0.703570    3.169797
     55          1           0       -5.738168   -1.079368    2.120903
     56          1           0       -5.757208   -3.046878    2.040336
     57          1           0       -6.751481   -1.983427    0.967824
     58          1           0        2.047825    1.463206    1.687147
     59          1           0        0.990775    1.702710    2.993004
     60          1           0        0.342163    0.340346   -0.327303
     61          1           0        4.522202   -1.435847   -3.054270
     62          1           0        4.052127   -2.683429   -1.825742
     63          1           0       -6.165939   -2.184504   -2.747709
     64          1           0        5.145434   -1.519512   -0.081375
     65          1           0        5.704281   -0.109799   -1.258209
     66          1           0        3.850622    0.233095   -4.243258
     67          1           0        3.051858    2.080638   -3.870280
     68          1           0        2.124526    0.730989   -4.757932
     69          1           0        0.476898    2.486746   -2.947734
     70          1           0       -7.080522   -4.045343   -0.521051
     71          1           0       -7.606578   -3.945190   -2.152671
     72          1           0        4.046927    3.375812    3.729196
     73          1           0       -1.246953    3.734452   -3.720362
     74          1           0       -4.172634    4.343405   -0.771293
     75          1           0       -3.959232    3.694796    0.920673
     76          1           0       -3.124496    5.204769    0.306473
     77          1           0        8.421555   -2.242676   -0.920568
     78          1           0       -1.891398    6.121436   -3.659987
     79          1           0       -2.266488    6.286436   -1.432566
 ---------------------------------------------------------------------
 Rotational constants (GHZ):           0.0912088           0.0504645           0.0486813
 Standard basis: SVP (5D, 7F)
 There are   825 symmetry adapted cartesian basis functions of A   symmetry.
 There are   782 symmetry adapted basis functions of A   symmetry.
   782 basis functions,  1327 primitive gaussians,   825 cartesian basis functions
   155 alpha electrons      155 beta electrons
       nuclear repulsion energy      5202.9641787897 Hartrees.
 NAtoms=   79 NActive=   79 NUniq=   79 SFac= 1.00D+00 NAtFMM=   60 NAOKFM=T Big=T
 Integral buffers will be    131072 words long.
 Regular integral format.
 Two-electron integral symmetry is turned on.
 One-electron integrals computed using PRISM.
 NBasis=   782 RedAO= T EigKep=  3.20D-04  NBF=   782
 NBsUse=   782 1.00D-06 EigRej= -1.00D+00 NBFU=   782
 ExpMin= 1.22D-01 ExpMax= 2.27D+03 ExpMxC= 3.41D+02 IAcc=3 IRadAn=         5 AccDes= 0.00D+00
 Harris functional with IExCor=  402 and IRadAn=       5 diagonalized for initial guess.
 HarFok:  IExCor=  402 AccDes= 0.00D+00 IRadAn=         5 IDoV= 1 UseB2=F ITyADJ=14
 ICtDFT=  3500011 ScaDFX=  1.000000  1.000000  1.000000  1.000000
 FoFCou: FMM=F IPFlag=           0 FMFlag=      100000 FMFlg1=        2001
         NFxFlg=           0 DoJE=T BraDBF=F KetDBF=T FulRan=T
         wScrn=  0.000000 ICntrl=       500 IOpCl=  0 I1Cent=   200000004 NGrid=           0
         NMat0=    1 NMatS0=      1 NMatT0=    0 NMatD0=    1 NMtDS0=    0 NMtDT0=    0
 Petite list used in FoFCou.
 Requested convergence on RMS density matrix=1.00D-08 within 128 cycles.
 Requested convergence on MAX density matrix=1.00D-06.
 Requested convergence on             energy=1.00D-06.
 No special actions if energy rises.
 Integral accuracy reduced to 1.0D-05 until final iterations.
 EnCoef did     2 forward-backward iterations
 Initial convergence to 1.0D-05 achieved.  Increase integral accuracy.
 SCF Done:  E(RB3LYP) =  -1947.76477456     A.U. after   23 cycles
            NFock= 23  Conv=0.54D-08     -V/T= 2.0106
 DoSCS=F DFT=T ScalE2(SS,OS)=  1.000000  1.000000
 ExpMin= 1.22D-01 ExpMax= 2.27D+03 ExpMxC= 3.41D+02 IAcc=3 IRadAn=         5 AccDes= 0.00D+00
 HarFok:  IExCor=  205 AccDes= 0.00D+00 IRadAn=         5 IDoV=-2 UseB2=F ITyADJ=14
 ICtDFT= 12500011 ScaDFX=  1.000000  1.000000  1.000000  1.000000
 GSVD:  LWork=       -2193 too small for GESVD, short by        9890 words or        9890 for optimal perf.
 Range of M.O.s used for correlation:    44   782
 NBasis=   782 NAE=   155 NBE=   155 NFC=    43 NFV=     0
 NROrb=    739 NOA=   112 NOB=   112 NVA=   627 NVB=   627

 **** Warning!!: The smallest alpha delta epsilon is  0.50697685D-01

 Orbital symmetries:
       Occupied  (A) (A) (A) (A) (A) (A) (A) (A) (A) (A) (A) (A)
                 (A) (A) (A) (A) (A) (A) (A) (A) (A) (A) (A) (A)
                 (A) (A) (A) (A) (A) (A) (A) (A) (A) (A) (A) (A)
                 (A) (A) (A) (A) (A) (A) (A) (A) (A) (A) (A) (A)
                 (A) (A) (A) (A) (A) (A) (A) (A) (A) (A) (A) (A)
                 (A) (A) (A) (A) (A) (A) (A) (A) (A) (A) (A) (A)
                 (A) (A) (A) (A) (A) (A) (A) (A) (A) (A) (A) (A)
                 (A) (A) (A) (A) (A) (A) (A) (A) (A) (A) (A) (A)
                 (A) (A) (A) (A) (A) (A) (A) (A) (A) (A) (A) (A)
                 (A) (A) (A) (A) (A) (A) (A) (A) (A) (A) (A) (A)
                 (A) (A) (A) (A) (A) (A) (A) (A) (A) (A) (A) (A)
                 (A) (A) (A) (A) (A) (A) (A) (A) (A) (A) (A) (A)
                 (A) (A) (A) (A) (A) (A) (A) (A) (A) (A) (A)
       Virtual   (A) (A) (A) (A) (A) (A) (A) (A) (A) (A) (A) (A)
                 (A) (A) (A) (A) (A) (A) (A) (A) (A) (A) (A) (A)
                 (A) (A) (A) (A) (A) (A) (A) (A) (A) (A) (A) (A)
                 (A) (A) (A) (A) (A) (A) (A) (A) (A) (A) (A) (A)
                 (A) (A) (A) (A) (A) (A) (A) (A) (A) (A) (A) (A)
                 (A) (A) (A) (A) (A) (A) (A) (A) (A) (A) (A) (A)
                 (A) (A) (A) (A) (A) (A) (A) (A) (A) (A) (A) (A)
                 (A) (A) (A) (A) (A) (A) (A) (A) (A) (A) (A) (A)
                 (A) (A) (A) (A) (A) (A) (A) (A) (A) (A) (A) (A)
                 (A) (A) (A) (A) (A) (A) (A) (A) (A) (A) (A) (A)
                 (A) (A) (A) (A) (A) (A) (A) (A) (A) (A) (A) (A)
                 (A) (A) (A) (A) (A) (A) (A) (A) (A) (A) (A) (A)
                 (A) (A) (A) (A) (A) (A) (A) (A) (A) (A) (A) (A)
                 (A) (A) (A) (A) (A) (A) (A) (A) (A) (A) (A) (A)
                 (A) (A) (A) (A) (A) (A) (A) (A) (A) (A) (A) (A)
                 (A) (A) (A) (A) (A) (A) (A) (A) (A) (A) (A) (A)
                 (A) (A) (A) (A) (A) (A) (A) (A) (A) (A) (A) (A)
                 (A) (A) (A) (A) (A) (A) (A) (A) (A) (A) (A) (A)
                 (A) (A) (A) (A) (A) (A) (A) (A) (A) (A) (A) (A)
                 (A) (A) (A) (A) (A) (A) (A) (A) (A) (A) (A) (A)
                 (A) (A) (A) (A) (A) (A) (A) (A) (A) (A) (A) (A)
                 (A) (A) (A) (A) (A) (A) (A) (A) (A) (A) (A) (A)
                 (A) (A) (A) (A) (A) (A) (A) (A) (A) (A) (A) (A)
                 (A) (A) (A) (A) (A) (A) (A) (A) (A) (A) (A) (A)
                 (A) (A) (A) (A) (A) (A) (A) (A) (A) (A) (A) (A)
                 (A) (A) (A) (A) (A) (A) (A) (A) (A) (A) (A) (A)
                 (A) (A) (A) (A) (A) (A) (A) (A) (A) (A) (A) (A)
                 (A) (A) (A) (A) (A) (A) (A) (A) (A) (A) (A) (A)
                 (A) (A) (A) (A) (A) (A) (A) (A) (A) (A) (A) (A)
                 (A) (A) (A) (A) (A) (A) (A) (A) (A) (A) (A) (A)
                 (A) (A) (A) (A) (A) (A) (A) (A) (A) (A) (A) (A)
                 (A) (A) (A) (A) (A) (A) (A) (A) (A) (A) (A) (A)
                 (A) (A) (A) (A) (A) (A) (A) (A) (A) (A) (A) (A)
                 (A) (A) (A) (A) (A) (A) (A) (A) (A) (A) (A) (A)
                 (A) (A) (A) (A) (A) (A) (A) (A) (A) (A) (A) (A)
                 (A) (A) (A) (A) (A) (A) (A) (A) (A) (A) (A) (A)
                 (A) (A) (A) (A) (A) (A) (A) (A) (A) (A) (A) (A)
                 (A) (A) (A) (A) (A) (A) (A) (A) (A) (A) (A) (A)
                 (A) (A) (A) (A) (A) (A) (A) (A) (A) (A) (A) (A)
                 (A) (A) (A) (A) (A) (A) (A) (A) (A) (A) (A) (A)
                 (A) (A) (A) (A) (A) (A) (A) (A) (A) (A) (A) (A)
                 (A) (A) (A) (A) (A) (A) (A) (A) (A) (A) (A) (A)
                 (A) (A) (A) (A) (A) (A) (A) (A) (A) (A) (A) (A)
                 (A) (A) (A) (A) (A) (A) (A) (A) (A) (A) (A) (A)
                 (A) (A) (A) (A) (A) (A) (A) (A) (A) (A) (A) (A)
                 (A) (A) (A) (A) (A) (A) (A) (A) (A) (A) (A) (A)
                 (A) (A) (A) (A) (A) (A) (A) (A) (A) (A) (A) (A)
                 (A) (A) (A) (A) (A) (A) (A) (A) (A) (A) (A) (A)
                 (A) (A) (A) (A) (A) (A) (A) (A) (A) (A) (A) (A)
                 (A) (A) (A) (A) (A) (A) (A) (A) (A) (A) (A) (A)
                 (A) (A) (A) (A) (A) (A) (A) (A) (A) (A) (A) (A)
                 (A) (A) (A) (A) (A) (A) (A) (A) (A) (A) (A) (A)
                 (A) (A) (A)
     4 initial guesses have been made.
 Convergence on wavefunction:    0.001000000000000
 Iteration     1 Dimension     4 NMult     0 NNew      4
 CISAX will form     4 AO SS matrices at one time.
 Iteration     2 Dimension     6 NMult     4 NNew      2
 Iteration     3 Dimension     8 NMult     6 NNew      2
 Iteration     4 Dimension    10 NMult     8 NNew      2
 Iteration     5 Dimension    12 NMult    10 NNew      2
 ***********************************************************************
 Excited states from <AA,BB:AA,BB> singles matrix:
 ***********************************************************************
 
 Ground to excited state transition densities written to RWF  633
 Ground to excited state transition electric dipole moments (Au):
       state          X           Y           Z        Dip. S.      Osc.
         1         0.0587      0.0719     -0.1090      0.0205      0.0003
 Ground to excited state transition velocity dipole moments (Au):
       state          X           Y           Z        Dip. S.      Osc.
         1        -0.0014     -0.0017      0.0017      0.0000      0.0002
 Ground to excited state transition magnetic dipole moments (Au):
       state          X           Y           Z
         1         0.0154      0.1178      0.1534
 Ground to excited state transition velocity quadrupole moments (Au):
       state          XX          YY          ZZ          XY          XZ          YZ
         1        -0.0119     -0.0003      0.0031      0.0208      0.0002      0.0004
 <0|del|b> * <b|rxdel|0> + <0|del|b> * <b|delr+rdel|0>
 Rotatory Strengths (R) in cgs (10**-40 erg-esu-cm/Gauss)
       state          XX          YY          ZZ    R(velocity)    E-M Angle
         1         1.4648      3.1663     -3.4810      0.3834       90.00
 1/2[<0|r|b>*<b|rxdel|0> + (<0|rxdel|b>*<b|r|0>)*]
 Rotatory Strengths (R) in cgs (10**-40 erg-esu-cm/Gauss)
       state          XX          YY          ZZ     R(length)
         1        -0.6410     -5.9947     11.8212      1.7285
  1/2[<0|del|b>*<b|r|0> + (<0|r|b>*<b|del|0>)*] (Au)
       state          X           Y           Z        Dip. S.   Osc.(frdel)
         1        -0.0001     -0.0001     -0.0002      0.0004      0.0003

 Excitation energies and oscillator strengths:
 
 Excited State   1:      Singlet-A      0.6096 eV 2033.72 nm  f=0.0003  <S**2>=0.000
     155 ->156         0.70395
 This state for optimization and/or second-order correction.
 Total Energy, E(TD-HF/TD-DFT) =  -1947.74237063    
 Copying the excited state density for this state as the 1-particle RhoCI density.
 SavETr:  write IOETrn=   770 NScale= 10 NData=  16 NLR=1 NState=    1 LETran=      28.

 **********************************************************************

            Population analysis using the SCF density.

 **********************************************************************

 Orbital symmetries:
       Occupied  (A) (A) (A) (A) (A) (A) (A) (A) (A) (A) (A) (A)
                 (A) (A) (A) (A) (A) (A) (A) (A) (A) (A) (A) (A)
                 (A) (A) (A) (A) (A) (A) (A) (A) (A) (A) (A) (A)
                 (A) (A) (A) (A) (A) (A) (A) (A) (A) (A) (A) (A)
                 (A) (A) (A) (A) (A) (A) (A) (A) (A) (A) (A) (A)
                 (A) (A) (A) (A) (A) (A) (A) (A) (A) (A) (A) (A)
                 (A) (A) (A) (A) (A) (A) (A) (A) (A) (A) (A) (A)
                 (A) (A) (A) (A) (A) (A) (A) (A) (A) (A) (A) (A)
                 (A) (A) (A) (A) (A) (A) (A) (A) (A) (A) (A) (A)
                 (A) (A) (A) (A) (A) (A) (A) (A) (A) (A) (A) (A)
                 (A) (A) (A) (A) (A) (A) (A) (A) (A) (A) (A) (A)
                 (A) (A) (A) (A) (A) (A) (A) (A) (A) (A) (A) (A)
                 (A) (A) (A) (A) (A) (A) (A) (A) (A) (A) (A)
       Virtual   (A) (A) (A) (A) (A) (A) (A) (A) (A) (A) (A) (A)
                 (A) (A) (A) (A) (A) (A) (A) (A) (A) (A) (A) (A)
                 (A) (A) (A) (A) (A) (A) (A) (A) (A) (A) (A) (A)
                 (A) (A) (A) (A) (A) (A) (A) (A) (A) (A) (A) (A)
                 (A) (A) (A) (A) (A) (A) (A) (A) (A) (A) (A) (A)
                 (A) (A) (A) (A) (A) (A) (A) (A) (A) (A) (A) (A)
                 (A) (A) (A) (A) (A) (A) (A) (A) (A) (A) (A) (A)
                 (A) (A) (A) (A) (A) (A) (A) (A) (A) (A) (A) (A)
                 (A) (A) (A) (A) (A) (A) (A) (A) (A) (A) (A) (A)
                 (A) (A) (A) (A) (A) (A) (A) (A) (A) (A) (A) (A)
                 (A) (A) (A) (A) (A) (A) (A) (A) (A) (A) (A) (A)
                 (A) (A) (A) (A) (A) (A) (A) (A) (A) (A) (A) (A)
                 (A) (A) (A) (A) (A) (A) (A) (A) (A) (A) (A) (A)
                 (A) (A) (A) (A) (A) (A) (A) (A) (A) (A) (A) (A)
                 (A) (A) (A) (A) (A) (A) (A) (A) (A) (A) (A) (A)
                 (A) (A) (A) (A) (A) (A) (A) (A) (A) (A) (A) (A)
                 (A) (A) (A) (A) (A) (A) (A) (A) (A) (A) (A) (A)
                 (A) (A) (A) (A) (A) (A) (A) (A) (A) (A) (A) (A)
                 (A) (A) (A) (A) (A) (A) (A) (A) (A) (A) (A) (A)
                 (A) (A) (A) (A) (A) (A) (A) (A) (A) (A) (A) (A)
                 (A) (A) (A) (A) (A) (A) (A) (A) (A) (A) (A) (A)
                 (A) (A) (A) (A) (A) (A) (A) (A) (A) (A) (A) (A)
                 (A) (A) (A) (A) (A) (A) (A) (A) (A) (A) (A) (A)
                 (A) (A) (A) (A) (A) (A) (A) (A) (A) (A) (A) (A)
                 (A) (A) (A) (A) (A) (A) (A) (A) (A) (A) (A) (A)
                 (A) (A) (A) (A) (A) (A) (A) (A) (A) (A) (A) (A)
                 (A) (A) (A) (A) (A) (A) (A) (A) (A) (A) (A) (A)
                 (A) (A) (A) (A) (A) (A) (A) (A) (A) (A) (A) (A)
                 (A) (A) (A) (A) (A) (A) (A) (A) (A) (A) (A) (A)
                 (A) (A) (A) (A) (A) (A) (A) (A) (A) (A) (A) (A)
                 (A) (A) (A) (A) (A) (A) (A) (A) (A) (A) (A) (A)
                 (A) (A) (A) (A) (A) (A) (A) (A) (A) (A) (A) (A)
                 (A) (A) (A) (A) (A) (A) (A) (A) (A) (A) (A) (A)
                 (A) (A) (A) (A) (A) (A) (A) (A) (A) (A) (A) (A)
                 (A) (A) (A) (A) (A) (A) (A) (A) (A) (A) (A) (A)
                 (A) (A) (A) (A) (A) (A) (A) (A) (A) (A) (A) (A)
                 (A) (A) (A) (A) (A) (A) (A) (A) (A) (A) (A) (A)
                 (A) (A) (A) (A) (A) (A) (A) (A) (A) (A) (A) (A)
                 (A) (A) (A) (A) (A) (A) (A) (A) (A) (A) (A) (A)
                 (A) (A) (A) (A) (A) (A) (A) (A) (A) (A) (A) (A)
                 (A) (A) (A) (A) (A) (A) (A) (A) (A) (A) (A) (A)
                 (A) (A) (A) (A) (A) (A) (A) (A) (A) (A) (A) (A)
                 (A) (A) (A) (A) (A) (A) (A) (A) (A) (A) (A) (A)
                 (A) (A) (A) (A) (A) (A) (A) (A) (A) (A) (A) (A)
                 (A) (A) (A) (A) (A) (A) (A) (A) (A) (A) (A) (A)
                 (A) (A) (A) (A) (A) (A) (A) (A) (A) (A) (A) (A)
                 (A) (A) (A) (A) (A) (A) (A) (A) (A) (A) (A) (A)
                 (A) (A) (A) (A) (A) (A) (A) (A) (A) (A) (A) (A)
                 (A) (A) (A) (A) (A) (A) (A) (A) (A) (A) (A) (A)
                 (A) (A) (A) (A) (A) (A) (A) (A) (A) (A) (A) (A)
                 (A) (A) (A) (A) (A) (A) (A) (A) (A) (A) (A) (A)
                 (A) (A) (A) (A) (A) (A) (A) (A) (A) (A) (A) (A)
                 (A) (A) (A)
 The electronic state is 1-A.
 Alpha  occ. eigenvalues --  -19.18737 -19.18209 -19.14583 -19.12705 -19.10936
 Alpha  occ. eigenvalues --  -19.09442 -14.37718 -14.37483 -14.33455 -14.29686
 Alpha  occ. eigenvalues --  -10.33598 -10.32251 -10.27683 -10.27090 -10.26942
 Alpha  occ. eigenvalues --  -10.26626 -10.25190 -10.24816 -10.24432 -10.24345
 Alpha  occ. eigenvalues --  -10.23887 -10.23875 -10.23644 -10.23472 -10.22341
 Alpha  occ. eigenvalues --  -10.21856 -10.21651 -10.21319 -10.20648 -10.20611
 Alpha  occ. eigenvalues --  -10.20586 -10.20486 -10.20339 -10.19973 -10.19815
 Alpha  occ. eigenvalues --  -10.19566 -10.18912 -10.18740 -10.18587 -10.18346
 Alpha  occ. eigenvalues --  -10.17618 -10.17378 -10.16403  -1.08862  -1.08817
 Alpha  occ. eigenvalues --   -1.02781  -1.01750  -1.01745  -1.00750  -0.97404
 Alpha  occ. eigenvalues --   -0.96290  -0.94618  -0.94070  -0.84967  -0.82909
 Alpha  occ. eigenvalues --   -0.82214  -0.80788  -0.80598  -0.80301  -0.78433
 Alpha  occ. eigenvalues --   -0.76889  -0.76565  -0.75663  -0.74562  -0.73343
 Alpha  occ. eigenvalues --   -0.72440  -0.70343  -0.70026  -0.68665  -0.67865
 Alpha  occ. eigenvalues --   -0.66424  -0.66160  -0.63754  -0.61204  -0.60803
 Alpha  occ. eigenvalues --   -0.59736  -0.58927  -0.57811  -0.56914  -0.56506
 Alpha  occ. eigenvalues --   -0.56053  -0.55604  -0.54449  -0.53591  -0.53224
 Alpha  occ. eigenvalues --   -0.52411  -0.51919  -0.51289  -0.50856  -0.50485
 Alpha  occ. eigenvalues --   -0.49734  -0.48916  -0.48643  -0.48530  -0.48142
 Alpha  occ. eigenvalues --   -0.47617  -0.47134  -0.46768  -0.46271  -0.45853
 Alpha  occ. eigenvalues --   -0.45636  -0.45133  -0.44804  -0.44071  -0.43691
 Alpha  occ. eigenvalues --   -0.43526  -0.43226  -0.42913  -0.42400  -0.42278
 Alpha  occ. eigenvalues --   -0.42120  -0.41681  -0.41614  -0.41354  -0.41204
 Alpha  occ. eigenvalues --   -0.41066  -0.40487  -0.40209  -0.40010  -0.39841
 Alpha  occ. eigenvalues --   -0.39431  -0.39076  -0.38734  -0.38582  -0.38453
 Alpha  occ. eigenvalues --   -0.38284  -0.37955  -0.37088  -0.36951  -0.36490
 Alpha  occ. eigenvalues --   -0.36358  -0.35772  -0.35495  -0.34829  -0.33849
 Alpha  occ. eigenvalues --   -0.33377  -0.33226  -0.32539  -0.31708  -0.31441
 Alpha  occ. eigenvalues --   -0.31101  -0.29699  -0.29522  -0.29356  -0.28792
 Alpha  occ. eigenvalues --   -0.28223  -0.26409  -0.26254  -0.25319  -0.24537
 Alpha  occ. eigenvalues --   -0.24090  -0.23837  -0.23405  -0.22513  -0.19239
 Alpha virt. eigenvalues --   -0.14169  -0.08935  -0.03100  -0.02180  -0.01746
 Alpha virt. eigenvalues --   -0.01679   0.00614   0.00656   0.01729   0.01897
 Alpha virt. eigenvalues --    0.02159   0.02317   0.03683   0.03936   0.04493
 Alpha virt. eigenvalues --    0.05249   0.05316   0.06229   0.06710   0.07148
 Alpha virt. eigenvalues --    0.07316   0.07681   0.08123   0.08530   0.08746
 Alpha virt. eigenvalues --    0.09220   0.09703   0.09868   0.10521   0.10974
 Alpha virt. eigenvalues --    0.11265   0.11384   0.11805   0.12022   0.12189
 Alpha virt. eigenvalues --    0.12666   0.12872   0.13434   0.13708   0.13942
 Alpha virt. eigenvalues --    0.14182   0.14460   0.14856   0.15343   0.16020
 Alpha virt. eigenvalues --    0.16540   0.16614   0.16940   0.17555   0.17631
 Alpha virt. eigenvalues --    0.18472   0.18632   0.19279   0.19710   0.20029
 Alpha virt. eigenvalues --    0.20790   0.20871   0.21542   0.21802   0.22153
 Alpha virt. eigenvalues --    0.22880   0.23149   0.23765   0.24413   0.24893
 Alpha virt. eigenvalues --    0.25109   0.25502   0.26029   0.26435   0.27057
 Alpha virt. eigenvalues --    0.27873   0.28018   0.28602   0.29082   0.29311
 Alpha virt. eigenvalues --    0.29392   0.29813   0.30121   0.31159   0.31444
 Alpha virt. eigenvalues --    0.31877   0.32436   0.32521   0.33272   0.33499
 Alpha virt. eigenvalues --    0.33669   0.34210   0.34733   0.35386   0.36354
 Alpha virt. eigenvalues --    0.37402   0.37556   0.37861   0.38785   0.39319
 Alpha virt. eigenvalues --    0.39765   0.40000   0.40206   0.41073   0.41490
 Alpha virt. eigenvalues --    0.41944   0.42142   0.42267   0.42742   0.43074
 Alpha virt. eigenvalues --    0.43246   0.43819   0.44178   0.44381   0.44673
 Alpha virt. eigenvalues --    0.44963   0.45172   0.45695   0.45803   0.46017
 Alpha virt. eigenvalues --    0.46637   0.46994   0.47242   0.47745   0.47898
 Alpha virt. eigenvalues --    0.48355   0.48651   0.48920   0.49420   0.49566
 Alpha virt. eigenvalues --    0.50046   0.50313   0.50470   0.51231   0.51419
 Alpha virt. eigenvalues --    0.52056   0.52334   0.52541   0.52823   0.53102
 Alpha virt. eigenvalues --    0.53753   0.54189   0.54459   0.55125   0.55480
 Alpha virt. eigenvalues --    0.56372   0.56379   0.56763   0.56880   0.57254
 Alpha virt. eigenvalues --    0.57355   0.57793   0.58249   0.58356   0.58562
 Alpha virt. eigenvalues --    0.58749   0.59187   0.59449   0.59542   0.59940
 Alpha virt. eigenvalues --    0.60104   0.60358   0.60820   0.60942   0.61289
 Alpha virt. eigenvalues --    0.61797   0.62110   0.62588   0.62624   0.62825
 Alpha virt. eigenvalues --    0.63197   0.63383   0.63575   0.63669   0.63995
 Alpha virt. eigenvalues --    0.64190   0.64414   0.64892   0.65123   0.65608
 Alpha virt. eigenvalues --    0.65968   0.66105   0.66250   0.66569   0.67097
 Alpha virt. eigenvalues --    0.67297   0.67460   0.67624   0.68172   0.68294
 Alpha virt. eigenvalues --    0.68545   0.68780   0.68890   0.69064   0.69305
 Alpha virt. eigenvalues --    0.69614   0.70025   0.70313   0.70750   0.70863
 Alpha virt. eigenvalues --    0.71064   0.71706   0.72298   0.72469   0.72946
 Alpha virt. eigenvalues --    0.73348   0.73535   0.73961   0.74393   0.74521
 Alpha virt. eigenvalues --    0.75074   0.75292   0.75733   0.76378   0.76869
 Alpha virt. eigenvalues --    0.77135   0.77336   0.78133   0.78439   0.79316
 Alpha virt. eigenvalues --    0.79927   0.80373   0.81146   0.81405   0.82360
 Alpha virt. eigenvalues --    0.83008   0.83615   0.83655   0.84666   0.84861
 Alpha virt. eigenvalues --    0.85537   0.86214   0.86504   0.86712   0.86964
 Alpha virt. eigenvalues --    0.87893   0.88479   0.89022   0.90159   0.90617
 Alpha virt. eigenvalues --    0.91233   0.91349   0.91582   0.92552   0.93057
 Alpha virt. eigenvalues --    0.93912   0.94492   0.95144   0.95694   0.95836
 Alpha virt. eigenvalues --    0.96821   0.97104   0.97690   0.97904   0.98294
 Alpha virt. eigenvalues --    0.98551   0.99043   1.00256   1.00489   1.00887
 Alpha virt. eigenvalues --    1.01831   1.02651   1.04151   1.05104   1.05232
 Alpha virt. eigenvalues --    1.06661   1.07388   1.07737   1.08328   1.09558
 Alpha virt. eigenvalues --    1.09741   1.10771   1.11363   1.12444   1.12975
 Alpha virt. eigenvalues --    1.13358   1.13677   1.14003   1.14600   1.15154
 Alpha virt. eigenvalues --    1.15517   1.15944   1.17578   1.18143   1.18353
 Alpha virt. eigenvalues --    1.18693   1.20031   1.20639   1.20804   1.21220
 Alpha virt. eigenvalues --    1.21742   1.21975   1.23279   1.24553   1.24802
 Alpha virt. eigenvalues --    1.26157   1.26260   1.26744   1.27110   1.28131
 Alpha virt. eigenvalues --    1.28189   1.28349   1.29002   1.29747   1.30431
 Alpha virt. eigenvalues --    1.30834   1.32278   1.32441   1.32640   1.33537
 Alpha virt. eigenvalues --    1.34375   1.34960   1.36012   1.36519   1.37001
 Alpha virt. eigenvalues --    1.38156   1.39106   1.40519   1.40725   1.40953
 Alpha virt. eigenvalues --    1.41350   1.43316   1.43489   1.44086   1.44682
 Alpha virt. eigenvalues --    1.45151   1.46325   1.46423   1.47377   1.48145
 Alpha virt. eigenvalues --    1.48354   1.48983   1.49640   1.49990   1.50158
 Alpha virt. eigenvalues --    1.50534   1.51325   1.52274   1.52441   1.53142
 Alpha virt. eigenvalues --    1.53414   1.54005   1.54406   1.55221   1.55946
 Alpha virt. eigenvalues --    1.56042   1.56304   1.57392   1.58148   1.58653
 Alpha virt. eigenvalues --    1.59323   1.60113   1.60653   1.60957   1.61131
 Alpha virt. eigenvalues --    1.61504   1.62129   1.62698   1.63071   1.63382
 Alpha virt. eigenvalues --    1.63880   1.64357   1.64940   1.65464   1.66157
 Alpha virt. eigenvalues --    1.66968   1.67407   1.68539   1.68742   1.69015
 Alpha virt. eigenvalues --    1.69411   1.69585   1.70075   1.70407   1.70873
 Alpha virt. eigenvalues --    1.71021   1.71319   1.71759   1.72066   1.72580
 Alpha virt. eigenvalues --    1.72930   1.73090   1.73417   1.74176   1.74567
 Alpha virt. eigenvalues --    1.75266   1.75512   1.75662   1.76267   1.76406
 Alpha virt. eigenvalues --    1.76817   1.77894   1.78423   1.78739   1.78914
 Alpha virt. eigenvalues --    1.79092   1.79595   1.79754   1.80299   1.80554
 Alpha virt. eigenvalues --    1.80986   1.81485   1.82024   1.82446   1.83259
 Alpha virt. eigenvalues --    1.83650   1.83872   1.84239   1.84339   1.85355
 Alpha virt. eigenvalues --    1.85665   1.85789   1.86095   1.86211   1.87496
 Alpha virt. eigenvalues --    1.87957   1.88813   1.88880   1.89431   1.89559
 Alpha virt. eigenvalues --    1.89593   1.89877   1.90409   1.90985   1.91209
 Alpha virt. eigenvalues --    1.91691   1.92824   1.93405   1.94341   1.94573
 Alpha virt. eigenvalues --    1.94899   1.95724   1.96094   1.96415   1.96731
 Alpha virt. eigenvalues --    1.97274   1.98139   1.98400   1.98909   1.99548
 Alpha virt. eigenvalues --    2.00311   2.00789   2.01027   2.01338   2.01802
 Alpha virt. eigenvalues --    2.02285   2.03311   2.03403   2.04112   2.04555
 Alpha virt. eigenvalues --    2.05319   2.05412   2.06015   2.06418   2.07390
 Alpha virt. eigenvalues --    2.07489   2.07877   2.08269   2.08561   2.09226
 Alpha virt. eigenvalues --    2.10292   2.10507   2.10669   2.11543   2.12525
 Alpha virt. eigenvalues --    2.12558   2.13206   2.13689   2.13997   2.14529
 Alpha virt. eigenvalues --    2.15342   2.15806   2.17294   2.17856   2.18396
 Alpha virt. eigenvalues --    2.18686   2.19282   2.19877   2.20596   2.21654
 Alpha virt. eigenvalues --    2.22037   2.22736   2.23786   2.24089   2.24485
 Alpha virt. eigenvalues --    2.25134   2.26053   2.27115   2.27421   2.27530
 Alpha virt. eigenvalues --    2.28993   2.29747   2.30258   2.31155   2.31828
 Alpha virt. eigenvalues --    2.32149   2.33222   2.33481   2.34315   2.34810
 Alpha virt. eigenvalues --    2.35665   2.36335   2.37103   2.37154   2.37660
 Alpha virt. eigenvalues --    2.38135   2.38761   2.40186   2.41053   2.41997
 Alpha virt. eigenvalues --    2.42228   2.43537   2.44255   2.44673   2.44970
 Alpha virt. eigenvalues --    2.45570   2.47144   2.47518   2.48697   2.49479
 Alpha virt. eigenvalues --    2.50672   2.51259   2.51903   2.53182   2.53852
 Alpha virt. eigenvalues --    2.54233   2.54289   2.55974   2.56347   2.56866
 Alpha virt. eigenvalues --    2.57675   2.57843   2.58935   2.59275   2.60852
 Alpha virt. eigenvalues --    2.61456   2.61902   2.62300   2.62669   2.63843
 Alpha virt. eigenvalues --    2.64349   2.64965   2.65742   2.66072   2.67694
 Alpha virt. eigenvalues --    2.68322   2.68853   2.69278   2.69748   2.70850
 Alpha virt. eigenvalues --    2.71658   2.72588   2.73023   2.73312   2.73631
 Alpha virt. eigenvalues --    2.74169   2.74800   2.76164   2.76402   2.76708
 Alpha virt. eigenvalues --    2.77347   2.79964   2.80118   2.81078   2.81354
 Alpha virt. eigenvalues --    2.82177   2.83097   2.83565   2.83855   2.84030
 Alpha virt. eigenvalues --    2.84857   2.85721   2.86766   2.87452   2.88812
 Alpha virt. eigenvalues --    2.89227   2.89947   2.90234   2.90879   2.91112
 Alpha virt. eigenvalues --    2.91940   2.92276   2.92697   2.94216   2.94739
 Alpha virt. eigenvalues --    2.96065   2.96468   2.96778   2.97684   2.98192
 Alpha virt. eigenvalues --    2.99278   2.99684   3.00956   3.01993   3.02369
 Alpha virt. eigenvalues --    3.02842   3.07478   3.07810   3.09139   3.11043
 Alpha virt. eigenvalues --    3.12174   3.12889   3.13299   3.15335   3.16311
 Alpha virt. eigenvalues --    3.17242   3.18938   3.20335   3.20588   3.21339
 Alpha virt. eigenvalues --    3.22564   3.23294   3.25857   3.27043   3.29592
 Alpha virt. eigenvalues --    3.31977   3.34047   3.37015   3.40018   3.41268
 Alpha virt. eigenvalues --    3.45851   3.46105   3.50996   3.55255   3.56685
 Alpha virt. eigenvalues --    3.58608   3.59030   3.67384   3.68460   3.71175
 Alpha virt. eigenvalues --    3.74158   3.74220
          Condensed to atoms (all electrons):
 Mulliken charges:
               1
     1  O   -0.220456
     2  O   -0.196469
     3  O   -0.310479
     4  O   -0.248522
     5  O   -0.224427
     6  O   -0.239144
     7  N   -0.100707
     8  N   -0.125978
     9  N    0.050748
    10  N   -0.289139
    11  C    0.166415
    12  C    0.324716
    13  C   -0.112785
    14  C   -0.146595
    15  C   -0.035322
    16  C   -0.019556
    17  C   -0.206424
    18  C    0.142563
    19  C    0.018437
    20  C   -0.081393
    21  C    0.036436
    22  C    0.096326
    23  C   -0.089648
    24  C    0.033196
    25  C    0.035864
    26  C   -0.040468
    27  C    0.007673
    28  C    0.092308
    29  C    0.158318
    30  C   -0.008934
    31  C   -0.047513
    32  C   -0.076181
    33  C   -0.041419
    34  C    0.187494
    35  C    0.039392
    36  C   -0.131408
    37  C    0.142233
    38  C    0.066033
    39  C   -0.188128
    40  C    0.118801
    41  C   -0.072307
    42  C    0.102266
    43  C   -0.144761
    44  H   -0.024832
    45  H   -0.090531
    46  H   -0.004515
    47  H    0.162638
    48  H    0.103135
    49  H   -0.007795
    50  H   -0.018234
    51  H    0.042406
    52  H    0.001936
    53  H   -0.007767
    54  H    0.074511
    55  H    0.039497
    56  H    0.052610
    57  H    0.027269
    58  H    0.011848
    59  H    0.068231
    60  H    0.112130
    61  H   -0.005389
    62  H    0.031083
    63  H    0.031992
    64  H    0.057672
    65  H    0.067512
    66  H    0.053907
    67  H    0.059855
    68  H    0.063400
    69  H   -0.048969
    70  H   -0.003105
    71  H    0.030198
    72  H    0.178393
    73  H    0.070191
    74  H    0.031050
    75  H    0.043820
    76  H    0.028854
    77  H    0.199885
    78  H    0.059771
    79  H    0.086288
 Sum of Mulliken charges =  -0.00000
 Mulliken charges with hydrogens summed into heavy atoms:
               1
     1  O   -0.220456
     2  O   -0.018076
     3  O   -0.310479
     4  O   -0.048638
     5  O   -0.224427
     6  O   -0.239144
     7  N    0.061931
     8  N   -0.022843
     9  N    0.162878
    10  N   -0.289139
    11  C    0.141583
    12  C    0.229671
    13  C   -0.112785
    14  C   -0.146595
    15  C   -0.035322
    16  C   -0.019556
    17  C   -0.206424
    18  C    0.116534
    19  C    0.018437
    20  C   -0.038987
    21  C    0.036436
    22  C    0.096326
    23  C   -0.089648
    24  C    0.101876
    25  C    0.155240
    26  C   -0.040468
    27  C    0.087752
    28  C    0.092308
    29  C    0.184012
    30  C    0.023059
    31  C    0.077672
    32  C    0.100980
    33  C   -0.090387
    34  C    0.187494
    35  C    0.039392
    36  C   -0.104316
    37  C    0.142233
    38  C    0.066033
    39  C   -0.188128
    40  C    0.118801
    41  C   -0.002116
    42  C    0.205989
    43  C    0.001298
 Electronic spatial extent (au):  <R**2>=          25695.9519
 Charge=             -0.0000 electrons
 Dipole moment (field-independent basis, Debye):
    X=              2.5626    Y=              2.0335    Z=             -2.3769  Tot=              4.0437
 Quadrupole moment (field-independent basis, Debye-Ang):
   XX=           -241.3182   YY=           -240.2712   ZZ=           -266.8434
   XY=             -2.6746   XZ=            -22.0390   YZ=            -15.6351
 Traceless Quadrupole moment (field-independent basis, Debye-Ang):
   XX=              8.1594   YY=              9.2064   ZZ=            -17.3658
   XY=             -2.6746   XZ=            -22.0390   YZ=            -15.6351
 Octapole moment (field-independent basis, Debye-Ang**2):
  XXX=            180.3213  YYY=             66.3142  ZZZ=            -43.4236  XYY=            -46.9354
  XXY=            -22.7868  XXZ=              1.5902  XZZ=             11.2308  YZZ=             55.1259
  YYZ=             29.2714  XYZ=              7.2516
 Hexadecapole moment (field-independent basis, Debye-Ang**3):
 XXXX=         -17304.0694 YYYY=          -7837.5270 ZZZZ=          -7267.0667 XXXY=           -128.8294
 XXXZ=           -255.4830 YYYX=            -76.2654 YYYZ=             67.5627 ZZZX=           -367.1917
 ZZZY=            -45.6282 XXYY=          -4305.8783 XXZZ=          -4695.1920 YYZZ=          -2516.4948
 XXYZ=           -167.5118 YYXZ=            213.2652 ZZXY=             92.2005
 N-N= 5.202964178790D+03 E-N=-1.493423219589D+04  KE= 1.927313118065D+03
 1\1\GINC-PADAWAN\SP\RB3LYP TD-FC\SVP\C33H36N4O6\PADAWAN\28-Jul-2019\0\
 \# td=(NStates=1) B3LYP/SVP\\TD\\0,1\O,0,-3.2596528755,-1.2737224277,-
 2.9211127656\O,0,3.2818186367,3.1085725158,3.2473490058\O,0,3.75263957
 22,1.2889860269,4.5141558592\O,0,7.6715657595,-1.6105471689,-0.6622969
 915\O,0,6.6121253689,-2.9644272376,-2.1763340815\O,0,-2.6818190884,1.6
 015656457,1.3823482953\N,0,-0.1729430405,-2.4320995243,0.9830931501\N,
 0,-2.5923112691,-1.1538305181,-0.6634984944\N,0,1.1681483642,0.0733782
 475,-0.7437093081\N,0,-0.9893680823,1.4723026382,-0.1333842363\C,0,-3.
 2583209818,-1.3467522376,0.5766746414\C,0,-2.6597946056,-2.4891530615,
 1.567752082\C,0,-1.1796036021,-2.0860464186,1.8197899676\C,0,-0.612811
 0834,-1.1994611378,2.7472927498\C,0,0.7046315758,-1.0257975808,2.52494
 3689\C,0,1.0114338296,-1.7562620609,1.3256873727\C,0,-4.6385488015,-1.
 8435600047,0.1808649738\C,0,1.7986344548,-0.3190622358,3.2889710516\C,
 0,-4.7525216136,-2.0083695454,-1.1268530258\C,0,2.1730652629,-1.798818
 074,0.4977720559\C,0,2.1347995019,-0.8696388761,-0.6623101325\C,0,-3.4
 277574456,-1.4124332086,-1.7236796514\C,0,2.9984509083,-0.6984205904,-
 1.8352474236\C,0,-1.4687654487,-0.3437982368,3.6922447328\C,0,-5.78122
 33464,-2.0535518355,1.3049615018\C,0,2.5516748244,0.5677941476,-2.4981
 944294\C,0,1.9820076332,1.1784435364,2.8074873903\C,0,1.3475481213,0.9
 114477934,-1.7741835244\C,0,4.2013154806,-1.5169911282,-2.0884784779\C
 ,0,-5.8928736235,-2.4655186423,-1.8951629645\C,0,5.3233878898,-1.19904
 16494,-1.1123746544\C,0,3.0101211075,1.054083811,-3.7256690761\C,0,0.4
 850609302,1.9910142483,-1.9602377689\C,0,3.0557342137,1.7960091864,3.5
 687322184\C,0,-0.6572395556,2.3745520874,-1.1953548234\C,0,-6.86188011
 45,-3.3373975039,-1.6914577045\C,0,6.5556451341,-1.9990481599,-1.43742
 44324\C,0,-1.438142469,3.4393861718,-1.2322613008\C,0,-2.3402281122,3.
 3421046895,-0.1957474809\C,0,-1.9922414965,2.0305139849,0.4607150035\C
 ,0,-1.463546333,4.420488309,-2.3436161296\C,0,-3.4640170382,4.21846232
 91,0.18820306\C,0,-1.8200158928,5.7044358618,-2.2168054133\H,0,-3.2996
 98463,-0.4920846984,1.0713913437\H,0,-2.844176044,-3.353480473,1.16112
 64617\H,0,-3.0129111109,-2.630026447,2.5575351422\H,0,-0.2419895038,-2
 .8337421393,-0.065709561\H,0,-2.1283912288,-0.3631426178,-0.8980339058
 \H,0,1.7237103324,-0.30726218,4.3416362627\H,0,2.7266900019,-0.8205639
 477,3.214736403\H,0,2.9808669006,-2.6858101639,0.3925923124\H,0,-2.196
 9923285,-0.8570849825,4.4177488367\H,0,-0.7407538434,-0.1546596696,4.5
 723935959\H,0,-1.8578150953,0.5451869654,3.1723459999\H,0,-5.773938181
 ,-1.1712752587,1.9776020532\H,0,-5.7959683575,-3.1321473193,1.79747259
 36\H,0,-6.7721145883,-2.0130669501,0.76568293\H,0,2.0229684362,1.36765
 67076,1.7863262439\H,0,0.947354687,1.54395664,3.0870766814\H,0,0.34471
 27289,0.3528096508,-0.3069127236\H,0,4.5605917784,-1.2954126003,-3.058
 941496\H,0,4.0698678166,-2.6020719864,-1.9019873067\H,0,-6.1324653849,
 -2.027993724,-2.9463380976\H,0,5.1398919105,-1.5308335633,-0.085305306
 8\H,0,5.7189633376,-0.0651135075,-1.1811525978\H,0,3.9101009216,0.4333
 398261,-4.171755405\H,0,3.1098667383,2.2619772764,-3.7175940948\H,0,2.
 1928150708,0.96152065,-4.6857117232\H,0,0.5224961596,2.6283643329,-2.8
 133222242\H,0,-7.0836174478,-3.9962418081,-0.8300920304\H,0,-7.5854268
 076,-3.8123425648,-2.4620592594\H,0,3.9959033178,3.1690062616,3.951298
 384\H,0,-1.1871625951,3.9184131208,-3.5469625917\H,0,-4.154564046,4.38
 60851903,-0.6138325348\H,0,-3.9674254922,3.6522800216,1.0461354249\H,0
 ,-3.1205503712,5.188939185,0.5212278927\H,0,8.4264483383,-2.2200851627
 ,-0.9121418492\H,0,-1.8273556602,6.3011405712,-3.3754723994\H,0,-2.234
 7858315,6.3545568315,-1.1482607336\\Version=ES64L-G16RevA.03\State=1-A
 \HF=-1947.7647746\RMSD=5.353e-09\PG=C01 [X(C33H36N4O6)]\\@


      LET US REMEMBER, PLEASE, THAT THE SEARCH FOR THE CONSTITUTION
      OF THE WORLD IS ONE OF THE GREATEST AND NOBLEST PROBLEMS PRESENTED 
      BY NATURE.

                                                  -- GALILEO
 Job cpu time:       0 days  4 hours 27 minutes 56.6 seconds.
 Elapsed time:       0 days  1 hours  7 minutes  9.3 seconds.
 File lengths (MBytes):  RWF=   2533 Int=      0 D2E=      0 Chk=     63 Scr=      1
 Normal termination of Gaussian 16 at Sun Jul 28 02:22:38 2019.
