 Entering Gaussian System, Link 0=g16
 Input=Geometria-221-.com
 Output=Geometria-221-.log
 Initial command:
 /usr/local/g16/l1.exe "/home/padawan/israel-mol/dihydrobiliverdin/spectra/emi/Gau-1508.inp" -scrdir="/home/padawan/israel-mol/dihydrobiliverdin/spectra/emi/"
 Entering Link 1 = /usr/local/g16/l1.exe PID=      1510.
  
 Copyright (c) 1988,1990,1992,1993,1995,1998,2003,2009,2016,
            Gaussian, Inc.  All Rights Reserved.
  
 This is part of the Gaussian(R) 16 program.  It is based on
 the Gaussian(R) 09 system (copyright 2009, Gaussian, Inc.),
 the Gaussian(R) 03 system (copyright 2003, Gaussian, Inc.),
 the Gaussian(R) 98 system (copyright 1998, Gaussian, Inc.),
 the Gaussian(R) 94 system (copyright 1995, Gaussian, Inc.),
 the Gaussian 92(TM) system (copyright 1992, Gaussian, Inc.),
 the Gaussian 90(TM) system (copyright 1990, Gaussian, Inc.),
 the Gaussian 88(TM) system (copyright 1988, Gaussian, Inc.),
 the Gaussian 86(TM) system (copyright 1986, Carnegie Mellon
 University), and the Gaussian 82(TM) system (copyright 1983,
 Carnegie Mellon University). Gaussian is a federally registered
 trademark of Gaussian, Inc.
  
 This software contains proprietary and confidential information,
 including trade secrets, belonging to Gaussian, Inc.
  
 This software is provided under written license and may be
 used, copied, transmitted, or stored only in accord with that
 written license.
  
 The following legend is applicable only to US Government
 contracts under FAR:
  
                    RESTRICTED RIGHTS LEGEND
  
 Use, reproduction and disclosure by the US Government is
 subject to restrictions as set forth in subparagraphs (a)
 and (c) of the Commercial Computer Software - Restricted
 Rights clause in FAR 52.227-19.
  
 Gaussian, Inc.
 340 Quinnipiac St., Bldg. 40, Wallingford CT 06492
  
  
 ---------------------------------------------------------------
 Warning -- This program may not be used in any manner that
 competes with the business of Gaussian, Inc. or will provide
 assistance to any competitor of Gaussian, Inc.  The licensee
 of this program is prohibited from giving any competitor of
 Gaussian, Inc. access to this program.  By using this program,
 the user acknowledges that Gaussian, Inc. is engaged in the
 business of creating and licensing software in the field of
 computational chemistry and represents and warrants to the
 licensee that it is not a competitor of Gaussian, Inc. and that
 it will not use this program in any manner prohibited above.
 ---------------------------------------------------------------
  

 Cite this work as:
 Gaussian 16, Revision A.03,
 M. J. Frisch, G. W. Trucks, H. B. Schlegel, G. E. Scuseria, 
 M. A. Robb, J. R. Cheeseman, G. Scalmani, V. Barone, 
 G. A. Petersson, H. Nakatsuji, X. Li, M. Caricato, A. V. Marenich, 
 J. Bloino, B. G. Janesko, R. Gomperts, B. Mennucci, H. P. Hratchian, 
 J. V. Ortiz, A. F. Izmaylov, J. L. Sonnenberg, D. Williams-Young, 
 F. Ding, F. Lipparini, F. Egidi, J. Goings, B. Peng, A. Petrone, 
 T. Henderson, D. Ranasinghe, V. G. Zakrzewski, J. Gao, N. Rega, 
 G. Zheng, W. Liang, M. Hada, M. Ehara, K. Toyota, R. Fukuda, 
 J. Hasegawa, M. Ishida, T. Nakajima, Y. Honda, O. Kitao, H. Nakai, 
 T. Vreven, K. Throssell, J. A. Montgomery, Jr., J. E. Peralta, 
 F. Ogliaro, M. J. Bearpark, J. J. Heyd, E. N. Brothers, K. N. Kudin, 
 V. N. Staroverov, T. A. Keith, R. Kobayashi, J. Normand, 
 K. Raghavachari, A. P. Rendell, J. C. Burant, S. S. Iyengar, 
 J. Tomasi, M. Cossi, J. M. Millam, M. Klene, C. Adamo, R. Cammi, 
 J. W. Ochterski, R. L. Martin, K. Morokuma, O. Farkas, 
 J. B. Foresman, and D. J. Fox, Gaussian, Inc., Wallingford CT, 2016.
 
 ******************************************
 Gaussian 16:  ES64L-G16RevA.03 25-Dec-2016
                27-Jul-2019 
 ******************************************
 %nproc=4
 Will use up to    4 processors via shared memory.
 %Mem=3GB
 --------------------------
 # td=(NStates=1) B3LYP/SVP
 --------------------------
 1/38=1,172=1/1;
 2/12=2,17=6,18=5,40=1/2;
 3/5=18,7=101,11=9,25=1,30=1,74=-5/1,2,3,8;
 4//1;
 5/5=2,38=5/2;
 8/6=1,10=1,108=1/1;
 9/41=1,42=1,70=2/14;
 6/7=2,8=2,9=2,10=2/1;
 99/5=1,9=1/99;
 --
 TD
 --
 Symbolic Z-matrix:
 Charge =  0 Multiplicity = 1
 8                    -3.27012  -1.36153  -2.82947 
 8                     2.90333   3.16904   3.15236 
 8                     3.43369   1.54322   4.64941 
 8                     7.74685  -1.60602  -0.9753 
 8                     6.66588  -3.14198  -2.20159 
 8                    -2.67453   1.69764   1.47293 
 7                    -0.15016  -2.52111   1.01709 
 7                    -2.61518  -1.30687  -0.58736 
 7                     1.10447   0.0599   -0.72075 
 7                    -0.97978   1.3444   -0.1609 
 6                    -3.39064  -1.3742    0.6659 
 6                    -2.59458  -2.42752   1.50612 
 6                    -1.19917  -2.1458    1.8532 
 6                    -0.5398   -1.29401   2.83101 
 6                     0.79322  -1.19026   2.49682 
 6                     1.07253  -1.86253   1.29821 
 6                    -4.71487  -1.84888   0.29308 
 6                     1.93365  -0.40325   3.21068 
 6                    -4.76378  -1.93221  -1.1124 
 6                     2.18619  -1.81633   0.37286 
 6                     2.13783  -0.93998  -0.66072 
 6                    -3.45937  -1.45928  -1.57771 
 6                     3.06264  -0.62755  -1.72628 
 6                    -1.31159  -0.52401   3.86921 
 6                    -5.74165  -2.0304    1.2443 
 6                     2.59145   0.50846  -2.37885 
 6                     1.77926   1.11668   2.89959 
 6                     1.46874   0.93993  -1.73005 
 6                     4.28219  -1.48891  -2.10055 
 6                    -5.93228  -2.29785  -1.96613 
 6                     5.49591  -1.13372  -1.26343 
 6                     3.07258   1.25965  -3.62966 
 6                     0.51246   1.96251  -2.04707 
 6                     2.86571   1.96124   3.68718 
 6                    -0.58139   2.31438  -1.15961 
 6                    -6.9792   -3.10091  -1.729 
 6                     6.62075  -2.11343  -1.61718 
 6                    -1.38038   3.50387  -1.26663 
 6                    -2.31187   3.39246  -0.27191 
 6                    -1.99278   2.13971   0.53006 
 6                    -1.22196   4.48801  -2.33449 
 6                    -3.44798   4.28746   0.28794 
 6                    -2.0084    5.55486  -2.57929 
 1                    -3.45195  -0.36047   1.09049 
 1                    -2.54562  -3.57412   1.13963 
 1                    -3.17526  -2.60904   2.4173 
 1                    -0.36097  -2.89796  -0.00668 
 1                    -1.96866  -0.60308  -0.73535 
 1                     2.30345  -0.6737    4.37136 
 1                     2.87458  -0.76867   2.78431 
 1                     2.88204  -2.64791   0.33147 
 1                    -1.91576  -1.38461   4.24048 
 1                    -0.56235  -0.33071   4.69391 
 1                    -1.98916   0.12622   3.29429 
 1                    -5.37969  -1.54779   2.14446 
 1                    -6.09098  -3.22352   1.56002 
 1                    -6.69951  -1.78631   0.93779 
 1                     1.86644   1.28948   1.84015 
 1                     0.79725   1.62798   3.36487 
 1                     0.1057    0.1631   -0.14896 
 1                     4.49006  -1.25616  -3.3092 
 1                     4.00832  -2.5354   -1.94684 
 1                    -5.7135   -1.90448  -3.01138 
 1                     5.20664  -1.26236  -0.2169 
 1                     5.90854  -0.0138   -1.41446 
 1                     3.98977   0.58203  -3.93648 
 1                     3.53653   2.25522  -3.7595 
 1                     2.55391   1.2623   -4.44616 
 1                     0.85926   2.6196   -2.91521 
 1                    -7.24056  -3.48759  -0.89445 
 1                    -7.7899   -3.20258  -2.5183 
 1                     3.38765   3.75315   3.88514 
 1                    -0.11614   4.33975  -2.76669 
 1                    -4.05627   4.6894   -0.61609 
 1                    -3.85621   3.54696   1.13369 
 1                    -3.1312    5.28393   0.53803 
 1                     8.50287  -2.39337  -0.75626 
 1                    -1.57302   6.1569   -3.50201 
 1                    -2.91092   5.84958  -2.11272 
 
 Stoichiometry    C33H36N4O6
 Framework group  C1[X(C33H36N4O6)]
 Deg. of freedom   231
 Full point group                 C1      NOp   1
 Largest Abelian subgroup         C1      NOp   1
 Largest concise Abelian subgroup C1      NOp   1
                         Standard orientation:                         
 ---------------------------------------------------------------------
 Center     Atomic      Atomic             Coordinates (Angstroms)
 Number     Number       Type             X           Y           Z
 ---------------------------------------------------------------------
      1          8           0       -3.221488   -1.405771   -2.861022
      2          8           0        2.820899    3.213679    3.186306
      3          8           0        3.359790    1.595281    4.688339
      4          8           0        7.777949   -1.486761   -0.891923
      5          8           0        6.732873   -3.038129   -2.129887
      6          8           0       -2.716550    1.660008    1.448262
      7          7           0       -0.124909   -2.520415    1.017584
      8          7           0       -2.590883   -1.342350   -0.612173
      9          7           0        1.109161    0.079793   -0.706292
     10          7           0       -0.999750    1.332819   -0.167871
     11          6           0       -3.378297   -1.421809    0.632902
     12          6           0       -2.575423   -2.463508    1.481077
     13          6           0       -1.188068   -2.161170    1.842806
     14          6           0       -0.551732   -1.300078    2.827698
     15          6           0        0.783013   -1.176314    2.507482
     16          6           0        1.084820   -1.843804    1.311663
     17          6           0       -4.691325   -1.916013    0.246121
     18          6           0        1.904057   -0.372700    3.233450
     19          6           0       -4.724315   -1.999434   -1.159815
     20          6           0        2.207265   -1.780583    0.398007
     21          6           0        2.156636   -0.904585   -0.635765
     22          6           0       -3.422315   -1.506891   -1.611327
     23          6           0        3.087755   -0.577927   -1.691511
     24          6           0       -1.345717   -0.542135    3.858005
     25          6           0       -5.725163   -2.113251    1.186509
     26          6           0        2.606513    0.551224   -2.348641
     27          6           0        1.730267    1.144896    2.921203
     28          6           0        1.470779    0.965614   -1.711476
     29          6           0        4.323867   -1.420830   -2.053274
     30          6           0       -5.878247   -2.382077   -2.025811
     31          6           0        5.523338   -1.047952   -1.203416
     32          6           0        3.089416    1.310073   -3.594133
     33          6           0        0.502718    1.973962   -2.038167
     34          6           0        2.795713    2.005209    3.720355
     35          6           0       -0.605472    2.309076   -1.162085
     36          6           0       -6.915495   -3.200769   -1.799868
     37          6           0        6.666306   -2.010623   -1.545685
     38          6           0       -1.420951    3.486573   -1.277102
     39          6           0       -2.361010    3.360834   -0.292190
     40          6           0       -2.031665    2.112628    0.512700
     41          6           0       -1.266093    4.473437   -2.342951
     42          6           0       -3.516128    4.238540    0.256020
     43          6           0       -2.065764    5.528555   -2.595648
     44          1           0       -3.459151   -0.409293    1.057124
     45          1           0       -2.505538   -3.609091    1.114791
     46          1           0       -3.162812   -2.654084    2.386092
     47          1           0       -0.319373   -2.899908   -0.008443
     48          1           0       -1.953415   -0.628931   -0.753191
     49          1           0        2.265711   -0.638124    4.397847
     50          1           0        2.854741   -0.723854    2.816827
     51          1           0        2.915837   -2.601671    0.363642
     52          1           0       -1.940830   -1.411818    4.222689
     53          1           0       -0.608092   -0.338054    4.690537
     54          1           0       -2.026870    0.098167    3.276224
     55          1           0       -5.379860   -1.625704    2.090545
     56          1           0       -6.059932   -3.311586    1.498216
     57          1           0       -6.683302   -1.883340    0.870084
     58          1           0        1.825923    1.319453    1.862787
     59          1           0        0.735937    1.641283    3.376356
     60          1           0        0.103043    0.167834   -0.144937
     61          1           0        4.540852   -1.184465   -3.259615
     62          1           0        4.064046   -2.471354   -1.902742
     63          1           0       -5.654463   -1.985018   -3.068608
     64          1           0        5.225110   -1.181362   -0.160002
     65          1           0        5.920777    0.078062   -1.349796
     66          1           0        4.019768    0.646344   -3.891555
     67          1           0        3.539796    2.312501   -3.718827
     68          1           0        2.579322    1.305350   -4.416005
     69          1           0        0.848719    2.636542   -2.902450
     70          1           0       -7.179759   -3.591675   -0.968205
     71          1           0       -7.716297   -3.314161   -2.597628
     72          1           0        3.288776    3.804624    3.924279
     73          1           0       -0.153725    4.341879   -2.763627
     74          1           0       -4.120882    4.631765   -0.654204
     75          1           0       -3.922084    3.491655    1.097243
     76          1           0       -3.216883    5.239510    0.509694
     77          1           0        8.543295   -2.262852   -0.665225
     78          1           0       -1.629797    6.137430   -3.513586
     79          1           0       -2.977401    5.809569   -2.138441
 ---------------------------------------------------------------------
 Rotational constants (GHZ):           0.0894775           0.0500143           0.0483266
 Standard basis: SVP (5D, 7F)
 There are   825 symmetry adapted cartesian basis functions of A   symmetry.
 There are   782 symmetry adapted basis functions of A   symmetry.
   782 basis functions,  1327 primitive gaussians,   825 cartesian basis functions
   155 alpha electrons      155 beta electrons
       nuclear repulsion energy      5179.4751801309 Hartrees.
 NAtoms=   79 NActive=   79 NUniq=   79 SFac= 1.00D+00 NAtFMM=   60 NAOKFM=T Big=T
 Integral buffers will be    131072 words long.
 Regular integral format.
 Two-electron integral symmetry is turned on.
 One-electron integrals computed using PRISM.
 NBasis=   782 RedAO= T EigKep=  3.50D-04  NBF=   782
 NBsUse=   782 1.00D-06 EigRej= -1.00D+00 NBFU=   782
 ExpMin= 1.22D-01 ExpMax= 2.27D+03 ExpMxC= 3.41D+02 IAcc=3 IRadAn=         5 AccDes= 0.00D+00
 Harris functional with IExCor=  402 and IRadAn=       5 diagonalized for initial guess.
 HarFok:  IExCor=  402 AccDes= 0.00D+00 IRadAn=         5 IDoV= 1 UseB2=F ITyADJ=14
 ICtDFT=  3500011 ScaDFX=  1.000000  1.000000  1.000000  1.000000
 FoFCou: FMM=F IPFlag=           0 FMFlag=      100000 FMFlg1=        2001
         NFxFlg=           0 DoJE=T BraDBF=F KetDBF=T FulRan=T
         wScrn=  0.000000 ICntrl=       500 IOpCl=  0 I1Cent=   200000004 NGrid=           0
         NMat0=    1 NMatS0=      1 NMatT0=    0 NMatD0=    1 NMtDS0=    0 NMtDT0=    0
 Petite list used in FoFCou.
 Requested convergence on RMS density matrix=1.00D-08 within 128 cycles.
 Requested convergence on MAX density matrix=1.00D-06.
 Requested convergence on             energy=1.00D-06.
 No special actions if energy rises.
 Integral accuracy reduced to 1.0D-05 until final iterations.
 Initial convergence to 1.0D-05 achieved.  Increase integral accuracy.
 SCF Done:  E(RB3LYP) =  -1947.79283739     A.U. after   21 cycles
            NFock= 21  Conv=0.64D-08     -V/T= 2.0110
 DoSCS=F DFT=T ScalE2(SS,OS)=  1.000000  1.000000
 ExpMin= 1.22D-01 ExpMax= 2.27D+03 ExpMxC= 3.41D+02 IAcc=3 IRadAn=         5 AccDes= 0.00D+00
 HarFok:  IExCor=  205 AccDes= 0.00D+00 IRadAn=         5 IDoV=-2 UseB2=F ITyADJ=14
 ICtDFT= 12500011 ScaDFX=  1.000000  1.000000  1.000000  1.000000
 GSVD:  LWork=       -2193 too small for GESVD, short by        9890 words or        9890 for optimal perf.
 Range of M.O.s used for correlation:    44   782
 NBasis=   782 NAE=   155 NBE=   155 NFC=    43 NFV=     0
 NROrb=    739 NOA=   112 NOB=   112 NVA=   627 NVB=   627

 **** Warning!!: The smallest alpha delta epsilon is  0.57639408D-01

 Orbital symmetries:
       Occupied  (A) (A) (A) (A) (A) (A) (A) (A) (A) (A) (A) (A)
                 (A) (A) (A) (A) (A) (A) (A) (A) (A) (A) (A) (A)
                 (A) (A) (A) (A) (A) (A) (A) (A) (A) (A) (A) (A)
                 (A) (A) (A) (A) (A) (A) (A) (A) (A) (A) (A) (A)
                 (A) (A) (A) (A) (A) (A) (A) (A) (A) (A) (A) (A)
                 (A) (A) (A) (A) (A) (A) (A) (A) (A) (A) (A) (A)
                 (A) (A) (A) (A) (A) (A) (A) (A) (A) (A) (A) (A)
                 (A) (A) (A) (A) (A) (A) (A) (A) (A) (A) (A) (A)
                 (A) (A) (A) (A) (A) (A) (A) (A) (A) (A) (A) (A)
                 (A) (A) (A) (A) (A) (A) (A) (A) (A) (A) (A) (A)
                 (A) (A) (A) (A) (A) (A) (A) (A) (A) (A) (A) (A)
                 (A) (A) (A) (A) (A) (A) (A) (A) (A) (A) (A) (A)
                 (A) (A) (A) (A) (A) (A) (A) (A) (A) (A) (A)
       Virtual   (A) (A) (A) (A) (A) (A) (A) (A) (A) (A) (A) (A)
                 (A) (A) (A) (A) (A) (A) (A) (A) (A) (A) (A) (A)
                 (A) (A) (A) (A) (A) (A) (A) (A) (A) (A) (A) (A)
                 (A) (A) (A) (A) (A) (A) (A) (A) (A) (A) (A) (A)
                 (A) (A) (A) (A) (A) (A) (A) (A) (A) (A) (A) (A)
                 (A) (A) (A) (A) (A) (A) (A) (A) (A) (A) (A) (A)
                 (A) (A) (A) (A) (A) (A) (A) (A) (A) (A) (A) (A)
                 (A) (A) (A) (A) (A) (A) (A) (A) (A) (A) (A) (A)
                 (A) (A) (A) (A) (A) (A) (A) (A) (A) (A) (A) (A)
                 (A) (A) (A) (A) (A) (A) (A) (A) (A) (A) (A) (A)
                 (A) (A) (A) (A) (A) (A) (A) (A) (A) (A) (A) (A)
                 (A) (A) (A) (A) (A) (A) (A) (A) (A) (A) (A) (A)
                 (A) (A) (A) (A) (A) (A) (A) (A) (A) (A) (A) (A)
                 (A) (A) (A) (A) (A) (A) (A) (A) (A) (A) (A) (A)
                 (A) (A) (A) (A) (A) (A) (A) (A) (A) (A) (A) (A)
                 (A) (A) (A) (A) (A) (A) (A) (A) (A) (A) (A) (A)
                 (A) (A) (A) (A) (A) (A) (A) (A) (A) (A) (A) (A)
                 (A) (A) (A) (A) (A) (A) (A) (A) (A) (A) (A) (A)
                 (A) (A) (A) (A) (A) (A) (A) (A) (A) (A) (A) (A)
                 (A) (A) (A) (A) (A) (A) (A) (A) (A) (A) (A) (A)
                 (A) (A) (A) (A) (A) (A) (A) (A) (A) (A) (A) (A)
                 (A) (A) (A) (A) (A) (A) (A) (A) (A) (A) (A) (A)
                 (A) (A) (A) (A) (A) (A) (A) (A) (A) (A) (A) (A)
                 (A) (A) (A) (A) (A) (A) (A) (A) (A) (A) (A) (A)
                 (A) (A) (A) (A) (A) (A) (A) (A) (A) (A) (A) (A)
                 (A) (A) (A) (A) (A) (A) (A) (A) (A) (A) (A) (A)
                 (A) (A) (A) (A) (A) (A) (A) (A) (A) (A) (A) (A)
                 (A) (A) (A) (A) (A) (A) (A) (A) (A) (A) (A) (A)
                 (A) (A) (A) (A) (A) (A) (A) (A) (A) (A) (A) (A)
                 (A) (A) (A) (A) (A) (A) (A) (A) (A) (A) (A) (A)
                 (A) (A) (A) (A) (A) (A) (A) (A) (A) (A) (A) (A)
                 (A) (A) (A) (A) (A) (A) (A) (A) (A) (A) (A) (A)
                 (A) (A) (A) (A) (A) (A) (A) (A) (A) (A) (A) (A)
                 (A) (A) (A) (A) (A) (A) (A) (A) (A) (A) (A) (A)
                 (A) (A) (A) (A) (A) (A) (A) (A) (A) (A) (A) (A)
                 (A) (A) (A) (A) (A) (A) (A) (A) (A) (A) (A) (A)
                 (A) (A) (A) (A) (A) (A) (A) (A) (A) (A) (A) (A)
                 (A) (A) (A) (A) (A) (A) (A) (A) (A) (A) (A) (A)
                 (A) (A) (A) (A) (A) (A) (A) (A) (A) (A) (A) (A)
                 (A) (A) (A) (A) (A) (A) (A) (A) (A) (A) (A) (A)
                 (A) (A) (A) (A) (A) (A) (A) (A) (A) (A) (A) (A)
                 (A) (A) (A) (A) (A) (A) (A) (A) (A) (A) (A) (A)
                 (A) (A) (A) (A) (A) (A) (A) (A) (A) (A) (A) (A)
                 (A) (A) (A) (A) (A) (A) (A) (A) (A) (A) (A) (A)
                 (A) (A) (A) (A) (A) (A) (A) (A) (A) (A) (A) (A)
                 (A) (A) (A) (A) (A) (A) (A) (A) (A) (A) (A) (A)
                 (A) (A) (A) (A) (A) (A) (A) (A) (A) (A) (A) (A)
                 (A) (A) (A) (A) (A) (A) (A) (A) (A) (A) (A) (A)
                 (A) (A) (A) (A) (A) (A) (A) (A) (A) (A) (A) (A)
                 (A) (A) (A) (A) (A) (A) (A) (A) (A) (A) (A) (A)
                 (A) (A) (A) (A) (A) (A) (A) (A) (A) (A) (A) (A)
                 (A) (A) (A) (A) (A) (A) (A) (A) (A) (A) (A) (A)
                 (A) (A) (A)
     4 initial guesses have been made.
 Convergence on wavefunction:    0.001000000000000
 Iteration     1 Dimension     4 NMult     0 NNew      4
 CISAX will form     4 AO SS matrices at one time.
 Iteration     2 Dimension     6 NMult     4 NNew      2
 Iteration     3 Dimension     8 NMult     6 NNew      2
 Iteration     4 Dimension    10 NMult     8 NNew      2
 Iteration     5 Dimension    12 NMult    10 NNew      2
 Iteration     6 Dimension    14 NMult    12 NNew      2
 ***********************************************************************
 Excited states from <AA,BB:AA,BB> singles matrix:
 ***********************************************************************
 
 Ground to excited state transition densities written to RWF  633
 Ground to excited state transition electric dipole moments (Au):
       state          X           Y           Z        Dip. S.      Osc.
         1        -0.1364     -0.2245      0.2117      0.1138      0.0024
 Ground to excited state transition velocity dipole moments (Au):
       state          X           Y           Z        Dip. S.      Osc.
         1         0.0042      0.0071     -0.0072      0.0001      0.0025
 Ground to excited state transition magnetic dipole moments (Au):
       state          X           Y           Z
         1         0.0372     -0.0183     -0.0619
 Ground to excited state transition velocity quadrupole moments (Au):
       state          XX          YY          ZZ          XY          XZ          YZ
         1         0.0145      0.0032     -0.0146     -0.0451     -0.0151      0.0063
 <0|del|b> * <b|rxdel|0> + <0|del|b> * <b|delr+rdel|0>
 Rotatory Strengths (R) in cgs (10**-40 erg-esu-cm/Gauss)
       state          XX          YY          ZZ    R(velocity)    E-M Angle
         1         8.1928      3.3160     -1.1796      3.4431       54.63
 1/2[<0|r|b>*<b|rxdel|0> + (<0|rxdel|b>*<b|r|0>)*]
 Rotatory Strengths (R) in cgs (10**-40 erg-esu-cm/Gauss)
       state          XX          YY          ZZ     R(length)
         1         3.5905     -2.9011      9.2668      3.3188
  1/2[<0|del|b>*<b|r|0> + (<0|r|b>*<b|del|0>)*] (Au)
       state          X           Y           Z        Dip. S.   Osc.(frdel)
         1        -0.0006     -0.0016     -0.0015      0.0037      0.0025

 Excitation energies and oscillator strengths:
 
 Excited State   1:      Singlet-A      0.8770 eV 1413.76 nm  f=0.0024  <S**2>=0.000
     155 ->156         0.70313
 This state for optimization and/or second-order correction.
 Total Energy, E(TD-HF/TD-DFT) =  -1947.76060900    
 Copying the excited state density for this state as the 1-particle RhoCI density.
 SavETr:  write IOETrn=   770 NScale= 10 NData=  16 NLR=1 NState=    1 LETran=      28.

 **********************************************************************

            Population analysis using the SCF density.

 **********************************************************************

 Orbital symmetries:
       Occupied  (A) (A) (A) (A) (A) (A) (A) (A) (A) (A) (A) (A)
                 (A) (A) (A) (A) (A) (A) (A) (A) (A) (A) (A) (A)
                 (A) (A) (A) (A) (A) (A) (A) (A) (A) (A) (A) (A)
                 (A) (A) (A) (A) (A) (A) (A) (A) (A) (A) (A) (A)
                 (A) (A) (A) (A) (A) (A) (A) (A) (A) (A) (A) (A)
                 (A) (A) (A) (A) (A) (A) (A) (A) (A) (A) (A) (A)
                 (A) (A) (A) (A) (A) (A) (A) (A) (A) (A) (A) (A)
                 (A) (A) (A) (A) (A) (A) (A) (A) (A) (A) (A) (A)
                 (A) (A) (A) (A) (A) (A) (A) (A) (A) (A) (A) (A)
                 (A) (A) (A) (A) (A) (A) (A) (A) (A) (A) (A) (A)
                 (A) (A) (A) (A) (A) (A) (A) (A) (A) (A) (A) (A)
                 (A) (A) (A) (A) (A) (A) (A) (A) (A) (A) (A) (A)
                 (A) (A) (A) (A) (A) (A) (A) (A) (A) (A) (A)
       Virtual   (A) (A) (A) (A) (A) (A) (A) (A) (A) (A) (A) (A)
                 (A) (A) (A) (A) (A) (A) (A) (A) (A) (A) (A) (A)
                 (A) (A) (A) (A) (A) (A) (A) (A) (A) (A) (A) (A)
                 (A) (A) (A) (A) (A) (A) (A) (A) (A) (A) (A) (A)
                 (A) (A) (A) (A) (A) (A) (A) (A) (A) (A) (A) (A)
                 (A) (A) (A) (A) (A) (A) (A) (A) (A) (A) (A) (A)
                 (A) (A) (A) (A) (A) (A) (A) (A) (A) (A) (A) (A)
                 (A) (A) (A) (A) (A) (A) (A) (A) (A) (A) (A) (A)
                 (A) (A) (A) (A) (A) (A) (A) (A) (A) (A) (A) (A)
                 (A) (A) (A) (A) (A) (A) (A) (A) (A) (A) (A) (A)
                 (A) (A) (A) (A) (A) (A) (A) (A) (A) (A) (A) (A)
                 (A) (A) (A) (A) (A) (A) (A) (A) (A) (A) (A) (A)
                 (A) (A) (A) (A) (A) (A) (A) (A) (A) (A) (A) (A)
                 (A) (A) (A) (A) (A) (A) (A) (A) (A) (A) (A) (A)
                 (A) (A) (A) (A) (A) (A) (A) (A) (A) (A) (A) (A)
                 (A) (A) (A) (A) (A) (A) (A) (A) (A) (A) (A) (A)
                 (A) (A) (A) (A) (A) (A) (A) (A) (A) (A) (A) (A)
                 (A) (A) (A) (A) (A) (A) (A) (A) (A) (A) (A) (A)
                 (A) (A) (A) (A) (A) (A) (A) (A) (A) (A) (A) (A)
                 (A) (A) (A) (A) (A) (A) (A) (A) (A) (A) (A) (A)
                 (A) (A) (A) (A) (A) (A) (A) (A) (A) (A) (A) (A)
                 (A) (A) (A) (A) (A) (A) (A) (A) (A) (A) (A) (A)
                 (A) (A) (A) (A) (A) (A) (A) (A) (A) (A) (A) (A)
                 (A) (A) (A) (A) (A) (A) (A) (A) (A) (A) (A) (A)
                 (A) (A) (A) (A) (A) (A) (A) (A) (A) (A) (A) (A)
                 (A) (A) (A) (A) (A) (A) (A) (A) (A) (A) (A) (A)
                 (A) (A) (A) (A) (A) (A) (A) (A) (A) (A) (A) (A)
                 (A) (A) (A) (A) (A) (A) (A) (A) (A) (A) (A) (A)
                 (A) (A) (A) (A) (A) (A) (A) (A) (A) (A) (A) (A)
                 (A) (A) (A) (A) (A) (A) (A) (A) (A) (A) (A) (A)
                 (A) (A) (A) (A) (A) (A) (A) (A) (A) (A) (A) (A)
                 (A) (A) (A) (A) (A) (A) (A) (A) (A) (A) (A) (A)
                 (A) (A) (A) (A) (A) (A) (A) (A) (A) (A) (A) (A)
                 (A) (A) (A) (A) (A) (A) (A) (A) (A) (A) (A) (A)
                 (A) (A) (A) (A) (A) (A) (A) (A) (A) (A) (A) (A)
                 (A) (A) (A) (A) (A) (A) (A) (A) (A) (A) (A) (A)
                 (A) (A) (A) (A) (A) (A) (A) (A) (A) (A) (A) (A)
                 (A) (A) (A) (A) (A) (A) (A) (A) (A) (A) (A) (A)
                 (A) (A) (A) (A) (A) (A) (A) (A) (A) (A) (A) (A)
                 (A) (A) (A) (A) (A) (A) (A) (A) (A) (A) (A) (A)
                 (A) (A) (A) (A) (A) (A) (A) (A) (A) (A) (A) (A)
                 (A) (A) (A) (A) (A) (A) (A) (A) (A) (A) (A) (A)
                 (A) (A) (A) (A) (A) (A) (A) (A) (A) (A) (A) (A)
                 (A) (A) (A) (A) (A) (A) (A) (A) (A) (A) (A) (A)
                 (A) (A) (A) (A) (A) (A) (A) (A) (A) (A) (A) (A)
                 (A) (A) (A) (A) (A) (A) (A) (A) (A) (A) (A) (A)
                 (A) (A) (A) (A) (A) (A) (A) (A) (A) (A) (A) (A)
                 (A) (A) (A) (A) (A) (A) (A) (A) (A) (A) (A) (A)
                 (A) (A) (A) (A) (A) (A) (A) (A) (A) (A) (A) (A)
                 (A) (A) (A) (A) (A) (A) (A) (A) (A) (A) (A) (A)
                 (A) (A) (A) (A) (A) (A) (A) (A) (A) (A) (A) (A)
                 (A) (A) (A) (A) (A) (A) (A) (A) (A) (A) (A) (A)
                 (A) (A) (A)
 The electronic state is 1-A.
 Alpha  occ. eigenvalues --  -19.19329 -19.18143 -19.14868 -19.13053 -19.12436
 Alpha  occ. eigenvalues --  -19.06474 -14.37151 -14.36252 -14.33160 -14.32240
 Alpha  occ. eigenvalues --  -10.33338 -10.31253 -10.29134 -10.26011 -10.25755
 Alpha  occ. eigenvalues --  -10.25624 -10.25489 -10.23991 -10.23731 -10.23677
 Alpha  occ. eigenvalues --  -10.23158 -10.23140 -10.22873 -10.22520 -10.22178
 Alpha  occ. eigenvalues --  -10.21805 -10.21637 -10.21581 -10.21258 -10.21246
 Alpha  occ. eigenvalues --  -10.20843 -10.20766 -10.20366 -10.20151 -10.20088
 Alpha  occ. eigenvalues --  -10.19967 -10.19791 -10.19249 -10.18572 -10.17510
 Alpha  occ. eigenvalues --  -10.17378 -10.17262 -10.16628  -1.09924  -1.09532
 Alpha  occ. eigenvalues --   -1.02399  -1.01326  -1.00132  -0.99514  -0.98065
 Alpha  occ. eigenvalues --   -0.94862  -0.92197  -0.91510  -0.83593  -0.82698
 Alpha  occ. eigenvalues --   -0.81904  -0.81290  -0.79192  -0.78682  -0.77897
 Alpha  occ. eigenvalues --   -0.76640  -0.75734  -0.74786  -0.74322  -0.73450
 Alpha  occ. eigenvalues --   -0.71235  -0.71120  -0.70285  -0.69052  -0.67058
 Alpha  occ. eigenvalues --   -0.65940  -0.64796  -0.63629  -0.61255  -0.60468
 Alpha  occ. eigenvalues --   -0.59015  -0.58795  -0.57601  -0.57091  -0.56485
 Alpha  occ. eigenvalues --   -0.55829  -0.55614  -0.54353  -0.53789  -0.52480
 Alpha  occ. eigenvalues --   -0.51619  -0.51491  -0.50657  -0.50395  -0.49882
 Alpha  occ. eigenvalues --   -0.48967  -0.48676  -0.48660  -0.48290  -0.47908
 Alpha  occ. eigenvalues --   -0.47652  -0.46993  -0.46521  -0.46242  -0.45890
 Alpha  occ. eigenvalues --   -0.45532  -0.45290  -0.44607  -0.43729  -0.43700
 Alpha  occ. eigenvalues --   -0.43509  -0.43245  -0.42794  -0.42269  -0.42266
 Alpha  occ. eigenvalues --   -0.41891  -0.41784  -0.41551  -0.40833  -0.40641
 Alpha  occ. eigenvalues --   -0.40259  -0.40149  -0.39852  -0.39723  -0.38953
 Alpha  occ. eigenvalues --   -0.38870  -0.38564  -0.38409  -0.38245  -0.37588
 Alpha  occ. eigenvalues --   -0.37405  -0.36977  -0.36795  -0.36422  -0.36259
 Alpha  occ. eigenvalues --   -0.35863  -0.35501  -0.35319  -0.34935  -0.34646
 Alpha  occ. eigenvalues --   -0.32979  -0.32953  -0.32751  -0.32222  -0.31757
 Alpha  occ. eigenvalues --   -0.31464  -0.31064  -0.29946  -0.29493  -0.29400
 Alpha  occ. eigenvalues --   -0.27598  -0.27196  -0.26507  -0.24952  -0.23923
 Alpha  occ. eigenvalues --   -0.23097  -0.22425  -0.22280  -0.21894  -0.19012
 Alpha virt. eigenvalues --   -0.13249  -0.08399  -0.04821  -0.02319  -0.01884
 Alpha virt. eigenvalues --    0.00808   0.01199   0.01489   0.01939   0.02164
 Alpha virt. eigenvalues --    0.02978   0.03293   0.03737   0.04451   0.04553
 Alpha virt. eigenvalues --    0.04940   0.05059   0.05632   0.06059   0.06631
 Alpha virt. eigenvalues --    0.07066   0.07467   0.07845   0.08461   0.08752
 Alpha virt. eigenvalues --    0.08926   0.09404   0.09526   0.10109   0.10846
 Alpha virt. eigenvalues --    0.11059   0.11257   0.11668   0.11886   0.12695
 Alpha virt. eigenvalues --    0.12837   0.13095   0.13377   0.13895   0.14266
 Alpha virt. eigenvalues --    0.14634   0.14800   0.15323   0.15794   0.16227
 Alpha virt. eigenvalues --    0.16358   0.16525   0.17291   0.17561   0.18052
 Alpha virt. eigenvalues --    0.18525   0.19059   0.19429   0.19664   0.20380
 Alpha virt. eigenvalues --    0.20696   0.21383   0.21676   0.22002   0.22344
 Alpha virt. eigenvalues --    0.22898   0.23074   0.23808   0.24581   0.25201
 Alpha virt. eigenvalues --    0.25257   0.25645   0.25903   0.26951   0.27281
 Alpha virt. eigenvalues --    0.27419   0.27867   0.28026   0.28410   0.28849
 Alpha virt. eigenvalues --    0.29284   0.29677   0.29952   0.30451   0.31091
 Alpha virt. eigenvalues --    0.32085   0.32491   0.32677   0.33347   0.33926
 Alpha virt. eigenvalues --    0.34380   0.34785   0.35237   0.35566   0.36025
 Alpha virt. eigenvalues --    0.36774   0.37165   0.37454   0.38337   0.38540
 Alpha virt. eigenvalues --    0.39350   0.40039   0.40522   0.40782   0.40866
 Alpha virt. eigenvalues --    0.41491   0.41762   0.42243   0.42524   0.43177
 Alpha virt. eigenvalues --    0.43239   0.43614   0.43689   0.44329   0.44539
 Alpha virt. eigenvalues --    0.44985   0.45383   0.45449   0.45715   0.46223
 Alpha virt. eigenvalues --    0.46349   0.46769   0.47089   0.47511   0.47922
 Alpha virt. eigenvalues --    0.48463   0.48857   0.48972   0.49165   0.49549
 Alpha virt. eigenvalues --    0.50234   0.50662   0.51057   0.51074   0.51354
 Alpha virt. eigenvalues --    0.51489   0.51609   0.52017   0.52273   0.52660
 Alpha virt. eigenvalues --    0.53076   0.53815   0.54237   0.54640   0.54971
 Alpha virt. eigenvalues --    0.55343   0.55670   0.56313   0.56496   0.57013
 Alpha virt. eigenvalues --    0.57239   0.57900   0.58164   0.58473   0.58702
 Alpha virt. eigenvalues --    0.58984   0.59416   0.59654   0.60057   0.60569
 Alpha virt. eigenvalues --    0.60720   0.60821   0.61511   0.61714   0.61797
 Alpha virt. eigenvalues --    0.62025   0.62282   0.62517   0.62653   0.62747
 Alpha virt. eigenvalues --    0.62904   0.63187   0.63530   0.63958   0.64078
 Alpha virt. eigenvalues --    0.64410   0.64843   0.65263   0.65696   0.65994
 Alpha virt. eigenvalues --    0.66086   0.66569   0.66903   0.67114   0.67204
 Alpha virt. eigenvalues --    0.67543   0.67696   0.67884   0.68368   0.68400
 Alpha virt. eigenvalues --    0.68700   0.69111   0.69303   0.69589   0.69747
 Alpha virt. eigenvalues --    0.70018   0.70203   0.70858   0.71155   0.71593
 Alpha virt. eigenvalues --    0.71732   0.72048   0.72835   0.72947   0.73332
 Alpha virt. eigenvalues --    0.73466   0.73684   0.74467   0.74552   0.74860
 Alpha virt. eigenvalues --    0.75385   0.76148   0.76631   0.76690   0.76805
 Alpha virt. eigenvalues --    0.77626   0.77765   0.78114   0.78356   0.78727
 Alpha virt. eigenvalues --    0.79161   0.79661   0.79934   0.81072   0.82167
 Alpha virt. eigenvalues --    0.82789   0.83357   0.83738   0.84500   0.85099
 Alpha virt. eigenvalues --    0.85332   0.85952   0.86241   0.86417   0.86916
 Alpha virt. eigenvalues --    0.87295   0.87804   0.88693   0.89598   0.89786
 Alpha virt. eigenvalues --    0.90301   0.91025   0.91704   0.92529   0.92871
 Alpha virt. eigenvalues --    0.93488   0.94259   0.94518   0.94856   0.95865
 Alpha virt. eigenvalues --    0.96159   0.96862   0.97451   0.97533   0.98274
 Alpha virt. eigenvalues --    0.98698   0.98837   0.99203   1.00137   1.01746
 Alpha virt. eigenvalues --    1.02025   1.03258   1.03888   1.05297   1.06062
 Alpha virt. eigenvalues --    1.06447   1.07331   1.07639   1.08103   1.08783
 Alpha virt. eigenvalues --    1.10143   1.11481   1.11860   1.12179   1.12455
 Alpha virt. eigenvalues --    1.13487   1.13607   1.13806   1.14253   1.15158
 Alpha virt. eigenvalues --    1.15222   1.16046   1.17086   1.17869   1.18389
 Alpha virt. eigenvalues --    1.19271   1.19631   1.19775   1.20157   1.21080
 Alpha virt. eigenvalues --    1.21670   1.22247   1.22666   1.23272   1.24699
 Alpha virt. eigenvalues --    1.25512   1.25875   1.26358   1.27168   1.27390
 Alpha virt. eigenvalues --    1.27814   1.28233   1.29109   1.29859   1.30104
 Alpha virt. eigenvalues --    1.30420   1.30881   1.31841   1.33084   1.33901
 Alpha virt. eigenvalues --    1.34419   1.35194   1.35558   1.35962   1.37942
 Alpha virt. eigenvalues --    1.38461   1.39226   1.39436   1.39874   1.40368
 Alpha virt. eigenvalues --    1.41066   1.41160   1.42425   1.44164   1.44662
 Alpha virt. eigenvalues --    1.45627   1.46210   1.46386   1.46664   1.47623
 Alpha virt. eigenvalues --    1.48688   1.49016   1.49293   1.49848   1.50044
 Alpha virt. eigenvalues --    1.50499   1.51600   1.52179   1.52660   1.54062
 Alpha virt. eigenvalues --    1.54840   1.55583   1.55863   1.56360   1.56650
 Alpha virt. eigenvalues --    1.57196   1.57936   1.58391   1.59820   1.60854
 Alpha virt. eigenvalues --    1.61096   1.61596   1.61885   1.62507   1.62690
 Alpha virt. eigenvalues --    1.63010   1.63592   1.63794   1.64283   1.64414
 Alpha virt. eigenvalues --    1.64905   1.65256   1.65913   1.66020   1.66411
 Alpha virt. eigenvalues --    1.66744   1.67313   1.67631   1.67961   1.68228
 Alpha virt. eigenvalues --    1.68882   1.69905   1.70266   1.70687   1.71682
 Alpha virt. eigenvalues --    1.71817   1.72053   1.72159   1.72570   1.73011
 Alpha virt. eigenvalues --    1.73178   1.73482   1.73990   1.74671   1.75515
 Alpha virt. eigenvalues --    1.75730   1.76329   1.76689   1.77158   1.77292
 Alpha virt. eigenvalues --    1.77400   1.77724   1.78260   1.78424   1.78688
 Alpha virt. eigenvalues --    1.79060   1.79372   1.79695   1.80160   1.80701
 Alpha virt. eigenvalues --    1.80931   1.81666   1.81755   1.82469   1.82737
 Alpha virt. eigenvalues --    1.83719   1.84578   1.84855   1.84939   1.85435
 Alpha virt. eigenvalues --    1.85586   1.86072   1.86417   1.86966   1.87352
 Alpha virt. eigenvalues --    1.87410   1.87921   1.88542   1.88940   1.89240
 Alpha virt. eigenvalues --    1.89766   1.90478   1.90505   1.90847   1.91038
 Alpha virt. eigenvalues --    1.92175   1.92462   1.92784   1.92902   1.94191
 Alpha virt. eigenvalues --    1.94416   1.94486   1.94954   1.95214   1.95543
 Alpha virt. eigenvalues --    1.95930   1.96458   1.97138   1.97442   1.97829
 Alpha virt. eigenvalues --    1.98526   1.98665   1.99324   1.99877   2.00590
 Alpha virt. eigenvalues --    2.01217   2.01348   2.02093   2.02802   2.03198
 Alpha virt. eigenvalues --    2.04080   2.04601   2.05228   2.05455   2.05842
 Alpha virt. eigenvalues --    2.06324   2.07400   2.07864   2.08059   2.08416
 Alpha virt. eigenvalues --    2.08716   2.09845   2.10113   2.10546   2.10790
 Alpha virt. eigenvalues --    2.11240   2.11954   2.12525   2.13228   2.14107
 Alpha virt. eigenvalues --    2.15215   2.15401   2.15885   2.16692   2.18017
 Alpha virt. eigenvalues --    2.18865   2.19959   2.20839   2.21374   2.21987
 Alpha virt. eigenvalues --    2.22309   2.22776   2.23201   2.23363   2.24153
 Alpha virt. eigenvalues --    2.24689   2.25387   2.26479   2.27216   2.27820
 Alpha virt. eigenvalues --    2.28929   2.29117   2.29318   2.29921   2.30838
 Alpha virt. eigenvalues --    2.31529   2.32085   2.32948   2.33695   2.34072
 Alpha virt. eigenvalues --    2.34938   2.35144   2.35999   2.36127   2.36954
 Alpha virt. eigenvalues --    2.37608   2.37889   2.38319   2.39370   2.40315
 Alpha virt. eigenvalues --    2.40921   2.41134   2.41724   2.42642   2.43135
 Alpha virt. eigenvalues --    2.43509   2.45242   2.45593   2.46326   2.48632
 Alpha virt. eigenvalues --    2.49162   2.50092   2.50583   2.50941   2.51640
 Alpha virt. eigenvalues --    2.52738   2.53378   2.55011   2.56057   2.56698
 Alpha virt. eigenvalues --    2.57994   2.59783   2.60940   2.61619   2.61716
 Alpha virt. eigenvalues --    2.62066   2.62618   2.62739   2.63143   2.64262
 Alpha virt. eigenvalues --    2.64484   2.64621   2.64802   2.65868   2.66093
 Alpha virt. eigenvalues --    2.67167   2.67448   2.67771   2.68456   2.69167
 Alpha virt. eigenvalues --    2.70439   2.70952   2.71277   2.71891   2.72827
 Alpha virt. eigenvalues --    2.73255   2.73833   2.74340   2.74757   2.76090
 Alpha virt. eigenvalues --    2.76829   2.77406   2.77935   2.79169   2.79420
 Alpha virt. eigenvalues --    2.80266   2.80450   2.81734   2.82978   2.83839
 Alpha virt. eigenvalues --    2.84700   2.85730   2.85918   2.86912   2.87589
 Alpha virt. eigenvalues --    2.88648   2.89237   2.90240   2.90401   2.90707
 Alpha virt. eigenvalues --    2.91408   2.92121   2.94543   2.95258   2.95351
 Alpha virt. eigenvalues --    2.96028   2.96532   2.97296   2.97922   2.98707
 Alpha virt. eigenvalues --    2.99098   3.00597   3.02069   3.02519   3.02892
 Alpha virt. eigenvalues --    3.03676   3.03911   3.05375   3.06334   3.10584
 Alpha virt. eigenvalues --    3.12142   3.12390   3.12576   3.12873   3.13399
 Alpha virt. eigenvalues --    3.14972   3.18400   3.19138   3.21059   3.21369
 Alpha virt. eigenvalues --    3.22048   3.22395   3.23750   3.24717   3.27964
 Alpha virt. eigenvalues --    3.34281   3.35151   3.36905   3.39026   3.43463
 Alpha virt. eigenvalues --    3.45624   3.46767   3.48016   3.49393   3.49718
 Alpha virt. eigenvalues --    3.54785   3.59513   3.63242   3.64972   3.66867
 Alpha virt. eigenvalues --    3.68440   3.73142
          Condensed to atoms (all electrons):
 Mulliken charges:
               1
     1  O   -0.308988
     2  O   -0.193020
     3  O   -0.209980
     4  O   -0.305142
     5  O   -0.170361
     6  O   -0.241495
     7  N   -0.147219
     8  N   -0.099352
     9  N   -0.228870
    10  N   -0.401272
    11  C    0.099925
    12  C    0.134582
    13  C   -0.086897
    14  C   -0.176320
    15  C   -0.059090
    16  C    0.007498
    17  C   -0.160232
    18  C    0.031704
    19  C   -0.032199
    20  C   -0.079924
    21  C    0.137752
    22  C    0.084792
    23  C   -0.066118
    24  C    0.116765
    25  C    0.074042
    26  C   -0.077486
    27  C   -0.029901
    28  C    0.111954
    29  C    0.041285
    30  C   -0.010624
    31  C   -0.042552
    32  C    0.108546
    33  C   -0.111434
    34  C    0.109011
    35  C    0.131488
    36  C    0.025921
    37  C    0.164950
    38  C    0.058573
    39  C   -0.220811
    40  C    0.231175
    41  C   -0.019840
    42  C    0.052365
    43  C   -0.025771
    44  H    0.062317
    45  H    0.019620
    46  H   -0.021159
    47  H    0.149145
    48  H    0.108718
    49  H    0.047923
    50  H   -0.022707
    51  H    0.005845
    52  H   -0.003194
    53  H    0.024827
    54  H    0.056089
    55  H    0.022150
    56  H    0.042300
    57  H    0.007402
    58  H    0.025830
    59  H    0.070282
    60  H    0.269755
    61  H    0.058416
    62  H    0.031731
    63  H    0.026101
    64  H    0.051400
    65  H    0.076474
    66  H   -0.001425
    67  H    0.035438
    68  H   -0.014978
    69  H    0.005855
    70  H   -0.060406
    71  H    0.030788
    72  H    0.205307
    73  H    0.032125
    74  H    0.029048
    75  H    0.087436
    76  H    0.020073
    77  H    0.239397
    78  H    0.050911
    79  H    0.013740
 Sum of Mulliken charges =  -0.00000
 Mulliken charges with hydrogens summed into heavy atoms:
               1
     1  O   -0.308988
     2  O    0.012287
     3  O   -0.209980
     4  O   -0.065745
     5  O   -0.170361
     6  O   -0.241495
     7  N    0.001926
     8  N    0.009366
     9  N    0.040885
    10  N   -0.401272
    11  C    0.162242
    12  C    0.133043
    13  C   -0.086897
    14  C   -0.176320
    15  C   -0.059090
    16  C    0.007498
    17  C   -0.160232
    18  C    0.056919
    19  C   -0.032199
    20  C   -0.074079
    21  C    0.137752
    22  C    0.084792
    23  C   -0.066118
    24  C    0.194486
    25  C    0.145894
    26  C   -0.077486
    27  C    0.066211
    28  C    0.111954
    29  C    0.131432
    30  C    0.015477
    31  C    0.085322
    32  C    0.127581
    33  C   -0.105580
    34  C    0.109011
    35  C    0.131488
    36  C   -0.003697
    37  C    0.164950
    38  C    0.058573
    39  C   -0.220811
    40  C    0.231175
    41  C    0.012285
    42  C    0.188922
    43  C    0.038880
 Electronic spatial extent (au):  <R**2>=          25929.5665
 Charge=             -0.0000 electrons
 Dipole moment (field-independent basis, Debye):
    X=              3.6135    Y=              3.6665    Z=             -0.2612  Tot=              5.1545
 Quadrupole moment (field-independent basis, Debye-Ang):
   XX=           -232.0816   YY=           -232.3818   ZZ=           -272.9513
   XY=              0.9014   XZ=            -18.2777   YZ=            -15.8783
 Traceless Quadrupole moment (field-independent basis, Debye-Ang):
   XX=             13.7233   YY=             13.4231   ZZ=            -27.1464
   XY=              0.9014   XZ=            -18.2777   YZ=            -15.8783
 Octapole moment (field-independent basis, Debye-Ang**2):
  XXX=            145.3402  YYY=            130.0592  ZZZ=            -32.0358  XYY=             -8.1331
  XXY=            -31.5213  XXZ=             61.9547  XZZ=             36.8919  YZZ=             87.3247
  YYZ=             34.1630  XYZ=              9.4459
 Hexadecapole moment (field-independent basis, Debye-Ang**3):
 XXXX=         -17032.5581 YYYY=          -7777.4700 ZZZZ=          -7541.6273 XXXY=           -200.1644
 XXXZ=            125.9650 YYYX=            -72.8331 YYYZ=             64.5606 ZZZX=           -380.2642
 ZZZY=             28.7167 XXYY=          -4243.8636 XXZZ=          -4768.4977 YYZZ=          -2403.2195
 XXYZ=           -322.3543 YYXZ=            269.0080 ZZXY=            167.2248
 N-N= 5.179475180131D+03 E-N=-1.488754725251D+04  KE= 1.926643039269D+03
 1\1\GINC-PADAWAN\SP\RB3LYP TD-FC\SVP\C33H36N4O6\PADAWAN\27-Jul-2019\0\
 \# td=(NStates=1) B3LYP/SVP\\TD\\0,1\O,0,-3.2701239226,-1.3615312086,-
 2.8294736017\O,0,2.9033307879,3.1690385624,3.1523595069\O,0,3.43368767
 7,1.5432214504,4.6494093845\O,0,7.7468532882,-1.6060167159,-0.97529829
 16\O,0,6.6658807445,-3.1419849934,-2.2015866068\O,0,-2.6745283593,1.69
 76352526,1.4729273532\N,0,-0.1501607623,-2.5211084251,1.0170865495\N,0
 ,-2.6151835564,-1.3068658216,-0.5873608807\N,0,1.1044719966,0.05989689
 94,-0.7207470119\N,0,-0.9797771232,1.3443998479,-0.1608969876\C,0,-3.3
 906442141,-1.3742049829,0.6659035643\C,0,-2.5945780839,-2.4275168979,1
 .5061159184\C,0,-1.1991655583,-2.1458023942,1.8532033089\C,0,-0.539803
 7827,-1.2940105928,2.8310111216\C,0,0.7932204346,-1.1902640274,2.49682
 08767\C,0,1.0725299392,-1.862532688,1.2982146255\C,0,-4.7148664332,-1.
 8488805368,0.2930761949\C,0,1.9336479562,-0.4032506547,3.2106832228\C,
 0,-4.7637827397,-1.9322119296,-1.1124015807\C,0,2.1861865751,-1.816329
 8252,0.3728595647\C,0,2.1378298049,-0.9399759098,-0.6607199735\C,0,-3.
 459370607,-1.4592778931,-1.5777050539\C,0,3.0626373269,-0.6275535037,-
 1.7262765266\C,0,-1.3115897312,-0.5240062576,3.8692124295\C,0,-5.74164
 9389,-2.0303995203,1.2442954351\C,0,2.5914488018,0.508458214,-2.378852
 4952\C,0,1.7792573581,1.1166773597,2.8995866003\C,0,1.4687402405,0.939
 9306417,-1.7300491109\C,0,4.2821935685,-1.4889083199,-2.1005496851\C,0
 ,-5.9322775639,-2.2978518756,-1.9661300612\C,0,5.4959051415,-1.1337151
 167,-1.2634297599\C,0,3.0725773531,1.259654368,-3.6296594751\C,0,0.512
 4636705,1.962511398,-2.0470664517\C,0,2.8657052108,1.9612357091,3.6871
 840636\C,0,-0.5813919708,2.3143760698,-1.159611249\C,0,-6.9792018467,-
 3.1009138555,-1.7290014588\C,0,6.6207516448,-2.1134295981,-1.617182408
 2\C,0,-1.3803766925,3.5038726205,-1.2666347382\C,0,-2.3118652759,3.392
 459725,-0.2719050967\C,0,-1.9927815506,2.139714905,0.5300619382\C,0,-1
 .2219621746,4.4880050607,-2.3344852165\C,0,-3.447975434,4.2874592288,0
 .287943034\C,0,-2.0084047317,5.5548609043,-2.579291662\H,0,-3.45195368
 86,-0.3604715371,1.0904932539\H,0,-2.545616188,-3.5741225373,1.1396343
 125\H,0,-3.1752573455,-2.6090443488,2.4173011188\H,0,-0.3609714019,-2.
 897958561,-0.0066836584\H,0,-1.9686552552,-0.6030766112,-0.7353476372\
 H,0,2.3034483062,-0.6736988237,4.371359235\H,0,2.8745847914,-0.7686687
 582,2.7843133607\H,0,2.8820370176,-2.6479063735,0.3314661998\H,0,-1.91
 57642057,-1.3846077348,4.2404811099\H,0,-0.5623460026,-0.3307072743,4.
 6939057471\H,0,-1.9891582296,0.1262150682,3.2942881941\H,0,-5.37968875
 61,-1.5477929105,2.1444587389\H,0,-6.0909778585,-3.2235164562,1.560018
 8482\H,0,-6.6995073275,-1.7863142748,0.9377901407\H,0,1.8664427837,1.2
 894788898,1.8401516265\H,0,0.7972496765,1.6279750418,3.3648744611\H,0,
 0.1056988275,0.1631006799,-0.148956928\H,0,4.4900647257,-1.2561586749,
 -3.3091965216\H,0,4.008321662,-2.5353953187,-1.9468417922\H,0,-5.71350
 34887,-1.9044813727,-3.0113846023\H,0,5.2066385852,-1.2623567156,-0.21
 68984661\H,0,5.9085422955,-0.0137983759,-1.4144559281\H,0,3.9897688884
 ,0.5820346956,-3.9364818777\H,0,3.5365294045,2.2552166004,-3.759498285
 2\H,0,2.5539111804,1.262300728,-4.4461577678\H,0,0.859259836,2.6196034
 568,-2.9152124132\H,0,-7.2405631424,-3.487590943,-0.894448466\H,0,-7.7
 898972546,-3.2025815887,-2.518304884\H,0,3.3876524927,3.7531546765,3.8
 851417684\H,0,-0.1161354923,4.339745254,-2.7666945649\H,0,-4.056274217
 ,4.6893955214,-0.6160927608\H,0,-3.8562143711,3.5469594895,1.133694180
 8\H,0,-3.1312014363,5.283928684,0.5380295729\H,0,8.5028659801,-2.39337
 24914,-0.7562562606\H,0,-1.5730202266,6.1568961467,-3.5020050527\H,0,-
 2.9109234452,5.8495763334,-2.1127171792\\Version=ES64L-G16RevA.03\Stat
 e=1-A\HF=-1947.7928374\RMSD=6.395e-09\PG=C01 [X(C33H36N4O6)]\\@


 THE TEST OF A FIRST RATE INTELLIGENCE IS THE ABILITY TO HOLD TWO OPPOSED
 IDEAS IN THE MIND AT THE SAME TIME, AND STILL RETAIN THE ABILITY TO FUNCTION.
 ONE SHOULD, FOR EXAMPLE, BE ABLE TO SEE THAT THINGS ARE HOPELESS AND YET BE
 DETERMINED TO MAKE THEM OTHERWISE.

                                                       -- F. SCOTT FITZGERALD
 Job cpu time:       0 days  4 hours 37 minutes 42.5 seconds.
 Elapsed time:       0 days  1 hours  9 minutes 37.4 seconds.
 File lengths (MBytes):  RWF=   2533 Int=      0 D2E=      0 Chk=     63 Scr=      1
 Normal termination of Gaussian 16 at Sat Jul 27 07:12:10 2019.
