 Entering Gaussian System, Link 0=g16
 Input=Geometria-242-.com
 Output=Geometria-242-.log
 Initial command:
 /usr/local/g16/l1.exe "/home/padawan/israel-mol/dihydrobiliverdin/spectra/emi/Gau-3098.inp" -scrdir="/home/padawan/israel-mol/dihydrobiliverdin/spectra/emi/"
 Entering Link 1 = /usr/local/g16/l1.exe PID=      3100.
  
 Copyright (c) 1988,1990,1992,1993,1995,1998,2003,2009,2016,
            Gaussian, Inc.  All Rights Reserved.
  
 This is part of the Gaussian(R) 16 program.  It is based on
 the Gaussian(R) 09 system (copyright 2009, Gaussian, Inc.),
 the Gaussian(R) 03 system (copyright 2003, Gaussian, Inc.),
 the Gaussian(R) 98 system (copyright 1998, Gaussian, Inc.),
 the Gaussian(R) 94 system (copyright 1995, Gaussian, Inc.),
 the Gaussian 92(TM) system (copyright 1992, Gaussian, Inc.),
 the Gaussian 90(TM) system (copyright 1990, Gaussian, Inc.),
 the Gaussian 88(TM) system (copyright 1988, Gaussian, Inc.),
 the Gaussian 86(TM) system (copyright 1986, Carnegie Mellon
 University), and the Gaussian 82(TM) system (copyright 1983,
 Carnegie Mellon University). Gaussian is a federally registered
 trademark of Gaussian, Inc.
  
 This software contains proprietary and confidential information,
 including trade secrets, belonging to Gaussian, Inc.
  
 This software is provided under written license and may be
 used, copied, transmitted, or stored only in accord with that
 written license.
  
 The following legend is applicable only to US Government
 contracts under FAR:
  
                    RESTRICTED RIGHTS LEGEND
  
 Use, reproduction and disclosure by the US Government is
 subject to restrictions as set forth in subparagraphs (a)
 and (c) of the Commercial Computer Software - Restricted
 Rights clause in FAR 52.227-19.
  
 Gaussian, Inc.
 340 Quinnipiac St., Bldg. 40, Wallingford CT 06492
  
  
 ---------------------------------------------------------------
 Warning -- This program may not be used in any manner that
 competes with the business of Gaussian, Inc. or will provide
 assistance to any competitor of Gaussian, Inc.  The licensee
 of this program is prohibited from giving any competitor of
 Gaussian, Inc. access to this program.  By using this program,
 the user acknowledges that Gaussian, Inc. is engaged in the
 business of creating and licensing software in the field of
 computational chemistry and represents and warrants to the
 licensee that it is not a competitor of Gaussian, Inc. and that
 it will not use this program in any manner prohibited above.
 ---------------------------------------------------------------
  

 Cite this work as:
 Gaussian 16, Revision A.03,
 M. J. Frisch, G. W. Trucks, H. B. Schlegel, G. E. Scuseria, 
 M. A. Robb, J. R. Cheeseman, G. Scalmani, V. Barone, 
 G. A. Petersson, H. Nakatsuji, X. Li, M. Caricato, A. V. Marenich, 
 J. Bloino, B. G. Janesko, R. Gomperts, B. Mennucci, H. P. Hratchian, 
 J. V. Ortiz, A. F. Izmaylov, J. L. Sonnenberg, D. Williams-Young, 
 F. Ding, F. Lipparini, F. Egidi, J. Goings, B. Peng, A. Petrone, 
 T. Henderson, D. Ranasinghe, V. G. Zakrzewski, J. Gao, N. Rega, 
 G. Zheng, W. Liang, M. Hada, M. Ehara, K. Toyota, R. Fukuda, 
 J. Hasegawa, M. Ishida, T. Nakajima, Y. Honda, O. Kitao, H. Nakai, 
 T. Vreven, K. Throssell, J. A. Montgomery, Jr., J. E. Peralta, 
 F. Ogliaro, M. J. Bearpark, J. J. Heyd, E. N. Brothers, K. N. Kudin, 
 V. N. Staroverov, T. A. Keith, R. Kobayashi, J. Normand, 
 K. Raghavachari, A. P. Rendell, J. C. Burant, S. S. Iyengar, 
 J. Tomasi, M. Cossi, J. M. Millam, M. Klene, C. Adamo, R. Cammi, 
 J. W. Ochterski, R. L. Martin, K. Morokuma, O. Farkas, 
 J. B. Foresman, and D. J. Fox, Gaussian, Inc., Wallingford CT, 2016.
 
 ******************************************
 Gaussian 16:  ES64L-G16RevA.03 25-Dec-2016
                26-Sep-2019 
 ******************************************
 %nproc=4
 Will use up to    4 processors via shared memory.
 %Mem=4GB
 --------------------------
 # td=(NStates=1) B3LYP/SVP
 --------------------------
 1/38=1,172=1/1;
 2/12=2,17=6,18=5,40=1/2;
 3/5=18,7=101,11=9,25=1,30=1,74=-5/1,2,3,8;
 4//1;
 5/5=2,38=5/2;
 8/6=1,10=1,108=1/1;
 9/41=1,42=1,70=2/14;
 6/7=2,8=2,9=2,10=2/1;
 99/5=1,9=1/99;
 --
 TD
 --
 Symbolic Z-matrix:
 Charge =  0 Multiplicity = 1
 8                    -5.17117   0.08521  -3.30953 
 8                     3.1942    2.93126   2.93737 
 8                     3.37581   0.71213   2.9671 
 8                     1.61838  -7.04268   1.56519 
 8                     0.91135  -7.09886  -0.60564 
 8                     1.83471   4.01295   0.26745 
 7                    -2.33404  -1.07213   0.61304 
 7                    -4.35551   0.50179  -1.16501 
 7                     1.74313  -0.72293  -0.45374 
 7                     2.61764   1.92175  -0.31618 
 6                    -4.7914    1.16112  -0.03551 
 6                    -4.45063   0.29678   1.28096 
 6                    -3.00172  -0.00648   1.35985 
 6                    -1.97416   0.61465   2.23644 
 6                    -0.75358  -0.0693    1.99346 
 6                    -0.96462  -1.10214   0.96807 
 6                    -6.31935   1.34254  -0.12988 
 6                     0.63236   0.18141   2.49814 
 6                    -6.67629   0.88884  -1.37377 
 6                    -0.2481   -2.08635   0.29006 
 6                     1.04262  -1.85444  -0.28007 
 6                    -5.35478   0.49174  -2.22091 
 6                     1.88423  -2.89601  -0.92384 
 6                    -2.20555   1.7501    3.15788 
 6                    -7.11592   1.97589   0.83937 
 6                     3.10912  -2.32133  -1.39999 
 6                     1.21944   1.66904   2.51554 
 6                     2.88887  -0.86776  -1.05216 
 6                     1.48063  -4.36465  -0.97174 
 6                    -7.99318   0.79053  -2.06254 
 6                     1.70105  -4.93773   0.38356 
 6                     4.30919  -2.93833  -2.01608 
 6                     3.79764   0.07591  -1.33369 
 6                     2.69757   1.66026   2.83195 
 6                     3.70081   1.46369  -1.00652 
 6                    -9.23101   0.91453  -1.52025 
 6                     1.29899  -6.44814   0.33662 
 6                     4.51746   2.62205  -1.38977 
 6                     3.82972   3.76873  -1.05571 
 6                     2.60344   3.26946  -0.36878 
 6                     5.75643   2.4407   -2.17815 
 6                     4.2355    5.27669  -1.08378 
 6                     6.69163   3.36915  -2.62339 
 1                    -4.41452   2.10508   0.27273 
 1                    -4.83332  -0.69458   1.06494 
 1                    -4.97486   0.65261   2.29175 
 1                    -2.64091  -1.50035  -0.17959 
 1                    -3.2888    0.49299  -1.31112 
 1                     0.68364  -0.25241   3.60169 
 1                     1.41069  -0.47708   1.95379 
 1                    -0.7202   -3.04199  -0.01489 
 1                    -3.15229   2.06009   3.26583 
 1                    -1.78403   1.69051   4.07223 
 1                    -1.83584   2.68408   2.65031 
 1                    -6.60184   2.55182   1.43959 
 1                    -7.68997   1.26192   1.61997 
 1                    -7.76013   2.67034   0.33056 
 1                     1.12621   2.08412   1.35953 
 1                     0.87042   2.26152   3.23575 
 1                     1.41421   0.23727  -0.35819 
 1                     2.01569  -4.75238  -1.79444 
 1                     0.47507  -4.64013  -1.30187 
 1                    -7.71503   0.22902  -2.97629 
 1                     1.28941  -4.35609   1.26982 
 1                     2.73322  -4.55053   0.64161 
 1                     4.18967  -3.91322  -2.18257 
 1                     5.06448  -2.88612  -1.1287 
 1                     4.81019  -2.13599  -2.74192 
 1                     4.85512  -0.0896   -1.66614 
 1                    -9.61065   1.14751  -0.47991 
 1                    -10.0641   0.73912  -2.27318 
 1                     4.0258    2.71469   3.39056 
 1                     6.03855   1.29026  -2.65237 
 1                     5.23389   5.62771  -0.56458 
 1                     4.20844   5.72541  -2.06589 
 1                     3.54795   5.65557  -0.14097 
 1                     1.44012  -8.0952    1.492 
 1                     7.57508   3.12941  -3.26965 
 1                     6.79306   4.53395  -2.41434 
 
 Stoichiometry    C33H36N4O6
 Framework group  C1[X(C33H36N4O6)]
 Deg. of freedom   231
 Full point group                 C1      NOp   1
 Largest Abelian subgroup         C1      NOp   1
 Largest concise Abelian subgroup C1      NOp   1
                         Standard orientation:                         
 ---------------------------------------------------------------------
 Center     Atomic      Atomic             Coordinates (Angstroms)
 Number     Number       Type             X           Y           Z
 ---------------------------------------------------------------------
      1          8           0        5.178260   -0.066574   -3.300152
      2          8           0       -3.194571   -2.945337    2.921715
      3          8           0       -3.378724   -0.726535    2.959434
      4          8           0       -1.627627    7.035426    1.589556
      5          8           0       -0.916948    7.100518   -0.579828
      6          8           0       -1.829305   -4.015509    0.250096
      7          7           0        2.333130    1.072901    0.621852
      8          7           0        4.359402   -0.492084   -1.158611
      9          7           0       -1.741823    0.723145   -0.453213
     10          7           0       -2.613584   -1.923009   -0.327041
     11          6           0        4.794098   -1.155149   -0.030833
     12          6           0        4.450113   -0.296127    1.288269
     13          6           0        3.000723    0.005215    1.365813
     14          6           0        1.972367   -0.620337    2.238310
     15          6           0        0.751441    0.063151    1.995803
     16          6           0        0.963070    1.100058    0.974646
     17          6           0        6.322419   -1.334510   -0.123263
     18          6           0       -0.635081   -0.190997    2.497165
     19          6           0        6.680967   -0.875755   -1.364839
     20          6           0        0.246604    2.085991    0.299098
     21          6           0       -1.042881    1.854781   -0.274107
     22          6           0        5.360459   -0.476964   -2.212747
     23          6           0       -1.884561    2.897807   -0.915416
     24          6           0        2.203458   -1.758973    3.155894
     25          6           0        7.118037   -1.970586    0.844970
     26          6           0       -3.107983    2.323546   -1.395813
     27          6           0       -1.220512   -1.679334    2.507989
     28          6           0       -2.886693    0.868924   -1.053044
     29          6           0       -1.482532    4.367069   -0.957130
     30          6           0        7.998918   -0.773397   -2.050980
     31          6           0       -1.705908    4.934827    0.399929
     32          6           0       -4.307691    2.941505   -2.011645
     33          6           0       -3.793922   -0.074693   -1.339658
     34          6           0       -2.699192   -1.673400    2.821901
     35          6           0       -3.696095   -1.463584   -1.017516
     36          6           0        9.235961   -0.898044   -1.507030
     37          6           0       -1.305475    6.445848    0.359327
     38          6           0       -4.510781   -2.621411   -1.406495
     39          6           0       -3.822325   -3.768562   -1.075550
     40          6           0       -2.597783   -3.270503   -0.384656
     41          6           0       -5.748604   -2.438497   -2.196316
     42          6           0       -4.226357   -5.276864   -1.109960
     43          6           0       -6.681996   -3.366323   -2.646625
     44          1           0        4.417754   -2.100681    0.273225
     45          1           0        4.832052    0.696463    1.076621
     46          1           0        4.973016   -0.655151    2.298618
     47          1           0        2.640872    1.504430   -0.168646
     48          1           0        3.292934   -0.483934   -1.306508
     49          1           0       -0.688736    0.238635    3.602241
     50          1           0       -1.413213    0.468656    1.953951
     51          1           0        0.718149    3.043298   -0.001463
     52          1           0        3.150360   -2.068302    3.264302
     53          1           0        1.780313   -1.703275    4.069732
     54          1           0        1.835671   -2.691461    2.644203
     55          1           0        6.603585   -2.549342    1.442148
     56          1           0        7.689949   -1.258902    1.629219
     57          1           0        7.763900   -2.662413    0.334674
     58          1           0       -1.124837   -2.089985    1.350605
     59          1           0       -0.872060   -2.274123    3.226579
     60          1           0       -1.411978   -0.237045   -0.360690
     61          1           0       -2.016618    4.757273   -1.779294
     62          1           0       -0.476717    4.644908   -1.284503
     63          1           0        7.721706   -0.208784   -2.963097
     64          1           0       -1.295133    4.350327    1.284711
     65          1           0       -2.738083    4.545507    0.654757
     66          1           0       -4.188991    3.917141   -2.174283
     67          1           0       -5.064439    2.885124   -1.125758
     68          1           0       -4.806553    2.141321   -2.741342
     69          1           0       -4.851013    0.090875   -1.673303
     70          1           0        9.614091   -1.134491   -0.466924
     71          1           0       10.070146   -0.718877   -2.257877
     72          1           0       -4.027185   -2.731400    3.374290
     73          1           0       -6.031205   -1.286608   -2.666716
     74          1           0       -5.225243   -5.630935   -0.593783
     75          1           0       -4.197118   -5.721871   -2.093693
     76          1           0       -3.539997   -5.658494   -0.167393
     77          1           0       -1.450428    8.088412    1.520610
     78          1           0       -7.564610   -3.125150   -3.293504
     79          1           0       -6.782475   -4.532006   -2.442116
 ---------------------------------------------------------------------
 Rotational constants (GHZ):           0.0748337           0.0454899           0.0350340
 Standard basis: SVP (5D, 7F)
 There are   825 symmetry adapted cartesian basis functions of A   symmetry.
 There are   782 symmetry adapted basis functions of A   symmetry.
   782 basis functions,  1327 primitive gaussians,   825 cartesian basis functions
   155 alpha electrons      155 beta electrons
       nuclear repulsion energy      4940.1341325081 Hartrees.
 NAtoms=   79 NActive=   79 NUniq=   79 SFac= 1.00D+00 NAtFMM=   60 NAOKFM=T Big=T
 Integral buffers will be    131072 words long.
 Regular integral format.
 Two-electron integral symmetry is turned on.
 One-electron integrals computed using PRISM.
 NBasis=   782 RedAO= T EigKep=  3.81D-04  NBF=   782
 NBsUse=   782 1.00D-06 EigRej= -1.00D+00 NBFU=   782
 ExpMin= 1.22D-01 ExpMax= 2.27D+03 ExpMxC= 3.41D+02 IAcc=3 IRadAn=         5 AccDes= 0.00D+00
 Harris functional with IExCor=  402 and IRadAn=       5 diagonalized for initial guess.
 HarFok:  IExCor=  402 AccDes= 0.00D+00 IRadAn=         5 IDoV= 1 UseB2=F ITyADJ=14
 ICtDFT=  3500011 ScaDFX=  1.000000  1.000000  1.000000  1.000000
 FoFCou: FMM=F IPFlag=           0 FMFlag=      100000 FMFlg1=        2001
         NFxFlg=           0 DoJE=T BraDBF=F KetDBF=T FulRan=T
         wScrn=  0.000000 ICntrl=       500 IOpCl=  0 I1Cent=   200000004 NGrid=           0
         NMat0=    1 NMatS0=      1 NMatT0=    0 NMatD0=    1 NMtDS0=    0 NMtDT0=    0
 Petite list used in FoFCou.
 Requested convergence on RMS density matrix=1.00D-08 within 128 cycles.
 Requested convergence on MAX density matrix=1.00D-06.
 Requested convergence on             energy=1.00D-06.
 No special actions if energy rises.
 Integral accuracy reduced to 1.0D-05 until final iterations.
 EnCoef did     2 forward-backward iterations
 Initial convergence to 1.0D-05 achieved.  Increase integral accuracy.
 SCF Done:  E(RB3LYP) =  -1947.81284026     A.U. after   20 cycles
            NFock= 20  Conv=0.51D-08     -V/T= 2.0109
 DoSCS=F DFT=T ScalE2(SS,OS)=  1.000000  1.000000
 ExpMin= 1.22D-01 ExpMax= 2.27D+03 ExpMxC= 3.41D+02 IAcc=3 IRadAn=         5 AccDes= 0.00D+00
 HarFok:  IExCor=  205 AccDes= 0.00D+00 IRadAn=         5 IDoV=-2 UseB2=F ITyADJ=14
 ICtDFT= 12500011 ScaDFX=  1.000000  1.000000  1.000000  1.000000
 GSVD:  LWork=       -2193 too small for GESVD, short by        9890 words or        9890 for optimal perf.
 Range of M.O.s used for correlation:    44   782
 NBasis=   782 NAE=   155 NBE=   155 NFC=    43 NFV=     0
 NROrb=    739 NOA=   112 NOB=   112 NVA=   627 NVB=   627

 **** Warning!!: The smallest alpha delta epsilon is  0.71310857D-01

 Orbital symmetries:
       Occupied  (A) (A) (A) (A) (A) (A) (A) (A) (A) (A) (A) (A)
                 (A) (A) (A) (A) (A) (A) (A) (A) (A) (A) (A) (A)
                 (A) (A) (A) (A) (A) (A) (A) (A) (A) (A) (A) (A)
                 (A) (A) (A) (A) (A) (A) (A) (A) (A) (A) (A) (A)
                 (A) (A) (A) (A) (A) (A) (A) (A) (A) (A) (A) (A)
                 (A) (A) (A) (A) (A) (A) (A) (A) (A) (A) (A) (A)
                 (A) (A) (A) (A) (A) (A) (A) (A) (A) (A) (A) (A)
                 (A) (A) (A) (A) (A) (A) (A) (A) (A) (A) (A) (A)
                 (A) (A) (A) (A) (A) (A) (A) (A) (A) (A) (A) (A)
                 (A) (A) (A) (A) (A) (A) (A) (A) (A) (A) (A) (A)
                 (A) (A) (A) (A) (A) (A) (A) (A) (A) (A) (A) (A)
                 (A) (A) (A) (A) (A) (A) (A) (A) (A) (A) (A) (A)
                 (A) (A) (A) (A) (A) (A) (A) (A) (A) (A) (A)
       Virtual   (A) (A) (A) (A) (A) (A) (A) (A) (A) (A) (A) (A)
                 (A) (A) (A) (A) (A) (A) (A) (A) (A) (A) (A) (A)
                 (A) (A) (A) (A) (A) (A) (A) (A) (A) (A) (A) (A)
                 (A) (A) (A) (A) (A) (A) (A) (A) (A) (A) (A) (A)
                 (A) (A) (A) (A) (A) (A) (A) (A) (A) (A) (A) (A)
                 (A) (A) (A) (A) (A) (A) (A) (A) (A) (A) (A) (A)
                 (A) (A) (A) (A) (A) (A) (A) (A) (A) (A) (A) (A)
                 (A) (A) (A) (A) (A) (A) (A) (A) (A) (A) (A) (A)
                 (A) (A) (A) (A) (A) (A) (A) (A) (A) (A) (A) (A)
                 (A) (A) (A) (A) (A) (A) (A) (A) (A) (A) (A) (A)
                 (A) (A) (A) (A) (A) (A) (A) (A) (A) (A) (A) (A)
                 (A) (A) (A) (A) (A) (A) (A) (A) (A) (A) (A) (A)
                 (A) (A) (A) (A) (A) (A) (A) (A) (A) (A) (A) (A)
                 (A) (A) (A) (A) (A) (A) (A) (A) (A) (A) (A) (A)
                 (A) (A) (A) (A) (A) (A) (A) (A) (A) (A) (A) (A)
                 (A) (A) (A) (A) (A) (A) (A) (A) (A) (A) (A) (A)
                 (A) (A) (A) (A) (A) (A) (A) (A) (A) (A) (A) (A)
                 (A) (A) (A) (A) (A) (A) (A) (A) (A) (A) (A) (A)
                 (A) (A) (A) (A) (A) (A) (A) (A) (A) (A) (A) (A)
                 (A) (A) (A) (A) (A) (A) (A) (A) (A) (A) (A) (A)
                 (A) (A) (A) (A) (A) (A) (A) (A) (A) (A) (A) (A)
                 (A) (A) (A) (A) (A) (A) (A) (A) (A) (A) (A) (A)
                 (A) (A) (A) (A) (A) (A) (A) (A) (A) (A) (A) (A)
                 (A) (A) (A) (A) (A) (A) (A) (A) (A) (A) (A) (A)
                 (A) (A) (A) (A) (A) (A) (A) (A) (A) (A) (A) (A)
                 (A) (A) (A) (A) (A) (A) (A) (A) (A) (A) (A) (A)
                 (A) (A) (A) (A) (A) (A) (A) (A) (A) (A) (A) (A)
                 (A) (A) (A) (A) (A) (A) (A) (A) (A) (A) (A) (A)
                 (A) (A) (A) (A) (A) (A) (A) (A) (A) (A) (A) (A)
                 (A) (A) (A) (A) (A) (A) (A) (A) (A) (A) (A) (A)
                 (A) (A) (A) (A) (A) (A) (A) (A) (A) (A) (A) (A)
                 (A) (A) (A) (A) (A) (A) (A) (A) (A) (A) (A) (A)
                 (A) (A) (A) (A) (A) (A) (A) (A) (A) (A) (A) (A)
                 (A) (A) (A) (A) (A) (A) (A) (A) (A) (A) (A) (A)
                 (A) (A) (A) (A) (A) (A) (A) (A) (A) (A) (A) (A)
                 (A) (A) (A) (A) (A) (A) (A) (A) (A) (A) (A) (A)
                 (A) (A) (A) (A) (A) (A) (A) (A) (A) (A) (A) (A)
                 (A) (A) (A) (A) (A) (A) (A) (A) (A) (A) (A) (A)
                 (A) (A) (A) (A) (A) (A) (A) (A) (A) (A) (A) (A)
                 (A) (A) (A) (A) (A) (A) (A) (A) (A) (A) (A) (A)
                 (A) (A) (A) (A) (A) (A) (A) (A) (A) (A) (A) (A)
                 (A) (A) (A) (A) (A) (A) (A) (A) (A) (A) (A) (A)
                 (A) (A) (A) (A) (A) (A) (A) (A) (A) (A) (A) (A)
                 (A) (A) (A) (A) (A) (A) (A) (A) (A) (A) (A) (A)
                 (A) (A) (A) (A) (A) (A) (A) (A) (A) (A) (A) (A)
                 (A) (A) (A) (A) (A) (A) (A) (A) (A) (A) (A) (A)
                 (A) (A) (A) (A) (A) (A) (A) (A) (A) (A) (A) (A)
                 (A) (A) (A) (A) (A) (A) (A) (A) (A) (A) (A) (A)
                 (A) (A) (A) (A) (A) (A) (A) (A) (A) (A) (A) (A)
                 (A) (A) (A) (A) (A) (A) (A) (A) (A) (A) (A) (A)
                 (A) (A) (A) (A) (A) (A) (A) (A) (A) (A) (A) (A)
                 (A) (A) (A) (A) (A) (A) (A) (A) (A) (A) (A) (A)
                 (A) (A) (A)
     4 initial guesses have been made.
 Convergence on wavefunction:    0.001000000000000
 Iteration     1 Dimension     4 NMult     0 NNew      4
 CISAX will form     4 AO SS matrices at one time.
 Iteration     2 Dimension     6 NMult     4 NNew      2
 Iteration     3 Dimension     8 NMult     6 NNew      2
 Iteration     4 Dimension    10 NMult     8 NNew      2
 Iteration     5 Dimension    12 NMult    10 NNew      2
 Iteration     6 Dimension    14 NMult    12 NNew      2
 Iteration     7 Dimension    16 NMult    14 NNew      2
 ***********************************************************************
 Excited states from <AA,BB:AA,BB> singles matrix:
 ***********************************************************************
 
 Ground to excited state transition densities written to RWF  633
 Ground to excited state transition electric dipole moments (Au):
       state          X           Y           Z        Dip. S.      Osc.
         1        -2.7555     -1.1202     -0.9101      9.6758      0.4433
 Ground to excited state transition velocity dipole moments (Au):
       state          X           Y           Z        Dip. S.      Osc.
         1         0.1832      0.0697      0.0614      0.0422      0.4093
 Ground to excited state transition magnetic dipole moments (Au):
       state          X           Y           Z
         1         0.8482     -0.1037     -1.4605
 Ground to excited state transition velocity quadrupole moments (Au):
       state          XX          YY          ZZ          XY          XZ          YZ
         1        -0.1530     -0.4916      0.0967     -0.6477     -0.3151     -0.1623
 <0|del|b> * <b|rxdel|0> + <0|del|b> * <b|delr+rdel|0>
 Rotatory Strengths (R) in cgs (10**-40 erg-esu-cm/Gauss)
       state          XX          YY          ZZ    R(velocity)    E-M Angle
         1      -589.7579    389.9017    802.2635    200.8025       80.30
 1/2[<0|r|b>*<b|rxdel|0> + (<0|rxdel|b>*<b|r|0>)*]
 Rotatory Strengths (R) in cgs (10**-40 erg-esu-cm/Gauss)
       state          XX          YY          ZZ     R(length)
         1      1652.7773    -82.1361   -939.9936    210.2159
  1/2[<0|del|b>*<b|r|0> + (<0|r|b>*<b|del|0>)*] (Au)
       state          X           Y           Z        Dip. S.   Osc.(frdel)
         1        -0.5048     -0.0781     -0.0558      0.6388      0.4259

 Excitation energies and oscillator strengths:
 
 Excited State   1:      Singlet-A      1.8701 eV  662.99 nm  f=0.4433  <S**2>=0.000
     155 ->156         0.70152
     155 <-156        -0.13386
 This state for optimization and/or second-order correction.
 Total Energy, E(TD-HF/TD-DFT) =  -1947.74411670    
 Copying the excited state density for this state as the 1-particle RhoCI density.
 SavETr:  write IOETrn=   770 NScale= 10 NData=  16 NLR=1 NState=    1 LETran=      28.

 **********************************************************************

            Population analysis using the SCF density.

 **********************************************************************

 Orbital symmetries:
       Occupied  (A) (A) (A) (A) (A) (A) (A) (A) (A) (A) (A) (A)
                 (A) (A) (A) (A) (A) (A) (A) (A) (A) (A) (A) (A)
                 (A) (A) (A) (A) (A) (A) (A) (A) (A) (A) (A) (A)
                 (A) (A) (A) (A) (A) (A) (A) (A) (A) (A) (A) (A)
                 (A) (A) (A) (A) (A) (A) (A) (A) (A) (A) (A) (A)
                 (A) (A) (A) (A) (A) (A) (A) (A) (A) (A) (A) (A)
                 (A) (A) (A) (A) (A) (A) (A) (A) (A) (A) (A) (A)
                 (A) (A) (A) (A) (A) (A) (A) (A) (A) (A) (A) (A)
                 (A) (A) (A) (A) (A) (A) (A) (A) (A) (A) (A) (A)
                 (A) (A) (A) (A) (A) (A) (A) (A) (A) (A) (A) (A)
                 (A) (A) (A) (A) (A) (A) (A) (A) (A) (A) (A) (A)
                 (A) (A) (A) (A) (A) (A) (A) (A) (A) (A) (A) (A)
                 (A) (A) (A) (A) (A) (A) (A) (A) (A) (A) (A)
       Virtual   (A) (A) (A) (A) (A) (A) (A) (A) (A) (A) (A) (A)
                 (A) (A) (A) (A) (A) (A) (A) (A) (A) (A) (A) (A)
                 (A) (A) (A) (A) (A) (A) (A) (A) (A) (A) (A) (A)
                 (A) (A) (A) (A) (A) (A) (A) (A) (A) (A) (A) (A)
                 (A) (A) (A) (A) (A) (A) (A) (A) (A) (A) (A) (A)
                 (A) (A) (A) (A) (A) (A) (A) (A) (A) (A) (A) (A)
                 (A) (A) (A) (A) (A) (A) (A) (A) (A) (A) (A) (A)
                 (A) (A) (A) (A) (A) (A) (A) (A) (A) (A) (A) (A)
                 (A) (A) (A) (A) (A) (A) (A) (A) (A) (A) (A) (A)
                 (A) (A) (A) (A) (A) (A) (A) (A) (A) (A) (A) (A)
                 (A) (A) (A) (A) (A) (A) (A) (A) (A) (A) (A) (A)
                 (A) (A) (A) (A) (A) (A) (A) (A) (A) (A) (A) (A)
                 (A) (A) (A) (A) (A) (A) (A) (A) (A) (A) (A) (A)
                 (A) (A) (A) (A) (A) (A) (A) (A) (A) (A) (A) (A)
                 (A) (A) (A) (A) (A) (A) (A) (A) (A) (A) (A) (A)
                 (A) (A) (A) (A) (A) (A) (A) (A) (A) (A) (A) (A)
                 (A) (A) (A) (A) (A) (A) (A) (A) (A) (A) (A) (A)
                 (A) (A) (A) (A) (A) (A) (A) (A) (A) (A) (A) (A)
                 (A) (A) (A) (A) (A) (A) (A) (A) (A) (A) (A) (A)
                 (A) (A) (A) (A) (A) (A) (A) (A) (A) (A) (A) (A)
                 (A) (A) (A) (A) (A) (A) (A) (A) (A) (A) (A) (A)
                 (A) (A) (A) (A) (A) (A) (A) (A) (A) (A) (A) (A)
                 (A) (A) (A) (A) (A) (A) (A) (A) (A) (A) (A) (A)
                 (A) (A) (A) (A) (A) (A) (A) (A) (A) (A) (A) (A)
                 (A) (A) (A) (A) (A) (A) (A) (A) (A) (A) (A) (A)
                 (A) (A) (A) (A) (A) (A) (A) (A) (A) (A) (A) (A)
                 (A) (A) (A) (A) (A) (A) (A) (A) (A) (A) (A) (A)
                 (A) (A) (A) (A) (A) (A) (A) (A) (A) (A) (A) (A)
                 (A) (A) (A) (A) (A) (A) (A) (A) (A) (A) (A) (A)
                 (A) (A) (A) (A) (A) (A) (A) (A) (A) (A) (A) (A)
                 (A) (A) (A) (A) (A) (A) (A) (A) (A) (A) (A) (A)
                 (A) (A) (A) (A) (A) (A) (A) (A) (A) (A) (A) (A)
                 (A) (A) (A) (A) (A) (A) (A) (A) (A) (A) (A) (A)
                 (A) (A) (A) (A) (A) (A) (A) (A) (A) (A) (A) (A)
                 (A) (A) (A) (A) (A) (A) (A) (A) (A) (A) (A) (A)
                 (A) (A) (A) (A) (A) (A) (A) (A) (A) (A) (A) (A)
                 (A) (A) (A) (A) (A) (A) (A) (A) (A) (A) (A) (A)
                 (A) (A) (A) (A) (A) (A) (A) (A) (A) (A) (A) (A)
                 (A) (A) (A) (A) (A) (A) (A) (A) (A) (A) (A) (A)
                 (A) (A) (A) (A) (A) (A) (A) (A) (A) (A) (A) (A)
                 (A) (A) (A) (A) (A) (A) (A) (A) (A) (A) (A) (A)
                 (A) (A) (A) (A) (A) (A) (A) (A) (A) (A) (A) (A)
                 (A) (A) (A) (A) (A) (A) (A) (A) (A) (A) (A) (A)
                 (A) (A) (A) (A) (A) (A) (A) (A) (A) (A) (A) (A)
                 (A) (A) (A) (A) (A) (A) (A) (A) (A) (A) (A) (A)
                 (A) (A) (A) (A) (A) (A) (A) (A) (A) (A) (A) (A)
                 (A) (A) (A) (A) (A) (A) (A) (A) (A) (A) (A) (A)
                 (A) (A) (A) (A) (A) (A) (A) (A) (A) (A) (A) (A)
                 (A) (A) (A) (A) (A) (A) (A) (A) (A) (A) (A) (A)
                 (A) (A) (A) (A) (A) (A) (A) (A) (A) (A) (A) (A)
                 (A) (A) (A) (A) (A) (A) (A) (A) (A) (A) (A) (A)
                 (A) (A) (A) (A) (A) (A) (A) (A) (A) (A) (A) (A)
                 (A) (A) (A)
 The electronic state is 1-A.
 Alpha  occ. eigenvalues --  -19.18480 -19.15679 -19.14668 -19.12740 -19.11141
 Alpha  occ. eigenvalues --  -19.09657 -14.38275 -14.37731 -14.35948 -14.28524
 Alpha  occ. eigenvalues --  -10.33632 -10.30467 -10.29488 -10.25547 -10.24849
 Alpha  occ. eigenvalues --  -10.24760 -10.24636 -10.24303 -10.23522 -10.23452
 Alpha  occ. eigenvalues --  -10.22502 -10.22489 -10.22235 -10.22208 -10.21976
 Alpha  occ. eigenvalues --  -10.21730 -10.21617 -10.21535 -10.20900 -10.20894
 Alpha  occ. eigenvalues --  -10.20888 -10.20839 -10.20670 -10.20574 -10.20528
 Alpha  occ. eigenvalues --  -10.20237 -10.20120 -10.20056 -10.20052 -10.20045
 Alpha  occ. eigenvalues --  -10.19373 -10.18223 -10.18072  -1.08696  -1.08365
 Alpha  occ. eigenvalues --   -1.05842  -1.01295  -1.00000  -0.99983  -0.99678
 Alpha  occ. eigenvalues --   -0.96510  -0.94664  -0.91903  -0.83247  -0.82664
 Alpha  occ. eigenvalues --   -0.81918  -0.81189  -0.79454  -0.78802  -0.78076
 Alpha  occ. eigenvalues --   -0.77304  -0.75798  -0.75324  -0.73295  -0.72658
 Alpha  occ. eigenvalues --   -0.72115  -0.71498  -0.69863  -0.68408  -0.67689
 Alpha  occ. eigenvalues --   -0.66579  -0.66035  -0.63315  -0.61147  -0.60508
 Alpha  occ. eigenvalues --   -0.59266  -0.58692  -0.58594  -0.58100  -0.57532
 Alpha  occ. eigenvalues --   -0.56954  -0.56018  -0.54461  -0.53957  -0.52602
 Alpha  occ. eigenvalues --   -0.51838  -0.51625  -0.51153  -0.50470  -0.49245
 Alpha  occ. eigenvalues --   -0.48534  -0.48401  -0.48106  -0.47475  -0.46979
 Alpha  occ. eigenvalues --   -0.46785  -0.46597  -0.46357  -0.46120  -0.46071
 Alpha  occ. eigenvalues --   -0.45595  -0.45530  -0.44798  -0.44669  -0.44102
 Alpha  occ. eigenvalues --   -0.43671  -0.43528  -0.43298  -0.43057  -0.42735
 Alpha  occ. eigenvalues --   -0.42310  -0.42191  -0.42103  -0.41563  -0.41187
 Alpha  occ. eigenvalues --   -0.40985  -0.40877  -0.40557  -0.40430  -0.40140
 Alpha  occ. eigenvalues --   -0.39950  -0.39754  -0.39314  -0.38724  -0.38602
 Alpha  occ. eigenvalues --   -0.38227  -0.38090  -0.37584  -0.37243  -0.35804
 Alpha  occ. eigenvalues --   -0.35511  -0.34585  -0.34083  -0.33840  -0.33525
 Alpha  occ. eigenvalues --   -0.33393  -0.33085  -0.32653  -0.31567  -0.31415
 Alpha  occ. eigenvalues --   -0.30845  -0.30682  -0.29817  -0.28216  -0.27761
 Alpha  occ. eigenvalues --   -0.26803  -0.26728  -0.26531  -0.25439  -0.24829
 Alpha  occ. eigenvalues --   -0.24169  -0.23698  -0.23459  -0.22005  -0.18595
 Alpha virt. eigenvalues --   -0.11464  -0.06972  -0.06089  -0.02061  -0.01370
 Alpha virt. eigenvalues --   -0.00378   0.00254   0.02426   0.02777   0.02987
 Alpha virt. eigenvalues --    0.03135   0.03883   0.04206   0.04628   0.05089
 Alpha virt. eigenvalues --    0.05905   0.06308   0.06425   0.06961   0.07259
 Alpha virt. eigenvalues --    0.07592   0.07717   0.08124   0.08710   0.08772
 Alpha virt. eigenvalues --    0.08882   0.09095   0.09731   0.10089   0.10375
 Alpha virt. eigenvalues --    0.10621   0.10713   0.11118   0.12067   0.12411
 Alpha virt. eigenvalues --    0.13081   0.13192   0.13375   0.13566   0.13658
 Alpha virt. eigenvalues --    0.14238   0.14578   0.14933   0.15514   0.15917
 Alpha virt. eigenvalues --    0.15944   0.16147   0.16491   0.16711   0.17665
 Alpha virt. eigenvalues --    0.18294   0.18476   0.18966   0.19422   0.19706
 Alpha virt. eigenvalues --    0.19945   0.20813   0.21206   0.21425   0.21887
 Alpha virt. eigenvalues --    0.22135   0.22465   0.22679   0.23216   0.23676
 Alpha virt. eigenvalues --    0.23885   0.25100   0.25291   0.25662   0.26163
 Alpha virt. eigenvalues --    0.26512   0.27156   0.27498   0.28397   0.28640
 Alpha virt. eigenvalues --    0.28881   0.29727   0.30024   0.30079   0.30871
 Alpha virt. eigenvalues --    0.30978   0.31456   0.31852   0.32184   0.32785
 Alpha virt. eigenvalues --    0.33036   0.34657   0.35166   0.35437   0.35779
 Alpha virt. eigenvalues --    0.36290   0.36659   0.37466   0.37877   0.38409
 Alpha virt. eigenvalues --    0.39079   0.39278   0.39909   0.40424   0.40641
 Alpha virt. eigenvalues --    0.41520   0.41951   0.42580   0.42914   0.43455
 Alpha virt. eigenvalues --    0.43770   0.43906   0.44078   0.45077   0.45172
 Alpha virt. eigenvalues --    0.45598   0.45609   0.46095   0.46559   0.47038
 Alpha virt. eigenvalues --    0.47214   0.47423   0.47768   0.48506   0.48707
 Alpha virt. eigenvalues --    0.49126   0.49490   0.49815   0.50135   0.50474
 Alpha virt. eigenvalues --    0.50705   0.51051   0.51368   0.51721   0.51990
 Alpha virt. eigenvalues --    0.52590   0.52753   0.53155   0.53340   0.53775
 Alpha virt. eigenvalues --    0.54124   0.54293   0.54401   0.54836   0.55468
 Alpha virt. eigenvalues --    0.56004   0.56696   0.56715   0.57657   0.58036
 Alpha virt. eigenvalues --    0.58224   0.58396   0.58520   0.58904   0.59189
 Alpha virt. eigenvalues --    0.59420   0.59766   0.60025   0.60483   0.60601
 Alpha virt. eigenvalues --    0.60868   0.61227   0.61487   0.61626   0.62365
 Alpha virt. eigenvalues --    0.62644   0.62849   0.63519   0.63636   0.63734
 Alpha virt. eigenvalues --    0.63918   0.64192   0.64365   0.64485   0.64772
 Alpha virt. eigenvalues --    0.64974   0.65047   0.65133   0.65376   0.65719
 Alpha virt. eigenvalues --    0.65959   0.66140   0.66410   0.66585   0.67183
 Alpha virt. eigenvalues --    0.67669   0.67686   0.67806   0.68013   0.68340
 Alpha virt. eigenvalues --    0.68696   0.68987   0.69004   0.69161   0.69543
 Alpha virt. eigenvalues --    0.69636   0.70046   0.70192   0.70457   0.71216
 Alpha virt. eigenvalues --    0.71474   0.71532   0.71908   0.72099   0.72782
 Alpha virt. eigenvalues --    0.72892   0.73361   0.73600   0.73809   0.73913
 Alpha virt. eigenvalues --    0.74636   0.75026   0.75366   0.75661   0.75905
 Alpha virt. eigenvalues --    0.76081   0.76591   0.76956   0.77439   0.77553
 Alpha virt. eigenvalues --    0.78183   0.78381   0.78742   0.79196   0.80228
 Alpha virt. eigenvalues --    0.80696   0.81953   0.82060   0.82561   0.83670
 Alpha virt. eigenvalues --    0.83990   0.84463   0.85056   0.85270   0.86005
 Alpha virt. eigenvalues --    0.86177   0.87091   0.87275   0.88590   0.89538
 Alpha virt. eigenvalues --    0.90495   0.91258   0.91599   0.91952   0.92556
 Alpha virt. eigenvalues --    0.93552   0.93785   0.94152   0.94538   0.94864
 Alpha virt. eigenvalues --    0.95437   0.95744   0.96703   0.97537   0.98269
 Alpha virt. eigenvalues --    0.99008   0.99703   1.00151   1.00268   1.01298
 Alpha virt. eigenvalues --    1.02018   1.02422   1.03593   1.04162   1.04513
 Alpha virt. eigenvalues --    1.05915   1.06473   1.07730   1.07885   1.08337
 Alpha virt. eigenvalues --    1.08995   1.09268   1.09804   1.10618   1.10962
 Alpha virt. eigenvalues --    1.11644   1.12440   1.12694   1.14060   1.14251
 Alpha virt. eigenvalues --    1.15035   1.15293   1.16225   1.16803   1.17406
 Alpha virt. eigenvalues --    1.18038   1.18393   1.19371   1.19702   1.20244
 Alpha virt. eigenvalues --    1.21063   1.21705   1.21973   1.23008   1.23561
 Alpha virt. eigenvalues --    1.23971   1.24198   1.25085   1.25340   1.25691
 Alpha virt. eigenvalues --    1.26596   1.26857   1.27447   1.27773   1.29321
 Alpha virt. eigenvalues --    1.29644   1.30391   1.31709   1.32544   1.33180
 Alpha virt. eigenvalues --    1.33812   1.35246   1.35856   1.36243   1.37113
 Alpha virt. eigenvalues --    1.37386   1.38560   1.39329   1.40274   1.40574
 Alpha virt. eigenvalues --    1.41488   1.42080   1.42957   1.43551   1.43878
 Alpha virt. eigenvalues --    1.44606   1.45709   1.47089   1.47316   1.47692
 Alpha virt. eigenvalues --    1.48202   1.49215   1.49529   1.49991   1.50941
 Alpha virt. eigenvalues --    1.51775   1.51906   1.52660   1.53180   1.54135
 Alpha virt. eigenvalues --    1.54697   1.54976   1.55906   1.56073   1.56875
 Alpha virt. eigenvalues --    1.57018   1.57661   1.58366   1.58424   1.59418
 Alpha virt. eigenvalues --    1.59926   1.60359   1.60989   1.61242   1.61978
 Alpha virt. eigenvalues --    1.62709   1.62982   1.63238   1.64141   1.64674
 Alpha virt. eigenvalues --    1.65205   1.65506   1.66018   1.66565   1.66939
 Alpha virt. eigenvalues --    1.67223   1.67550   1.67837   1.68583   1.68827
 Alpha virt. eigenvalues --    1.69110   1.69859   1.70170   1.70587   1.70898
 Alpha virt. eigenvalues --    1.71348   1.71858   1.72245   1.72746   1.73680
 Alpha virt. eigenvalues --    1.74081   1.74177   1.74501   1.74957   1.75806
 Alpha virt. eigenvalues --    1.76346   1.76595   1.76706   1.77095   1.77414
 Alpha virt. eigenvalues --    1.77887   1.78074   1.78397   1.78836   1.79050
 Alpha virt. eigenvalues --    1.79623   1.79860   1.80545   1.80635   1.81250
 Alpha virt. eigenvalues --    1.81315   1.81682   1.81756   1.82507   1.82581
 Alpha virt. eigenvalues --    1.82940   1.83442   1.84232   1.84614   1.84839
 Alpha virt. eigenvalues --    1.85368   1.85513   1.85901   1.86174   1.86894
 Alpha virt. eigenvalues --    1.87516   1.87771   1.88057   1.89042   1.89216
 Alpha virt. eigenvalues --    1.90338   1.90617   1.90810   1.91472   1.92109
 Alpha virt. eigenvalues --    1.92476   1.92690   1.92954   1.93530   1.93998
 Alpha virt. eigenvalues --    1.94742   1.95085   1.95714   1.96192   1.96410
 Alpha virt. eigenvalues --    1.96744   1.97461   1.97887   1.98672   1.99053
 Alpha virt. eigenvalues --    1.99845   2.00177   2.00396   2.01158   2.01454
 Alpha virt. eigenvalues --    2.02003   2.02703   2.03527   2.03953   2.04363
 Alpha virt. eigenvalues --    2.04612   2.05691   2.05835   2.06068   2.06478
 Alpha virt. eigenvalues --    2.07605   2.07855   2.08441   2.08766   2.09645
 Alpha virt. eigenvalues --    2.10475   2.10638   2.11337   2.11715   2.12030
 Alpha virt. eigenvalues --    2.12747   2.13431   2.13777   2.14673   2.14752
 Alpha virt. eigenvalues --    2.15250   2.15700   2.16598   2.16706   2.17016
 Alpha virt. eigenvalues --    2.18573   2.19946   2.20316   2.20840   2.21065
 Alpha virt. eigenvalues --    2.21835   2.23422   2.23775   2.24585   2.24760
 Alpha virt. eigenvalues --    2.25180   2.26348   2.26731   2.27300   2.28405
 Alpha virt. eigenvalues --    2.28690   2.29493   2.29911   2.30395   2.30435
 Alpha virt. eigenvalues --    2.31681   2.32750   2.33821   2.33993   2.34463
 Alpha virt. eigenvalues --    2.34838   2.35424   2.36018   2.36643   2.37389
 Alpha virt. eigenvalues --    2.37772   2.38679   2.39320   2.40450   2.41092
 Alpha virt. eigenvalues --    2.41794   2.42170   2.43292   2.43631   2.44253
 Alpha virt. eigenvalues --    2.44907   2.45618   2.47581   2.47886   2.48737
 Alpha virt. eigenvalues --    2.49184   2.51039   2.51767   2.51959   2.52685
 Alpha virt. eigenvalues --    2.53677   2.53949   2.54857   2.56457   2.57031
 Alpha virt. eigenvalues --    2.58213   2.58508   2.59165   2.59823   2.60773
 Alpha virt. eigenvalues --    2.61151   2.62187   2.62604   2.63083   2.63591
 Alpha virt. eigenvalues --    2.64531   2.65352   2.66470   2.66869   2.67354
 Alpha virt. eigenvalues --    2.68056   2.68480   2.69469   2.70034   2.70276
 Alpha virt. eigenvalues --    2.70578   2.70809   2.71783   2.72616   2.73032
 Alpha virt. eigenvalues --    2.73755   2.74648   2.74916   2.75709   2.76484
 Alpha virt. eigenvalues --    2.77528   2.78247   2.78341   2.78682   2.79616
 Alpha virt. eigenvalues --    2.80238   2.80315   2.80516   2.81633   2.82435
 Alpha virt. eigenvalues --    2.83899   2.84451   2.86348   2.87094   2.87270
 Alpha virt. eigenvalues --    2.88107   2.88510   2.89861   2.91562   2.92127
 Alpha virt. eigenvalues --    2.92902   2.93431   2.94532   2.94997   2.97231
 Alpha virt. eigenvalues --    2.97818   2.98536   2.98847   2.99090   2.99644
 Alpha virt. eigenvalues --    3.00521   3.01226   3.02350   3.03030   3.05828
 Alpha virt. eigenvalues --    3.06780   3.07524   3.09051   3.10529   3.11227
 Alpha virt. eigenvalues --    3.12248   3.12720   3.15124   3.15889   3.16681
 Alpha virt. eigenvalues --    3.17702   3.18959   3.19391   3.19755   3.21022
 Alpha virt. eigenvalues --    3.22813   3.23520   3.25066   3.27564   3.28941
 Alpha virt. eigenvalues --    3.29225   3.30549   3.35343   3.37186   3.45291
 Alpha virt. eigenvalues --    3.47141   3.51858   3.52282   3.54139   3.56382
 Alpha virt. eigenvalues --    3.58723   3.59940   3.65724   3.65838   3.66793
 Alpha virt. eigenvalues --    3.68169   3.81493
          Condensed to atoms (all electrons):
 Mulliken charges:
               1
     1  O   -0.153286
     2  O   -0.191667
     3  O   -0.202618
     4  O   -0.273740
     5  O   -0.208405
     6  O   -0.238783
     7  N   -0.115104
     8  N   -0.235337
     9  N    0.056415
    10  N   -0.291935
    11  C    0.109302
    12  C    0.134731
    13  C   -0.073272
    14  C   -0.149551
    15  C   -0.032341
    16  C    0.102438
    17  C   -0.170265
    18  C   -0.023366
    19  C   -0.150230
    20  C   -0.112733
    21  C    0.044443
    22  C    0.189750
    23  C   -0.172234
    24  C    0.221102
    25  C    0.159097
    26  C   -0.149583
    27  C    0.033875
    28  C    0.142640
    29  C    0.140239
    30  C    0.034397
    31  C   -0.065819
    32  C    0.162400
    33  C   -0.141531
    34  C    0.102417
    35  C    0.008788
    36  C   -0.071069
    37  C    0.217821
    38  C    0.088685
    39  C   -0.156582
    40  C    0.145872
    41  C   -0.074639
    42  C   -0.006229
    43  C   -0.104926
    44  H   -0.008122
    45  H   -0.015906
    46  H    0.042627
    47  H    0.086503
    48  H    0.151360
    49  H    0.015361
    50  H    0.038151
    51  H    0.015073
    52  H   -0.058388
    53  H   -0.003903
    54  H    0.029563
    55  H   -0.051223
    56  H    0.052976
    57  H    0.028294
    58  H    0.119015
    59  H   -0.021800
    60  H    0.139401
    61  H   -0.002577
    62  H    0.006228
    63  H    0.025880
    64  H    0.054499
    65  H    0.042598
    66  H   -0.018887
    67  H    0.037636
    68  H    0.054197
    69  H   -0.007122
    70  H    0.045665
    71  H    0.038058
    72  H    0.158556
    73  H    0.042058
    74  H    0.036941
    75  H    0.041007
    76  H    0.062630
    77  H    0.221584
    78  H    0.030311
    79  H    0.042586
 Sum of Mulliken charges =  -0.00000
 Mulliken charges with hydrogens summed into heavy atoms:
               1
     1  O   -0.153286
     2  O   -0.033111
     3  O   -0.202618
     4  O   -0.052156
     5  O   -0.208405
     6  O   -0.238783
     7  N   -0.028601
     8  N   -0.083977
     9  N    0.195816
    10  N   -0.291935
    11  C    0.101180
    12  C    0.161452
    13  C   -0.073272
    14  C   -0.149551
    15  C   -0.032341
    16  C    0.102438
    17  C   -0.170265
    18  C    0.030146
    19  C   -0.150230
    20  C   -0.097659
    21  C    0.044443
    22  C    0.189750
    23  C   -0.172234
    24  C    0.188375
    25  C    0.189145
    26  C   -0.149583
    27  C    0.131090
    28  C    0.142640
    29  C    0.143890
    30  C    0.060277
    31  C    0.031278
    32  C    0.235346
    33  C   -0.148653
    34  C    0.102417
    35  C    0.008788
    36  C    0.012654
    37  C    0.217821
    38  C    0.088685
    39  C   -0.156582
    40  C    0.145872
    41  C   -0.032580
    42  C    0.134349
    43  C   -0.032028
 Electronic spatial extent (au):  <R**2>=          31803.4457
 Charge=             -0.0000 electrons
 Dipole moment (field-independent basis, Debye):
    X=              1.3825    Y=              2.2291    Z=              2.5894  Tot=              3.6858
 Quadrupole moment (field-independent basis, Debye-Ang):
   XX=           -220.3942   YY=           -251.7500   ZZ=           -260.4830
   XY=            -12.9204   XZ=             31.0316   YZ=              2.1481
 Traceless Quadrupole moment (field-independent basis, Debye-Ang):
   XX=             23.8148   YY=             -7.5409   ZZ=            -16.2739
   XY=            -12.9204   XZ=             31.0316   YZ=              2.1481
 Octapole moment (field-independent basis, Debye-Ang**2):
  XXX=             36.2059  YYY=            141.1526  ZZZ=             99.3436  XYY=            -55.8658
  XXY=            -77.7988  XXZ=             69.6473  XZZ=            -65.8101  YZZ=            -27.7134
  YYZ=             74.2671  XYZ=            -18.3185
 Hexadecapole moment (field-independent basis, Debye-Ang**3):
 XXXX=         -23410.5666 YYYY=         -11858.0888 ZZZZ=          -4787.4654 XXXY=           -159.8104
 XXXZ=            774.9806 YYYX=           -161.6495 YYYZ=            788.9581 ZZZX=             39.8150
 ZZZY=           -181.7182 XXYY=          -5918.1242 XXZZ=          -5108.4415 YYZZ=          -2868.0122
 XXYZ=           -158.0548 YYXZ=             29.4813 ZZXY=             82.6366
 N-N= 4.940134132508D+03 E-N=-1.440849844945D+04  KE= 1.926835305018D+03
 1\1\GINC-PADAWAN\SP\RB3LYP TD-FC\SVP\C33H36N4O6\PADAWAN\26-Sep-2019\0\
 \# td=(NStates=1) B3LYP/SVP\\TD\\0,1\O,0,-5.1711733473,0.085213961,-3.
 3095307428\O,0,3.1941994254,2.9312603807,2.9373698154\O,0,3.3758059292
 ,0.7121266117,2.967098595\O,0,1.6183794774,-7.0426805382,1.5651850248\
 O,0,0.9113460226,-7.0988563092,-0.6056385468\O,0,1.8347105192,4.012954
 4182,0.267446252\N,0,-2.3340430154,-1.0721256428,0.6130383204\N,0,-4.3
 555104324,0.5017878453,-1.1650148563\N,0,1.7431347051,-0.7229338664,-0
 .453743852\N,0,2.6176373056,1.9217479203,-0.3161783645\C,0,-4.79139553
 08,1.1611176088,-0.035507751\C,0,-4.450632456,0.2967798433,1.280955453
 2\C,0,-3.0017152671,-0.0064803913,1.3598479978\C,0,-1.9741565124,0.614
 6464218,2.2364368133\C,0,-0.7535819685,-0.0693023657,1.9934600236\C,0,
 -0.9646206499,-1.1021432732,0.9680686263\C,0,-6.3193542915,1.342542043
 5,-0.1298782032\C,0,0.6323618428,0.1814088174,2.498138834\C,0,-6.67628
 81433,0.8888381322,-1.373773106\C,0,-0.2481010662,-2.0863473716,0.2900
 610876\C,0,1.0426211583,-1.8544449911,-0.2800695892\C,0,-5.3547760779,
 0.4917373884,-2.2209094024\C,0,1.8842325085,-2.8960101394,-0.923839393
 2\C,0,-2.2055462555,1.750100767,3.1578801782\C,0,-7.1159190851,1.97588
 57178,0.8393679227\C,0,3.1091172454,-2.3213320844,-1.3999912442\C,0,1.
 2194379711,1.6690353969,2.5155351894\C,0,2.888866962,-0.8677554011,-1.
 0521592041\C,0,1.4806318334,-4.3646524296,-0.9717388908\C,0,-7.9931752
 235,0.7905306907,-2.0625446423\C,0,1.7010476704,-4.9377347081,0.383564
 3519\C,0,4.3091865277,-2.938332302,-2.0160808394\C,0,3.7976406347,0.07
 59069942,-1.3336880512\C,0,2.6975703782,1.6602636146,2.8319490948\C,0,
 3.7008144592,1.4636917807,-1.006517219\C,0,-9.2310080842,0.9145336137,
 -1.52024684\C,0,1.2989949642,-6.4481414643,0.3366223212\C,0,4.51746058
 07,2.6220489598,-1.3897660597\C,0,3.8297222406,3.7687273964,-1.0557068
 65\C,0,2.603441915,3.2694647976,-0.3687756403\C,0,5.7564292482,2.44069
 89105,-2.1781497701\C,0,4.2354991697,5.2766925451,-1.0837803914\C,0,6.
 6916292205,3.3691526001,-2.6233868156\H,0,-4.4145159377,2.1050815883,0
 .2727303133\H,0,-4.8333179887,-0.6945809342,1.0649412383\H,0,-4.974864
 3263,0.6526092606,2.2917460843\H,0,-2.6409131312,-1.5003474302,-0.1795
 948813\H,0,-3.2887998773,0.4929912162,-1.3111186628\H,0,0.683642799,-0
 .2524149295,3.6016897171\H,0,1.4106850779,-0.4770823756,1.9537905119\H
 ,0,-0.720200681,-3.0419916642,-0.0148864863\H,0,-3.1522853738,2.060087
 2728,3.2658265724\H,0,-1.7840296181,1.6905084147,4.0722256105\H,0,-1.8
 358399651,2.684082228,2.650312453\H,0,-6.6018436353,2.5518239859,1.439
 5861916\H,0,-7.6899687639,1.2619160008,1.6199690076\H,0,-7.7601319504,
 2.6703431174,0.3305615364\H,0,1.1262053289,2.0841204486,1.3595340207\H
 ,0,0.8704201545,2.2615229743,3.2357493991\H,0,1.414205747,0.2372743724
 ,-0.3581911844\H,0,2.0156893611,-4.7523790683,-1.7944440541\H,0,0.4750
 693044,-4.6401338609,-1.3018686703\H,0,-7.7150325651,0.2290231329,-2.9
 762935676\H,0,1.28941113,-4.3560867884,1.2698245591\H,0,2.7332195921,-
 4.5505322577,0.6416119761\H,0,4.1896740297,-3.9132187741,-2.1825717183
 \H,0,5.0644775462,-2.8861174619,-1.1286964872\H,0,4.8101924523,-2.1359
 858312,-2.7419232659\H,0,4.855115131,-0.0896010546,-1.66614279\H,0,-9.
 610654666,1.1475122067,-0.4799106809\H,0,-10.0641045441,0.7391153272,-
 2.2731834183\H,0,4.0257972662,2.7146948532,3.3905638221\H,0,6.03854732
 29,1.2902611753,-2.6523740524\H,0,5.2338940892,5.6277055348,-0.5645750
 774\H,0,4.2084428668,5.7254093066,-2.0658891338\H,0,3.5479524648,5.655
 5651629,-0.1409658382\H,0,1.4401213202,-8.0952006772,1.4919952544\H,0,
 7.5750799524,3.1294084807,-3.2696542387\H,0,6.7930611936,4.5339489071,
 -2.4143437869\\Version=ES64L-G16RevA.03\State=1-A\HF=-1947.8128403\RMS
 D=5.131e-09\PG=C01 [X(C33H36N4O6)]\\@


 Luck is a matter of preparation meeting opportunity.
                                    -- Oprah Winfrey
 Job cpu time:       0 days 11 hours  2 minutes 40.7 seconds.
 Elapsed time:       0 days  2 hours 46 minutes 13.9 seconds.
 File lengths (MBytes):  RWF=   2533 Int=      0 D2E=      0 Chk=     63 Scr=      1
 Normal termination of Gaussian 16 at Thu Sep 26 17:01:19 2019.
