 Entering Gaussian System, Link 0=g16
 Input=Geometria-98-.com
 Output=Geometria-98-.log
 Initial command:
 /usr/local/g16/l1.exe "/home/padawan/israel-mol/dihydrobiliverdin/spectra/emi/Gau-22581.inp" -scrdir="/home/padawan/israel-mol/dihydrobiliverdin/spectra/emi/"
 Entering Link 1 = /usr/local/g16/l1.exe PID=     22583.
  
 Copyright (c) 1988,1990,1992,1993,1995,1998,2003,2009,2016,
            Gaussian, Inc.  All Rights Reserved.
  
 This is part of the Gaussian(R) 16 program.  It is based on
 the Gaussian(R) 09 system (copyright 2009, Gaussian, Inc.),
 the Gaussian(R) 03 system (copyright 2003, Gaussian, Inc.),
 the Gaussian(R) 98 system (copyright 1998, Gaussian, Inc.),
 the Gaussian(R) 94 system (copyright 1995, Gaussian, Inc.),
 the Gaussian 92(TM) system (copyright 1992, Gaussian, Inc.),
 the Gaussian 90(TM) system (copyright 1990, Gaussian, Inc.),
 the Gaussian 88(TM) system (copyright 1988, Gaussian, Inc.),
 the Gaussian 86(TM) system (copyright 1986, Carnegie Mellon
 University), and the Gaussian 82(TM) system (copyright 1983,
 Carnegie Mellon University). Gaussian is a federally registered
 trademark of Gaussian, Inc.
  
 This software contains proprietary and confidential information,
 including trade secrets, belonging to Gaussian, Inc.
  
 This software is provided under written license and may be
 used, copied, transmitted, or stored only in accord with that
 written license.
  
 The following legend is applicable only to US Government
 contracts under FAR:
  
                    RESTRICTED RIGHTS LEGEND
  
 Use, reproduction and disclosure by the US Government is
 subject to restrictions as set forth in subparagraphs (a)
 and (c) of the Commercial Computer Software - Restricted
 Rights clause in FAR 52.227-19.
  
 Gaussian, Inc.
 340 Quinnipiac St., Bldg. 40, Wallingford CT 06492
  
  
 ---------------------------------------------------------------
 Warning -- This program may not be used in any manner that
 competes with the business of Gaussian, Inc. or will provide
 assistance to any competitor of Gaussian, Inc.  The licensee
 of this program is prohibited from giving any competitor of
 Gaussian, Inc. access to this program.  By using this program,
 the user acknowledges that Gaussian, Inc. is engaged in the
 business of creating and licensing software in the field of
 computational chemistry and represents and warrants to the
 licensee that it is not a competitor of Gaussian, Inc. and that
 it will not use this program in any manner prohibited above.
 ---------------------------------------------------------------
  

 Cite this work as:
 Gaussian 16, Revision A.03,
 M. J. Frisch, G. W. Trucks, H. B. Schlegel, G. E. Scuseria, 
 M. A. Robb, J. R. Cheeseman, G. Scalmani, V. Barone, 
 G. A. Petersson, H. Nakatsuji, X. Li, M. Caricato, A. V. Marenich, 
 J. Bloino, B. G. Janesko, R. Gomperts, B. Mennucci, H. P. Hratchian, 
 J. V. Ortiz, A. F. Izmaylov, J. L. Sonnenberg, D. Williams-Young, 
 F. Ding, F. Lipparini, F. Egidi, J. Goings, B. Peng, A. Petrone, 
 T. Henderson, D. Ranasinghe, V. G. Zakrzewski, J. Gao, N. Rega, 
 G. Zheng, W. Liang, M. Hada, M. Ehara, K. Toyota, R. Fukuda, 
 J. Hasegawa, M. Ishida, T. Nakajima, Y. Honda, O. Kitao, H. Nakai, 
 T. Vreven, K. Throssell, J. A. Montgomery, Jr., J. E. Peralta, 
 F. Ogliaro, M. J. Bearpark, J. J. Heyd, E. N. Brothers, K. N. Kudin, 
 V. N. Staroverov, T. A. Keith, R. Kobayashi, J. Normand, 
 K. Raghavachari, A. P. Rendell, J. C. Burant, S. S. Iyengar, 
 J. Tomasi, M. Cossi, J. M. Millam, M. Klene, C. Adamo, R. Cammi, 
 J. W. Ochterski, R. L. Martin, K. Morokuma, O. Farkas, 
 J. B. Foresman, and D. J. Fox, Gaussian, Inc., Wallingford CT, 2016.
 
 ******************************************
 Gaussian 16:  ES64L-G16RevA.03 25-Dec-2016
                25-Jul-2019 
 ******************************************
 %nproc=4
 Will use up to    4 processors via shared memory.
 %Mem=3GB
 --------------------------
 # td=(NStates=1) B3LYP/SVP
 --------------------------
 1/38=1,172=1/1;
 2/12=2,17=6,18=5,40=1/2;
 3/5=18,7=101,11=9,25=1,30=1,74=-5/1,2,3,8;
 4//1;
 5/5=2,38=5/2;
 8/6=1,10=1,108=1/1;
 9/41=1,42=1,70=2/14;
 6/7=2,8=2,9=2,10=2/1;
 99/5=1,9=1/99;
 --
 TD
 --
 Symbolic Z-matrix:
 Charge =  0 Multiplicity = 1
 8                    -3.19837  -1.28651  -2.87336 
 8                     2.94184   3.15163   3.29045 
 8                     4.07666   1.21877   4.20729 
 8                     7.67545  -1.42358  -0.86176 
 8                     6.67176  -3.15192  -1.92876 
 8                    -2.49865   1.58716   1.49137 
 7                    -0.34042  -2.2099    0.8367 
 7                    -2.77641  -0.95473  -0.59844 
 7                     1.2399    0.25047  -0.64741 
 7                    -1.03131   1.43752  -0.31418 
 6                    -3.4512   -1.27258   0.63722 
 6                    -2.72556  -2.21687   1.63219 
 6                    -1.26966  -1.99232   1.75047 
 6                    -0.58215  -1.12127   2.81056 
 6                     0.78303  -1.12895   2.57815 
 6                     0.87786  -1.80346   1.24417 
 6                    -4.85718  -1.85599   0.18379 
 6                     1.85719  -0.42583   3.30826 
 6                    -4.8408   -2.09107  -1.12827 
 6                     2.0636   -1.76436   0.36166 
 6                     2.11579  -0.75419  -0.53596 
 6                    -3.61376  -1.45826  -1.70677 
 6                     3.02285  -0.59024  -1.75119 
 6                    -1.35743  -0.55963   3.92549 
 6                    -5.86722  -2.35941   1.27877 
 6                     2.51963   0.47481  -2.51494 
 6                     1.97316   1.06407   2.91236 
 6                     1.48678   0.97143  -1.83912 
 6                     4.20337  -1.52906  -1.96386 
 6                    -5.84898  -2.65316  -2.02648 
 6                     5.50039  -1.16861  -1.1759 
 6                     3.12162   1.0201   -3.71395 
 6                     0.53785   1.99782  -2.13267 
 6                     3.14019   1.76895   3.57343 
 6                    -0.63383   2.25719  -1.33893 
 6                    -6.83181  -3.50807  -1.73422 
 6                     6.65823  -2.03499  -1.39366 
 6                    -1.47367   3.49855  -1.31343 
 6                    -2.31748   3.4174   -0.17019 
 6                    -2.06888   2.02468   0.44666 
 6                    -1.36144   4.51606  -2.31052 
 6                    -3.2884    4.33007   0.41309 
 6                    -1.81396   5.74393  -2.35678 
 1                    -3.67126  -0.10704   1.22078 
 1                    -2.89703  -3.33797   1.59497 
 1                    -3.12108  -2.29628   2.61768 
 1                    -0.40304  -2.97448  -0.00714 
 1                    -2.28189  -0.13695  -0.57767 
 1                     1.58152  -0.77044   4.38358 
 1                     2.71884  -0.78166   2.72165 
 1                     2.52859  -2.6656    0.25585 
 1                    -2.40596  -1.12491   4.13479 
 1                    -1.03761  -0.33488   5.13347 
 1                    -1.57979   0.5284    3.55327 
 1                    -5.75774  -1.65444   2.07316 
 1                    -5.62485  -3.3051    1.57892 
 1                    -6.90907  -2.40749   0.85626 
 1                     2.1116    1.25795   1.89031 
 1                     1.04282   1.40974   3.20526 
 1                     0.19508   0.39305  -0.36018 
 1                     4.49468  -1.62847  -3.11228 
 1                     3.77208  -2.59914  -1.56612 
 1                    -5.72509  -2.39186  -3.06106 
 1                     5.17037  -1.23582  -0.04747 
 1                     5.7306    0.02219  -1.27788 
 1                     4.22178   0.57374  -3.9922 
 1                     3.38641   2.0686   -3.45633 
 1                     2.2789    0.95245  -4.60327 
 1                     0.48171   2.61665  -3.14371 
 1                    -6.92393  -3.83744  -0.74967 
 1                    -7.45411  -3.91395  -2.74576 
 1                     3.64473   3.61365   3.59216 
 1                    -0.74976   4.30601  -3.18185 
 1                    -4.11238   4.44772  -0.25991 
 1                    -3.74958   3.98345   1.50225 
 1                    -2.9704    5.18702   0.61813 
 1                     8.49836  -1.90201  -0.95428 
 1                    -1.62102   6.39172  -3.20181 
 1                    -2.76975   5.97005  -1.62412 
 
 Stoichiometry    C33H36N4O6
 Framework group  C1[X(C33H36N4O6)]
 Deg. of freedom   231
 Full point group                 C1      NOp   1
 Largest Abelian subgroup         C1      NOp   1
 Largest concise Abelian subgroup C1      NOp   1
                         Standard orientation:                         
 ---------------------------------------------------------------------
 Center     Atomic      Atomic             Coordinates (Angstroms)
 Number     Number       Type             X           Y           Z
 ---------------------------------------------------------------------
      1          8           0       -3.233145   -1.222593   -2.858943
      2          8           0        3.012743    3.091816    3.286511
      3          8           0        4.125777    1.137672    4.184735
      4          8           0        7.651107   -1.527694   -0.923719
      5          8           0        6.615247   -3.235351   -1.993264
      6          8           0       -2.462019    1.616084    1.516642
      7          7           0       -0.363434   -2.207944    0.826007
      8          7           0       -2.790827   -0.909738   -0.585214
      9          7           0        1.242045    0.237701   -0.655416
     10          7           0       -1.009428    1.455472   -0.299860
     11          6           0       -3.461640   -1.224785    0.653330
     12          6           0       -2.742909   -2.185012    1.637997
     13          6           0       -1.283139   -1.982141    1.747404
     14          6           0       -0.575845   -1.127078    2.807489
     15          6           0        0.787451   -1.153120    2.565562
     16          6           0        0.863362   -1.821406    1.227246
     17          6           0       -4.878985   -1.785304    0.206454
     18          6           0        1.876648   -0.469682    3.292073
     19          6           0       -4.875013   -2.013202   -1.106966
     20          6           0        2.043459   -1.794441    0.336749
     21          6           0        2.104072   -0.780084   -0.555608
     22          6           0       -3.642953   -1.394897   -1.690463
     23          6           0        3.005046   -0.622388   -1.776187
     24          6           0       -1.335260   -0.560604    3.930865
     25          6           0       -5.888654   -2.280271    1.305627
     26          6           0        2.512037    0.454091   -2.530518
     27          6           0        2.011414    1.020602    2.903617
     28          6           0        1.491137    0.961733   -1.844808
     29          6           0        4.170380   -1.576917   -2.002237
     30          6           0       -5.897354   -2.555637   -2.001238
     31          6           0        5.477853   -1.239636   -1.221331
     32          6           0        3.113598    0.997384   -3.730649
     33          6           0        0.555140    2.003331   -2.126073
     34          6           0        3.193026    1.704850    3.560456
     35          6           0       -0.607185    2.275085   -1.322795
     36          6           0       -6.890404   -3.397931   -1.706896
     37          6           0        6.621529   -2.121378   -1.451915
     38          6           0       -1.428801    3.528259   -1.284597
     39          6           0       -2.265826    3.452846   -0.135995
     40          6           0       -2.033153    2.053238    0.471411
     41          6           0       -1.308727    4.549639   -2.276805
     42          6           0       -3.219430    4.376118    0.459054
     43          6           0       -1.743761    5.784146   -2.313126
     44          1           0       -3.660816   -0.059489    1.244837
     45          1           0       -2.930814   -3.303300    1.595771
     46          1           0       -3.132760   -2.264267    2.625759
     47          1           0       -0.442886   -2.966779   -0.021595
     48          1           0       -2.284406   -0.099300   -0.563358
     49          1           0        1.603413   -0.816326    4.367357
     50          1           0        2.729017   -0.834583    2.697527
     51          1           0        2.494636   -2.701673    0.222729
     52          1           0       -2.390387   -1.111884    4.144318
     53          1           0       -1.003938   -0.347289    5.137821
     54          1           0       -1.544416    0.532591    3.566227
     55          1           0       -5.763540   -1.581436    2.103126
     56          1           0       -5.657920   -3.231033    1.598854
     57          1           0       -6.933963   -2.310944    0.890109
     58          1           0        2.145620    1.218211    1.881716
     59          1           0        1.088207    1.377992    3.204880
     60          1           0        0.201394    0.393714   -0.360149
     61          1           0        4.452330   -1.674042   -3.153186
     62          1           0        3.726413   -2.642891   -1.607442
     63          1           0       -5.776813   -2.290332   -3.035197
     64          1           0        5.154661   -1.308439   -0.091025
     65          1           0        5.724551   -0.051729   -1.318322
     66          1           0        4.205256    0.536791   -4.018999
     67          1           0        3.395278    2.040490   -3.469081
     68          1           0        2.263903    0.946895   -4.614460
     69          1           0        0.501014    2.628586   -3.133262
     70          1           0       -6.980517   -3.731468   -0.723568
     71          1           0       -7.525443   -3.789097   -2.716313
     72          1           0        3.724285    3.541956    3.585881
     73          1           0       -0.706146    4.335707   -3.153504
     74          1           0       -4.046226    4.509417   -0.207537
     75          1           0       -3.678086    4.030055    1.549464
     76          1           0       -2.887675    5.227223    0.666618
     77          1           0        8.466362   -2.017411   -1.024596
     78          1           0       -1.547286    6.433835   -3.155877
     79          1           0       -2.691134    6.019890   -1.572604
 ---------------------------------------------------------------------
 Rotational constants (GHZ):           0.0903283           0.0498422           0.0479332
 Standard basis: SVP (5D, 7F)
 There are   825 symmetry adapted cartesian basis functions of A   symmetry.
 There are   782 symmetry adapted basis functions of A   symmetry.
   782 basis functions,  1327 primitive gaussians,   825 cartesian basis functions
   155 alpha electrons      155 beta electrons
       nuclear repulsion energy      5177.8463228000 Hartrees.
 NAtoms=   79 NActive=   79 NUniq=   79 SFac= 1.00D+00 NAtFMM=   60 NAOKFM=T Big=T
 Integral buffers will be    131072 words long.
 Regular integral format.
 Two-electron integral symmetry is turned on.
 One-electron integrals computed using PRISM.
 NBasis=   782 RedAO= T EigKep=  3.59D-04  NBF=   782
 NBsUse=   782 1.00D-06 EigRej= -1.00D+00 NBFU=   782
 ExpMin= 1.22D-01 ExpMax= 2.27D+03 ExpMxC= 3.41D+02 IAcc=3 IRadAn=         5 AccDes= 0.00D+00
 Harris functional with IExCor=  402 and IRadAn=       5 diagonalized for initial guess.
 HarFok:  IExCor=  402 AccDes= 0.00D+00 IRadAn=         5 IDoV= 1 UseB2=F ITyADJ=14
 ICtDFT=  3500011 ScaDFX=  1.000000  1.000000  1.000000  1.000000
 FoFCou: FMM=F IPFlag=           0 FMFlag=      100000 FMFlg1=        2001
         NFxFlg=           0 DoJE=T BraDBF=F KetDBF=T FulRan=T
         wScrn=  0.000000 ICntrl=       500 IOpCl=  0 I1Cent=   200000004 NGrid=           0
         NMat0=    1 NMatS0=      1 NMatT0=    0 NMatD0=    1 NMtDS0=    0 NMtDT0=    0
 Petite list used in FoFCou.
 Requested convergence on RMS density matrix=1.00D-08 within 128 cycles.
 Requested convergence on MAX density matrix=1.00D-06.
 Requested convergence on             energy=1.00D-06.
 No special actions if energy rises.
 Integral accuracy reduced to 1.0D-05 until final iterations.
 Initial convergence to 1.0D-05 achieved.  Increase integral accuracy.
 SCF Done:  E(RB3LYP) =  -1947.74628626     A.U. after   19 cycles
            NFock= 19  Conv=0.81D-08     -V/T= 2.0109
 DoSCS=F DFT=T ScalE2(SS,OS)=  1.000000  1.000000
 ExpMin= 1.22D-01 ExpMax= 2.27D+03 ExpMxC= 3.41D+02 IAcc=3 IRadAn=         5 AccDes= 0.00D+00
 HarFok:  IExCor=  205 AccDes= 0.00D+00 IRadAn=         5 IDoV=-2 UseB2=F ITyADJ=14
 ICtDFT= 12500011 ScaDFX=  1.000000  1.000000  1.000000  1.000000
 GSVD:  LWork=       -2193 too small for GESVD, short by        9890 words or        9890 for optimal perf.
 Range of M.O.s used for correlation:    44   782
 NBasis=   782 NAE=   155 NBE=   155 NFC=    43 NFV=     0
 NROrb=    739 NOA=   112 NOB=   112 NVA=   627 NVB=   627

 **** Warning!!: The smallest alpha delta epsilon is  0.43714479D-01

 Orbital symmetries:
       Occupied  (A) (A) (A) (A) (A) (A) (A) (A) (A) (A) (A) (A)
                 (A) (A) (A) (A) (A) (A) (A) (A) (A) (A) (A) (A)
                 (A) (A) (A) (A) (A) (A) (A) (A) (A) (A) (A) (A)
                 (A) (A) (A) (A) (A) (A) (A) (A) (A) (A) (A) (A)
                 (A) (A) (A) (A) (A) (A) (A) (A) (A) (A) (A) (A)
                 (A) (A) (A) (A) (A) (A) (A) (A) (A) (A) (A) (A)
                 (A) (A) (A) (A) (A) (A) (A) (A) (A) (A) (A) (A)
                 (A) (A) (A) (A) (A) (A) (A) (A) (A) (A) (A) (A)
                 (A) (A) (A) (A) (A) (A) (A) (A) (A) (A) (A) (A)
                 (A) (A) (A) (A) (A) (A) (A) (A) (A) (A) (A) (A)
                 (A) (A) (A) (A) (A) (A) (A) (A) (A) (A) (A) (A)
                 (A) (A) (A) (A) (A) (A) (A) (A) (A) (A) (A) (A)
                 (A) (A) (A) (A) (A) (A) (A) (A) (A) (A) (A)
       Virtual   (A) (A) (A) (A) (A) (A) (A) (A) (A) (A) (A) (A)
                 (A) (A) (A) (A) (A) (A) (A) (A) (A) (A) (A) (A)
                 (A) (A) (A) (A) (A) (A) (A) (A) (A) (A) (A) (A)
                 (A) (A) (A) (A) (A) (A) (A) (A) (A) (A) (A) (A)
                 (A) (A) (A) (A) (A) (A) (A) (A) (A) (A) (A) (A)
                 (A) (A) (A) (A) (A) (A) (A) (A) (A) (A) (A) (A)
                 (A) (A) (A) (A) (A) (A) (A) (A) (A) (A) (A) (A)
                 (A) (A) (A) (A) (A) (A) (A) (A) (A) (A) (A) (A)
                 (A) (A) (A) (A) (A) (A) (A) (A) (A) (A) (A) (A)
                 (A) (A) (A) (A) (A) (A) (A) (A) (A) (A) (A) (A)
                 (A) (A) (A) (A) (A) (A) (A) (A) (A) (A) (A) (A)
                 (A) (A) (A) (A) (A) (A) (A) (A) (A) (A) (A) (A)
                 (A) (A) (A) (A) (A) (A) (A) (A) (A) (A) (A) (A)
                 (A) (A) (A) (A) (A) (A) (A) (A) (A) (A) (A) (A)
                 (A) (A) (A) (A) (A) (A) (A) (A) (A) (A) (A) (A)
                 (A) (A) (A) (A) (A) (A) (A) (A) (A) (A) (A) (A)
                 (A) (A) (A) (A) (A) (A) (A) (A) (A) (A) (A) (A)
                 (A) (A) (A) (A) (A) (A) (A) (A) (A) (A) (A) (A)
                 (A) (A) (A) (A) (A) (A) (A) (A) (A) (A) (A) (A)
                 (A) (A) (A) (A) (A) (A) (A) (A) (A) (A) (A) (A)
                 (A) (A) (A) (A) (A) (A) (A) (A) (A) (A) (A) (A)
                 (A) (A) (A) (A) (A) (A) (A) (A) (A) (A) (A) (A)
                 (A) (A) (A) (A) (A) (A) (A) (A) (A) (A) (A) (A)
                 (A) (A) (A) (A) (A) (A) (A) (A) (A) (A) (A) (A)
                 (A) (A) (A) (A) (A) (A) (A) (A) (A) (A) (A) (A)
                 (A) (A) (A) (A) (A) (A) (A) (A) (A) (A) (A) (A)
                 (A) (A) (A) (A) (A) (A) (A) (A) (A) (A) (A) (A)
                 (A) (A) (A) (A) (A) (A) (A) (A) (A) (A) (A) (A)
                 (A) (A) (A) (A) (A) (A) (A) (A) (A) (A) (A) (A)
                 (A) (A) (A) (A) (A) (A) (A) (A) (A) (A) (A) (A)
                 (A) (A) (A) (A) (A) (A) (A) (A) (A) (A) (A) (A)
                 (A) (A) (A) (A) (A) (A) (A) (A) (A) (A) (A) (A)
                 (A) (A) (A) (A) (A) (A) (A) (A) (A) (A) (A) (A)
                 (A) (A) (A) (A) (A) (A) (A) (A) (A) (A) (A) (A)
                 (A) (A) (A) (A) (A) (A) (A) (A) (A) (A) (A) (A)
                 (A) (A) (A) (A) (A) (A) (A) (A) (A) (A) (A) (A)
                 (A) (A) (A) (A) (A) (A) (A) (A) (A) (A) (A) (A)
                 (A) (A) (A) (A) (A) (A) (A) (A) (A) (A) (A) (A)
                 (A) (A) (A) (A) (A) (A) (A) (A) (A) (A) (A) (A)
                 (A) (A) (A) (A) (A) (A) (A) (A) (A) (A) (A) (A)
                 (A) (A) (A) (A) (A) (A) (A) (A) (A) (A) (A) (A)
                 (A) (A) (A) (A) (A) (A) (A) (A) (A) (A) (A) (A)
                 (A) (A) (A) (A) (A) (A) (A) (A) (A) (A) (A) (A)
                 (A) (A) (A) (A) (A) (A) (A) (A) (A) (A) (A) (A)
                 (A) (A) (A) (A) (A) (A) (A) (A) (A) (A) (A) (A)
                 (A) (A) (A) (A) (A) (A) (A) (A) (A) (A) (A) (A)
                 (A) (A) (A) (A) (A) (A) (A) (A) (A) (A) (A) (A)
                 (A) (A) (A) (A) (A) (A) (A) (A) (A) (A) (A) (A)
                 (A) (A) (A) (A) (A) (A) (A) (A) (A) (A) (A) (A)
                 (A) (A) (A) (A) (A) (A) (A) (A) (A) (A) (A) (A)
                 (A) (A) (A) (A) (A) (A) (A) (A) (A) (A) (A) (A)
                 (A) (A) (A) (A) (A) (A) (A) (A) (A) (A) (A) (A)
                 (A) (A) (A)
     4 initial guesses have been made.
 Convergence on wavefunction:    0.001000000000000
 Iteration     1 Dimension     4 NMult     0 NNew      4
 CISAX will form     4 AO SS matrices at one time.
 Iteration     2 Dimension     6 NMult     4 NNew      2
 Iteration     3 Dimension     8 NMult     6 NNew      2
 Iteration     4 Dimension    10 NMult     8 NNew      2
 Iteration     5 Dimension    12 NMult    10 NNew      2
 Iteration     6 Dimension    14 NMult    12 NNew      2
 ***********************************************************************
 Excited states from <AA,BB:AA,BB> singles matrix:
 ***********************************************************************
 
 Ground to excited state transition densities written to RWF  633
 Ground to excited state transition electric dipole moments (Au):
       state          X           Y           Z        Dip. S.      Osc.
         1         0.1918      0.3289     -0.2957      0.2324      0.0029
 Ground to excited state transition velocity dipole moments (Au):
       state          X           Y           Z        Dip. S.      Osc.
         1        -0.0026     -0.0063      0.0050      0.0001      0.0025
 Ground to excited state transition magnetic dipole moments (Au):
       state          X           Y           Z
         1        -0.0108      0.0485      0.1089
 Ground to excited state transition velocity quadrupole moments (Au):
       state          XX          YY          ZZ          XY          XZ          YZ
         1        -0.0075     -0.0097      0.0111      0.0369      0.0077     -0.0035
 <0|del|b> * <b|rxdel|0> + <0|del|b> * <b|delr+rdel|0>
 Rotatory Strengths (R) in cgs (10**-40 erg-esu-cm/Gauss)
       state          XX          YY          ZZ    R(velocity)    E-M Angle
         1         8.8325      7.4317     -6.2701      3.3314       74.69
 1/2[<0|r|b>*<b|rxdel|0> + (<0|rxdel|b>*<b|r|0>)*]
 Rotatory Strengths (R) in cgs (10**-40 erg-esu-cm/Gauss)
       state          XX          YY          ZZ     R(length)
         1         1.4706    -11.2742     22.7669      4.3211
  1/2[<0|del|b>*<b|r|0> + (<0|r|b>*<b|del|0>)*] (Au)
       state          X           Y           Z        Dip. S.   Osc.(frdel)
         1        -0.0005     -0.0021     -0.0015      0.0041      0.0027

 Excitation energies and oscillator strengths:
 
 Excited State   1:      Singlet-A      0.5165 eV 2400.27 nm  f=0.0029  <S**2>=0.000
     155 ->156         0.70439
 This state for optimization and/or second-order correction.
 Total Energy, E(TD-HF/TD-DFT) =  -1947.72730365    
 Copying the excited state density for this state as the 1-particle RhoCI density.
 SavETr:  write IOETrn=   770 NScale= 10 NData=  16 NLR=1 NState=    1 LETran=      28.

 **********************************************************************

            Population analysis using the SCF density.

 **********************************************************************

 Orbital symmetries:
       Occupied  (A) (A) (A) (A) (A) (A) (A) (A) (A) (A) (A) (A)
                 (A) (A) (A) (A) (A) (A) (A) (A) (A) (A) (A) (A)
                 (A) (A) (A) (A) (A) (A) (A) (A) (A) (A) (A) (A)
                 (A) (A) (A) (A) (A) (A) (A) (A) (A) (A) (A) (A)
                 (A) (A) (A) (A) (A) (A) (A) (A) (A) (A) (A) (A)
                 (A) (A) (A) (A) (A) (A) (A) (A) (A) (A) (A) (A)
                 (A) (A) (A) (A) (A) (A) (A) (A) (A) (A) (A) (A)
                 (A) (A) (A) (A) (A) (A) (A) (A) (A) (A) (A) (A)
                 (A) (A) (A) (A) (A) (A) (A) (A) (A) (A) (A) (A)
                 (A) (A) (A) (A) (A) (A) (A) (A) (A) (A) (A) (A)
                 (A) (A) (A) (A) (A) (A) (A) (A) (A) (A) (A) (A)
                 (A) (A) (A) (A) (A) (A) (A) (A) (A) (A) (A) (A)
                 (A) (A) (A) (A) (A) (A) (A) (A) (A) (A) (A)
       Virtual   (A) (A) (A) (A) (A) (A) (A) (A) (A) (A) (A) (A)
                 (A) (A) (A) (A) (A) (A) (A) (A) (A) (A) (A) (A)
                 (A) (A) (A) (A) (A) (A) (A) (A) (A) (A) (A) (A)
                 (A) (A) (A) (A) (A) (A) (A) (A) (A) (A) (A) (A)
                 (A) (A) (A) (A) (A) (A) (A) (A) (A) (A) (A) (A)
                 (A) (A) (A) (A) (A) (A) (A) (A) (A) (A) (A) (A)
                 (A) (A) (A) (A) (A) (A) (A) (A) (A) (A) (A) (A)
                 (A) (A) (A) (A) (A) (A) (A) (A) (A) (A) (A) (A)
                 (A) (A) (A) (A) (A) (A) (A) (A) (A) (A) (A) (A)
                 (A) (A) (A) (A) (A) (A) (A) (A) (A) (A) (A) (A)
                 (A) (A) (A) (A) (A) (A) (A) (A) (A) (A) (A) (A)
                 (A) (A) (A) (A) (A) (A) (A) (A) (A) (A) (A) (A)
                 (A) (A) (A) (A) (A) (A) (A) (A) (A) (A) (A) (A)
                 (A) (A) (A) (A) (A) (A) (A) (A) (A) (A) (A) (A)
                 (A) (A) (A) (A) (A) (A) (A) (A) (A) (A) (A) (A)
                 (A) (A) (A) (A) (A) (A) (A) (A) (A) (A) (A) (A)
                 (A) (A) (A) (A) (A) (A) (A) (A) (A) (A) (A) (A)
                 (A) (A) (A) (A) (A) (A) (A) (A) (A) (A) (A) (A)
                 (A) (A) (A) (A) (A) (A) (A) (A) (A) (A) (A) (A)
                 (A) (A) (A) (A) (A) (A) (A) (A) (A) (A) (A) (A)
                 (A) (A) (A) (A) (A) (A) (A) (A) (A) (A) (A) (A)
                 (A) (A) (A) (A) (A) (A) (A) (A) (A) (A) (A) (A)
                 (A) (A) (A) (A) (A) (A) (A) (A) (A) (A) (A) (A)
                 (A) (A) (A) (A) (A) (A) (A) (A) (A) (A) (A) (A)
                 (A) (A) (A) (A) (A) (A) (A) (A) (A) (A) (A) (A)
                 (A) (A) (A) (A) (A) (A) (A) (A) (A) (A) (A) (A)
                 (A) (A) (A) (A) (A) (A) (A) (A) (A) (A) (A) (A)
                 (A) (A) (A) (A) (A) (A) (A) (A) (A) (A) (A) (A)
                 (A) (A) (A) (A) (A) (A) (A) (A) (A) (A) (A) (A)
                 (A) (A) (A) (A) (A) (A) (A) (A) (A) (A) (A) (A)
                 (A) (A) (A) (A) (A) (A) (A) (A) (A) (A) (A) (A)
                 (A) (A) (A) (A) (A) (A) (A) (A) (A) (A) (A) (A)
                 (A) (A) (A) (A) (A) (A) (A) (A) (A) (A) (A) (A)
                 (A) (A) (A) (A) (A) (A) (A) (A) (A) (A) (A) (A)
                 (A) (A) (A) (A) (A) (A) (A) (A) (A) (A) (A) (A)
                 (A) (A) (A) (A) (A) (A) (A) (A) (A) (A) (A) (A)
                 (A) (A) (A) (A) (A) (A) (A) (A) (A) (A) (A) (A)
                 (A) (A) (A) (A) (A) (A) (A) (A) (A) (A) (A) (A)
                 (A) (A) (A) (A) (A) (A) (A) (A) (A) (A) (A) (A)
                 (A) (A) (A) (A) (A) (A) (A) (A) (A) (A) (A) (A)
                 (A) (A) (A) (A) (A) (A) (A) (A) (A) (A) (A) (A)
                 (A) (A) (A) (A) (A) (A) (A) (A) (A) (A) (A) (A)
                 (A) (A) (A) (A) (A) (A) (A) (A) (A) (A) (A) (A)
                 (A) (A) (A) (A) (A) (A) (A) (A) (A) (A) (A) (A)
                 (A) (A) (A) (A) (A) (A) (A) (A) (A) (A) (A) (A)
                 (A) (A) (A) (A) (A) (A) (A) (A) (A) (A) (A) (A)
                 (A) (A) (A) (A) (A) (A) (A) (A) (A) (A) (A) (A)
                 (A) (A) (A) (A) (A) (A) (A) (A) (A) (A) (A) (A)
                 (A) (A) (A) (A) (A) (A) (A) (A) (A) (A) (A) (A)
                 (A) (A) (A) (A) (A) (A) (A) (A) (A) (A) (A) (A)
                 (A) (A) (A) (A) (A) (A) (A) (A) (A) (A) (A) (A)
                 (A) (A) (A) (A) (A) (A) (A) (A) (A) (A) (A) (A)
                 (A) (A) (A)
 The electronic state is 1-A.
 Alpha  occ. eigenvalues --  -19.20084 -19.17302 -19.13449 -19.13259 -19.13124
 Alpha  occ. eigenvalues --  -19.09209 -14.38373 -14.35455 -14.31446 -14.31012
 Alpha  occ. eigenvalues --  -10.33234 -10.32521 -10.28921 -10.27922 -10.25838
 Alpha  occ. eigenvalues --  -10.25803 -10.24905 -10.23744 -10.23696 -10.23588
 Alpha  occ. eigenvalues --  -10.23412 -10.23200 -10.22176 -10.22069 -10.21941
 Alpha  occ. eigenvalues --  -10.21669 -10.21258 -10.20943 -10.20649 -10.20370
 Alpha  occ. eigenvalues --  -10.19881 -10.19844 -10.19521 -10.19494 -10.19420
 Alpha  occ. eigenvalues --  -10.19364 -10.19312 -10.19036 -10.18934 -10.18677
 Alpha  occ. eigenvalues --  -10.18491 -10.17003 -10.16784  -1.12404  -1.07207
 Alpha  occ. eigenvalues --   -1.04105  -1.00872  -0.99565  -0.99259  -0.99141
 Alpha  occ. eigenvalues --   -0.97028  -0.92585  -0.90290  -0.83916  -0.82246
 Alpha  occ. eigenvalues --   -0.81543  -0.80994  -0.80325  -0.78954  -0.77979
 Alpha  occ. eigenvalues --   -0.76964  -0.75707  -0.75457  -0.74373  -0.73054
 Alpha  occ. eigenvalues --   -0.71369  -0.71046  -0.69882  -0.69285  -0.67470
 Alpha  occ. eigenvalues --   -0.65583  -0.64912  -0.62881  -0.62306  -0.61022
 Alpha  occ. eigenvalues --   -0.59488  -0.59112  -0.58839  -0.57090  -0.56338
 Alpha  occ. eigenvalues --   -0.55636  -0.54840  -0.54111  -0.53093  -0.51667
 Alpha  occ. eigenvalues --   -0.51501  -0.51300  -0.50631  -0.49746  -0.49470
 Alpha  occ. eigenvalues --   -0.49124  -0.48985  -0.48510  -0.48105  -0.47661
 Alpha  occ. eigenvalues --   -0.47150  -0.46705  -0.46479  -0.46387  -0.46024
 Alpha  occ. eigenvalues --   -0.45777  -0.44929  -0.44745  -0.44338  -0.43993
 Alpha  occ. eigenvalues --   -0.43820  -0.43020  -0.42678  -0.42218  -0.42003
 Alpha  occ. eigenvalues --   -0.41641  -0.41453  -0.41305  -0.40667  -0.40411
 Alpha  occ. eigenvalues --   -0.40254  -0.40127  -0.39754  -0.39641  -0.39345
 Alpha  occ. eigenvalues --   -0.39260  -0.38716  -0.38321  -0.38201  -0.38046
 Alpha  occ. eigenvalues --   -0.37504  -0.37001  -0.36824  -0.36255  -0.36214
 Alpha  occ. eigenvalues --   -0.35659  -0.34773  -0.34621  -0.34349  -0.33704
 Alpha  occ. eigenvalues --   -0.33212  -0.32991  -0.32184  -0.31903  -0.31076
 Alpha  occ. eigenvalues --   -0.30708  -0.30306  -0.29341  -0.29108  -0.29066
 Alpha  occ. eigenvalues --   -0.27952  -0.26404  -0.25932  -0.24190  -0.23863
 Alpha  occ. eigenvalues --   -0.23558  -0.23266  -0.22244  -0.21894  -0.17360
 Alpha virt. eigenvalues --   -0.12989  -0.08021  -0.04467  -0.01633  -0.01616
 Alpha virt. eigenvalues --   -0.00897   0.01227   0.01686   0.01957   0.03660
 Alpha virt. eigenvalues --    0.03985   0.04150   0.04703   0.04803   0.05169
 Alpha virt. eigenvalues --    0.05437   0.05568   0.05881   0.06184   0.06439
 Alpha virt. eigenvalues --    0.07013   0.07160   0.07554   0.07912   0.08153
 Alpha virt. eigenvalues --    0.08845   0.09481   0.09664   0.09989   0.10281
 Alpha virt. eigenvalues --    0.10647   0.11209   0.11543   0.11784   0.12391
 Alpha virt. eigenvalues --    0.12523   0.13150   0.13669   0.13933   0.14162
 Alpha virt. eigenvalues --    0.14239   0.15445   0.15855   0.16052   0.16930
 Alpha virt. eigenvalues --    0.17225   0.17390   0.17769   0.17926   0.18297
 Alpha virt. eigenvalues --    0.18762   0.18999   0.19430   0.20044   0.20434
 Alpha virt. eigenvalues --    0.20956   0.21376   0.21800   0.22041   0.22542
 Alpha virt. eigenvalues --    0.22917   0.23298   0.23596   0.24298   0.24862
 Alpha virt. eigenvalues --    0.24957   0.26044   0.26770   0.27350   0.27666
 Alpha virt. eigenvalues --    0.27976   0.28451   0.28847   0.29005   0.29447
 Alpha virt. eigenvalues --    0.29825   0.29895   0.30395   0.31439   0.31804
 Alpha virt. eigenvalues --    0.32027   0.32444   0.32890   0.33160   0.33737
 Alpha virt. eigenvalues --    0.34491   0.34860   0.35037   0.35800   0.36313
 Alpha virt. eigenvalues --    0.36507   0.37861   0.38095   0.39103   0.39404
 Alpha virt. eigenvalues --    0.40229   0.40776   0.41004   0.41452   0.41723
 Alpha virt. eigenvalues --    0.42045   0.42653   0.42718   0.43248   0.43636
 Alpha virt. eigenvalues --    0.43740   0.44329   0.44682   0.44924   0.45077
 Alpha virt. eigenvalues --    0.45736   0.45994   0.46155   0.46447   0.46657
 Alpha virt. eigenvalues --    0.47022   0.47439   0.47814   0.47965   0.48227
 Alpha virt. eigenvalues --    0.48238   0.48619   0.48703   0.48944   0.49491
 Alpha virt. eigenvalues --    0.50139   0.50330   0.50931   0.51138   0.51384
 Alpha virt. eigenvalues --    0.51986   0.52328   0.52920   0.53445   0.53629
 Alpha virt. eigenvalues --    0.53706   0.54237   0.54671   0.54730   0.55164
 Alpha virt. eigenvalues --    0.55404   0.55469   0.56355   0.56394   0.56536
 Alpha virt. eigenvalues --    0.57098   0.57863   0.58104   0.58251   0.58570
 Alpha virt. eigenvalues --    0.58840   0.59273   0.59696   0.59944   0.60194
 Alpha virt. eigenvalues --    0.60421   0.60617   0.60921   0.61013   0.61255
 Alpha virt. eigenvalues --    0.61392   0.61672   0.62072   0.62410   0.62938
 Alpha virt. eigenvalues --    0.63110   0.63300   0.63848   0.64361   0.64641
 Alpha virt. eigenvalues --    0.64777   0.64988   0.65128   0.65314   0.65663
 Alpha virt. eigenvalues --    0.65766   0.66017   0.66333   0.66576   0.67124
 Alpha virt. eigenvalues --    0.67561   0.67826   0.67987   0.68214   0.68507
 Alpha virt. eigenvalues --    0.68879   0.68938   0.69370   0.69540   0.69814
 Alpha virt. eigenvalues --    0.70286   0.70486   0.70634   0.71249   0.71430
 Alpha virt. eigenvalues --    0.71905   0.72028   0.72987   0.73055   0.73375
 Alpha virt. eigenvalues --    0.73521   0.73823   0.74338   0.74864   0.75286
 Alpha virt. eigenvalues --    0.75614   0.76044   0.76452   0.76619   0.76998
 Alpha virt. eigenvalues --    0.77288   0.77604   0.78224   0.78577   0.78866
 Alpha virt. eigenvalues --    0.79333   0.79906   0.80216   0.81692   0.82068
 Alpha virt. eigenvalues --    0.82714   0.83255   0.83377   0.83753   0.84540
 Alpha virt. eigenvalues --    0.85127   0.85777   0.86057   0.86536   0.87600
 Alpha virt. eigenvalues --    0.88325   0.88587   0.89120   0.89973   0.90466
 Alpha virt. eigenvalues --    0.91156   0.91361   0.91938   0.92683   0.93192
 Alpha virt. eigenvalues --    0.93562   0.94522   0.94730   0.95647   0.96013
 Alpha virt. eigenvalues --    0.96475   0.97090   0.97315   0.98316   0.99001
 Alpha virt. eigenvalues --    0.99371   0.99853   0.99963   1.01056   1.01652
 Alpha virt. eigenvalues --    1.03027   1.03040   1.03953   1.04356   1.05473
 Alpha virt. eigenvalues --    1.05584   1.07363   1.08143   1.08690   1.08922
 Alpha virt. eigenvalues --    1.10077   1.10185   1.10938   1.11392   1.11767
 Alpha virt. eigenvalues --    1.12437   1.12704   1.12987   1.13939   1.14731
 Alpha virt. eigenvalues --    1.15055   1.15433   1.15699   1.17747   1.18090
 Alpha virt. eigenvalues --    1.18311   1.19660   1.20101   1.21207   1.21628
 Alpha virt. eigenvalues --    1.22196   1.22685   1.23404   1.23851   1.24524
 Alpha virt. eigenvalues --    1.24877   1.25833   1.26262   1.26448   1.27179
 Alpha virt. eigenvalues --    1.27261   1.28510   1.29515   1.29900   1.30686
 Alpha virt. eigenvalues --    1.31442   1.31564   1.32603   1.33401   1.34115
 Alpha virt. eigenvalues --    1.34584   1.35550   1.35999   1.37104   1.37873
 Alpha virt. eigenvalues --    1.38672   1.39126   1.39426   1.40003   1.40706
 Alpha virt. eigenvalues --    1.41538   1.41644   1.42830   1.43278   1.44454
 Alpha virt. eigenvalues --    1.44956   1.45428   1.45848   1.46865   1.48365
 Alpha virt. eigenvalues --    1.48466   1.49155   1.49525   1.50366   1.51504
 Alpha virt. eigenvalues --    1.52176   1.52772   1.53317   1.54275   1.54667
 Alpha virt. eigenvalues --    1.55037   1.55423   1.56286   1.56549   1.57070
 Alpha virt. eigenvalues --    1.57887   1.58037   1.58629   1.59154   1.60612
 Alpha virt. eigenvalues --    1.60675   1.60929   1.61565   1.61834   1.62459
 Alpha virt. eigenvalues --    1.62737   1.63153   1.63541   1.63800   1.64077
 Alpha virt. eigenvalues --    1.64482   1.64852   1.65315   1.65605   1.66054
 Alpha virt. eigenvalues --    1.66623   1.66911   1.67209   1.67850   1.67923
 Alpha virt. eigenvalues --    1.68325   1.69125   1.69319   1.69739   1.69914
 Alpha virt. eigenvalues --    1.70696   1.70912   1.71208   1.71877   1.72283
 Alpha virt. eigenvalues --    1.73086   1.73206   1.73854   1.73956   1.74661
 Alpha virt. eigenvalues --    1.74916   1.75429   1.75835   1.76087   1.76173
 Alpha virt. eigenvalues --    1.76544   1.77081   1.77774   1.78492   1.78659
 Alpha virt. eigenvalues --    1.78888   1.79054   1.79687   1.80074   1.80367
 Alpha virt. eigenvalues --    1.80845   1.81203   1.82299   1.82743   1.82857
 Alpha virt. eigenvalues --    1.83104   1.83401   1.83436   1.84331   1.84560
 Alpha virt. eigenvalues --    1.85102   1.85836   1.86609   1.87135   1.87322
 Alpha virt. eigenvalues --    1.87744   1.88249   1.88533   1.89096   1.89949
 Alpha virt. eigenvalues --    1.90371   1.90767   1.91048   1.91911   1.92039
 Alpha virt. eigenvalues --    1.92092   1.93580   1.94100   1.94904   1.95139
 Alpha virt. eigenvalues --    1.95503   1.95930   1.96416   1.96580   1.96963
 Alpha virt. eigenvalues --    1.98553   1.99155   1.99363   1.99708   2.00074
 Alpha virt. eigenvalues --    2.00407   2.00783   2.01401   2.01520   2.02540
 Alpha virt. eigenvalues --    2.02845   2.02884   2.03367   2.04478   2.04791
 Alpha virt. eigenvalues --    2.04989   2.05430   2.05913   2.06099   2.07268
 Alpha virt. eigenvalues --    2.07562   2.07980   2.08865   2.09227   2.09672
 Alpha virt. eigenvalues --    2.10426   2.10444   2.12021   2.12416   2.12827
 Alpha virt. eigenvalues --    2.13735   2.14446   2.14533   2.15019   2.15458
 Alpha virt. eigenvalues --    2.16181   2.16878   2.17075   2.17673   2.18258
 Alpha virt. eigenvalues --    2.18467   2.19662   2.20080   2.21266   2.21756
 Alpha virt. eigenvalues --    2.22036   2.22318   2.22677   2.24067   2.24546
 Alpha virt. eigenvalues --    2.25095   2.25639   2.26025   2.27833   2.28331
 Alpha virt. eigenvalues --    2.29464   2.29658   2.30961   2.31466   2.31615
 Alpha virt. eigenvalues --    2.32293   2.33141   2.34092   2.34623   2.35210
 Alpha virt. eigenvalues --    2.35699   2.37282   2.37807   2.38611   2.38932
 Alpha virt. eigenvalues --    2.39588   2.40026   2.40470   2.41042   2.41577
 Alpha virt. eigenvalues --    2.41605   2.42466   2.43155   2.43710   2.43796
 Alpha virt. eigenvalues --    2.45535   2.46360   2.47206   2.47550   2.48036
 Alpha virt. eigenvalues --    2.48759   2.50305   2.50543   2.51339   2.52608
 Alpha virt. eigenvalues --    2.53507   2.53912   2.54535   2.55510   2.57493
 Alpha virt. eigenvalues --    2.57813   2.58386   2.58577   2.60306   2.61206
 Alpha virt. eigenvalues --    2.62483   2.62944   2.63241   2.63522   2.63695
 Alpha virt. eigenvalues --    2.63824   2.64147   2.65774   2.67152   2.67842
 Alpha virt. eigenvalues --    2.68014   2.69216   2.69638   2.70098   2.70526
 Alpha virt. eigenvalues --    2.71309   2.71444   2.71658   2.72403   2.72723
 Alpha virt. eigenvalues --    2.73524   2.73886   2.74005   2.75166   2.76177
 Alpha virt. eigenvalues --    2.76983   2.77316   2.78003   2.78114   2.79042
 Alpha virt. eigenvalues --    2.79847   2.81058   2.81613   2.83254   2.83756
 Alpha virt. eigenvalues --    2.84312   2.84965   2.86057   2.87300   2.87575
 Alpha virt. eigenvalues --    2.87861   2.88882   2.89168   2.90094   2.90923
 Alpha virt. eigenvalues --    2.92840   2.93627   2.93811   2.94367   2.95506
 Alpha virt. eigenvalues --    2.96846   2.96947   2.97402   2.98125   2.99152
 Alpha virt. eigenvalues --    3.00904   3.01701   3.03631   3.04517   3.06022
 Alpha virt. eigenvalues --    3.07006   3.08650   3.09266   3.09887   3.10511
 Alpha virt. eigenvalues --    3.12297   3.12515   3.12941   3.13985   3.14364
 Alpha virt. eigenvalues --    3.15531   3.16126   3.17629   3.18523   3.20433
 Alpha virt. eigenvalues --    3.21584   3.22508   3.24314   3.27368   3.28492
 Alpha virt. eigenvalues --    3.31501   3.33785   3.36481   3.40532   3.41048
 Alpha virt. eigenvalues --    3.42496   3.43795   3.49497   3.53660   3.57059
 Alpha virt. eigenvalues --    3.60216   3.60857   3.63830   3.65095   3.69040
 Alpha virt. eigenvalues --    3.78767   3.84742
          Condensed to atoms (all electrons):
 Mulliken charges:
               1
     1  O   -0.251114
     2  O   -0.188237
     3  O   -0.246992
     4  O   -0.123945
     5  O   -0.246613
     6  O   -0.184399
     7  N   -0.015584
     8  N   -0.193864
     9  N   -0.124294
    10  N   -0.366331
    11  C    0.014782
    12  C    0.228204
    13  C   -0.148441
    14  C   -0.077444
    15  C   -0.117793
    16  C   -0.098700
    17  C   -0.192520
    18  C    0.135579
    19  C   -0.021459
    20  C   -0.105983
    21  C    0.173384
    22  C    0.177106
    23  C   -0.074593
    24  C   -0.078561
    25  C    0.124201
    26  C   -0.081165
    27  C    0.045407
    28  C    0.129008
    29  C    0.006130
    30  C   -0.001261
    31  C   -0.081388
    32  C    0.007178
    33  C   -0.111998
    34  C    0.185106
    35  C    0.076020
    36  C   -0.035906
    37  C    0.149537
    38  C    0.094780
    39  C   -0.213709
    40  C    0.196135
    41  C   -0.040423
    42  C    0.152465
    43  C   -0.057741
    44  H    0.083603
    45  H   -0.023767
    46  H   -0.049450
    47  H    0.171192
    48  H    0.107689
    49  H    0.051095
    50  H   -0.014382
    51  H   -0.023246
    52  H    0.019811
    53  H    0.024997
    54  H    0.057132
    55  H    0.018282
    56  H    0.015586
    57  H    0.038087
    58  H    0.022950
    59  H    0.016787
    60  H    0.215210
    61  H    0.046851
    62  H    0.055774
    63  H   -0.003907
    64  H    0.072062
    65  H    0.063095
    66  H    0.045597
    67  H    0.040126
    68  H    0.068308
    69  H    0.028963
    70  H   -0.010416
    71  H    0.055790
    72  H    0.133567
    73  H   -0.020273
    74  H    0.029403
    75  H    0.042695
    76  H   -0.032698
    77  H    0.177771
    78  H    0.026103
    79  H    0.035047
 Sum of Mulliken charges =  -0.00000
 Mulliken charges with hydrogens summed into heavy atoms:
               1
     1  O   -0.251114
     2  O   -0.054669
     3  O   -0.246992
     4  O    0.053827
     5  O   -0.246613
     6  O   -0.184399
     7  N    0.155609
     8  N   -0.086174
     9  N    0.090916
    10  N   -0.366331
    11  C    0.098384
    12  C    0.154986
    13  C   -0.148441
    14  C   -0.077444
    15  C   -0.117793
    16  C   -0.098700
    17  C   -0.192520
    18  C    0.172292
    19  C   -0.021459
    20  C   -0.129229
    21  C    0.173384
    22  C    0.177106
    23  C   -0.074593
    24  C    0.023378
    25  C    0.196156
    26  C   -0.081165
    27  C    0.085145
    28  C    0.129008
    29  C    0.108756
    30  C   -0.005168
    31  C    0.053769
    32  C    0.161208
    33  C   -0.083035
    34  C    0.185106
    35  C    0.076020
    36  C    0.009469
    37  C    0.149537
    38  C    0.094780
    39  C   -0.213709
    40  C    0.196135
    41  C   -0.060696
    42  C    0.191865
    43  C    0.003409
 Electronic spatial extent (au):  <R**2>=          25988.8843
 Charge=             -0.0000 electrons
 Dipole moment (field-independent basis, Debye):
    X=              2.1731    Y=              2.8552    Z=             -1.6542  Tot=              3.9511
 Quadrupole moment (field-independent basis, Debye-Ang):
   XX=           -226.6968   YY=           -238.0645   ZZ=           -266.6309
   XY=             10.0373   XZ=            -23.1490   YZ=            -13.0836
 Traceless Quadrupole moment (field-independent basis, Debye-Ang):
   XX=             17.1006   YY=              5.7329   ZZ=            -22.8335
   XY=             10.0373   XZ=            -23.1490   YZ=            -13.0836
 Octapole moment (field-independent basis, Debye-Ang**2):
  XXX=            255.5000  YYY=             94.4068  ZZZ=            -23.2971  XYY=            -53.7841
  XXY=             12.0597  XXZ=             -8.2429  XZZ=              0.2394  YZZ=             69.2827
  YYZ=             27.7211  XYZ=              3.0166
 Hexadecapole moment (field-independent basis, Debye-Ang**3):
 XXXX=         -16547.9194 YYYY=          -8012.7844 ZZZZ=          -7249.7520 XXXY=            -15.4218
 XXXZ=           -419.3705 YYYX=            130.2019 YYYZ=            -13.6117 ZZZX=           -296.0133
 ZZZY=             41.8507 XXYY=          -4502.6783 XXZZ=          -4718.7699 YYZZ=          -2434.8656
 XXYZ=           -144.2049 YYXZ=            277.1362 ZZXY=            172.1404
 N-N= 5.177846322800D+03 E-N=-1.488454225064D+04  KE= 1.926783313669D+03
 1\1\GINC-PADAWAN\SP\RB3LYP TD-FC\SVP\C33H36N4O6\PADAWAN\25-Jul-2019\0\
 \# td=(NStates=1) B3LYP/SVP\\TD\\0,1\O,0,-3.1983667469,-1.2865137069,-
 2.8733579901\O,0,2.9418446393,3.1516268212,3.2904533162\O,0,4.07666197
 44,1.2187690052,4.2072851721\O,0,7.6754461475,-1.423578472,-0.86175693
 75\O,0,6.6717613325,-3.1519159865,-1.928759324\O,0,-2.4986507716,1.587
 1642055,1.4913691974\N,0,-0.3404197882,-2.209897304,0.8366985107\N,0,-
 2.776409679,-0.9547306081,-0.5984419888\N,0,1.239895539,0.2504659563,-
 0.6474096782\N,0,-1.0313122767,1.4375191598,-0.3141823161\C,0,-3.45120
 02697,-1.2725848209,0.637220696\C,0,-2.7255611822,-2.2168658328,1.6321
 885257\C,0,-1.269662608,-1.9923170457,1.7504730359\C,0,-0.5821480171,-
 1.121273319,2.8105590764\C,0,0.7830294155,-1.1289478958,2.5781490095\C
 ,0,0.8778604722,-1.8034567804,1.2441692209\C,0,-4.8571806647,-1.855991
 2478,0.1837852658\C,0,1.8571903104,-0.4258329129,3.3082629808\C,0,-4.8
 408004414,-2.0910678152,-1.1282731678\C,0,2.0636043168,-1.7643646287,0
 .3616584445\C,0,2.1157876007,-0.7541873309,-0.5359574972\C,0,-3.613756
 0455,-1.4582577911,-1.7067679602\C,0,3.0228533485,-0.5902397723,-1.751
 1890178\C,0,-1.3574343156,-0.55962982,3.9254880571\C,0,-5.8672219463,-
 2.3594124215,1.2787688825\C,0,2.5196316201,0.4748148497,-2.5149361036\
 C,0,1.9731567481,1.0640720992,2.9123578774\C,0,1.4867820447,0.97143379
 2,-1.839120018\C,0,4.2033656857,-1.5290623353,-1.9638560157\C,0,-5.848
 979234,-2.6531574061,-2.0264760958\C,0,5.5003855896,-1.1686086061,-1.1
 75901007\C,0,3.1216222576,1.0201004126,-3.713947904\C,0,0.5378462087,1
 .9978249294,-2.1326650116\C,0,3.1401926596,1.7689464801,3.5734326885\C
 ,0,-0.6338272143,2.2571903512,-1.3389291808\C,0,-6.8318071072,-3.50807
 45716,-1.7342219809\C,0,6.6582253921,-2.0349917543,-1.393660056\C,0,-1
 .4736660214,3.4985520884,-1.3134294176\C,0,-2.317475837,3.4174022192,-
 0.1701949257\C,0,-2.0688791603,2.0246834018,0.4466635984\C,0,-1.361436
 122,4.516057866,-2.3105228203\C,0,-3.2883994764,4.3300734902,0.4130855
 483\C,0,-1.8139552867,5.7439298112,-2.3567794107\H,0,-3.6712556188,-0.
 1070361935,1.2207762822\H,0,-2.8970313295,-3.3379689219,1.5949698461\H
 ,0,-3.121081928,-2.2962830727,2.6176811568\H,0,-0.4030356084,-2.974476
 2127,-0.0071437044\H,0,-2.2818865784,-0.1369499985,-0.5776718696\H,0,1
 .581516113,-0.7704384976,4.3835804571\H,0,2.7188392168,-0.7816600573,2
 .7216470941\H,0,2.5285916731,-2.6655981427,0.2558486381\H,0,-2.4059632
 256,-1.1249117652,4.1347905409\H,0,-1.0376135294,-0.3348776914,5.13346
 97035\H,0,-1.5797872925,0.5283952862,3.5532740927\H,0,-5.7577365609,-1
 .6544435756,2.0731616092\H,0,-5.6248512458,-3.3051046151,1.5789207384\
 H,0,-6.9090682836,-2.407486392,0.8562619879\H,0,2.1115972991,1.2579457
 365,1.890306642\H,0,1.0428242339,1.4097432186,3.2052584995\H,0,0.19507
 77654,0.3930536752,-0.3601780501\H,0,4.4946751867,-1.6284659056,-3.112
 2768296\H,0,3.7720780376,-2.5991416934,-1.5661237204\H,0,-5.7250946479
 ,-2.3918601106,-3.0610595698\H,0,5.1703749588,-1.2358240623,-0.0474715
 235\H,0,5.7306045018,0.0221852224,-1.2778822707\H,0,4.2217820897,0.573
 7438665,-3.9921974492\H,0,3.386414393,2.0685979385,-3.4563279682\H,0,2
 .2789036797,0.9524497429,-4.6032734793\H,0,0.4817120812,2.6166531618,-
 3.1437052625\H,0,-6.9239314792,-3.8374359275,-0.7496739886\H,0,-7.4541
 136763,-3.9139527258,-2.7457576293\H,0,3.6447282003,3.6136507261,3.592
 1624704\H,0,-0.7497588547,4.3060118807,-3.18184608\H,0,-4.1123798276,4
 .4477213539,-0.2599071422\H,0,-3.7495837081,3.9834531389,1.5022510365\
 H,0,-2.9703953557,5.187018993,0.6181275827\H,0,8.4983555291,-1.9020133
 555,-0.9542760626\H,0,-1.6210150261,6.3917196291,-3.2018050327\H,0,-2.
 7697493278,5.9700483806,-1.6241183193\\Version=ES64L-G16RevA.03\State=
 1-A\HF=-1947.7462863\RMSD=8.131e-09\PG=C01 [X(C33H36N4O6)]\\@


 LIFE CAN ONLY BE UNDERSTOOD BACKWARD, BUT MUST
 BE LIVED FORWARD. -- KIRKEGAARD
 Job cpu time:       0 days  4 hours 30 minutes 15.3 seconds.
 Elapsed time:       0 days  1 hours  7 minutes 40.5 seconds.
 File lengths (MBytes):  RWF=   2533 Int=      0 D2E=      0 Chk=     63 Scr=      1
 Normal termination of Gaussian 16 at Thu Jul 25 11:16:07 2019.
