 Entering Gaussian System, Link 0=g16
 Input=Geometria-377-.com
 Output=Geometria-377-.log
 Initial command:
 /usr/local/g16/l1.exe "/home/padawan/israel-mol/dihydrobiliverdin/spectra/emi/Gau-32346.inp" -scrdir="/home/padawan/israel-mol/dihydrobiliverdin/spectra/emi/"
 Entering Link 1 = /usr/local/g16/l1.exe PID=     32348.
  
 Copyright (c) 1988,1990,1992,1993,1995,1998,2003,2009,2016,
            Gaussian, Inc.  All Rights Reserved.
  
 This is part of the Gaussian(R) 16 program.  It is based on
 the Gaussian(R) 09 system (copyright 2009, Gaussian, Inc.),
 the Gaussian(R) 03 system (copyright 2003, Gaussian, Inc.),
 the Gaussian(R) 98 system (copyright 1998, Gaussian, Inc.),
 the Gaussian(R) 94 system (copyright 1995, Gaussian, Inc.),
 the Gaussian 92(TM) system (copyright 1992, Gaussian, Inc.),
 the Gaussian 90(TM) system (copyright 1990, Gaussian, Inc.),
 the Gaussian 88(TM) system (copyright 1988, Gaussian, Inc.),
 the Gaussian 86(TM) system (copyright 1986, Carnegie Mellon
 University), and the Gaussian 82(TM) system (copyright 1983,
 Carnegie Mellon University). Gaussian is a federally registered
 trademark of Gaussian, Inc.
  
 This software contains proprietary and confidential information,
 including trade secrets, belonging to Gaussian, Inc.
  
 This software is provided under written license and may be
 used, copied, transmitted, or stored only in accord with that
 written license.
  
 The following legend is applicable only to US Government
 contracts under FAR:
  
                    RESTRICTED RIGHTS LEGEND
  
 Use, reproduction and disclosure by the US Government is
 subject to restrictions as set forth in subparagraphs (a)
 and (c) of the Commercial Computer Software - Restricted
 Rights clause in FAR 52.227-19.
  
 Gaussian, Inc.
 340 Quinnipiac St., Bldg. 40, Wallingford CT 06492
  
  
 ---------------------------------------------------------------
 Warning -- This program may not be used in any manner that
 competes with the business of Gaussian, Inc. or will provide
 assistance to any competitor of Gaussian, Inc.  The licensee
 of this program is prohibited from giving any competitor of
 Gaussian, Inc. access to this program.  By using this program,
 the user acknowledges that Gaussian, Inc. is engaged in the
 business of creating and licensing software in the field of
 computational chemistry and represents and warrants to the
 licensee that it is not a competitor of Gaussian, Inc. and that
 it will not use this program in any manner prohibited above.
 ---------------------------------------------------------------
  

 Cite this work as:
 Gaussian 16, Revision A.03,
 M. J. Frisch, G. W. Trucks, H. B. Schlegel, G. E. Scuseria, 
 M. A. Robb, J. R. Cheeseman, G. Scalmani, V. Barone, 
 G. A. Petersson, H. Nakatsuji, X. Li, M. Caricato, A. V. Marenich, 
 J. Bloino, B. G. Janesko, R. Gomperts, B. Mennucci, H. P. Hratchian, 
 J. V. Ortiz, A. F. Izmaylov, J. L. Sonnenberg, D. Williams-Young, 
 F. Ding, F. Lipparini, F. Egidi, J. Goings, B. Peng, A. Petrone, 
 T. Henderson, D. Ranasinghe, V. G. Zakrzewski, J. Gao, N. Rega, 
 G. Zheng, W. Liang, M. Hada, M. Ehara, K. Toyota, R. Fukuda, 
 J. Hasegawa, M. Ishida, T. Nakajima, Y. Honda, O. Kitao, H. Nakai, 
 T. Vreven, K. Throssell, J. A. Montgomery, Jr., J. E. Peralta, 
 F. Ogliaro, M. J. Bearpark, J. J. Heyd, E. N. Brothers, K. N. Kudin, 
 V. N. Staroverov, T. A. Keith, R. Kobayashi, J. Normand, 
 K. Raghavachari, A. P. Rendell, J. C. Burant, S. S. Iyengar, 
 J. Tomasi, M. Cossi, J. M. Millam, M. Klene, C. Adamo, R. Cammi, 
 J. W. Ochterski, R. L. Martin, K. Morokuma, O. Farkas, 
 J. B. Foresman, and D. J. Fox, Gaussian, Inc., Wallingford CT, 2016.
 
 ******************************************
 Gaussian 16:  ES64L-G16RevA.03 25-Dec-2016
                 4-Oct-2019 
 ******************************************
 %nproc=4
 Will use up to    4 processors via shared memory.
 %Mem=4GB
 --------------------------
 # td=(NStates=1) B3LYP/SVP
 --------------------------
 1/38=1,172=1/1;
 2/12=2,17=6,18=5,40=1/2;
 3/5=18,7=101,11=9,25=1,30=1,74=-5/1,2,3,8;
 4//1;
 5/5=2,38=5/2;
 8/6=1,10=1,108=1/1;
 9/41=1,42=1,70=2/14;
 6/7=2,8=2,9=2,10=2/1;
 99/5=1,9=1/99;
 --
 TD
 --
 Symbolic Z-matrix:
 Charge =  0 Multiplicity = 1
 8                    -5.42817  -0.10173  -3.21077 
 8                     3.06496   2.90791   3.2033 
 8                     3.36487   0.73538   2.9695 
 8                     1.67112  -7.29579   1.43044 
 8                     0.74254  -7.01779  -0.63358 
 8                     1.8951    4.06289   0.1511 
 7                    -2.36912  -0.8468    0.67756 
 7                    -4.46478   0.48356  -1.33039 
 7                     1.62088  -0.74124  -0.42206 
 7                     2.57153   1.90305  -0.37682 
 6                    -4.82707   1.17659  -0.04658 
 6                    -4.29426   0.46061   1.27013 
 6                    -2.88911   0.19025   1.34649 
 6                    -1.9498    0.76615   2.05689 
 6                    -0.71135   0.08713   1.87977 
 6                    -1.01813  -0.99769   0.93511 
 6                    -6.3012    1.31139  -0.23695 
 6                     0.60497   0.26857   2.54894 
 6                    -6.65472   0.78044  -1.42184 
 6                    -0.23561  -1.98545   0.2809 
 6                     0.98995  -1.86513  -0.21638 
 6                    -5.42779   0.33542  -2.10006 
 6                     1.87288  -2.94779  -0.87517 
 6                    -2.11471   1.94035   3.13773 
 6                    -7.09038   2.05245   0.84277 
 6                     3.04319  -2.33515  -1.31145 
 6                     1.18521   1.75171   2.58969 
 6                     3.00498  -0.92311  -1.05051 
 6                     1.54921  -4.41238  -0.99654 
 6                    -8.0185    0.6335   -1.91901 
 6                     1.87646  -5.06566   0.29878 
 6                     4.23774  -3.02694  -2.10493 
 6                     3.86616   0.16347  -1.32757 
 6                     2.69947   1.66903   2.88255 
 6                     3.62669   1.5283   -1.09869 
 6                    -9.28145   0.74479  -1.5134 
 6                     1.31852  -6.57327   0.24437 
 6                     4.59813   2.56495  -1.39414 
 6                     3.97101   3.68682  -0.97737 
 6                     2.75726   3.28098  -0.32461 
 6                     5.83981   2.43984  -2.17396 
 6                     4.27913   5.24514  -1.12202 
 6                     6.71481   3.43024  -2.35515 
 1                    -4.33355   2.15218   0.10837 
 1                    -4.78581  -0.51799   1.58699 
 1                    -4.64009   1.05889   2.2428 
 1                    -2.85477  -1.35651  -0.10534 
 1                    -3.52074   0.38945  -1.66247 
 1                     0.48458  -0.0736    3.57576 
 1                     1.36075  -0.42748   2.18121 
 1                    -0.582    -2.99949   0.25399 
 1                    -3.28162   2.29384   3.29558 
 1                    -1.70675   1.57216   4.0402 
 1                    -1.49433   2.81649   2.82793 
 1                    -6.41312   3.06253   1.30408 
 1                    -7.34341   1.22985   1.70975 
 1                    -8.16371   2.32263   0.57466 
 1                     1.03061   1.9442    1.48973 
 1                     0.63156   2.48743   3.21395 
 1                     1.27006   0.11743  -0.20052 
 1                     2.02779  -4.81032  -1.87893 
 1                     0.46584  -4.55244  -1.20395 
 1                    -8.12596   0.76198  -3.19786 
 1                     1.4702   -4.52605   1.09382 
 1                     2.97789  -5.28961   0.24774 
 1                     4.27224  -3.92349  -2.30605 
 1                     5.19582  -2.69757  -1.37354 
 1                     4.32778  -2.41617  -3.08922 
 1                     4.83835  -0.07313  -1.83474 
 1                    -9.7415    0.58082  -0.40581 
 1                    -10.07533   0.65925  -2.31102 
 1                     3.96325   3.2203    3.45501 
 1                     6.15803   1.53232  -2.7374 
 1                     5.25764   5.33166  -0.61284 
 1                     4.37143   5.7425   -2.25075 
 1                     3.48469   5.95493  -0.65982 
 1                     1.46812  -8.08909   1.17834 
 1                     7.68302   3.10152  -2.89241 
 1                     6.62497   4.50129  -1.927 
 
 Stoichiometry    C33H36N4O6
 Framework group  C1[X(C33H36N4O6)]
 Deg. of freedom   231
 Full point group                 C1      NOp   1
 Largest Abelian subgroup         C1      NOp   1
 Largest concise Abelian subgroup C1      NOp   1
                         Standard orientation:                         
 ---------------------------------------------------------------------
 Center     Atomic      Atomic             Coordinates (Angstroms)
 Number     Number       Type             X           Y           Z
 ---------------------------------------------------------------------
      1          8           0        5.447216    0.183218   -3.170581
      2          8           0       -3.101770   -2.992953    3.087068
      3          8           0       -3.388367   -0.812108    2.924984
      4          8           0       -1.641290    7.256687    1.668253
      5          8           0       -0.701474    7.043232   -0.398369
      6          8           0       -1.919358   -4.050904    0.004687
      7          7           0        2.368260    0.813988    0.722264
      8          7           0        4.469022   -0.459717   -1.316861
      9          7           0       -1.615371    0.768194   -0.404236
     10          7           0       -2.580708   -1.870679   -0.454044
     11          6           0        4.819564   -1.197714   -0.055035
     12          6           0        4.282526   -0.523558    1.281886
     13          6           0        2.878435   -0.247974    1.358888
     14          6           0        1.931613   -0.842186    2.043781
     15          6           0        0.698004   -0.150571    1.882263
     16          6           0        1.016545    0.963755    0.976638
     17          6           0        6.294089   -1.334365   -0.240996
     18          6           0       -0.623403   -0.347019    2.537014
     19          6           0        6.657827   -0.765748   -1.405132
     20          6           0        0.243500    1.977439    0.351481
     21          6           0       -0.979592    1.880912   -0.156932
     22          6           0        5.437576   -0.291157   -2.075288
     23          6           0       -1.852506    2.990168   -0.784071
     24          6           0        2.083406   -2.053099    3.085316
     25          6           0        7.072504   -2.115898    0.817795
     26          6           0       -3.023420    2.399247   -1.247810
     27          6           0       -1.211979   -1.827383    2.524162
     28          6           0       -2.994535    0.979010   -1.034482
     29          6           0       -1.520096    4.456164   -0.853956
     30          6           0        8.025443   -0.609855   -1.888861
     31          6           0       -1.851784    5.067211    0.460698
     32          6           0       -4.209237    3.124171   -2.024627
     33          6           0       -3.859903   -0.092702   -1.353247
     34          6           0       -2.727546   -1.746053    2.810552
     35          6           0       -3.629310   -1.465815   -1.169160
     36          6           0        9.285236   -0.741914   -1.479661
     37          6           0       -1.285296    6.572619    0.460597
     38          6           0       -4.604550   -2.486390   -1.505281
     39          6           0       -3.986156   -3.625215   -1.122884
     40          6           0       -2.774274   -3.248511   -0.449516
     41          6           0       -5.840675   -2.328001   -2.287874
     42          6           0       -4.301886   -5.175996   -1.321936
     43          6           0       -6.719935   -3.306749   -2.507663
     44          1           0        4.319772   -2.175162    0.063913
     45          1           0        4.777448    0.440992    1.634562
     46          1           0        4.619059   -1.156270    2.235850
     47          1           0        2.861532    1.347064   -0.040046
     48          1           0        3.527586   -0.349113   -1.651237
     49          1           0       -0.507510   -0.040382    3.575502
     50          1           0       -1.373080    0.365309    2.188470
     51          1           0        0.595579    2.989831    0.360915
     52          1           0        3.247370   -2.418322    3.238142
     53          1           0        1.671888   -1.713260    3.997246
     54          1           0        1.460180   -2.914754    2.742385
     55          1           0        6.386904   -3.137106    1.240657
     56          1           0        7.324657   -1.324466    1.713567
     57          1           0        8.145988   -2.382951    0.547160
     58          1           0       -1.051616   -1.983516    1.419271
     59          1           0       -0.666223   -2.586865    3.126524
     60          1           0       -1.270622   -0.099434   -0.209716
     61          1           0       -1.991025    4.886363   -1.725261
     62          1           0       -0.434713    4.596999   -1.050007
     63          1           0        8.140122   -0.695711   -3.170647
     64          1           0       -1.453412    4.498796    1.239485
     65          1           0       -2.951647    5.298992    0.410646
     66          1           0       -4.237598    4.027177   -2.195560
     67          1           0       -5.173613    2.775743   -1.310546
     68          1           0       -4.296519    2.547483   -3.029505
     69          1           0       -4.827633    0.166376   -1.857967
     70          1           0        9.739302   -0.618016   -0.364430
     71          1           0       10.084488   -0.634010   -2.269157
     72          1           0       -4.003298   -3.308560    3.322689
     73          1           0       -6.150442   -1.400194   -2.822245
     74          1           0       -5.283981   -5.274097   -0.821849
     75          1           0       -4.389906   -5.634459   -2.467348
     76          1           0       -3.514204   -5.905463   -0.879205
     77          1           0       -1.432404    8.056882    1.444316
     78          1           0       -7.682990   -2.954605   -3.039314
     79          1           0       -6.638601   -4.392124   -2.115395
 ---------------------------------------------------------------------
 Rotational constants (GHZ):           0.0738729           0.0451888           0.0345712
 Standard basis: SVP (5D, 7F)
 There are   825 symmetry adapted cartesian basis functions of A   symmetry.
 There are   782 symmetry adapted basis functions of A   symmetry.
   782 basis functions,  1327 primitive gaussians,   825 cartesian basis functions
   155 alpha electrons      155 beta electrons
       nuclear repulsion energy      4932.0377819212 Hartrees.
 NAtoms=   79 NActive=   79 NUniq=   79 SFac= 1.00D+00 NAtFMM=   60 NAOKFM=T Big=T
 Integral buffers will be    131072 words long.
 Regular integral format.
 Two-electron integral symmetry is turned on.
 One-electron integrals computed using PRISM.
 NBasis=   782 RedAO= T EigKep=  3.16D-04  NBF=   782
 NBsUse=   782 1.00D-06 EigRej= -1.00D+00 NBFU=   782
 ExpMin= 1.22D-01 ExpMax= 2.27D+03 ExpMxC= 3.41D+02 IAcc=3 IRadAn=         5 AccDes= 0.00D+00
 Harris functional with IExCor=  402 and IRadAn=       5 diagonalized for initial guess.
 HarFok:  IExCor=  402 AccDes= 0.00D+00 IRadAn=         5 IDoV= 1 UseB2=F ITyADJ=14
 ICtDFT=  3500011 ScaDFX=  1.000000  1.000000  1.000000  1.000000
 FoFCou: FMM=F IPFlag=           0 FMFlag=      100000 FMFlg1=        2001
         NFxFlg=           0 DoJE=T BraDBF=F KetDBF=T FulRan=T
         wScrn=  0.000000 ICntrl=       500 IOpCl=  0 I1Cent=   200000004 NGrid=           0
         NMat0=    1 NMatS0=      1 NMatT0=    0 NMatD0=    1 NMtDS0=    0 NMtDT0=    0
 Petite list used in FoFCou.
 Requested convergence on RMS density matrix=1.00D-08 within 128 cycles.
 Requested convergence on MAX density matrix=1.00D-06.
 Requested convergence on             energy=1.00D-06.
 No special actions if energy rises.
 Integral accuracy reduced to 1.0D-05 until final iterations.
 Problem detected with inexpensive integrals.
 Switching to full accuracy and repeating last cycle.
 SCF Done:  E(RB3LYP) =  -1947.79312691     A.U. after   22 cycles
            NFock= 22  Conv=0.58D-08     -V/T= 2.0102
 DoSCS=F DFT=T ScalE2(SS,OS)=  1.000000  1.000000
 ExpMin= 1.22D-01 ExpMax= 2.27D+03 ExpMxC= 3.41D+02 IAcc=3 IRadAn=         5 AccDes= 0.00D+00
 HarFok:  IExCor=  205 AccDes= 0.00D+00 IRadAn=         5 IDoV=-2 UseB2=F ITyADJ=14
 ICtDFT= 12500011 ScaDFX=  1.000000  1.000000  1.000000  1.000000
 GSVD:  LWork=       -2193 too small for GESVD, short by        9890 words or        9890 for optimal perf.
 Range of M.O.s used for correlation:    44   782
 NBasis=   782 NAE=   155 NBE=   155 NFC=    43 NFV=     0
 NROrb=    739 NOA=   112 NOB=   112 NVA=   627 NVB=   627

 **** Warning!!: The smallest alpha delta epsilon is  0.74185357D-01

 Orbital symmetries:
       Occupied  (A) (A) (A) (A) (A) (A) (A) (A) (A) (A) (A) (A)
                 (A) (A) (A) (A) (A) (A) (A) (A) (A) (A) (A) (A)
                 (A) (A) (A) (A) (A) (A) (A) (A) (A) (A) (A) (A)
                 (A) (A) (A) (A) (A) (A) (A) (A) (A) (A) (A) (A)
                 (A) (A) (A) (A) (A) (A) (A) (A) (A) (A) (A) (A)
                 (A) (A) (A) (A) (A) (A) (A) (A) (A) (A) (A) (A)
                 (A) (A) (A) (A) (A) (A) (A) (A) (A) (A) (A) (A)
                 (A) (A) (A) (A) (A) (A) (A) (A) (A) (A) (A) (A)
                 (A) (A) (A) (A) (A) (A) (A) (A) (A) (A) (A) (A)
                 (A) (A) (A) (A) (A) (A) (A) (A) (A) (A) (A) (A)
                 (A) (A) (A) (A) (A) (A) (A) (A) (A) (A) (A) (A)
                 (A) (A) (A) (A) (A) (A) (A) (A) (A) (A) (A) (A)
                 (A) (A) (A) (A) (A) (A) (A) (A) (A) (A) (A)
       Virtual   (A) (A) (A) (A) (A) (A) (A) (A) (A) (A) (A) (A)
                 (A) (A) (A) (A) (A) (A) (A) (A) (A) (A) (A) (A)
                 (A) (A) (A) (A) (A) (A) (A) (A) (A) (A) (A) (A)
                 (A) (A) (A) (A) (A) (A) (A) (A) (A) (A) (A) (A)
                 (A) (A) (A) (A) (A) (A) (A) (A) (A) (A) (A) (A)
                 (A) (A) (A) (A) (A) (A) (A) (A) (A) (A) (A) (A)
                 (A) (A) (A) (A) (A) (A) (A) (A) (A) (A) (A) (A)
                 (A) (A) (A) (A) (A) (A) (A) (A) (A) (A) (A) (A)
                 (A) (A) (A) (A) (A) (A) (A) (A) (A) (A) (A) (A)
                 (A) (A) (A) (A) (A) (A) (A) (A) (A) (A) (A) (A)
                 (A) (A) (A) (A) (A) (A) (A) (A) (A) (A) (A) (A)
                 (A) (A) (A) (A) (A) (A) (A) (A) (A) (A) (A) (A)
                 (A) (A) (A) (A) (A) (A) (A) (A) (A) (A) (A) (A)
                 (A) (A) (A) (A) (A) (A) (A) (A) (A) (A) (A) (A)
                 (A) (A) (A) (A) (A) (A) (A) (A) (A) (A) (A) (A)
                 (A) (A) (A) (A) (A) (A) (A) (A) (A) (A) (A) (A)
                 (A) (A) (A) (A) (A) (A) (A) (A) (A) (A) (A) (A)
                 (A) (A) (A) (A) (A) (A) (A) (A) (A) (A) (A) (A)
                 (A) (A) (A) (A) (A) (A) (A) (A) (A) (A) (A) (A)
                 (A) (A) (A) (A) (A) (A) (A) (A) (A) (A) (A) (A)
                 (A) (A) (A) (A) (A) (A) (A) (A) (A) (A) (A) (A)
                 (A) (A) (A) (A) (A) (A) (A) (A) (A) (A) (A) (A)
                 (A) (A) (A) (A) (A) (A) (A) (A) (A) (A) (A) (A)
                 (A) (A) (A) (A) (A) (A) (A) (A) (A) (A) (A) (A)
                 (A) (A) (A) (A) (A) (A) (A) (A) (A) (A) (A) (A)
                 (A) (A) (A) (A) (A) (A) (A) (A) (A) (A) (A) (A)
                 (A) (A) (A) (A) (A) (A) (A) (A) (A) (A) (A) (A)
                 (A) (A) (A) (A) (A) (A) (A) (A) (A) (A) (A) (A)
                 (A) (A) (A) (A) (A) (A) (A) (A) (A) (A) (A) (A)
                 (A) (A) (A) (A) (A) (A) (A) (A) (A) (A) (A) (A)
                 (A) (A) (A) (A) (A) (A) (A) (A) (A) (A) (A) (A)
                 (A) (A) (A) (A) (A) (A) (A) (A) (A) (A) (A) (A)
                 (A) (A) (A) (A) (A) (A) (A) (A) (A) (A) (A) (A)
                 (A) (A) (A) (A) (A) (A) (A) (A) (A) (A) (A) (A)
                 (A) (A) (A) (A) (A) (A) (A) (A) (A) (A) (A) (A)
                 (A) (A) (A) (A) (A) (A) (A) (A) (A) (A) (A) (A)
                 (A) (A) (A) (A) (A) (A) (A) (A) (A) (A) (A) (A)
                 (A) (A) (A) (A) (A) (A) (A) (A) (A) (A) (A) (A)
                 (A) (A) (A) (A) (A) (A) (A) (A) (A) (A) (A) (A)
                 (A) (A) (A) (A) (A) (A) (A) (A) (A) (A) (A) (A)
                 (A) (A) (A) (A) (A) (A) (A) (A) (A) (A) (A) (A)
                 (A) (A) (A) (A) (A) (A) (A) (A) (A) (A) (A) (A)
                 (A) (A) (A) (A) (A) (A) (A) (A) (A) (A) (A) (A)
                 (A) (A) (A) (A) (A) (A) (A) (A) (A) (A) (A) (A)
                 (A) (A) (A) (A) (A) (A) (A) (A) (A) (A) (A) (A)
                 (A) (A) (A) (A) (A) (A) (A) (A) (A) (A) (A) (A)
                 (A) (A) (A) (A) (A) (A) (A) (A) (A) (A) (A) (A)
                 (A) (A) (A) (A) (A) (A) (A) (A) (A) (A) (A) (A)
                 (A) (A) (A) (A) (A) (A) (A) (A) (A) (A) (A) (A)
                 (A) (A) (A) (A) (A) (A) (A) (A) (A) (A) (A) (A)
                 (A) (A) (A) (A) (A) (A) (A) (A) (A) (A) (A) (A)
                 (A) (A) (A) (A) (A) (A) (A) (A) (A) (A) (A) (A)
                 (A) (A) (A)
     4 initial guesses have been made.
 Convergence on wavefunction:    0.001000000000000
 Iteration     1 Dimension     4 NMult     0 NNew      4
 CISAX will form     4 AO SS matrices at one time.
 Iteration     2 Dimension     6 NMult     4 NNew      2
 Iteration     3 Dimension     8 NMult     6 NNew      2
 Iteration     4 Dimension    10 NMult     8 NNew      2
 Iteration     5 Dimension    12 NMult    10 NNew      2
 Iteration     6 Dimension    14 NMult    12 NNew      2
 Iteration     7 Dimension    16 NMult    14 NNew      2
 Iteration     8 Dimension    18 NMult    16 NNew      2
 ***********************************************************************
 Excited states from <AA,BB:AA,BB> singles matrix:
 ***********************************************************************
 
 Ground to excited state transition densities written to RWF  633
 Ground to excited state transition electric dipole moments (Au):
       state          X           Y           Z        Dip. S.      Osc.
         1         2.3343      1.0379      0.9262      7.3839      0.3422
 Ground to excited state transition velocity dipole moments (Au):
       state          X           Y           Z        Dip. S.      Osc.
         1        -0.1563     -0.0652     -0.0636      0.0327      0.3137
 Ground to excited state transition magnetic dipole moments (Au):
       state          X           Y           Z
         1        -0.7472      0.0916      1.3812
 Ground to excited state transition velocity quadrupole moments (Au):
       state          XX          YY          ZZ          XY          XZ          YZ
         1         0.2653      0.4746     -0.0975      0.6008      0.3012      0.2114
 <0|del|b> * <b|rxdel|0> + <0|del|b> * <b|delr+rdel|0>
 Rotatory Strengths (R) in cgs (10**-40 erg-esu-cm/Gauss)
       state          XX          YY          ZZ    R(velocity)    E-M Angle
         1      -571.4785    173.4613    631.6621     77.8816       85.37
 1/2[<0|r|b>*<b|rxdel|0> + (<0|rxdel|b>*<b|r|0>)*]
 Rotatory Strengths (R) in cgs (10**-40 erg-esu-cm/Gauss)
       state          XX          YY          ZZ     R(length)
         1      1233.4224    -67.2339   -904.6350     87.1845
  1/2[<0|del|b>*<b|r|0> + (<0|r|b>*<b|del|0>)*] (Au)
       state          X           Y           Z        Dip. S.   Osc.(frdel)
         1        -0.3648     -0.0676     -0.0589      0.4913      0.3275

 Excitation energies and oscillator strengths:
 
 Excited State   1:      Singlet-A      1.8917 eV  655.41 nm  f=0.3422  <S**2>=0.000
     153 ->156        -0.13722
     155 ->156         0.69743
     155 <-156        -0.12043
 This state for optimization and/or second-order correction.
 Total Energy, E(TD-HF/TD-DFT) =  -1947.72360800    
 Copying the excited state density for this state as the 1-particle RhoCI density.
 SavETr:  write IOETrn=   770 NScale= 10 NData=  16 NLR=1 NState=    1 LETran=      28.

 **********************************************************************

            Population analysis using the SCF density.

 **********************************************************************

 Orbital symmetries:
       Occupied  (A) (A) (A) (A) (A) (A) (A) (A) (A) (A) (A) (A)
                 (A) (A) (A) (A) (A) (A) (A) (A) (A) (A) (A) (A)
                 (A) (A) (A) (A) (A) (A) (A) (A) (A) (A) (A) (A)
                 (A) (A) (A) (A) (A) (A) (A) (A) (A) (A) (A) (A)
                 (A) (A) (A) (A) (A) (A) (A) (A) (A) (A) (A) (A)
                 (A) (A) (A) (A) (A) (A) (A) (A) (A) (A) (A) (A)
                 (A) (A) (A) (A) (A) (A) (A) (A) (A) (A) (A) (A)
                 (A) (A) (A) (A) (A) (A) (A) (A) (A) (A) (A) (A)
                 (A) (A) (A) (A) (A) (A) (A) (A) (A) (A) (A) (A)
                 (A) (A) (A) (A) (A) (A) (A) (A) (A) (A) (A) (A)
                 (A) (A) (A) (A) (A) (A) (A) (A) (A) (A) (A) (A)
                 (A) (A) (A) (A) (A) (A) (A) (A) (A) (A) (A) (A)
                 (A) (A) (A) (A) (A) (A) (A) (A) (A) (A) (A)
       Virtual   (A) (A) (A) (A) (A) (A) (A) (A) (A) (A) (A) (A)
                 (A) (A) (A) (A) (A) (A) (A) (A) (A) (A) (A) (A)
                 (A) (A) (A) (A) (A) (A) (A) (A) (A) (A) (A) (A)
                 (A) (A) (A) (A) (A) (A) (A) (A) (A) (A) (A) (A)
                 (A) (A) (A) (A) (A) (A) (A) (A) (A) (A) (A) (A)
                 (A) (A) (A) (A) (A) (A) (A) (A) (A) (A) (A) (A)
                 (A) (A) (A) (A) (A) (A) (A) (A) (A) (A) (A) (A)
                 (A) (A) (A) (A) (A) (A) (A) (A) (A) (A) (A) (A)
                 (A) (A) (A) (A) (A) (A) (A) (A) (A) (A) (A) (A)
                 (A) (A) (A) (A) (A) (A) (A) (A) (A) (A) (A) (A)
                 (A) (A) (A) (A) (A) (A) (A) (A) (A) (A) (A) (A)
                 (A) (A) (A) (A) (A) (A) (A) (A) (A) (A) (A) (A)
                 (A) (A) (A) (A) (A) (A) (A) (A) (A) (A) (A) (A)
                 (A) (A) (A) (A) (A) (A) (A) (A) (A) (A) (A) (A)
                 (A) (A) (A) (A) (A) (A) (A) (A) (A) (A) (A) (A)
                 (A) (A) (A) (A) (A) (A) (A) (A) (A) (A) (A) (A)
                 (A) (A) (A) (A) (A) (A) (A) (A) (A) (A) (A) (A)
                 (A) (A) (A) (A) (A) (A) (A) (A) (A) (A) (A) (A)
                 (A) (A) (A) (A) (A) (A) (A) (A) (A) (A) (A) (A)
                 (A) (A) (A) (A) (A) (A) (A) (A) (A) (A) (A) (A)
                 (A) (A) (A) (A) (A) (A) (A) (A) (A) (A) (A) (A)
                 (A) (A) (A) (A) (A) (A) (A) (A) (A) (A) (A) (A)
                 (A) (A) (A) (A) (A) (A) (A) (A) (A) (A) (A) (A)
                 (A) (A) (A) (A) (A) (A) (A) (A) (A) (A) (A) (A)
                 (A) (A) (A) (A) (A) (A) (A) (A) (A) (A) (A) (A)
                 (A) (A) (A) (A) (A) (A) (A) (A) (A) (A) (A) (A)
                 (A) (A) (A) (A) (A) (A) (A) (A) (A) (A) (A) (A)
                 (A) (A) (A) (A) (A) (A) (A) (A) (A) (A) (A) (A)
                 (A) (A) (A) (A) (A) (A) (A) (A) (A) (A) (A) (A)
                 (A) (A) (A) (A) (A) (A) (A) (A) (A) (A) (A) (A)
                 (A) (A) (A) (A) (A) (A) (A) (A) (A) (A) (A) (A)
                 (A) (A) (A) (A) (A) (A) (A) (A) (A) (A) (A) (A)
                 (A) (A) (A) (A) (A) (A) (A) (A) (A) (A) (A) (A)
                 (A) (A) (A) (A) (A) (A) (A) (A) (A) (A) (A) (A)
                 (A) (A) (A) (A) (A) (A) (A) (A) (A) (A) (A) (A)
                 (A) (A) (A) (A) (A) (A) (A) (A) (A) (A) (A) (A)
                 (A) (A) (A) (A) (A) (A) (A) (A) (A) (A) (A) (A)
                 (A) (A) (A) (A) (A) (A) (A) (A) (A) (A) (A) (A)
                 (A) (A) (A) (A) (A) (A) (A) (A) (A) (A) (A) (A)
                 (A) (A) (A) (A) (A) (A) (A) (A) (A) (A) (A) (A)
                 (A) (A) (A) (A) (A) (A) (A) (A) (A) (A) (A) (A)
                 (A) (A) (A) (A) (A) (A) (A) (A) (A) (A) (A) (A)
                 (A) (A) (A) (A) (A) (A) (A) (A) (A) (A) (A) (A)
                 (A) (A) (A) (A) (A) (A) (A) (A) (A) (A) (A) (A)
                 (A) (A) (A) (A) (A) (A) (A) (A) (A) (A) (A) (A)
                 (A) (A) (A) (A) (A) (A) (A) (A) (A) (A) (A) (A)
                 (A) (A) (A) (A) (A) (A) (A) (A) (A) (A) (A) (A)
                 (A) (A) (A) (A) (A) (A) (A) (A) (A) (A) (A) (A)
                 (A) (A) (A) (A) (A) (A) (A) (A) (A) (A) (A) (A)
                 (A) (A) (A) (A) (A) (A) (A) (A) (A) (A) (A) (A)
                 (A) (A) (A) (A) (A) (A) (A) (A) (A) (A) (A) (A)
                 (A) (A) (A) (A) (A) (A) (A) (A) (A) (A) (A) (A)
                 (A) (A) (A)
 The electronic state is 1-A.
 Alpha  occ. eigenvalues --  -19.17071 -19.15833 -19.15347 -19.10945 -19.10032
 Alpha  occ. eigenvalues --  -19.07862 -14.38056 -14.36079 -14.36053 -14.29117
 Alpha  occ. eigenvalues --  -10.33191 -10.29927 -10.26646 -10.26602 -10.26009
 Alpha  occ. eigenvalues --  -10.25731 -10.23977 -10.23900 -10.23321 -10.22739
 Alpha  occ. eigenvalues --  -10.22450 -10.22427 -10.22387 -10.22155 -10.21815
 Alpha  occ. eigenvalues --  -10.21814 -10.21324 -10.21307 -10.21228 -10.21014
 Alpha  occ. eigenvalues --  -10.20930 -10.20746 -10.20713 -10.20666 -10.20494
 Alpha  occ. eigenvalues --  -10.20413 -10.20359 -10.20335 -10.19998 -10.19209
 Alpha  occ. eigenvalues --  -10.18268 -10.18190 -10.18145  -1.12786  -1.08797
 Alpha  occ. eigenvalues --   -1.04734  -1.04452  -1.00435  -0.99922  -0.99231
 Alpha  occ. eigenvalues --   -0.97452  -0.95696  -0.92911  -0.83494  -0.82907
 Alpha  occ. eigenvalues --   -0.82159  -0.80974  -0.80470  -0.79999  -0.77747
 Alpha  occ. eigenvalues --   -0.77037  -0.75672  -0.74907  -0.74694  -0.72293
 Alpha  occ. eigenvalues --   -0.71445  -0.70390  -0.69724  -0.68732  -0.68381
 Alpha  occ. eigenvalues --   -0.67189  -0.66286  -0.64191  -0.62238  -0.60967
 Alpha  occ. eigenvalues --   -0.60135  -0.59773  -0.58347  -0.57302  -0.56870
 Alpha  occ. eigenvalues --   -0.56451  -0.55840  -0.55586  -0.54267  -0.53862
 Alpha  occ. eigenvalues --   -0.52553  -0.52041  -0.51605  -0.50649  -0.50455
 Alpha  occ. eigenvalues --   -0.50233  -0.49045  -0.48580  -0.48420  -0.48054
 Alpha  occ. eigenvalues --   -0.47334  -0.46922  -0.46586  -0.45843  -0.45292
 Alpha  occ. eigenvalues --   -0.44633  -0.44512  -0.44147  -0.43951  -0.43580
 Alpha  occ. eigenvalues --   -0.43350  -0.43161  -0.42896  -0.42583  -0.42420
 Alpha  occ. eigenvalues --   -0.42172  -0.41361  -0.41295  -0.41028  -0.40800
 Alpha  occ. eigenvalues --   -0.40581  -0.40422  -0.40385  -0.40161  -0.39571
 Alpha  occ. eigenvalues --   -0.39273  -0.38752  -0.38566  -0.38229  -0.37965
 Alpha  occ. eigenvalues --   -0.37793  -0.37625  -0.37156  -0.36649  -0.36435
 Alpha  occ. eigenvalues --   -0.35810  -0.35752  -0.34804  -0.34468  -0.34259
 Alpha  occ. eigenvalues --   -0.34049  -0.33305  -0.32856  -0.32352  -0.31734
 Alpha  occ. eigenvalues --   -0.31279  -0.30353  -0.30280  -0.28909  -0.28158
 Alpha  occ. eigenvalues --   -0.26948  -0.26884  -0.25774  -0.24956  -0.24837
 Alpha  occ. eigenvalues --   -0.24135  -0.24040  -0.23825  -0.22763  -0.19129
 Alpha virt. eigenvalues --   -0.11710  -0.06465  -0.05444  -0.00814   0.00203
 Alpha virt. eigenvalues --    0.01151   0.01531   0.02670   0.02926   0.03802
 Alpha virt. eigenvalues --    0.03865   0.04569   0.04776   0.05295   0.05463
 Alpha virt. eigenvalues --    0.05653   0.05936   0.06112   0.06351   0.06946
 Alpha virt. eigenvalues --    0.07606   0.07758   0.07965   0.08084   0.08621
 Alpha virt. eigenvalues --    0.08742   0.09360   0.09603   0.09778   0.10351
 Alpha virt. eigenvalues --    0.10447   0.11108   0.11370   0.11579   0.11701
 Alpha virt. eigenvalues --    0.11864   0.12361   0.12781   0.13080   0.13671
 Alpha virt. eigenvalues --    0.14024   0.14448   0.14605   0.15436   0.15723
 Alpha virt. eigenvalues --    0.15857   0.16595   0.16885   0.17115   0.17171
 Alpha virt. eigenvalues --    0.17354   0.17979   0.18032   0.18667   0.19191
 Alpha virt. eigenvalues --    0.19693   0.19808   0.20645   0.20982   0.21703
 Alpha virt. eigenvalues --    0.21785   0.22846   0.23493   0.24135   0.24332
 Alpha virt. eigenvalues --    0.25073   0.25368   0.25728   0.26347   0.26873
 Alpha virt. eigenvalues --    0.26982   0.27172   0.27963   0.28577   0.29152
 Alpha virt. eigenvalues --    0.29417   0.29763   0.30511   0.31180   0.31802
 Alpha virt. eigenvalues --    0.32031   0.32335   0.32876   0.33278   0.34299
 Alpha virt. eigenvalues --    0.35190   0.35443   0.36204   0.36458   0.36722
 Alpha virt. eigenvalues --    0.37154   0.37326   0.38130   0.38910   0.39348
 Alpha virt. eigenvalues --    0.39481   0.39867   0.40203   0.40978   0.41260
 Alpha virt. eigenvalues --    0.41739   0.42657   0.42931   0.43317   0.43875
 Alpha virt. eigenvalues --    0.44274   0.44407   0.44978   0.45306   0.45614
 Alpha virt. eigenvalues --    0.45735   0.45847   0.46167   0.46621   0.47260
 Alpha virt. eigenvalues --    0.47490   0.47618   0.47834   0.48213   0.48523
 Alpha virt. eigenvalues --    0.48823   0.49320   0.49546   0.49765   0.50221
 Alpha virt. eigenvalues --    0.50573   0.50928   0.51333   0.51602   0.51986
 Alpha virt. eigenvalues --    0.52204   0.52940   0.53230   0.53299   0.53675
 Alpha virt. eigenvalues --    0.54508   0.54833   0.55190   0.55667   0.55770
 Alpha virt. eigenvalues --    0.56389   0.56563   0.56743   0.57013   0.57136
 Alpha virt. eigenvalues --    0.57790   0.58010   0.58401   0.58853   0.58946
 Alpha virt. eigenvalues --    0.59309   0.59365   0.59738   0.60171   0.60453
 Alpha virt. eigenvalues --    0.60735   0.61179   0.61234   0.61591   0.61882
 Alpha virt. eigenvalues --    0.62131   0.62149   0.62733   0.62841   0.63044
 Alpha virt. eigenvalues --    0.63316   0.63454   0.63675   0.63880   0.64152
 Alpha virt. eigenvalues --    0.64386   0.64650   0.65230   0.65365   0.65426
 Alpha virt. eigenvalues --    0.65663   0.66001   0.66272   0.66442   0.66694
 Alpha virt. eigenvalues --    0.66850   0.67130   0.67260   0.67998   0.68193
 Alpha virt. eigenvalues --    0.68409   0.68952   0.69355   0.69728   0.70170
 Alpha virt. eigenvalues --    0.70401   0.70595   0.71048   0.71508   0.71639
 Alpha virt. eigenvalues --    0.72005   0.72431   0.72720   0.73025   0.73380
 Alpha virt. eigenvalues --    0.73687   0.73842   0.74043   0.74411   0.74605
 Alpha virt. eigenvalues --    0.75133   0.75499   0.75963   0.76223   0.76723
 Alpha virt. eigenvalues --    0.76918   0.77128   0.77545   0.78061   0.78772
 Alpha virt. eigenvalues --    0.79007   0.79727   0.79763   0.80687   0.81132
 Alpha virt. eigenvalues --    0.81864   0.82428   0.82923   0.84041   0.84495
 Alpha virt. eigenvalues --    0.84786   0.84917   0.85379   0.85624   0.86635
 Alpha virt. eigenvalues --    0.86756   0.87436   0.88111   0.88764   0.89023
 Alpha virt. eigenvalues --    0.89469   0.90739   0.92249   0.92571   0.93204
 Alpha virt. eigenvalues --    0.93845   0.94440   0.94722   0.94811   0.95193
 Alpha virt. eigenvalues --    0.95869   0.96480   0.97134   0.98088   0.98477
 Alpha virt. eigenvalues --    0.99058   0.99186   0.99782   1.00512   1.01341
 Alpha virt. eigenvalues --    1.01784   1.03151   1.03731   1.04191   1.05547
 Alpha virt. eigenvalues --    1.06132   1.07172   1.07986   1.08371   1.08935
 Alpha virt. eigenvalues --    1.09667   1.10142   1.10469   1.11151   1.11787
 Alpha virt. eigenvalues --    1.12317   1.12906   1.13327   1.14324   1.14667
 Alpha virt. eigenvalues --    1.15249   1.15381   1.16617   1.17181   1.18168
 Alpha virt. eigenvalues --    1.18847   1.19334   1.19484   1.20184   1.20931
 Alpha virt. eigenvalues --    1.21839   1.22798   1.23296   1.23962   1.24712
 Alpha virt. eigenvalues --    1.24899   1.25207   1.26222   1.26686   1.27685
 Alpha virt. eigenvalues --    1.27949   1.28777   1.29060   1.30128   1.30934
 Alpha virt. eigenvalues --    1.31653   1.31866   1.32123   1.32768   1.33339
 Alpha virt. eigenvalues --    1.34713   1.35614   1.35962   1.36366   1.37054
 Alpha virt. eigenvalues --    1.37785   1.39630   1.39849   1.40324   1.41300
 Alpha virt. eigenvalues --    1.42314   1.42851   1.43531   1.43819   1.44299
 Alpha virt. eigenvalues --    1.44652   1.45922   1.46841   1.47063   1.47557
 Alpha virt. eigenvalues --    1.47897   1.48640   1.48985   1.49245   1.49926
 Alpha virt. eigenvalues --    1.50175   1.50205   1.50831   1.51296   1.51687
 Alpha virt. eigenvalues --    1.52290   1.52557   1.53954   1.54250   1.54834
 Alpha virt. eigenvalues --    1.55361   1.55942   1.56287   1.57150   1.58126
 Alpha virt. eigenvalues --    1.58326   1.58931   1.59160   1.59265   1.59708
 Alpha virt. eigenvalues --    1.60861   1.61561   1.62178   1.62539   1.63323
 Alpha virt. eigenvalues --    1.63867   1.64505   1.64700   1.65048   1.65745
 Alpha virt. eigenvalues --    1.66102   1.66641   1.66982   1.67393   1.67767
 Alpha virt. eigenvalues --    1.68433   1.68626   1.68946   1.69463   1.69779
 Alpha virt. eigenvalues --    1.70192   1.70896   1.71102   1.71408   1.72304
 Alpha virt. eigenvalues --    1.72436   1.72900   1.73082   1.73989   1.74602
 Alpha virt. eigenvalues --    1.74911   1.75504   1.75869   1.76367   1.77167
 Alpha virt. eigenvalues --    1.77374   1.77635   1.77817   1.78398   1.79017
 Alpha virt. eigenvalues --    1.79331   1.79650   1.79971   1.80179   1.80420
 Alpha virt. eigenvalues --    1.80988   1.81050   1.81665   1.81990   1.82387
 Alpha virt. eigenvalues --    1.82674   1.83155   1.83364   1.83549   1.84668
 Alpha virt. eigenvalues --    1.84775   1.85640   1.85951   1.86576   1.86951
 Alpha virt. eigenvalues --    1.87634   1.87917   1.88485   1.88748   1.88831
 Alpha virt. eigenvalues --    1.89257   1.90387   1.90969   1.91592   1.91983
 Alpha virt. eigenvalues --    1.93276   1.93586   1.93848   1.94084   1.94591
 Alpha virt. eigenvalues --    1.95313   1.96098   1.96268   1.97107   1.97176
 Alpha virt. eigenvalues --    1.97604   1.98065   1.98860   1.98996   1.99663
 Alpha virt. eigenvalues --    1.99891   2.00632   2.00900   2.01834   2.02209
 Alpha virt. eigenvalues --    2.02408   2.02874   2.03526   2.05020   2.05430
 Alpha virt. eigenvalues --    2.06059   2.06397   2.07138   2.07311   2.08127
 Alpha virt. eigenvalues --    2.08198   2.08657   2.09017   2.09304   2.09410
 Alpha virt. eigenvalues --    2.09501   2.10370   2.11164   2.11643   2.12113
 Alpha virt. eigenvalues --    2.13436   2.13978   2.14743   2.15112   2.15792
 Alpha virt. eigenvalues --    2.16162   2.16836   2.17211   2.17937   2.18436
 Alpha virt. eigenvalues --    2.18846   2.19913   2.20871   2.21344   2.21991
 Alpha virt. eigenvalues --    2.23096   2.23323   2.23557   2.24936   2.25039
 Alpha virt. eigenvalues --    2.26042   2.27213   2.27593   2.28150   2.29032
 Alpha virt. eigenvalues --    2.29390   2.29643   2.30218   2.31288   2.31355
 Alpha virt. eigenvalues --    2.31692   2.33324   2.34460   2.34590   2.35524
 Alpha virt. eigenvalues --    2.36157   2.36470   2.37221   2.37878   2.38802
 Alpha virt. eigenvalues --    2.40047   2.40157   2.40607   2.41316   2.41663
 Alpha virt. eigenvalues --    2.42406   2.43786   2.44227   2.45259   2.45805
 Alpha virt. eigenvalues --    2.46719   2.47088   2.47203   2.47952   2.48476
 Alpha virt. eigenvalues --    2.49371   2.50414   2.50814   2.50949   2.52636
 Alpha virt. eigenvalues --    2.53985   2.54369   2.55196   2.55426   2.56783
 Alpha virt. eigenvalues --    2.57358   2.58328   2.59500   2.60114   2.60494
 Alpha virt. eigenvalues --    2.61276   2.61493   2.62360   2.63379   2.63880
 Alpha virt. eigenvalues --    2.64552   2.65040   2.65345   2.66086   2.66809
 Alpha virt. eigenvalues --    2.67384   2.68849   2.69199   2.69558   2.70323
 Alpha virt. eigenvalues --    2.70651   2.70915   2.71145   2.71435   2.71794
 Alpha virt. eigenvalues --    2.72999   2.74059   2.74435   2.75096   2.75644
 Alpha virt. eigenvalues --    2.76376   2.78391   2.78698   2.79544   2.80281
 Alpha virt. eigenvalues --    2.81284   2.81501   2.81587   2.82106   2.83620
 Alpha virt. eigenvalues --    2.83999   2.84828   2.85556   2.86303   2.86816
 Alpha virt. eigenvalues --    2.87241   2.87818   2.88331   2.89297   2.89693
 Alpha virt. eigenvalues --    2.90125   2.91081   2.93314   2.94592   2.96148
 Alpha virt. eigenvalues --    2.97349   2.97556   2.97974   2.98301   2.98567
 Alpha virt. eigenvalues --    2.98722   3.00434   3.01950   3.02680   3.03957
 Alpha virt. eigenvalues --    3.04400   3.05872   3.06408   3.07321   3.08463
 Alpha virt. eigenvalues --    3.09902   3.13045   3.13440   3.14216   3.14413
 Alpha virt. eigenvalues --    3.15543   3.19961   3.21487   3.23827   3.24122
 Alpha virt. eigenvalues --    3.26473   3.28932   3.30454   3.32433   3.32557
 Alpha virt. eigenvalues --    3.35704   3.38185   3.39647   3.45003   3.47769
 Alpha virt. eigenvalues --    3.50989   3.51456   3.53448   3.62426   3.62580
 Alpha virt. eigenvalues --    3.64093   3.64392   3.66438   3.67491   3.79389
 Alpha virt. eigenvalues --    3.87086   3.89418
          Condensed to atoms (all electrons):
 Mulliken charges:
               1
     1  O   -0.206414
     2  O   -0.214262
     3  O   -0.154211
     4  O   -0.171757
     5  O   -0.129380
     6  O   -0.229460
     7  N   -0.063474
     8  N   -0.066527
     9  N   -0.071516
    10  N   -0.230825
    11  C    0.126791
    12  C    0.067872
    13  C   -0.092310
    14  C   -0.107000
    15  C   -0.112926
    16  C    0.055320
    17  C   -0.119419
    18  C    0.086156
    19  C   -0.023731
    20  C   -0.085476
    21  C    0.055121
    22  C    0.023307
    23  C   -0.127666
    24  C    0.057798
    25  C   -0.022216
    26  C   -0.104400
    27  C   -0.063545
    28  C    0.163922
    29  C    0.098320
    30  C   -0.027506
    31  C    0.035765
    32  C    0.136025
    33  C   -0.101520
    34  C    0.137941
    35  C    0.054787
    36  C   -0.129432
    37  C    0.106393
    38  C    0.051729
    39  C   -0.126119
    40  C    0.126537
    41  C   -0.034294
    42  C   -0.006309
    43  C   -0.072192
    44  H    0.028233
    45  H    0.009616
    46  H    0.019044
    47  H    0.125939
    48  H    0.120419
    49  H   -0.003965
    50  H    0.008143
    51  H   -0.028574
    52  H    0.022780
    53  H    0.016548
    54  H    0.052007
    55  H    0.063056
    56  H    0.053794
    57  H    0.044418
    58  H    0.081839
    59  H    0.034831
    60  H    0.098562
    61  H    0.007420
    62  H    0.016443
    63  H    0.047954
    64  H    0.034871
    65  H    0.045861
    66  H   -0.060590
    67  H    0.052507
    68  H    0.046764
    69  H   -0.016565
    70  H    0.032059
    71  H    0.041796
    72  H    0.183469
    73  H    0.006343
    74  H    0.040181
    75  H    0.052190
    76  H    0.054888
    77  H    0.103862
    78  H    0.036175
    79  H    0.037783
 Sum of Mulliken charges =  -0.00000
 Mulliken charges with hydrogens summed into heavy atoms:
               1
     1  O   -0.206414
     2  O   -0.030793
     3  O   -0.154211
     4  O   -0.067895
     5  O   -0.129380
     6  O   -0.229460
     7  N    0.062464
     8  N    0.053892
     9  N    0.027046
    10  N   -0.230825
    11  C    0.155024
    12  C    0.096532
    13  C   -0.092310
    14  C   -0.107000
    15  C   -0.112926
    16  C    0.055320
    17  C   -0.119419
    18  C    0.090333
    19  C   -0.023731
    20  C   -0.114050
    21  C    0.055121
    22  C    0.023307
    23  C   -0.127666
    24  C    0.149132
    25  C    0.139052
    26  C   -0.104400
    27  C    0.053125
    28  C    0.163922
    29  C    0.122183
    30  C    0.020448
    31  C    0.116497
    32  C    0.174706
    33  C   -0.118085
    34  C    0.137941
    35  C    0.054787
    36  C   -0.055576
    37  C    0.106393
    38  C    0.051729
    39  C   -0.126119
    40  C    0.126537
    41  C   -0.027951
    42  C    0.140951
    43  C    0.001766
 Electronic spatial extent (au):  <R**2>=          32164.2847
 Charge=             -0.0000 electrons
 Dipole moment (field-independent basis, Debye):
    X=             -2.0835    Y=              1.7390    Z=              2.0755  Tot=              3.4166
 Quadrupole moment (field-independent basis, Debye-Ang):
   XX=           -225.7233   YY=           -241.9813   ZZ=           -263.4732
   XY=             -8.7085   XZ=             36.4261   YZ=             -3.1951
 Traceless Quadrupole moment (field-independent basis, Debye-Ang):
   XX=             18.0026   YY=              1.7446   ZZ=            -19.7473
   XY=             -8.7085   XZ=             36.4261   YZ=             -3.1951
 Octapole moment (field-independent basis, Debye-Ang**2):
  XXX=           -102.4537  YYY=            128.4911  ZZZ=             79.7579  XYY=           -109.8218
  XXY=            -88.3808  XXZ=             78.5475  XZZ=            -92.8635  YZZ=            -33.6584
  YYZ=             36.2518  XYZ=             37.7757
 Hexadecapole moment (field-independent basis, Debye-Ang**3):
 XXXX=         -24083.3233 YYYY=         -11943.7475 ZZZZ=          -4818.9935 XXXY=             39.9923
 XXXZ=            751.9043 YYYX=           -122.3902 YYYZ=            303.1446 ZZZX=             71.4176
 ZZZY=           -163.2708 XXYY=          -5998.3753 XXZZ=          -5241.2352 YYZZ=          -2926.5520
 XXYZ=           -135.0253 YYXZ=             34.6512 ZZXY=             65.9057
 N-N= 4.932037781921D+03 E-N=-1.439320894220D+04  KE= 1.928060832499D+03
 1\1\GINC-PADAWAN\SP\RB3LYP TD-FC\SVP\C33H36N4O6\PADAWAN\04-Oct-2019\0\
 \# td=(NStates=1) B3LYP/SVP\\TD\\0,1\O,0,-5.4281690469,-0.1017347339,-
 3.2107708668\O,0,3.0649565012,2.9079080455,3.203296408\O,0,3.364874836
 1,0.7353789369,2.969498835\O,0,1.671124752,-7.2957858487,1.4304415505\
 O,0,0.7425391419,-7.0177882024,-0.633581341\O,0,1.8950965578,4.0628894
 117,0.1511046179\N,0,-2.3691165228,-0.8468031105,0.6775647731\N,0,-4.4
 647813595,0.4835560221,-1.3303913939\N,0,1.6208824798,-0.7412356966,-0
 .4220606837\N,0,2.5715326952,1.9030460501,-0.3768244291\C,0,-4.8270690
 981,1.1765891559,-0.0465788581\C,0,-4.2942568185,0.4606062259,1.270134
 3711\C,0,-2.889114007,0.1902492816,1.3464866617\C,0,-1.9498040771,0.76
 61515724,2.0568888585\C,0,-0.7113477451,0.0871332778,1.8797686545\C,0,
 -1.0181260004,-0.9976928282,0.9351053299\C,0,-6.3012024763,1.311388928
 2,-0.2369489103\C,0,0.6049691035,0.2685675333,2.5489439145\C,0,-6.6547
 159861,0.7804372921,-1.4218379125\C,0,-0.2356098171,-1.9854472816,0.28
 09001715\C,0,0.9899458908,-1.8651260592,-0.2163832205\C,0,-5.427793379
 6,0.3354217569,-2.1000573172\C,0,1.8728813733,-2.9477853169,-0.8751745
 268\C,0,-2.1147071716,1.9403497919,3.137728163\C,0,-7.0903765309,2.052
 4533745,0.8427682627\C,0,3.0431906528,-2.3351534665,-1.3114523903\C,0,
 1.1852145488,1.7517136648,2.5896926052\C,0,3.0049785732,-0.9231109367,
 -1.0505090391\C,0,1.5492086911,-4.4123772021,-0.996541371\C,0,-8.01849
 77558,0.6335049881,-1.9190102888\C,0,1.8764552111,-5.0656575004,0.2987
 758731\C,0,4.2377393829,-3.0269411629,-2.1049297243\C,0,3.8661574863,0
 .1634657501,-1.3275674391\C,0,2.6994705683,1.6690344916,2.8825541553\C
 ,0,3.6266870465,1.5282982413,-1.0986864359\C,0,-9.2814531287,0.7447866
 39,-1.5133961549\C,0,1.3185169164,-6.5732739776,0.2443730963\C,0,4.598
 1286475,2.5649532502,-1.3941364967\C,0,3.971006369,3.6868192056,-0.977
 3690312\C,0,2.7572572965,3.2809759487,-0.3246112238\C,0,5.8398075861,2
 .4398388245,-2.173959351\C,0,4.2791335332,5.2451393897,-1.1220242158\C
 ,0,6.7148115388,3.4302387087,-2.3551499919\H,0,-4.3335478409,2.1521762
 977,0.1083738777\H,0,-4.7858132382,-0.5179932754,1.5869934435\H,0,-4.6
 40090849,1.0588898887,2.2428011898\H,0,-2.8547745174,-1.3565130468,-0.
 1053374555\H,0,-3.5207430716,0.3894508622,-1.6624737983\H,0,0.48458289
 3,-0.0735970477,3.5757571238\H,0,1.3607500844,-0.4274774151,2.18121325
 41\H,0,-0.5819968606,-2.9994874137,0.2539904013\H,0,-3.2816183071,2.29
 38406482,3.2955795477\H,0,-1.7067518903,1.5721565796,4.0402024081\H,0,
 -1.4943258137,2.8164854683,2.8279302148\H,0,-6.4131247634,3.062525056,
 1.3040826413\H,0,-7.3434141084,1.2298527945,1.7097479855\H,0,-8.163712
 3084,2.3226283459,0.5746559458\H,0,1.030605769,1.9441964562,1.48972704
 \H,0,0.6315562681,2.4874255646,3.2139472189\H,0,1.2700613325,0.1174323
 882,-0.2005154168\H,0,2.0277905713,-4.8103248629,-1.878932503\H,0,0.46
 58383813,-4.552435091,-1.2039488783\H,0,-8.1259636582,0.7619764282,-3.
 1978557238\H,0,1.4701992088,-4.5260537851,1.0938169583\H,0,2.977894059
 5,-5.2896061651,0.2477425892\H,0,4.2722422865,-3.9234898012,-2.3060540
 665\H,0,5.1958206805,-2.6975686071,-1.3735409717\H,0,4.3277842115,-2.4
 1617385,-3.0892179954\H,0,4.8383534548,-0.0731294074,-1.8347396497\H,0
 ,-9.7414977503,0.5808155371,-0.4058132711\H,0,-10.0753256662,0.6592473
 404,-2.3110172017\H,0,3.9632510116,3.2202954132,3.4550102667\H,0,6.158
 0292711,1.5323153807,-2.7374025553\H,0,5.2576364634,5.3316559298,-0.61
 28399039\H,0,4.3714291654,5.7425010158,-2.2507476197\H,0,3.4846861382,
 5.9549250989,-0.6598177234\H,0,1.4681241205,-8.0890900661,1.1783438893
 \H,0,7.6830207465,3.1015156915,-2.892406514\H,0,6.6249743849,4.5012856
 408,-1.926995052\\Version=ES64L-G16RevA.03\State=1-A\HF=-1947.7931269\
 RMSD=5.836e-09\PG=C01 [X(C33H36N4O6)]\\@


 KEEP CLOSE TO NATURES HEART, YOURSELF;
 AND BREAK CLEAR AWAY, ONCE IN A WHILE, AND
 CLIMB A MOUNTAIN OR SPEND A WEEK IN THE
 WOODS.  WASH YOUR SPIRIT CLEAN...
                                         -- JOHN MUIR
 Job cpu time:       0 days 14 hours  6 minutes 30.7 seconds.
 Elapsed time:       0 days  3 hours 32 minutes 22.9 seconds.
 File lengths (MBytes):  RWF=   2533 Int=      0 D2E=      0 Chk=     63 Scr=      1
 Normal termination of Gaussian 16 at Fri Oct  4 18:34:14 2019.
