 Entering Gaussian System, Link 0=g16
 Input=Geometria-166-.com
 Output=Geometria-166-.log
 Initial command:
 /usr/local/g16/l1.exe "/home/padawan/israel-mol/dihydrobiliverdin/spectra/emi/Gau-29055.inp" -scrdir="/home/padawan/israel-mol/dihydrobiliverdin/spectra/emi/"
 Entering Link 1 = /usr/local/g16/l1.exe PID=     29057.
  
 Copyright (c) 1988,1990,1992,1993,1995,1998,2003,2009,2016,
            Gaussian, Inc.  All Rights Reserved.
  
 This is part of the Gaussian(R) 16 program.  It is based on
 the Gaussian(R) 09 system (copyright 2009, Gaussian, Inc.),
 the Gaussian(R) 03 system (copyright 2003, Gaussian, Inc.),
 the Gaussian(R) 98 system (copyright 1998, Gaussian, Inc.),
 the Gaussian(R) 94 system (copyright 1995, Gaussian, Inc.),
 the Gaussian 92(TM) system (copyright 1992, Gaussian, Inc.),
 the Gaussian 90(TM) system (copyright 1990, Gaussian, Inc.),
 the Gaussian 88(TM) system (copyright 1988, Gaussian, Inc.),
 the Gaussian 86(TM) system (copyright 1986, Carnegie Mellon
 University), and the Gaussian 82(TM) system (copyright 1983,
 Carnegie Mellon University). Gaussian is a federally registered
 trademark of Gaussian, Inc.
  
 This software contains proprietary and confidential information,
 including trade secrets, belonging to Gaussian, Inc.
  
 This software is provided under written license and may be
 used, copied, transmitted, or stored only in accord with that
 written license.
  
 The following legend is applicable only to US Government
 contracts under FAR:
  
                    RESTRICTED RIGHTS LEGEND
  
 Use, reproduction and disclosure by the US Government is
 subject to restrictions as set forth in subparagraphs (a)
 and (c) of the Commercial Computer Software - Restricted
 Rights clause in FAR 52.227-19.
  
 Gaussian, Inc.
 340 Quinnipiac St., Bldg. 40, Wallingford CT 06492
  
  
 ---------------------------------------------------------------
 Warning -- This program may not be used in any manner that
 competes with the business of Gaussian, Inc. or will provide
 assistance to any competitor of Gaussian, Inc.  The licensee
 of this program is prohibited from giving any competitor of
 Gaussian, Inc. access to this program.  By using this program,
 the user acknowledges that Gaussian, Inc. is engaged in the
 business of creating and licensing software in the field of
 computational chemistry and represents and warrants to the
 licensee that it is not a competitor of Gaussian, Inc. and that
 it will not use this program in any manner prohibited above.
 ---------------------------------------------------------------
  

 Cite this work as:
 Gaussian 16, Revision A.03,
 M. J. Frisch, G. W. Trucks, H. B. Schlegel, G. E. Scuseria, 
 M. A. Robb, J. R. Cheeseman, G. Scalmani, V. Barone, 
 G. A. Petersson, H. Nakatsuji, X. Li, M. Caricato, A. V. Marenich, 
 J. Bloino, B. G. Janesko, R. Gomperts, B. Mennucci, H. P. Hratchian, 
 J. V. Ortiz, A. F. Izmaylov, J. L. Sonnenberg, D. Williams-Young, 
 F. Ding, F. Lipparini, F. Egidi, J. Goings, B. Peng, A. Petrone, 
 T. Henderson, D. Ranasinghe, V. G. Zakrzewski, J. Gao, N. Rega, 
 G. Zheng, W. Liang, M. Hada, M. Ehara, K. Toyota, R. Fukuda, 
 J. Hasegawa, M. Ishida, T. Nakajima, Y. Honda, O. Kitao, H. Nakai, 
 T. Vreven, K. Throssell, J. A. Montgomery, Jr., J. E. Peralta, 
 F. Ogliaro, M. J. Bearpark, J. J. Heyd, E. N. Brothers, K. N. Kudin, 
 V. N. Staroverov, T. A. Keith, R. Kobayashi, J. Normand, 
 K. Raghavachari, A. P. Rendell, J. C. Burant, S. S. Iyengar, 
 J. Tomasi, M. Cossi, J. M. Millam, M. Klene, C. Adamo, R. Cammi, 
 J. W. Ochterski, R. L. Martin, K. Morokuma, O. Farkas, 
 J. B. Foresman, and D. J. Fox, Gaussian, Inc., Wallingford CT, 2016.
 
 ******************************************
 Gaussian 16:  ES64L-G16RevA.03 25-Dec-2016
                26-Jul-2019 
 ******************************************
 %nproc=4
 Will use up to    4 processors via shared memory.
 %Mem=3GB
 --------------------------
 # td=(NStates=1) B3LYP/SVP
 --------------------------
 1/38=1,172=1/1;
 2/12=2,17=6,18=5,40=1/2;
 3/5=18,7=101,11=9,25=1,30=1,74=-5/1,2,3,8;
 4//1;
 5/5=2,38=5/2;
 8/6=1,10=1,108=1/1;
 9/41=1,42=1,70=2/14;
 6/7=2,8=2,9=2,10=2/1;
 99/5=1,9=1/99;
 --
 TD
 --
 Symbolic Z-matrix:
 Charge =  0 Multiplicity = 1
 8                    -3.12612  -1.27731  -2.81886 
 8                     3.14591   3.02108   3.04328 
 8                     4.0626    1.29598   4.26898 
 8                     7.83742  -1.75252  -0.66801 
 8                     6.53672  -2.99993  -2.01667 
 8                    -2.67644   1.52996   1.35704 
 7                    -0.3666   -2.43237   0.89736 
 7                    -2.77833  -1.0828   -0.55645 
 7                     1.12439   0.10084  -0.70264 
 7                    -1.03538   1.4665   -0.22012 
 6                    -3.45474  -1.29127   0.71374 
 6                    -2.74635  -2.32925   1.66584 
 6                    -1.31101  -1.97883   1.75694 
 6                    -0.63664  -1.21613   2.78079 
 6                     0.69267  -1.06019   2.47095 
 6                     0.9085   -1.87055   1.17658 
 6                    -4.78492  -1.87329   0.22338 
 6                     1.88019  -0.3746    3.16735 
 6                    -4.80786  -2.03066  -1.10555 
 6                     2.02111  -1.91844   0.25506 
 6                     2.09356  -0.9112   -0.67877 
 6                    -3.53402  -1.43061  -1.6091 
 6                     2.97414  -0.58915  -1.70934 
 6                    -1.27712  -0.53798   3.97207 
 6                    -5.82318  -2.19299   1.27717 
 6                     2.58871   0.55638  -2.43056 
 6                     2.02165   1.06589   2.78291 
 6                     1.37615   0.9592   -1.7653 
 6                     4.32993  -1.40166  -1.91397 
 6                    -5.85499  -2.54744  -2.0251 
 6                     5.57314  -0.96752  -1.13324 
 6                     3.31406   1.26701  -3.49806 
 6                     0.46153   2.03097  -2.04877 
 6                     3.19794   1.72983   3.44805 
 6                    -0.59434   2.2873   -1.25263 
 6                    -6.93042  -3.23469  -1.58332 
 6                     6.68824  -1.95944  -1.23442 
 6                    -1.46471   3.48036  -1.31165 
 6                    -2.42412   3.29376  -0.32808 
 6                    -2.19478   2.09148   0.39082 
 6                    -1.33856   4.56647  -2.25619 
 6                    -3.57331   4.17063   0.18557 
 6                    -2.01975   5.76351  -2.32694 
 1                    -3.32576  -0.25809   1.24095 
 1                    -2.66138  -3.4031    1.23303 
 1                    -3.51603  -2.44076   2.80538 
 1                    -0.5192   -2.88496  -0.03204 
 1                    -2.02869  -0.34835  -0.84625 
 1                     1.7951   -0.46431   4.26464 
 1                     2.88188  -0.59744   2.73543 
 1                     2.80036  -2.66143   0.36697 
 1                    -1.93171  -1.21321   4.72543 
 1                    -0.34022   0.00934   4.4321 
 1                    -1.84928   0.41796   3.45142 
 1                    -5.46584  -1.56832   2.05042 
 1                    -5.8149   -3.30534   1.54922 
 1                    -6.70515  -1.82434   0.75586 
 1                     2.25026   0.93461   1.78066 
 1                     1.15852   1.6777    2.91542 
 1                     0.49949   0.27361   0.02106 
 1                     4.62242  -1.24792  -3.08766 
 1                     4.07856  -2.63594  -1.46132 
 1                    -5.62593  -2.47315  -3.16434 
 1                     5.32862  -0.74485  -0.04658 
 1                     5.78393   0.03258  -1.60539 
 1                     4.19391   0.66313  -3.8482 
 1                     3.54348   2.30047  -3.32399 
 1                     2.59748   1.36633  -4.40198 
 1                     0.8139    2.61663  -2.90693 
 1                    -7.02858  -3.58973  -0.54158 
 1                    -7.51786  -3.46881  -2.45352 
 1                     4.11042   3.46458   3.29505 
 1                    -0.56961   4.59854  -2.79426 
 1                    -4.27811   4.17567  -0.66783 
 1                    -4.19013   3.73158   1.0485 
 1                    -3.26142   5.14743   0.5235 
 1                     8.36287  -2.6136   -0.88256 
 1                    -1.62264   6.47831  -3.11838 
 1                    -2.78383   5.7976   -1.57033 
 
 Stoichiometry    C33H36N4O6
 Framework group  C1[X(C33H36N4O6)]
 Deg. of freedom   231
 Full point group                 C1      NOp   1
 Largest Abelian subgroup         C1      NOp   1
 Largest concise Abelian subgroup C1      NOp   1
                         Standard orientation:                         
 ---------------------------------------------------------------------
 Center     Atomic      Atomic             Coordinates (Angstroms)
 Number     Number       Type             X           Y           Z
 ---------------------------------------------------------------------
      1          8           0       -3.157353   -0.829092   -2.951339
      2          8           0        3.176747    2.516717    3.441152
      3          8           0        4.103137    0.623644    4.377500
      4          8           0        7.825965   -1.627133   -1.006832
      5          8           0        6.510647   -2.652267   -2.518714
      6          8           0       -2.663580    1.301627    1.602487
      7          7           0       -0.363311   -2.542040    0.515442
      8          7           0       -2.787350   -0.985271   -0.689478
      9          7           0        1.115256    0.207751   -0.689844
     10          7           0       -1.038009    1.482255    0.018375
     11          6           0       -3.451648   -1.387051    0.540011
     12          6           0       -2.735350   -2.559110    1.313906
     13          6           0       -1.298746   -2.226538    1.443826
     14          6           0       -0.613505   -1.630467    2.566263
     15          6           0        0.712930   -1.428329    2.271133
     16          6           0        0.915155   -2.029610    0.865352
     17          6           0       -4.787265   -1.886944   -0.021084
     18          6           0        1.908026   -0.857876    3.053150
     19          6           0       -4.823309   -1.837760   -1.358106
     20          6           0        2.018693   -1.934712   -0.063406
     21          6           0        2.083328   -0.795647   -0.831629
     22          6           0       -3.553669   -1.166986   -1.775682
     23          6           0        2.954260   -0.318486   -1.808881
     24          6           0       -1.241517   -1.144047    3.853997
     25          6           0       -5.815632   -2.365389    0.981014
     26          6           0        2.563283    0.924361   -2.341250
     27          6           0        2.047556    0.624672    2.893792
     28          6           0        1.357755    1.219606   -1.610047
     29          6           0        4.306973   -1.089442   -2.149474
     30          6           0       -5.879978   -2.207006   -2.335969
     31          6           0        5.558262   -0.780415   -1.323407
     32          6           0        3.279122    1.791103   -3.293619
     33          6           0        0.441771    2.322011   -1.716089
     34          6           0        3.231085    1.178544    3.641693
     35          6           0       -0.605991    2.452400   -0.879668
     36          6           0       -6.951926   -2.954370   -1.994795
     37          6           0        6.671072   -1.744638   -1.587076
     38          6           0       -1.475382    3.640091   -0.745706
     39          6           0       -2.425425    3.303986    0.206738
     40          6           0       -2.190629    2.005386    0.729609
     41          6           0       -1.357058    4.858753   -1.512888
     42          6           0       -3.568466    4.090988    0.860545
     43          6           0       -2.037388    6.052233   -1.391755
     44          1           0       -3.316251   -0.447372    1.218766
     45          1           0       -2.655936   -3.553462    0.720062
     46          1           0       -3.494058   -2.844995    2.430157
     47          1           0       -0.525499   -2.846120   -0.471035
     48          1           0       -2.039639   -0.214758   -0.870034
     49          1           0        1.833485   -1.115541    4.124311
     50          1           0        2.905183   -1.011283    2.582271
     51          1           0        2.798056   -2.685874   -0.074899
     52          1           0       -1.889605   -1.927420    4.500746
     53          1           0       -0.299511   -0.673879    4.383630
     54          1           0       -1.817514   -0.119466    3.492419
     55          1           0       -5.450008   -1.867187    1.837707
     56          1           0       -5.806112   -3.506374    1.078403
     57          1           0       -6.702161   -1.921071    0.531368
     58          1           0        2.266250    0.649385    1.881082
     59          1           0        1.186519    1.208553    3.127391
     60          1           0        0.497630    0.266840    0.057912
     61          1           0        4.588237   -0.756689   -3.288293
     62          1           0        4.058461   -2.378770   -1.889883
     63          1           0       -5.661911   -1.958080   -3.452367
     64          1           0        5.324591   -0.727836   -0.213081
     65          1           0        5.765710    0.280520   -1.637935
     66          1           0        4.154765    1.248588   -3.741194
     67          1           0        3.511522    2.785487   -2.964721
     68          1           0        2.553912    2.028285   -4.164400
     69          1           0        0.786519    3.032951   -2.477223
     70          1           0       -7.040410   -3.465650   -1.019261
     71          1           0       -7.548092   -3.051818   -2.884875
     72          1           0        4.144225    2.916383    3.748766
     73          1           0       -0.593330    4.973506   -2.047105
     74          1           0       -4.281517    4.227237    0.025049
     75          1           0       -4.177423    3.524115    1.651552
     76          1           0       -3.252084    5.004162    1.341807
     77          1           0        8.348220   -2.444764   -1.356580
     78          1           0       -1.647087    6.880498   -2.067515
     79          1           0       -2.794041    5.969191   -0.631481
 ---------------------------------------------------------------------
 Rotational constants (GHZ):           0.0933194           0.0498898           0.0475527
 Standard basis: SVP (5D, 7F)
 There are   825 symmetry adapted cartesian basis functions of A   symmetry.
 There are   782 symmetry adapted basis functions of A   symmetry.
   782 basis functions,  1327 primitive gaussians,   825 cartesian basis functions
   155 alpha electrons      155 beta electrons
       nuclear repulsion energy      5191.9406698188 Hartrees.
 NAtoms=   79 NActive=   79 NUniq=   79 SFac= 1.00D+00 NAtFMM=   60 NAOKFM=T Big=T
 Integral buffers will be    131072 words long.
 Regular integral format.
 Two-electron integral symmetry is turned on.
 One-electron integrals computed using PRISM.
 NBasis=   782 RedAO= T EigKep=  3.33D-04  NBF=   782
 NBsUse=   782 1.00D-06 EigRej= -1.00D+00 NBFU=   782
 ExpMin= 1.22D-01 ExpMax= 2.27D+03 ExpMxC= 3.41D+02 IAcc=3 IRadAn=         5 AccDes= 0.00D+00
 Harris functional with IExCor=  402 and IRadAn=       5 diagonalized for initial guess.
 HarFok:  IExCor=  402 AccDes= 0.00D+00 IRadAn=         5 IDoV= 1 UseB2=F ITyADJ=14
 ICtDFT=  3500011 ScaDFX=  1.000000  1.000000  1.000000  1.000000
 FoFCou: FMM=F IPFlag=           0 FMFlag=      100000 FMFlg1=        2001
         NFxFlg=           0 DoJE=T BraDBF=F KetDBF=T FulRan=T
         wScrn=  0.000000 ICntrl=       500 IOpCl=  0 I1Cent=   200000004 NGrid=           0
         NMat0=    1 NMatS0=      1 NMatT0=    0 NMatD0=    1 NMtDS0=    0 NMtDT0=    0
 Petite list used in FoFCou.
 Requested convergence on RMS density matrix=1.00D-08 within 128 cycles.
 Requested convergence on MAX density matrix=1.00D-06.
 Requested convergence on             energy=1.00D-06.
 No special actions if energy rises.
 Integral accuracy reduced to 1.0D-05 until final iterations.
 Initial convergence to 1.0D-05 achieved.  Increase integral accuracy.
 SCF Done:  E(RB3LYP) =  -1947.79935653     A.U. after   22 cycles
            NFock= 22  Conv=0.60D-08     -V/T= 2.0112
 DoSCS=F DFT=T ScalE2(SS,OS)=  1.000000  1.000000
 ExpMin= 1.22D-01 ExpMax= 2.27D+03 ExpMxC= 3.41D+02 IAcc=3 IRadAn=         5 AccDes= 0.00D+00
 HarFok:  IExCor=  205 AccDes= 0.00D+00 IRadAn=         5 IDoV=-2 UseB2=F ITyADJ=14
 ICtDFT= 12500011 ScaDFX=  1.000000  1.000000  1.000000  1.000000
 GSVD:  LWork=       -2193 too small for GESVD, short by        9890 words or        9890 for optimal perf.
 Range of M.O.s used for correlation:    44   782
 NBasis=   782 NAE=   155 NBE=   155 NFC=    43 NFV=     0
 NROrb=    739 NOA=   112 NOB=   112 NVA=   627 NVB=   627

 **** Warning!!: The smallest alpha delta epsilon is  0.52315910D-01

 Orbital symmetries:
       Occupied  (A) (A) (A) (A) (A) (A) (A) (A) (A) (A) (A) (A)
                 (A) (A) (A) (A) (A) (A) (A) (A) (A) (A) (A) (A)
                 (A) (A) (A) (A) (A) (A) (A) (A) (A) (A) (A) (A)
                 (A) (A) (A) (A) (A) (A) (A) (A) (A) (A) (A) (A)
                 (A) (A) (A) (A) (A) (A) (A) (A) (A) (A) (A) (A)
                 (A) (A) (A) (A) (A) (A) (A) (A) (A) (A) (A) (A)
                 (A) (A) (A) (A) (A) (A) (A) (A) (A) (A) (A) (A)
                 (A) (A) (A) (A) (A) (A) (A) (A) (A) (A) (A) (A)
                 (A) (A) (A) (A) (A) (A) (A) (A) (A) (A) (A) (A)
                 (A) (A) (A) (A) (A) (A) (A) (A) (A) (A) (A) (A)
                 (A) (A) (A) (A) (A) (A) (A) (A) (A) (A) (A) (A)
                 (A) (A) (A) (A) (A) (A) (A) (A) (A) (A) (A) (A)
                 (A) (A) (A) (A) (A) (A) (A) (A) (A) (A) (A)
       Virtual   (A) (A) (A) (A) (A) (A) (A) (A) (A) (A) (A) (A)
                 (A) (A) (A) (A) (A) (A) (A) (A) (A) (A) (A) (A)
                 (A) (A) (A) (A) (A) (A) (A) (A) (A) (A) (A) (A)
                 (A) (A) (A) (A) (A) (A) (A) (A) (A) (A) (A) (A)
                 (A) (A) (A) (A) (A) (A) (A) (A) (A) (A) (A) (A)
                 (A) (A) (A) (A) (A) (A) (A) (A) (A) (A) (A) (A)
                 (A) (A) (A) (A) (A) (A) (A) (A) (A) (A) (A) (A)
                 (A) (A) (A) (A) (A) (A) (A) (A) (A) (A) (A) (A)
                 (A) (A) (A) (A) (A) (A) (A) (A) (A) (A) (A) (A)
                 (A) (A) (A) (A) (A) (A) (A) (A) (A) (A) (A) (A)
                 (A) (A) (A) (A) (A) (A) (A) (A) (A) (A) (A) (A)
                 (A) (A) (A) (A) (A) (A) (A) (A) (A) (A) (A) (A)
                 (A) (A) (A) (A) (A) (A) (A) (A) (A) (A) (A) (A)
                 (A) (A) (A) (A) (A) (A) (A) (A) (A) (A) (A) (A)
                 (A) (A) (A) (A) (A) (A) (A) (A) (A) (A) (A) (A)
                 (A) (A) (A) (A) (A) (A) (A) (A) (A) (A) (A) (A)
                 (A) (A) (A) (A) (A) (A) (A) (A) (A) (A) (A) (A)
                 (A) (A) (A) (A) (A) (A) (A) (A) (A) (A) (A) (A)
                 (A) (A) (A) (A) (A) (A) (A) (A) (A) (A) (A) (A)
                 (A) (A) (A) (A) (A) (A) (A) (A) (A) (A) (A) (A)
                 (A) (A) (A) (A) (A) (A) (A) (A) (A) (A) (A) (A)
                 (A) (A) (A) (A) (A) (A) (A) (A) (A) (A) (A) (A)
                 (A) (A) (A) (A) (A) (A) (A) (A) (A) (A) (A) (A)
                 (A) (A) (A) (A) (A) (A) (A) (A) (A) (A) (A) (A)
                 (A) (A) (A) (A) (A) (A) (A) (A) (A) (A) (A) (A)
                 (A) (A) (A) (A) (A) (A) (A) (A) (A) (A) (A) (A)
                 (A) (A) (A) (A) (A) (A) (A) (A) (A) (A) (A) (A)
                 (A) (A) (A) (A) (A) (A) (A) (A) (A) (A) (A) (A)
                 (A) (A) (A) (A) (A) (A) (A) (A) (A) (A) (A) (A)
                 (A) (A) (A) (A) (A) (A) (A) (A) (A) (A) (A) (A)
                 (A) (A) (A) (A) (A) (A) (A) (A) (A) (A) (A) (A)
                 (A) (A) (A) (A) (A) (A) (A) (A) (A) (A) (A) (A)
                 (A) (A) (A) (A) (A) (A) (A) (A) (A) (A) (A) (A)
                 (A) (A) (A) (A) (A) (A) (A) (A) (A) (A) (A) (A)
                 (A) (A) (A) (A) (A) (A) (A) (A) (A) (A) (A) (A)
                 (A) (A) (A) (A) (A) (A) (A) (A) (A) (A) (A) (A)
                 (A) (A) (A) (A) (A) (A) (A) (A) (A) (A) (A) (A)
                 (A) (A) (A) (A) (A) (A) (A) (A) (A) (A) (A) (A)
                 (A) (A) (A) (A) (A) (A) (A) (A) (A) (A) (A) (A)
                 (A) (A) (A) (A) (A) (A) (A) (A) (A) (A) (A) (A)
                 (A) (A) (A) (A) (A) (A) (A) (A) (A) (A) (A) (A)
                 (A) (A) (A) (A) (A) (A) (A) (A) (A) (A) (A) (A)
                 (A) (A) (A) (A) (A) (A) (A) (A) (A) (A) (A) (A)
                 (A) (A) (A) (A) (A) (A) (A) (A) (A) (A) (A) (A)
                 (A) (A) (A) (A) (A) (A) (A) (A) (A) (A) (A) (A)
                 (A) (A) (A) (A) (A) (A) (A) (A) (A) (A) (A) (A)
                 (A) (A) (A) (A) (A) (A) (A) (A) (A) (A) (A) (A)
                 (A) (A) (A) (A) (A) (A) (A) (A) (A) (A) (A) (A)
                 (A) (A) (A) (A) (A) (A) (A) (A) (A) (A) (A) (A)
                 (A) (A) (A) (A) (A) (A) (A) (A) (A) (A) (A) (A)
                 (A) (A) (A) (A) (A) (A) (A) (A) (A) (A) (A) (A)
                 (A) (A) (A) (A) (A) (A) (A) (A) (A) (A) (A) (A)
                 (A) (A) (A)
     4 initial guesses have been made.
 Convergence on wavefunction:    0.001000000000000
 Iteration     1 Dimension     4 NMult     0 NNew      4
 CISAX will form     4 AO SS matrices at one time.
 Iteration     2 Dimension     6 NMult     4 NNew      2
 Iteration     3 Dimension     8 NMult     6 NNew      2
 Iteration     4 Dimension    10 NMult     8 NNew      2
 Iteration     5 Dimension    12 NMult    10 NNew      2
 ***********************************************************************
 Excited states from <AA,BB:AA,BB> singles matrix:
 ***********************************************************************
 
 Ground to excited state transition densities written to RWF  633
 Ground to excited state transition electric dipole moments (Au):
       state          X           Y           Z        Dip. S.      Osc.
         1         0.1283      0.1834     -0.0944      0.0590      0.0010
 Ground to excited state transition velocity dipole moments (Au):
       state          X           Y           Z        Dip. S.      Osc.
         1        -0.0015     -0.0040      0.0017      0.0000      0.0006
 Ground to excited state transition magnetic dipole moments (Au):
       state          X           Y           Z
         1         0.0004      0.0608      0.1560
 Ground to excited state transition velocity quadrupole moments (Au):
       state          XX          YY          ZZ          XY          XZ          YZ
         1         0.0109     -0.0079      0.0039      0.0293      0.0093     -0.0009
 <0|del|b> * <b|rxdel|0> + <0|del|b> * <b|delr+rdel|0>
 Rotatory Strengths (R) in cgs (10**-40 erg-esu-cm/Gauss)
       state          XX          YY          ZZ    R(velocity)    E-M Angle
         1         1.6642      3.1204     -3.9556      0.2763       90.00
 1/2[<0|r|b>*<b|rxdel|0> + (<0|rxdel|b>*<b|r|0>)*]
 Rotatory Strengths (R) in cgs (10**-40 erg-esu-cm/Gauss)
       state          XX          YY          ZZ     R(length)
         1        -0.0326     -7.8810     10.4126      0.8330
  1/2[<0|del|b>*<b|r|0> + (<0|r|b>*<b|del|0>)*] (Au)
       state          X           Y           Z        Dip. S.   Osc.(frdel)
         1        -0.0002     -0.0007     -0.0002      0.0011      0.0007

 Excitation energies and oscillator strengths:
 
 Excited State   1:      Singlet-A      0.6826 eV 1816.37 nm  f=0.0010  <S**2>=0.000
     155 ->156         0.70228
 This state for optimization and/or second-order correction.
 Total Energy, E(TD-HF/TD-DFT) =  -1947.77427170    
 Copying the excited state density for this state as the 1-particle RhoCI density.
 SavETr:  write IOETrn=   770 NScale= 10 NData=  16 NLR=1 NState=    1 LETran=      28.

 **********************************************************************

            Population analysis using the SCF density.

 **********************************************************************

 Orbital symmetries:
       Occupied  (A) (A) (A) (A) (A) (A) (A) (A) (A) (A) (A) (A)
                 (A) (A) (A) (A) (A) (A) (A) (A) (A) (A) (A) (A)
                 (A) (A) (A) (A) (A) (A) (A) (A) (A) (A) (A) (A)
                 (A) (A) (A) (A) (A) (A) (A) (A) (A) (A) (A) (A)
                 (A) (A) (A) (A) (A) (A) (A) (A) (A) (A) (A) (A)
                 (A) (A) (A) (A) (A) (A) (A) (A) (A) (A) (A) (A)
                 (A) (A) (A) (A) (A) (A) (A) (A) (A) (A) (A) (A)
                 (A) (A) (A) (A) (A) (A) (A) (A) (A) (A) (A) (A)
                 (A) (A) (A) (A) (A) (A) (A) (A) (A) (A) (A) (A)
                 (A) (A) (A) (A) (A) (A) (A) (A) (A) (A) (A) (A)
                 (A) (A) (A) (A) (A) (A) (A) (A) (A) (A) (A) (A)
                 (A) (A) (A) (A) (A) (A) (A) (A) (A) (A) (A) (A)
                 (A) (A) (A) (A) (A) (A) (A) (A) (A) (A) (A)
       Virtual   (A) (A) (A) (A) (A) (A) (A) (A) (A) (A) (A) (A)
                 (A) (A) (A) (A) (A) (A) (A) (A) (A) (A) (A) (A)
                 (A) (A) (A) (A) (A) (A) (A) (A) (A) (A) (A) (A)
                 (A) (A) (A) (A) (A) (A) (A) (A) (A) (A) (A) (A)
                 (A) (A) (A) (A) (A) (A) (A) (A) (A) (A) (A) (A)
                 (A) (A) (A) (A) (A) (A) (A) (A) (A) (A) (A) (A)
                 (A) (A) (A) (A) (A) (A) (A) (A) (A) (A) (A) (A)
                 (A) (A) (A) (A) (A) (A) (A) (A) (A) (A) (A) (A)
                 (A) (A) (A) (A) (A) (A) (A) (A) (A) (A) (A) (A)
                 (A) (A) (A) (A) (A) (A) (A) (A) (A) (A) (A) (A)
                 (A) (A) (A) (A) (A) (A) (A) (A) (A) (A) (A) (A)
                 (A) (A) (A) (A) (A) (A) (A) (A) (A) (A) (A) (A)
                 (A) (A) (A) (A) (A) (A) (A) (A) (A) (A) (A) (A)
                 (A) (A) (A) (A) (A) (A) (A) (A) (A) (A) (A) (A)
                 (A) (A) (A) (A) (A) (A) (A) (A) (A) (A) (A) (A)
                 (A) (A) (A) (A) (A) (A) (A) (A) (A) (A) (A) (A)
                 (A) (A) (A) (A) (A) (A) (A) (A) (A) (A) (A) (A)
                 (A) (A) (A) (A) (A) (A) (A) (A) (A) (A) (A) (A)
                 (A) (A) (A) (A) (A) (A) (A) (A) (A) (A) (A) (A)
                 (A) (A) (A) (A) (A) (A) (A) (A) (A) (A) (A) (A)
                 (A) (A) (A) (A) (A) (A) (A) (A) (A) (A) (A) (A)
                 (A) (A) (A) (A) (A) (A) (A) (A) (A) (A) (A) (A)
                 (A) (A) (A) (A) (A) (A) (A) (A) (A) (A) (A) (A)
                 (A) (A) (A) (A) (A) (A) (A) (A) (A) (A) (A) (A)
                 (A) (A) (A) (A) (A) (A) (A) (A) (A) (A) (A) (A)
                 (A) (A) (A) (A) (A) (A) (A) (A) (A) (A) (A) (A)
                 (A) (A) (A) (A) (A) (A) (A) (A) (A) (A) (A) (A)
                 (A) (A) (A) (A) (A) (A) (A) (A) (A) (A) (A) (A)
                 (A) (A) (A) (A) (A) (A) (A) (A) (A) (A) (A) (A)
                 (A) (A) (A) (A) (A) (A) (A) (A) (A) (A) (A) (A)
                 (A) (A) (A) (A) (A) (A) (A) (A) (A) (A) (A) (A)
                 (A) (A) (A) (A) (A) (A) (A) (A) (A) (A) (A) (A)
                 (A) (A) (A) (A) (A) (A) (A) (A) (A) (A) (A) (A)
                 (A) (A) (A) (A) (A) (A) (A) (A) (A) (A) (A) (A)
                 (A) (A) (A) (A) (A) (A) (A) (A) (A) (A) (A) (A)
                 (A) (A) (A) (A) (A) (A) (A) (A) (A) (A) (A) (A)
                 (A) (A) (A) (A) (A) (A) (A) (A) (A) (A) (A) (A)
                 (A) (A) (A) (A) (A) (A) (A) (A) (A) (A) (A) (A)
                 (A) (A) (A) (A) (A) (A) (A) (A) (A) (A) (A) (A)
                 (A) (A) (A) (A) (A) (A) (A) (A) (A) (A) (A) (A)
                 (A) (A) (A) (A) (A) (A) (A) (A) (A) (A) (A) (A)
                 (A) (A) (A) (A) (A) (A) (A) (A) (A) (A) (A) (A)
                 (A) (A) (A) (A) (A) (A) (A) (A) (A) (A) (A) (A)
                 (A) (A) (A) (A) (A) (A) (A) (A) (A) (A) (A) (A)
                 (A) (A) (A) (A) (A) (A) (A) (A) (A) (A) (A) (A)
                 (A) (A) (A) (A) (A) (A) (A) (A) (A) (A) (A) (A)
                 (A) (A) (A) (A) (A) (A) (A) (A) (A) (A) (A) (A)
                 (A) (A) (A) (A) (A) (A) (A) (A) (A) (A) (A) (A)
                 (A) (A) (A) (A) (A) (A) (A) (A) (A) (A) (A) (A)
                 (A) (A) (A) (A) (A) (A) (A) (A) (A) (A) (A) (A)
                 (A) (A) (A) (A) (A) (A) (A) (A) (A) (A) (A) (A)
                 (A) (A) (A) (A) (A) (A) (A) (A) (A) (A) (A) (A)
                 (A) (A) (A)
 The electronic state is 1-A.
 Alpha  occ. eigenvalues --  -19.21808 -19.19231 -19.13043 -19.12729 -19.12484
 Alpha  occ. eigenvalues --  -19.06223 -14.38260 -14.37010 -14.32321 -14.29401
 Alpha  occ. eigenvalues --  -10.34141 -10.32445 -10.27549 -10.27022 -10.25292
 Alpha  occ. eigenvalues --  -10.25167 -10.25012 -10.24122 -10.23823 -10.23524
 Alpha  occ. eigenvalues --  -10.23359 -10.23183 -10.22778 -10.22397 -10.22347
 Alpha  occ. eigenvalues --  -10.21975 -10.21521 -10.21277 -10.21047 -10.20921
 Alpha  occ. eigenvalues --  -10.20856 -10.20134 -10.20055 -10.19802 -10.19777
 Alpha  occ. eigenvalues --  -10.19455 -10.19397 -10.19208 -10.19043 -10.18819
 Alpha  occ. eigenvalues --  -10.17997 -10.17924 -10.17351  -1.12357  -1.07732
 Alpha  occ. eigenvalues --   -1.03426  -0.99768  -0.98015  -0.97399  -0.97329
 Alpha  occ. eigenvalues --   -0.95928  -0.91793  -0.89913  -0.83690  -0.82954
 Alpha  occ. eigenvalues --   -0.81564  -0.80986  -0.80164  -0.79510  -0.78611
 Alpha  occ. eigenvalues --   -0.77281  -0.76427  -0.75590  -0.74655  -0.73705
 Alpha  occ. eigenvalues --   -0.70792  -0.70052  -0.69546  -0.68584  -0.67138
 Alpha  occ. eigenvalues --   -0.66043  -0.65737  -0.63452  -0.61707  -0.60669
 Alpha  occ. eigenvalues --   -0.59453  -0.58836  -0.58071  -0.57857  -0.56885
 Alpha  occ. eigenvalues --   -0.55660  -0.55106  -0.54703  -0.52742  -0.52517
 Alpha  occ. eigenvalues --   -0.51942  -0.51810  -0.51443  -0.50639  -0.50233
 Alpha  occ. eigenvalues --   -0.49909  -0.49646  -0.48940  -0.48728  -0.48224
 Alpha  occ. eigenvalues --   -0.47375  -0.47207  -0.46470  -0.46402  -0.45583
 Alpha  occ. eigenvalues --   -0.45421  -0.44934  -0.44591  -0.44259  -0.44094
 Alpha  occ. eigenvalues --   -0.43589  -0.43078  -0.42890  -0.42772  -0.42461
 Alpha  occ. eigenvalues --   -0.42225  -0.41574  -0.41281  -0.41177  -0.40757
 Alpha  occ. eigenvalues --   -0.40570  -0.40354  -0.40271  -0.39799  -0.39467
 Alpha  occ. eigenvalues --   -0.39156  -0.38451  -0.38149  -0.37620  -0.37187
 Alpha  occ. eigenvalues --   -0.37112  -0.36694  -0.36225  -0.36102  -0.36035
 Alpha  occ. eigenvalues --   -0.35959  -0.35181  -0.34810  -0.34691  -0.34234
 Alpha  occ. eigenvalues --   -0.33745  -0.33449  -0.31876  -0.31845  -0.31727
 Alpha  occ. eigenvalues --   -0.31658  -0.29795  -0.28795  -0.28279  -0.28088
 Alpha  occ. eigenvalues --   -0.27978  -0.27106  -0.25316  -0.24001  -0.23722
 Alpha  occ. eigenvalues --   -0.22755  -0.22405  -0.21947  -0.21393  -0.18556
 Alpha virt. eigenvalues --   -0.13324  -0.08746  -0.03539  -0.03292  -0.01914
 Alpha virt. eigenvalues --   -0.01255   0.00265   0.00971   0.01852   0.02402
 Alpha virt. eigenvalues --    0.02452   0.03068   0.03257   0.03740   0.04611
 Alpha virt. eigenvalues --    0.05518   0.05737   0.06377   0.06580   0.06648
 Alpha virt. eigenvalues --    0.07022   0.07698   0.07827   0.08491   0.08998
 Alpha virt. eigenvalues --    0.09640   0.10334   0.10461   0.10618   0.10902
 Alpha virt. eigenvalues --    0.11185   0.11552   0.11823   0.11930   0.12289
 Alpha virt. eigenvalues --    0.12523   0.13264   0.13500   0.13870   0.14052
 Alpha virt. eigenvalues --    0.14424   0.14766   0.14972   0.15832   0.16193
 Alpha virt. eigenvalues --    0.16367   0.16703   0.17085   0.17481   0.17679
 Alpha virt. eigenvalues --    0.18317   0.19257   0.19672   0.20005   0.20445
 Alpha virt. eigenvalues --    0.20646   0.21133   0.21572   0.21813   0.22506
 Alpha virt. eigenvalues --    0.22719   0.23383   0.23512   0.24093   0.24166
 Alpha virt. eigenvalues --    0.24940   0.25610   0.25836   0.25971   0.26546
 Alpha virt. eigenvalues --    0.26963   0.27690   0.28053   0.28409   0.28933
 Alpha virt. eigenvalues --    0.29561   0.29994   0.30650   0.31188   0.31478
 Alpha virt. eigenvalues --    0.31577   0.32368   0.32796   0.33437   0.33843
 Alpha virt. eigenvalues --    0.34211   0.34769   0.35505   0.35815   0.36614
 Alpha virt. eigenvalues --    0.37092   0.37393   0.37803   0.38796   0.39644
 Alpha virt. eigenvalues --    0.39836   0.40290   0.40673   0.40977   0.41259
 Alpha virt. eigenvalues --    0.41910   0.42374   0.42567   0.42712   0.42893
 Alpha virt. eigenvalues --    0.43684   0.43878   0.44351   0.44980   0.45356
 Alpha virt. eigenvalues --    0.45396   0.45470   0.46103   0.46424   0.46629
 Alpha virt. eigenvalues --    0.46821   0.47181   0.47704   0.47797   0.48014
 Alpha virt. eigenvalues --    0.48477   0.48622   0.49038   0.49313   0.49617
 Alpha virt. eigenvalues --    0.49799   0.50475   0.50781   0.51038   0.51143
 Alpha virt. eigenvalues --    0.51522   0.52202   0.52466   0.52613   0.53019
 Alpha virt. eigenvalues --    0.53082   0.53366   0.54194   0.54673   0.54711
 Alpha virt. eigenvalues --    0.55272   0.55862   0.56134   0.56400   0.56706
 Alpha virt. eigenvalues --    0.56833   0.57226   0.57550   0.58122   0.58448
 Alpha virt. eigenvalues --    0.58713   0.59208   0.59488   0.59776   0.60197
 Alpha virt. eigenvalues --    0.60546   0.60788   0.61273   0.61526   0.61619
 Alpha virt. eigenvalues --    0.61972   0.62222   0.62351   0.62592   0.62704
 Alpha virt. eigenvalues --    0.63051   0.63172   0.63587   0.64001   0.64245
 Alpha virt. eigenvalues --    0.64466   0.64642   0.64928   0.65142   0.65340
 Alpha virt. eigenvalues --    0.65642   0.65679   0.66233   0.66585   0.66992
 Alpha virt. eigenvalues --    0.67224   0.67404   0.67536   0.68223   0.68316
 Alpha virt. eigenvalues --    0.68472   0.68760   0.68905   0.69293   0.69512
 Alpha virt. eigenvalues --    0.69814   0.69982   0.70369   0.70511   0.70675
 Alpha virt. eigenvalues --    0.71424   0.71639   0.72196   0.72554   0.72756
 Alpha virt. eigenvalues --    0.73073   0.73249   0.73995   0.74499   0.74633
 Alpha virt. eigenvalues --    0.75232   0.75688   0.75857   0.76167   0.76347
 Alpha virt. eigenvalues --    0.77361   0.77792   0.78617   0.78918   0.79813
 Alpha virt. eigenvalues --    0.79862   0.80573   0.80927   0.81271   0.81524
 Alpha virt. eigenvalues --    0.82354   0.83206   0.83433   0.84228   0.84670
 Alpha virt. eigenvalues --    0.85204   0.85512   0.86168   0.87008   0.87804
 Alpha virt. eigenvalues --    0.87989   0.89202   0.89913   0.90086   0.90794
 Alpha virt. eigenvalues --    0.91667   0.92464   0.92746   0.93477   0.93872
 Alpha virt. eigenvalues --    0.94601   0.95217   0.95565   0.95823   0.96257
 Alpha virt. eigenvalues --    0.97287   0.97833   0.97907   0.98555   0.98837
 Alpha virt. eigenvalues --    0.99553   1.00148   1.01283   1.02074   1.02728
 Alpha virt. eigenvalues --    1.03749   1.04414   1.05222   1.06120   1.06770
 Alpha virt. eigenvalues --    1.07088   1.07998   1.08850   1.09319   1.09830
 Alpha virt. eigenvalues --    1.10931   1.11259   1.12322   1.12424   1.12776
 Alpha virt. eigenvalues --    1.13220   1.13908   1.14633   1.15114   1.15348
 Alpha virt. eigenvalues --    1.15931   1.16894   1.17775   1.18717   1.19216
 Alpha virt. eigenvalues --    1.19618   1.20515   1.20599   1.21575   1.22037
 Alpha virt. eigenvalues --    1.22700   1.23091   1.23192   1.23843   1.24759
 Alpha virt. eigenvalues --    1.25561   1.25738   1.26612   1.28180   1.28798
 Alpha virt. eigenvalues --    1.29001   1.29605   1.30159   1.30366   1.30458
 Alpha virt. eigenvalues --    1.31767   1.32165   1.32605   1.33148   1.34356
 Alpha virt. eigenvalues --    1.34675   1.35380   1.35757   1.36409   1.37153
 Alpha virt. eigenvalues --    1.38192   1.38717   1.39052   1.39142   1.40771
 Alpha virt. eigenvalues --    1.42300   1.42816   1.43608   1.44061   1.45348
 Alpha virt. eigenvalues --    1.45599   1.46645   1.47069   1.47680   1.48092
 Alpha virt. eigenvalues --    1.48348   1.49097   1.49329   1.49570   1.50059
 Alpha virt. eigenvalues --    1.50566   1.51278   1.51400   1.51781   1.52124
 Alpha virt. eigenvalues --    1.53403   1.54042   1.54940   1.56239   1.57087
 Alpha virt. eigenvalues --    1.57286   1.57598   1.58777   1.58902   1.59271
 Alpha virt. eigenvalues --    1.59385   1.60037   1.60836   1.61137   1.62159
 Alpha virt. eigenvalues --    1.62321   1.62806   1.63022   1.63640   1.64322
 Alpha virt. eigenvalues --    1.65082   1.65354   1.65706   1.66286   1.66467
 Alpha virt. eigenvalues --    1.66825   1.67203   1.67460   1.67899   1.68144
 Alpha virt. eigenvalues --    1.68393   1.69068   1.69316   1.69907   1.70488
 Alpha virt. eigenvalues --    1.71235   1.71873   1.72286   1.72954   1.73128
 Alpha virt. eigenvalues --    1.73391   1.73522   1.73950   1.74510   1.74852
 Alpha virt. eigenvalues --    1.74993   1.75601   1.75890   1.76214   1.76826
 Alpha virt. eigenvalues --    1.77926   1.78105   1.78202   1.78628   1.78817
 Alpha virt. eigenvalues --    1.79167   1.79729   1.79990   1.80412   1.80731
 Alpha virt. eigenvalues --    1.81083   1.81302   1.81885   1.82724   1.83433
 Alpha virt. eigenvalues --    1.83882   1.84749   1.84838   1.85224   1.85636
 Alpha virt. eigenvalues --    1.85982   1.86126   1.86745   1.87086   1.87198
 Alpha virt. eigenvalues --    1.87821   1.88332   1.88974   1.89128   1.89590
 Alpha virt. eigenvalues --    1.90379   1.91048   1.91564   1.91953   1.92769
 Alpha virt. eigenvalues --    1.93362   1.93654   1.93852   1.93943   1.94646
 Alpha virt. eigenvalues --    1.95142   1.95604   1.96161   1.96707   1.97727
 Alpha virt. eigenvalues --    1.98006   1.98791   1.99322   2.00077   2.00320
 Alpha virt. eigenvalues --    2.00864   2.01426   2.01806   2.02137   2.02777
 Alpha virt. eigenvalues --    2.03163   2.03570   2.03905   2.03988   2.04289
 Alpha virt. eigenvalues --    2.04894   2.05269   2.05853   2.06141   2.06698
 Alpha virt. eigenvalues --    2.07333   2.07491   2.08208   2.08383   2.09288
 Alpha virt. eigenvalues --    2.09538   2.10545   2.11065   2.11706   2.11938
 Alpha virt. eigenvalues --    2.12848   2.13530   2.14024   2.14243   2.14706
 Alpha virt. eigenvalues --    2.15158   2.15507   2.16344   2.17989   2.18232
 Alpha virt. eigenvalues --    2.18732   2.19181   2.19469   2.19909   2.20539
 Alpha virt. eigenvalues --    2.21517   2.21686   2.22554   2.22940   2.23680
 Alpha virt. eigenvalues --    2.23931   2.24787   2.26388   2.26523   2.27137
 Alpha virt. eigenvalues --    2.27654   2.28720   2.29404   2.29642   2.30536
 Alpha virt. eigenvalues --    2.31788   2.32271   2.33683   2.34166   2.34979
 Alpha virt. eigenvalues --    2.35478   2.36393   2.36442   2.36957   2.37153
 Alpha virt. eigenvalues --    2.38383   2.39061   2.39586   2.40449   2.40920
 Alpha virt. eigenvalues --    2.41306   2.41483   2.42918   2.43732   2.44829
 Alpha virt. eigenvalues --    2.45356   2.45679   2.46082   2.47959   2.48719
 Alpha virt. eigenvalues --    2.49446   2.50024   2.51750   2.53354   2.53993
 Alpha virt. eigenvalues --    2.54238   2.55070   2.56006   2.56908   2.57198
 Alpha virt. eigenvalues --    2.57333   2.58579   2.58896   2.60133   2.60447
 Alpha virt. eigenvalues --    2.61232   2.61938   2.63114   2.63470   2.64181
 Alpha virt. eigenvalues --    2.64615   2.64769   2.65317   2.65902   2.66509
 Alpha virt. eigenvalues --    2.66742   2.67626   2.68048   2.69429   2.69880
 Alpha virt. eigenvalues --    2.70937   2.71769   2.72234   2.72353   2.72947
 Alpha virt. eigenvalues --    2.73568   2.73792   2.74370   2.74683   2.76560
 Alpha virt. eigenvalues --    2.77135   2.77491   2.78129   2.78547   2.79141
 Alpha virt. eigenvalues --    2.79430   2.80109   2.81785   2.83061   2.83312
 Alpha virt. eigenvalues --    2.84521   2.85051   2.85925   2.86361   2.86803
 Alpha virt. eigenvalues --    2.87347   2.87786   2.89133   2.90306   2.90670
 Alpha virt. eigenvalues --    2.91348   2.91940   2.92452   2.93411   2.93634
 Alpha virt. eigenvalues --    2.94408   2.95235   2.96898   2.97928   2.98508
 Alpha virt. eigenvalues --    2.99331   3.00161   3.00933   3.01921   3.02400
 Alpha virt. eigenvalues --    3.03500   3.04499   3.05107   3.07018   3.08399
 Alpha virt. eigenvalues --    3.09512   3.09723   3.11445   3.11999   3.13055
 Alpha virt. eigenvalues --    3.14031   3.14361   3.17158   3.17407   3.19621
 Alpha virt. eigenvalues --    3.19714   3.20418   3.23746   3.27005   3.29555
 Alpha virt. eigenvalues --    3.31810   3.34442   3.37433   3.37755   3.40627
 Alpha virt. eigenvalues --    3.42456   3.44562   3.49409   3.52296   3.53319
 Alpha virt. eigenvalues --    3.54026   3.57608   3.61159   3.64802   3.66135
 Alpha virt. eigenvalues --    3.68757   3.71408
          Condensed to atoms (all electrons):
 Mulliken charges:
               1
     1  O   -0.329420
     2  O   -0.240370
     3  O   -0.273771
     4  O   -0.143042
     5  O   -0.330541
     6  O   -0.195271
     7  N   -0.060116
     8  N   -0.206108
     9  N   -0.071589
    10  N   -0.372061
    11  C    0.042894
    12  C    0.064753
    13  C   -0.041324
    14  C   -0.120703
    15  C   -0.075845
    16  C   -0.058189
    17  C   -0.220463
    18  C    0.099620
    19  C   -0.003316
    20  C   -0.100734
    21  C    0.142473
    22  C    0.107242
    23  C   -0.059548
    24  C   -0.020088
    25  C    0.111301
    26  C   -0.091391
    27  C    0.042220
    28  C    0.062617
    29  C   -0.071046
    30  C   -0.061747
    31  C    0.020874
    32  C    0.090175
    33  C   -0.097937
    34  C    0.157850
    35  C    0.188267
    36  C   -0.009551
    37  C    0.166116
    38  C    0.100769
    39  C   -0.219530
    40  C    0.181839
    41  C    0.014776
    42  C    0.072906
    43  C    0.020918
    44  H    0.095817
    45  H    0.000167
    46  H    0.043361
    47  H    0.137517
    48  H    0.168785
    49  H    0.026167
    50  H   -0.009495
    51  H    0.008102
    52  H    0.051040
    53  H    0.007212
    54  H    0.069951
    55  H    0.011753
    56  H    0.055718
    57  H    0.040775
    58  H    0.000417
    59  H    0.038261
    60  H    0.148335
    61  H    0.056058
    62  H    0.069591
    63  H    0.038183
    64  H    0.048982
    65  H    0.047111
    66  H    0.026973
    67  H    0.032458
    68  H    0.041607
    69  H   -0.024323
    70  H    0.026795
    71  H    0.017982
    72  H    0.227525
    73  H   -0.110472
    74  H    0.038873
    75  H    0.036351
    76  H    0.041902
    77  H    0.224788
    78  H    0.050565
    79  H    0.001254
 Sum of Mulliken charges =  -0.00000
 Mulliken charges with hydrogens summed into heavy atoms:
               1
     1  O   -0.329420
     2  O   -0.012845
     3  O   -0.273771
     4  O    0.081746
     5  O   -0.330541
     6  O   -0.195271
     7  N    0.077401
     8  N   -0.037323
     9  N    0.076746
    10  N   -0.372061
    11  C    0.138712
    12  C    0.108282
    13  C   -0.041324
    14  C   -0.120703
    15  C   -0.075845
    16  C   -0.058189
    17  C   -0.220463
    18  C    0.116292
    19  C   -0.003316
    20  C   -0.092632
    21  C    0.142473
    22  C    0.107242
    23  C   -0.059548
    24  C    0.108115
    25  C    0.219547
    26  C   -0.091391
    27  C    0.080899
    28  C    0.062617
    29  C    0.054603
    30  C   -0.023563
    31  C    0.116968
    32  C    0.191214
    33  C   -0.122260
    34  C    0.157850
    35  C    0.188267
    36  C    0.035226
    37  C    0.166116
    38  C    0.100769
    39  C   -0.219530
    40  C    0.181839
    41  C   -0.095696
    42  C    0.190032
    43  C    0.072737
 Electronic spatial extent (au):  <R**2>=          25881.4006
 Charge=              0.0000 electrons
 Dipole moment (field-independent basis, Debye):
    X=              4.6142    Y=              4.1278    Z=             -0.4448  Tot=              6.2071
 Quadrupole moment (field-independent basis, Debye-Ang):
   XX=           -232.1099   YY=           -229.9058   ZZ=           -277.5568
   XY=             10.8551   XZ=            -22.6303   YZ=            -11.2844
 Traceless Quadrupole moment (field-independent basis, Debye-Ang):
   XX=             14.4142   YY=             16.6184   ZZ=            -31.0326
   XY=             10.8551   XZ=            -22.6303   YZ=            -11.2844
 Octapole moment (field-independent basis, Debye-Ang**2):
  XXX=            258.8436  YYY=            103.8239  ZZZ=            -10.7562  XYY=              7.4503
  XXY=             -1.9302  XXZ=              2.9390  XZZ=             -2.4119  YZZ=             77.4805
  YYZ=              5.0187  XYZ=             -9.6911
 Hexadecapole moment (field-independent basis, Debye-Ang**3):
 XXXX=         -17742.0082 YYYY=          -7748.7904 ZZZZ=          -7031.5592 XXXY=           -322.0604
 XXXZ=           -329.1689 YYYX=            -58.9441 YYYZ=            -55.8035 ZZZX=           -281.2202
 ZZZY=             15.7602 XXYY=          -4282.5637 XXZZ=          -4841.8191 YYZZ=          -2403.4498
 XXYZ=            -32.4368 YYXZ=            135.2173 ZZXY=            296.4381
 N-N= 5.191940669819D+03 E-N=-1.491228722533D+04  KE= 1.926292874222D+03
 1\1\GINC-PADAWAN\SP\RB3LYP TD-FC\SVP\C33H36N4O6\PADAWAN\26-Jul-2019\0\
 \# td=(NStates=1) B3LYP/SVP\\TD\\0,1\O,0,-3.1261195222,-1.2773127868,-
 2.8188625406\O,0,3.1459050453,3.0210837669,3.0432785988\O,0,4.06260056
 83,1.295976726,4.2689813417\O,0,7.8374223451,-1.7525213663,-0.66800756
 26\O,0,6.5367178282,-2.999930788,-2.0166681149\O,0,-2.6764385504,1.529
 9584849,1.3570357641\N,0,-0.3666024064,-2.4323695513,0.8973645773\N,0,
 -2.778329871,-1.0828034153,-0.5564477894\N,0,1.1243939888,0.1008409938
 ,-0.7026352007\N,0,-1.0353826838,1.4665020581,-0.2201229102\C,0,-3.454
 7406238,-1.2912666891,0.7137383477\C,0,-2.7463532614,-2.3292470709,1.6
 65841891\C,0,-1.3110067424,-1.9788256966,1.756943683\C,0,-0.6366434666
 ,-1.216132805,2.7807860991\C,0,0.6926703796,-1.0601910201,2.4709482894
 \C,0,0.9085035366,-1.87055349,1.1765824622\C,0,-4.7849234389,-1.873292
 978,0.2233792252\C,0,1.8801926107,-0.3745977894,3.1673488894\C,0,-4.80
 78571471,-2.0306617746,-1.1055508956\C,0,2.0211100674,-1.9184400362,0.
 2550577845\C,0,2.0935553774,-0.9112030325,-0.6787717787\C,0,-3.5340180
 717,-1.4306050258,-1.6090981932\C,0,2.974138477,-0.5891496633,-1.70934
 48334\C,0,-1.2771162838,-0.5379776548,3.9720727156\C,0,-5.8231775419,-
 2.1929857789,1.2771687225\C,0,2.5887085278,0.5563830065,-2.4305576658\
 C,0,2.0216515976,1.0658922812,2.7829149331\C,0,1.3761509816,0.95920256
 89,-1.7653026363\C,0,4.3299283419,-1.4016595951,-1.9139710272\C,0,-5.8
 549898351,-2.5474368341,-2.0250959578\C,0,5.5731428653,-0.967518497,-1
 .1332367406\C,0,3.3140615016,1.2670051031,-3.4980563148\C,0,0.46152857
 7,2.0309682437,-2.0487666218\C,0,3.1979384341,1.7298325688,3.448050150
 2\C,0,-0.5943432659,2.2873033625,-1.252630551\C,0,-6.9304169682,-3.234
 6872328,-1.5833168904\C,0,6.6882383934,-1.9594441995,-1.2344241324\C,0
 ,-1.4647051253,3.4803602692,-1.3116492396\C,0,-2.4241165011,3.29375985
 5,-0.3280807143\C,0,-2.1947817506,2.0914800815,0.3908180138\C,0,-1.338
 5638348,4.5664729075,-2.2561873867\C,0,-3.5733079673,4.1706275457,0.18
 5572797\C,0,-2.0197458658,5.7635117694,-2.3269364264\H,0,-3.3257610693
 ,-0.258091299,1.2409482994\H,0,-2.6613777642,-3.4030954345,1.233033652
 5\H,0,-3.5160314229,-2.4407575202,2.8053799267\H,0,-0.5191972245,-2.88
 49572608,-0.0320361936\H,0,-2.0286912588,-0.3483511386,-0.8462487273\H
 ,0,1.7950974711,-0.4643078846,4.264638563\H,0,2.8818755205,-0.59744163
 55,2.7354284722\H,0,2.8003588498,-2.6614277257,0.3669697502\H,0,-1.931
 7057999,-1.2132105951,4.7254296048\H,0,-0.3402237904,0.0093367301,4.43
 20995665\H,0,-1.8492842422,0.4179642431,3.4514239077\H,0,-5.4658373709
 ,-1.5683249637,2.0504193349\H,0,-5.8149002507,-3.3053446391,1.54921776
 81\H,0,-6.7051478916,-1.8243380772,0.7558619479\H,0,2.2502611655,0.934
 6134032,1.7806556769\H,0,1.1585158031,1.6777000143,2.9154195157\H,0,0.
 4994882064,0.273611731,0.0210600737\H,0,4.622417961,-1.2479178508,-3.0
 876643683\H,0,4.0785586857,-2.6359353727,-1.4613232403\H,0,-5.62593473
 19,-2.4731482394,-3.1643398978\H,0,5.3286207834,-0.7448549654,-0.04658
 14344\H,0,5.7839298343,0.0325762615,-1.605385021\H,0,4.1939093024,0.66
 31328054,-3.8482030498\H,0,3.5434800996,2.3004711258,-3.3239947349\H,0
 ,2.5974755369,1.366331131,-4.4019833503\H,0,0.8138952995,2.6166331598,
 -2.9069315852\H,0,-7.0285819443,-3.589731157,-0.5415831795\H,0,-7.5178
 600509,-3.4688082113,-2.4535184053\H,0,4.11042477,3.4645758186,3.29505
 27595\H,0,-0.5696108399,4.5985411336,-2.7942573211\H,0,-4.2781064002,4
 .1756741492,-0.6678279343\H,0,-4.1901277625,3.7315779514,1.048495661\H
 ,0,-3.2614244586,5.1474250336,0.5234981197\H,0,8.3628719807,-2.6136045
 147,-0.8825588909\H,0,-1.6226351881,6.4783082879,-3.1183766899\H,0,-2.
 783830736,5.7976011359,-1.5703329408\\Version=ES64L-G16RevA.03\State=1
 -A\HF=-1947.7993565\RMSD=6.012e-09\PG=C01 [X(C33H36N4O6)]\\@


 NOTHING RESEMBLES A NEW PHENOMENON AS MUCH AS A MISTAKE.

                               -- ENRICO FERMI (?)
 Job cpu time:       0 days  4 hours  5 minutes 16.8 seconds.
 Elapsed time:       0 days  1 hours  1 minutes 28.6 seconds.
 File lengths (MBytes):  RWF=   2533 Int=      0 D2E=      0 Chk=     63 Scr=      1
 Normal termination of Gaussian 16 at Fri Jul 26 11:40:58 2019.
