 Entering Gaussian System, Link 0=g16
 Input=Geometria-268-.com
 Output=Geometria-268-.log
 Initial command:
 /usr/local/g16/l1.exe "/home/padawan/israel-mol/dihydrobiliverdin/spectra/emi/Gau-7093.inp" -scrdir="/home/padawan/israel-mol/dihydrobiliverdin/spectra/emi/"
 Entering Link 1 = /usr/local/g16/l1.exe PID=      7095.
  
 Copyright (c) 1988,1990,1992,1993,1995,1998,2003,2009,2016,
            Gaussian, Inc.  All Rights Reserved.
  
 This is part of the Gaussian(R) 16 program.  It is based on
 the Gaussian(R) 09 system (copyright 2009, Gaussian, Inc.),
 the Gaussian(R) 03 system (copyright 2003, Gaussian, Inc.),
 the Gaussian(R) 98 system (copyright 1998, Gaussian, Inc.),
 the Gaussian(R) 94 system (copyright 1995, Gaussian, Inc.),
 the Gaussian 92(TM) system (copyright 1992, Gaussian, Inc.),
 the Gaussian 90(TM) system (copyright 1990, Gaussian, Inc.),
 the Gaussian 88(TM) system (copyright 1988, Gaussian, Inc.),
 the Gaussian 86(TM) system (copyright 1986, Carnegie Mellon
 University), and the Gaussian 82(TM) system (copyright 1983,
 Carnegie Mellon University). Gaussian is a federally registered
 trademark of Gaussian, Inc.
  
 This software contains proprietary and confidential information,
 including trade secrets, belonging to Gaussian, Inc.
  
 This software is provided under written license and may be
 used, copied, transmitted, or stored only in accord with that
 written license.
  
 The following legend is applicable only to US Government
 contracts under FAR:
  
                    RESTRICTED RIGHTS LEGEND
  
 Use, reproduction and disclosure by the US Government is
 subject to restrictions as set forth in subparagraphs (a)
 and (c) of the Commercial Computer Software - Restricted
 Rights clause in FAR 52.227-19.
  
 Gaussian, Inc.
 340 Quinnipiac St., Bldg. 40, Wallingford CT 06492
  
  
 ---------------------------------------------------------------
 Warning -- This program may not be used in any manner that
 competes with the business of Gaussian, Inc. or will provide
 assistance to any competitor of Gaussian, Inc.  The licensee
 of this program is prohibited from giving any competitor of
 Gaussian, Inc. access to this program.  By using this program,
 the user acknowledges that Gaussian, Inc. is engaged in the
 business of creating and licensing software in the field of
 computational chemistry and represents and warrants to the
 licensee that it is not a competitor of Gaussian, Inc. and that
 it will not use this program in any manner prohibited above.
 ---------------------------------------------------------------
  

 Cite this work as:
 Gaussian 16, Revision A.03,
 M. J. Frisch, G. W. Trucks, H. B. Schlegel, G. E. Scuseria, 
 M. A. Robb, J. R. Cheeseman, G. Scalmani, V. Barone, 
 G. A. Petersson, H. Nakatsuji, X. Li, M. Caricato, A. V. Marenich, 
 J. Bloino, B. G. Janesko, R. Gomperts, B. Mennucci, H. P. Hratchian, 
 J. V. Ortiz, A. F. Izmaylov, J. L. Sonnenberg, D. Williams-Young, 
 F. Ding, F. Lipparini, F. Egidi, J. Goings, B. Peng, A. Petrone, 
 T. Henderson, D. Ranasinghe, V. G. Zakrzewski, J. Gao, N. Rega, 
 G. Zheng, W. Liang, M. Hada, M. Ehara, K. Toyota, R. Fukuda, 
 J. Hasegawa, M. Ishida, T. Nakajima, Y. Honda, O. Kitao, H. Nakai, 
 T. Vreven, K. Throssell, J. A. Montgomery, Jr., J. E. Peralta, 
 F. Ogliaro, M. J. Bearpark, J. J. Heyd, E. N. Brothers, K. N. Kudin, 
 V. N. Staroverov, T. A. Keith, R. Kobayashi, J. Normand, 
 K. Raghavachari, A. P. Rendell, J. C. Burant, S. S. Iyengar, 
 J. Tomasi, M. Cossi, J. M. Millam, M. Klene, C. Adamo, R. Cammi, 
 J. W. Ochterski, R. L. Martin, K. Morokuma, O. Farkas, 
 J. B. Foresman, and D. J. Fox, Gaussian, Inc., Wallingford CT, 2016.
 
 ******************************************
 Gaussian 16:  ES64L-G16RevA.03 25-Dec-2016
                27-Jul-2019 
 ******************************************
 %nproc=4
 Will use up to    4 processors via shared memory.
 %Mem=3GB
 --------------------------
 # td=(NStates=1) B3LYP/SVP
 --------------------------
 1/38=1,172=1/1;
 2/12=2,17=6,18=5,40=1/2;
 3/5=18,7=101,11=9,25=1,30=1,74=-5/1,2,3,8;
 4//1;
 5/5=2,38=5/2;
 8/6=1,10=1,108=1/1;
 9/41=1,42=1,70=2/14;
 6/7=2,8=2,9=2,10=2/1;
 99/5=1,9=1/99;
 --
 TD
 --
 Symbolic Z-matrix:
 Charge =  0 Multiplicity = 1
 8                    -3.3901   -1.25179  -2.7889 
 8                     3.29808   3.02677   3.24835 
 8                     4.0098    1.09584   4.18476 
 8                     7.79777  -1.42645  -0.64155 
 8                     6.57352  -2.89477  -1.9452 
 8                    -2.90952   1.6867    1.1961 
 7                    -0.34714  -2.50498   0.94747 
 7                    -2.68638  -1.03224  -0.6018 
 7                     1.15321   0.08401  -0.65427 
 7                    -1.09962   1.47556  -0.24325 
 6                    -3.33967  -1.3215    0.72911 
 6                    -2.70258  -2.36573   1.60199 
 6                    -1.20748  -2.03209   1.82591 
 6                    -0.5643   -1.31448   2.8508 
 6                     0.82243  -1.24366   2.4491 
 6                     0.93964  -1.99676   1.29211 
 6                    -4.79583  -1.90657   0.24336 
 6                     1.88666  -0.48814   3.14936 
 6                    -4.85396  -1.97089  -1.13106 
 6                     1.96917  -1.97752   0.2962 
 6                     2.11019  -0.92601  -0.55393 
 6                    -3.55332  -1.32661  -1.63937 
 6                     3.05606  -0.6214   -1.67548 
 6                    -1.25597  -0.59926   3.97995 
 6                    -5.82301  -2.19285   1.33805 
 6                     2.57891   0.44329  -2.32674 
 6                     1.98044   1.07913   2.71733 
 6                     1.37725   0.84103  -1.76458 
 6                     4.22382  -1.43161  -1.87107 
 6                    -5.87846  -2.49169  -1.9661 
 6                     5.43753  -0.83013  -1.17274 
 6                     3.0524    1.093    -3.59662 
 6                     0.59596   1.93726  -1.9721 
 6                     3.20587   1.75099   3.4998 
 6                    -0.53301   2.30031  -1.19396 
 6                    -6.82453  -3.41075  -1.68968 
 6                     6.67666  -1.82313  -1.44993 
 6                    -1.38654   3.58363  -1.33667 
 6                    -2.38376   3.43591  -0.27078 
 6                    -2.10757   2.14601   0.34568 
 6                    -1.28692   4.55578  -2.42126 
 6                    -3.55933   4.35848   0.11415 
 6                    -1.90747   5.83444  -2.51118 
 1                    -3.39425  -0.25994   1.25571 
 1                    -2.75223  -3.24935   1.05069 
 1                    -3.3142   -2.52462   2.58465 
 1                    -0.57792  -2.84175  -0.01688 
 1                    -1.90718  -0.38042  -0.80198 
 1                     1.93482  -0.52072   4.22506 
 1                     2.87929  -1.01249   2.84945 
 1                     2.77472  -2.70683   0.58112 
 1                    -2.01225  -1.21506   4.33431 
 1                    -0.73702  -0.58709   5.01133 
 1                    -1.71141   0.4033    3.44264 
 1                    -5.64956  -1.57302   2.30538 
 1                    -5.56907  -3.1899    1.66839 
 1                    -6.9455   -2.26456   0.91758 
 1                     2.3782    1.20291   1.72427 
 1                     0.9682    1.52078   2.67793 
 1                     0.30352   0.29338  -0.11497 
 1                     4.48687  -1.38948  -2.8578 
 1                     4.08374  -2.58788  -1.64264 
 1                    -5.86751  -2.07082  -2.95196 
 1                     5.42693  -0.9915    0.03041 
 1                     5.92675   0.1009   -1.60917 
 1                     3.41134   0.18439  -4.35467 
 1                     3.9055    1.97634  -3.37981 
 1                     2.08922   1.70104  -4.12854 
 1                     0.78929   2.65323  -2.86997 
 1                    -7.02418  -4.05223  -0.57687 
 1                    -7.63623  -3.56252  -2.40306 
 1                     4.00354   3.13738   3.69813 
 1                    -0.65689   4.35812  -3.33052 
 1                    -4.16282   4.9656   -0.92786 
 1                    -4.35877   3.76974   0.70318 
 1                    -3.29476   5.12361   0.81597 
 1                     8.34267  -2.21007  -0.80963 
 1                    -1.75503   6.2807   -3.45068 
 1                    -2.57868   6.23727  -1.69884 
 
 Stoichiometry    C33H36N4O6
 Framework group  C1[X(C33H36N4O6)]
 Deg. of freedom   231
 Full point group                 C1      NOp   1
 Largest Abelian subgroup         C1      NOp   1
 Largest concise Abelian subgroup C1      NOp   1
                         Standard orientation:                         
 ---------------------------------------------------------------------
 Center     Atomic      Atomic             Coordinates (Angstroms)
 Number     Number       Type             X           Y           Z
 ---------------------------------------------------------------------
      1          8           0       -3.453715   -0.466410   -2.944370
      2          8           0        3.385113    2.060751    3.862250
      3          8           0        4.103107   -0.049543    4.240501
      4          8           0        7.774463   -1.212366   -1.160703
      5          8           0        6.514032   -2.283411   -2.778856
      6          8           0       -2.872030    1.315779    1.663380
      7          7           0       -0.343075   -2.664155    0.262551
      8          7           0       -2.703825   -0.832509   -0.792523
      9          7           0        1.141177    0.254308   -0.631335
     10          7           0       -1.093484    1.490229    0.180685
     11          6           0       -3.331561   -1.462121    0.428674
     12          6           0       -2.683612   -2.700304    0.981196
     13          6           0       -1.182055   -2.439030    1.252950
     14          6           0       -0.513243   -2.017958    2.416753
     15          6           0        0.865389   -1.844971    2.018187
     16          6           0        0.953838   -2.266147    0.701264
     17          6           0       -4.801227   -1.896849   -0.162735
     18          6           0        1.948741   -1.302065    2.869870
     19          6           0       -4.887974   -1.596113   -1.503851
     20          6           0        1.962825   -1.985754   -0.276225
     21          6           0        2.093313   -0.747312   -0.821657
     22          6           0       -3.593804   -0.841792   -1.852070
     23          6           0        3.017959   -0.158427   -1.843215
     24          6           0       -1.176855   -1.625418    3.709218
     25          6           0       -5.807588   -2.460885    0.839510
     26          6           0        2.534599    1.040852   -2.180069
     27          6           0        2.043994    0.323569    2.864718
     28          6           0        1.347390    1.277294   -1.507147
     29          6           0        4.176075   -0.889424   -2.270732
     30          6           0       -5.932819   -1.877095   -2.424434
     31          6           0        5.407815   -0.494733   -1.464776
     32          6           0        2.986212    2.002197   -3.243442
     33          6           0        0.569275    2.390177   -1.401219
     34          6           0        3.289644    0.763931    3.770131
     35          6           0       -0.541060    2.536096   -0.530738
     36          6           0       -6.879070   -2.835613   -2.379964
     37          6           0        6.634398   -1.380569   -2.020743
     38          6           0       -1.388831    3.812400   -0.311397
     39          6           0       -2.364926    3.389588    0.698979
     40          6           0       -2.084682    1.982454    0.947199
     41          6           0       -1.305064    5.036221   -1.102970
     42          6           0       -3.526214    4.178992    1.338898
     43          6           0       -1.918863    6.293877   -0.838974
     44          1           0       -3.368297   -0.577118    1.217732
     45          1           0       -2.750408   -3.407058    0.217509
     46          1           0       -3.275976   -3.112297    1.900064
     47          1           0       -0.595824   -2.734270   -0.751283
     48          1           0       -1.924601   -0.151725   -0.830384
     49          1           0        2.018749   -1.617427    3.897573
     50          1           0        2.931508   -1.729640    2.420941
     51          1           0        2.769202   -2.765184   -0.211233
     52          1           0       -1.929760   -2.312171    3.904764
     53          1           0       -0.636777   -1.886366    4.695835
     54          1           0       -1.636580   -0.516156    3.465387
     55          1           0       -5.610224   -2.118481    1.932125
     56          1           0       -5.553522   -3.510017    0.889542
     57          1           0       -6.938926   -2.418010    0.439291
     58          1           0        2.422106    0.704648    1.931169
     59          1           0        1.034102    0.760937    2.965044
     60          1           0        0.304139    0.314756   -0.037733
     61          1           0        4.419099   -0.588635   -3.216822
     62          1           0        4.033069   -2.064847   -2.352490
     63          1           0       -5.939317   -1.210979   -3.264326
     64          1           0        5.420844   -0.967885   -0.346889
     65          1           0        5.894129    0.518001   -1.650540
     66          1           0        3.323506    1.325516   -4.221904
     67          1           0        3.849408    2.796183   -2.819699
     68          1           0        2.016371    2.729994   -3.575222
     69          1           0        0.748870    3.317529   -2.082335
     70          1           0       -7.060083   -3.747829   -1.471783
     71          1           0       -7.706231   -2.792945   -3.090457
     72          1           0        4.100375    2.048057    4.309975
     73          1           0       -0.695150    5.084915   -2.045514
     74          1           0       -4.146941    5.040170    0.507232
     75          1           0       -4.317282    3.456451    1.768821
     76          1           0       -3.242242    4.731532    2.211849
     77          1           0        8.310604   -1.924380   -1.541262
     78          1           0       -1.782781    6.972107   -1.630507
     79          1           0       -2.570576    6.468685    0.065133
 ---------------------------------------------------------------------
 Rotational constants (GHZ):           0.0919198           0.0499555           0.0473910
 Standard basis: SVP (5D, 7F)
 There are   825 symmetry adapted cartesian basis functions of A   symmetry.
 There are   782 symmetry adapted basis functions of A   symmetry.
   782 basis functions,  1327 primitive gaussians,   825 cartesian basis functions
   155 alpha electrons      155 beta electrons
       nuclear repulsion energy      5175.8092987832 Hartrees.
 NAtoms=   79 NActive=   79 NUniq=   79 SFac= 1.00D+00 NAtFMM=   60 NAOKFM=T Big=T
 Integral buffers will be    131072 words long.
 Regular integral format.
 Two-electron integral symmetry is turned on.
 One-electron integrals computed using PRISM.
 NBasis=   782 RedAO= T EigKep=  3.27D-04  NBF=   782
 NBsUse=   782 1.00D-06 EigRej= -1.00D+00 NBFU=   782
 ExpMin= 1.22D-01 ExpMax= 2.27D+03 ExpMxC= 3.41D+02 IAcc=3 IRadAn=         5 AccDes= 0.00D+00
 Harris functional with IExCor=  402 and IRadAn=       5 diagonalized for initial guess.
 HarFok:  IExCor=  402 AccDes= 0.00D+00 IRadAn=         5 IDoV= 1 UseB2=F ITyADJ=14
 ICtDFT=  3500011 ScaDFX=  1.000000  1.000000  1.000000  1.000000
 FoFCou: FMM=F IPFlag=           0 FMFlag=      100000 FMFlg1=        2001
         NFxFlg=           0 DoJE=T BraDBF=F KetDBF=T FulRan=T
         wScrn=  0.000000 ICntrl=       500 IOpCl=  0 I1Cent=   200000004 NGrid=           0
         NMat0=    1 NMatS0=      1 NMatT0=    0 NMatD0=    1 NMtDS0=    0 NMtDT0=    0
 Petite list used in FoFCou.
 Requested convergence on RMS density matrix=1.00D-08 within 128 cycles.
 Requested convergence on MAX density matrix=1.00D-06.
 Requested convergence on             energy=1.00D-06.
 No special actions if energy rises.
 Integral accuracy reduced to 1.0D-05 until final iterations.
 EnCoef did     3 forward-backward iterations
 EnCoef did     5 forward-backward iterations
 Initial convergence to 1.0D-05 achieved.  Increase integral accuracy.
 SCF Done:  E(RB3LYP) =  -1947.81059013     A.U. after   20 cycles
            NFock= 20  Conv=0.71D-08     -V/T= 2.0111
 DoSCS=F DFT=T ScalE2(SS,OS)=  1.000000  1.000000
 ExpMin= 1.22D-01 ExpMax= 2.27D+03 ExpMxC= 3.41D+02 IAcc=3 IRadAn=         5 AccDes= 0.00D+00
 HarFok:  IExCor=  205 AccDes= 0.00D+00 IRadAn=         5 IDoV=-2 UseB2=F ITyADJ=14
 ICtDFT= 12500011 ScaDFX=  1.000000  1.000000  1.000000  1.000000
 GSVD:  LWork=       -2193 too small for GESVD, short by        9890 words or        9890 for optimal perf.
 Range of M.O.s used for correlation:    44   782
 NBasis=   782 NAE=   155 NBE=   155 NFC=    43 NFV=     0
 NROrb=    739 NOA=   112 NOB=   112 NVA=   627 NVB=   627

 **** Warning!!: The smallest alpha delta epsilon is  0.59644123D-01

 Orbital symmetries:
       Occupied  (A) (A) (A) (A) (A) (A) (A) (A) (A) (A) (A) (A)
                 (A) (A) (A) (A) (A) (A) (A) (A) (A) (A) (A) (A)
                 (A) (A) (A) (A) (A) (A) (A) (A) (A) (A) (A) (A)
                 (A) (A) (A) (A) (A) (A) (A) (A) (A) (A) (A) (A)
                 (A) (A) (A) (A) (A) (A) (A) (A) (A) (A) (A) (A)
                 (A) (A) (A) (A) (A) (A) (A) (A) (A) (A) (A) (A)
                 (A) (A) (A) (A) (A) (A) (A) (A) (A) (A) (A) (A)
                 (A) (A) (A) (A) (A) (A) (A) (A) (A) (A) (A) (A)
                 (A) (A) (A) (A) (A) (A) (A) (A) (A) (A) (A) (A)
                 (A) (A) (A) (A) (A) (A) (A) (A) (A) (A) (A) (A)
                 (A) (A) (A) (A) (A) (A) (A) (A) (A) (A) (A) (A)
                 (A) (A) (A) (A) (A) (A) (A) (A) (A) (A) (A) (A)
                 (A) (A) (A) (A) (A) (A) (A) (A) (A) (A) (A)
       Virtual   (A) (A) (A) (A) (A) (A) (A) (A) (A) (A) (A) (A)
                 (A) (A) (A) (A) (A) (A) (A) (A) (A) (A) (A) (A)
                 (A) (A) (A) (A) (A) (A) (A) (A) (A) (A) (A) (A)
                 (A) (A) (A) (A) (A) (A) (A) (A) (A) (A) (A) (A)
                 (A) (A) (A) (A) (A) (A) (A) (A) (A) (A) (A) (A)
                 (A) (A) (A) (A) (A) (A) (A) (A) (A) (A) (A) (A)
                 (A) (A) (A) (A) (A) (A) (A) (A) (A) (A) (A) (A)
                 (A) (A) (A) (A) (A) (A) (A) (A) (A) (A) (A) (A)
                 (A) (A) (A) (A) (A) (A) (A) (A) (A) (A) (A) (A)
                 (A) (A) (A) (A) (A) (A) (A) (A) (A) (A) (A) (A)
                 (A) (A) (A) (A) (A) (A) (A) (A) (A) (A) (A) (A)
                 (A) (A) (A) (A) (A) (A) (A) (A) (A) (A) (A) (A)
                 (A) (A) (A) (A) (A) (A) (A) (A) (A) (A) (A) (A)
                 (A) (A) (A) (A) (A) (A) (A) (A) (A) (A) (A) (A)
                 (A) (A) (A) (A) (A) (A) (A) (A) (A) (A) (A) (A)
                 (A) (A) (A) (A) (A) (A) (A) (A) (A) (A) (A) (A)
                 (A) (A) (A) (A) (A) (A) (A) (A) (A) (A) (A) (A)
                 (A) (A) (A) (A) (A) (A) (A) (A) (A) (A) (A) (A)
                 (A) (A) (A) (A) (A) (A) (A) (A) (A) (A) (A) (A)
                 (A) (A) (A) (A) (A) (A) (A) (A) (A) (A) (A) (A)
                 (A) (A) (A) (A) (A) (A) (A) (A) (A) (A) (A) (A)
                 (A) (A) (A) (A) (A) (A) (A) (A) (A) (A) (A) (A)
                 (A) (A) (A) (A) (A) (A) (A) (A) (A) (A) (A) (A)
                 (A) (A) (A) (A) (A) (A) (A) (A) (A) (A) (A) (A)
                 (A) (A) (A) (A) (A) (A) (A) (A) (A) (A) (A) (A)
                 (A) (A) (A) (A) (A) (A) (A) (A) (A) (A) (A) (A)
                 (A) (A) (A) (A) (A) (A) (A) (A) (A) (A) (A) (A)
                 (A) (A) (A) (A) (A) (A) (A) (A) (A) (A) (A) (A)
                 (A) (A) (A) (A) (A) (A) (A) (A) (A) (A) (A) (A)
                 (A) (A) (A) (A) (A) (A) (A) (A) (A) (A) (A) (A)
                 (A) (A) (A) (A) (A) (A) (A) (A) (A) (A) (A) (A)
                 (A) (A) (A) (A) (A) (A) (A) (A) (A) (A) (A) (A)
                 (A) (A) (A) (A) (A) (A) (A) (A) (A) (A) (A) (A)
                 (A) (A) (A) (A) (A) (A) (A) (A) (A) (A) (A) (A)
                 (A) (A) (A) (A) (A) (A) (A) (A) (A) (A) (A) (A)
                 (A) (A) (A) (A) (A) (A) (A) (A) (A) (A) (A) (A)
                 (A) (A) (A) (A) (A) (A) (A) (A) (A) (A) (A) (A)
                 (A) (A) (A) (A) (A) (A) (A) (A) (A) (A) (A) (A)
                 (A) (A) (A) (A) (A) (A) (A) (A) (A) (A) (A) (A)
                 (A) (A) (A) (A) (A) (A) (A) (A) (A) (A) (A) (A)
                 (A) (A) (A) (A) (A) (A) (A) (A) (A) (A) (A) (A)
                 (A) (A) (A) (A) (A) (A) (A) (A) (A) (A) (A) (A)
                 (A) (A) (A) (A) (A) (A) (A) (A) (A) (A) (A) (A)
                 (A) (A) (A) (A) (A) (A) (A) (A) (A) (A) (A) (A)
                 (A) (A) (A) (A) (A) (A) (A) (A) (A) (A) (A) (A)
                 (A) (A) (A) (A) (A) (A) (A) (A) (A) (A) (A) (A)
                 (A) (A) (A) (A) (A) (A) (A) (A) (A) (A) (A) (A)
                 (A) (A) (A) (A) (A) (A) (A) (A) (A) (A) (A) (A)
                 (A) (A) (A) (A) (A) (A) (A) (A) (A) (A) (A) (A)
                 (A) (A) (A) (A) (A) (A) (A) (A) (A) (A) (A) (A)
                 (A) (A) (A) (A) (A) (A) (A) (A) (A) (A) (A) (A)
                 (A) (A) (A) (A) (A) (A) (A) (A) (A) (A) (A) (A)
                 (A) (A) (A)
     4 initial guesses have been made.
 Convergence on wavefunction:    0.001000000000000
 Iteration     1 Dimension     4 NMult     0 NNew      4
 CISAX will form     4 AO SS matrices at one time.
 Iteration     2 Dimension     6 NMult     4 NNew      2
 Iteration     3 Dimension     8 NMult     6 NNew      2
 Iteration     4 Dimension    10 NMult     8 NNew      2
 Iteration     5 Dimension    12 NMult    10 NNew      2
 Iteration     6 Dimension    14 NMult    12 NNew      2
 ***********************************************************************
 Excited states from <AA,BB:AA,BB> singles matrix:
 ***********************************************************************
 
 Ground to excited state transition densities written to RWF  633
 Ground to excited state transition electric dipole moments (Au):
       state          X           Y           Z        Dip. S.      Osc.
         1         0.0590     -0.0479      0.0072      0.0058      0.0001
 Ground to excited state transition velocity dipole moments (Au):
       state          X           Y           Z        Dip. S.      Osc.
         1        -0.0002      0.0011     -0.0019      0.0000      0.0001
 Ground to excited state transition magnetic dipole moments (Au):
       state          X           Y           Z
         1         0.0376      0.0736      0.1876
 Ground to excited state transition velocity quadrupole moments (Au):
       state          XX          YY          ZZ          XY          XZ          YZ
         1         0.0042      0.0127     -0.0102      0.0038     -0.0009      0.0025
 <0|del|b> * <b|rxdel|0> + <0|del|b> * <b|delr+rdel|0>
 Rotatory Strengths (R) in cgs (10**-40 erg-esu-cm/Gauss)
       state          XX          YY          ZZ    R(velocity)    E-M Angle
         1        -2.8355     -3.6313      0.7829     -1.8946      127.71
 1/2[<0|r|b>*<b|rxdel|0> + (<0|rxdel|b>*<b|r|0>)*]
 Rotatory Strengths (R) in cgs (10**-40 erg-esu-cm/Gauss)
       state          XX          YY          ZZ     R(length)
         1        -1.5676      2.4911     -0.9601     -0.0122
  1/2[<0|del|b>*<b|r|0> + (<0|r|b>*<b|del|0>)*] (Au)
       state          X           Y           Z        Dip. S.   Osc.(frdel)
         1        -0.0000     -0.0001     -0.0000      0.0001      0.0001

 Excitation energies and oscillator strengths:
 
 Excited State   1:      Singlet-A      0.9435 eV 1314.15 nm  f=0.0001  <S**2>=0.000
     155 ->156         0.70322
 This state for optimization and/or second-order correction.
 Total Energy, E(TD-HF/TD-DFT) =  -1947.77591881    
 Copying the excited state density for this state as the 1-particle RhoCI density.
 SavETr:  write IOETrn=   770 NScale= 10 NData=  16 NLR=1 NState=    1 LETran=      28.

 **********************************************************************

            Population analysis using the SCF density.

 **********************************************************************

 Orbital symmetries:
       Occupied  (A) (A) (A) (A) (A) (A) (A) (A) (A) (A) (A) (A)
                 (A) (A) (A) (A) (A) (A) (A) (A) (A) (A) (A) (A)
                 (A) (A) (A) (A) (A) (A) (A) (A) (A) (A) (A) (A)
                 (A) (A) (A) (A) (A) (A) (A) (A) (A) (A) (A) (A)
                 (A) (A) (A) (A) (A) (A) (A) (A) (A) (A) (A) (A)
                 (A) (A) (A) (A) (A) (A) (A) (A) (A) (A) (A) (A)
                 (A) (A) (A) (A) (A) (A) (A) (A) (A) (A) (A) (A)
                 (A) (A) (A) (A) (A) (A) (A) (A) (A) (A) (A) (A)
                 (A) (A) (A) (A) (A) (A) (A) (A) (A) (A) (A) (A)
                 (A) (A) (A) (A) (A) (A) (A) (A) (A) (A) (A) (A)
                 (A) (A) (A) (A) (A) (A) (A) (A) (A) (A) (A) (A)
                 (A) (A) (A) (A) (A) (A) (A) (A) (A) (A) (A) (A)
                 (A) (A) (A) (A) (A) (A) (A) (A) (A) (A) (A)
       Virtual   (A) (A) (A) (A) (A) (A) (A) (A) (A) (A) (A) (A)
                 (A) (A) (A) (A) (A) (A) (A) (A) (A) (A) (A) (A)
                 (A) (A) (A) (A) (A) (A) (A) (A) (A) (A) (A) (A)
                 (A) (A) (A) (A) (A) (A) (A) (A) (A) (A) (A) (A)
                 (A) (A) (A) (A) (A) (A) (A) (A) (A) (A) (A) (A)
                 (A) (A) (A) (A) (A) (A) (A) (A) (A) (A) (A) (A)
                 (A) (A) (A) (A) (A) (A) (A) (A) (A) (A) (A) (A)
                 (A) (A) (A) (A) (A) (A) (A) (A) (A) (A) (A) (A)
                 (A) (A) (A) (A) (A) (A) (A) (A) (A) (A) (A) (A)
                 (A) (A) (A) (A) (A) (A) (A) (A) (A) (A) (A) (A)
                 (A) (A) (A) (A) (A) (A) (A) (A) (A) (A) (A) (A)
                 (A) (A) (A) (A) (A) (A) (A) (A) (A) (A) (A) (A)
                 (A) (A) (A) (A) (A) (A) (A) (A) (A) (A) (A) (A)
                 (A) (A) (A) (A) (A) (A) (A) (A) (A) (A) (A) (A)
                 (A) (A) (A) (A) (A) (A) (A) (A) (A) (A) (A) (A)
                 (A) (A) (A) (A) (A) (A) (A) (A) (A) (A) (A) (A)
                 (A) (A) (A) (A) (A) (A) (A) (A) (A) (A) (A) (A)
                 (A) (A) (A) (A) (A) (A) (A) (A) (A) (A) (A) (A)
                 (A) (A) (A) (A) (A) (A) (A) (A) (A) (A) (A) (A)
                 (A) (A) (A) (A) (A) (A) (A) (A) (A) (A) (A) (A)
                 (A) (A) (A) (A) (A) (A) (A) (A) (A) (A) (A) (A)
                 (A) (A) (A) (A) (A) (A) (A) (A) (A) (A) (A) (A)
                 (A) (A) (A) (A) (A) (A) (A) (A) (A) (A) (A) (A)
                 (A) (A) (A) (A) (A) (A) (A) (A) (A) (A) (A) (A)
                 (A) (A) (A) (A) (A) (A) (A) (A) (A) (A) (A) (A)
                 (A) (A) (A) (A) (A) (A) (A) (A) (A) (A) (A) (A)
                 (A) (A) (A) (A) (A) (A) (A) (A) (A) (A) (A) (A)
                 (A) (A) (A) (A) (A) (A) (A) (A) (A) (A) (A) (A)
                 (A) (A) (A) (A) (A) (A) (A) (A) (A) (A) (A) (A)
                 (A) (A) (A) (A) (A) (A) (A) (A) (A) (A) (A) (A)
                 (A) (A) (A) (A) (A) (A) (A) (A) (A) (A) (A) (A)
                 (A) (A) (A) (A) (A) (A) (A) (A) (A) (A) (A) (A)
                 (A) (A) (A) (A) (A) (A) (A) (A) (A) (A) (A) (A)
                 (A) (A) (A) (A) (A) (A) (A) (A) (A) (A) (A) (A)
                 (A) (A) (A) (A) (A) (A) (A) (A) (A) (A) (A) (A)
                 (A) (A) (A) (A) (A) (A) (A) (A) (A) (A) (A) (A)
                 (A) (A) (A) (A) (A) (A) (A) (A) (A) (A) (A) (A)
                 (A) (A) (A) (A) (A) (A) (A) (A) (A) (A) (A) (A)
                 (A) (A) (A) (A) (A) (A) (A) (A) (A) (A) (A) (A)
                 (A) (A) (A) (A) (A) (A) (A) (A) (A) (A) (A) (A)
                 (A) (A) (A) (A) (A) (A) (A) (A) (A) (A) (A) (A)
                 (A) (A) (A) (A) (A) (A) (A) (A) (A) (A) (A) (A)
                 (A) (A) (A) (A) (A) (A) (A) (A) (A) (A) (A) (A)
                 (A) (A) (A) (A) (A) (A) (A) (A) (A) (A) (A) (A)
                 (A) (A) (A) (A) (A) (A) (A) (A) (A) (A) (A) (A)
                 (A) (A) (A) (A) (A) (A) (A) (A) (A) (A) (A) (A)
                 (A) (A) (A) (A) (A) (A) (A) (A) (A) (A) (A) (A)
                 (A) (A) (A) (A) (A) (A) (A) (A) (A) (A) (A) (A)
                 (A) (A) (A) (A) (A) (A) (A) (A) (A) (A) (A) (A)
                 (A) (A) (A) (A) (A) (A) (A) (A) (A) (A) (A) (A)
                 (A) (A) (A) (A) (A) (A) (A) (A) (A) (A) (A) (A)
                 (A) (A) (A) (A) (A) (A) (A) (A) (A) (A) (A) (A)
                 (A) (A) (A)
 The electronic state is 1-A.
 Alpha  occ. eigenvalues --  -19.19623 -19.18973 -19.16121 -19.13098 -19.11568
 Alpha  occ. eigenvalues --  -19.07661 -14.37477 -14.36755 -14.32238 -14.31569
 Alpha  occ. eigenvalues --  -10.34019 -10.33029 -10.27859 -10.26669 -10.26267
 Alpha  occ. eigenvalues --  -10.25987 -10.25668 -10.25426 -10.24802 -10.23242
 Alpha  occ. eigenvalues --  -10.23228 -10.22631 -10.22508 -10.22341 -10.22280
 Alpha  occ. eigenvalues --  -10.22245 -10.22120 -10.22070 -10.21832 -10.21421
 Alpha  occ. eigenvalues --  -10.20617 -10.20370 -10.20214 -10.20203 -10.20087
 Alpha  occ. eigenvalues --  -10.19403 -10.19358 -10.19306 -10.18392 -10.18209
 Alpha  occ. eigenvalues --  -10.17483 -10.17441 -10.16618  -1.15512  -1.10694
 Alpha  occ. eigenvalues --   -1.02792  -1.02577  -1.01727  -1.00761  -1.00717
 Alpha  occ. eigenvalues --   -0.96926  -0.93147  -0.89518  -0.85613  -0.83593
 Alpha  occ. eigenvalues --   -0.80114  -0.79809  -0.79464  -0.79341  -0.78208
 Alpha  occ. eigenvalues --   -0.76182  -0.75280  -0.74942  -0.73432  -0.72437
 Alpha  occ. eigenvalues --   -0.70463  -0.69683  -0.69368  -0.68407  -0.67400
 Alpha  occ. eigenvalues --   -0.67120  -0.65678  -0.62339  -0.61281  -0.61118
 Alpha  occ. eigenvalues --   -0.59547  -0.59117  -0.58154  -0.57096  -0.56422
 Alpha  occ. eigenvalues --   -0.55534  -0.54718  -0.54603  -0.53762  -0.53336
 Alpha  occ. eigenvalues --   -0.51764  -0.51242  -0.51086  -0.50732  -0.50444
 Alpha  occ. eigenvalues --   -0.49461  -0.48853  -0.48805  -0.48432  -0.48089
 Alpha  occ. eigenvalues --   -0.47476  -0.47316  -0.47017  -0.46313  -0.45767
 Alpha  occ. eigenvalues --   -0.44903  -0.44547  -0.44283  -0.43965  -0.43612
 Alpha  occ. eigenvalues --   -0.43367  -0.42762  -0.42314  -0.42125  -0.41981
 Alpha  occ. eigenvalues --   -0.41731  -0.41525  -0.41445  -0.41291  -0.40945
 Alpha  occ. eigenvalues --   -0.40472  -0.40223  -0.39788  -0.39712  -0.39642
 Alpha  occ. eigenvalues --   -0.39559  -0.38987  -0.38713  -0.38338  -0.38121
 Alpha  occ. eigenvalues --   -0.37708  -0.37613  -0.37399  -0.36946  -0.36485
 Alpha  occ. eigenvalues --   -0.35961  -0.35392  -0.35324  -0.34650  -0.34467
 Alpha  occ. eigenvalues --   -0.34239  -0.34104  -0.33037  -0.32240  -0.31729
 Alpha  occ. eigenvalues --   -0.30774  -0.30312  -0.29754  -0.29368  -0.29105
 Alpha  occ. eigenvalues --   -0.28417  -0.27825  -0.25785  -0.23883  -0.23425
 Alpha  occ. eigenvalues --   -0.23388  -0.23019  -0.22680  -0.21451  -0.19281
 Alpha virt. eigenvalues --   -0.13317  -0.08393  -0.03109  -0.02969  -0.02566
 Alpha virt. eigenvalues --    0.00115   0.01214   0.02216   0.02860   0.03359
 Alpha virt. eigenvalues --    0.03550   0.04176   0.04330   0.04608   0.04774
 Alpha virt. eigenvalues --    0.05449   0.05819   0.05946   0.06421   0.06772
 Alpha virt. eigenvalues --    0.07339   0.07480   0.07743   0.08443   0.08650
 Alpha virt. eigenvalues --    0.09006   0.09410   0.09764   0.10216   0.10401
 Alpha virt. eigenvalues --    0.10647   0.10946   0.10968   0.11142   0.11331
 Alpha virt. eigenvalues --    0.12091   0.12623   0.12841   0.13433   0.13968
 Alpha virt. eigenvalues --    0.14244   0.14499   0.14847   0.15246   0.15923
 Alpha virt. eigenvalues --    0.16572   0.16748   0.16945   0.17217   0.17807
 Alpha virt. eigenvalues --    0.18257   0.18363   0.18843   0.19287   0.19773
 Alpha virt. eigenvalues --    0.19844   0.20573   0.21359   0.21898   0.22269
 Alpha virt. eigenvalues --    0.22491   0.22658   0.23182   0.23696   0.24364
 Alpha virt. eigenvalues --    0.25079   0.25466   0.25631   0.25980   0.26264
 Alpha virt. eigenvalues --    0.26948   0.27375   0.28158   0.28388   0.28753
 Alpha virt. eigenvalues --    0.29140   0.29797   0.30177   0.30829   0.31790
 Alpha virt. eigenvalues --    0.32332   0.32465   0.32891   0.33449   0.33839
 Alpha virt. eigenvalues --    0.34336   0.35019   0.35470   0.36421   0.36895
 Alpha virt. eigenvalues --    0.37799   0.37981   0.38701   0.39092   0.39520
 Alpha virt. eigenvalues --    0.39598   0.40424   0.40947   0.41127   0.41549
 Alpha virt. eigenvalues --    0.41916   0.42105   0.42316   0.42926   0.43223
 Alpha virt. eigenvalues --    0.43502   0.43920   0.44280   0.44785   0.45202
 Alpha virt. eigenvalues --    0.45472   0.45660   0.45951   0.46504   0.46557
 Alpha virt. eigenvalues --    0.46642   0.46973   0.47314   0.47399   0.47865
 Alpha virt. eigenvalues --    0.48191   0.48493   0.48780   0.49234   0.49908
 Alpha virt. eigenvalues --    0.50180   0.50604   0.50722   0.51026   0.51553
 Alpha virt. eigenvalues --    0.51653   0.52252   0.52338   0.52638   0.53189
 Alpha virt. eigenvalues --    0.53600   0.53984   0.54316   0.54645   0.55231
 Alpha virt. eigenvalues --    0.55623   0.55933   0.56145   0.56451   0.56916
 Alpha virt. eigenvalues --    0.57080   0.57803   0.58143   0.58762   0.58776
 Alpha virt. eigenvalues --    0.59206   0.59595   0.59815   0.60122   0.60469
 Alpha virt. eigenvalues --    0.60643   0.60891   0.61059   0.61104   0.61464
 Alpha virt. eigenvalues --    0.61652   0.62024   0.62177   0.62478   0.62687
 Alpha virt. eigenvalues --    0.62984   0.63342   0.63491   0.63837   0.64394
 Alpha virt. eigenvalues --    0.64625   0.64790   0.65122   0.65431   0.65463
 Alpha virt. eigenvalues --    0.65535   0.65777   0.66189   0.66244   0.66848
 Alpha virt. eigenvalues --    0.66964   0.67233   0.67567   0.67944   0.68437
 Alpha virt. eigenvalues --    0.68528   0.69019   0.69111   0.69456   0.69592
 Alpha virt. eigenvalues --    0.70079   0.70238   0.70451   0.70682   0.70909
 Alpha virt. eigenvalues --    0.71226   0.71467   0.71887   0.72566   0.72787
 Alpha virt. eigenvalues --    0.73006   0.73197   0.73724   0.73809   0.74260
 Alpha virt. eigenvalues --    0.74534   0.74860   0.75683   0.76268   0.76816
 Alpha virt. eigenvalues --    0.76865   0.77201   0.77439   0.78199   0.78654
 Alpha virt. eigenvalues --    0.79221   0.80296   0.80339   0.81042   0.81109
 Alpha virt. eigenvalues --    0.81711   0.81840   0.82547   0.83201   0.83913
 Alpha virt. eigenvalues --    0.84246   0.84847   0.85398   0.86456   0.87007
 Alpha virt. eigenvalues --    0.87593   0.88078   0.88788   0.90355   0.90821
 Alpha virt. eigenvalues --    0.91220   0.91434   0.91947   0.92123   0.92553
 Alpha virt. eigenvalues --    0.93166   0.94279   0.95049   0.95329   0.95742
 Alpha virt. eigenvalues --    0.96419   0.96884   0.97147   0.98059   0.98204
 Alpha virt. eigenvalues --    0.98361   0.99187   0.99876   1.00356   1.01521
 Alpha virt. eigenvalues --    1.02154   1.03724   1.04233   1.05674   1.06334
 Alpha virt. eigenvalues --    1.06741   1.07575   1.07656   1.08384   1.08832
 Alpha virt. eigenvalues --    1.09598   1.10292   1.10996   1.11295   1.11524
 Alpha virt. eigenvalues --    1.12506   1.12925   1.13475   1.14452   1.15064
 Alpha virt. eigenvalues --    1.15436   1.15744   1.16770   1.17829   1.18019
 Alpha virt. eigenvalues --    1.18657   1.18898   1.19429   1.20365   1.20755
 Alpha virt. eigenvalues --    1.21846   1.22724   1.23303   1.23861   1.24408
 Alpha virt. eigenvalues --    1.25324   1.25771   1.26735   1.26833   1.27061
 Alpha virt. eigenvalues --    1.27479   1.28186   1.28886   1.29753   1.30191
 Alpha virt. eigenvalues --    1.31291   1.31491   1.31797   1.32542   1.33572
 Alpha virt. eigenvalues --    1.34079   1.34576   1.35322   1.36498   1.37559
 Alpha virt. eigenvalues --    1.38270   1.38734   1.39462   1.39728   1.40125
 Alpha virt. eigenvalues --    1.40796   1.42354   1.42915   1.43792   1.44294
 Alpha virt. eigenvalues --    1.45053   1.45559   1.46747   1.47252   1.47671
 Alpha virt. eigenvalues --    1.47750   1.48146   1.49111   1.49387   1.49654
 Alpha virt. eigenvalues --    1.49691   1.50712   1.50990   1.51331   1.52097
 Alpha virt. eigenvalues --    1.52404   1.52828   1.53252   1.53846   1.54225
 Alpha virt. eigenvalues --    1.54437   1.55653   1.56105   1.56832   1.57076
 Alpha virt. eigenvalues --    1.58140   1.58928   1.59460   1.60151   1.60210
 Alpha virt. eigenvalues --    1.61451   1.61714   1.62214   1.62620   1.62978
 Alpha virt. eigenvalues --    1.63535   1.63961   1.64238   1.64801   1.65388
 Alpha virt. eigenvalues --    1.65901   1.66487   1.66921   1.67030   1.67531
 Alpha virt. eigenvalues --    1.68052   1.68277   1.68806   1.69050   1.69530
 Alpha virt. eigenvalues --    1.69917   1.70391   1.70745   1.71403   1.71587
 Alpha virt. eigenvalues --    1.72076   1.72965   1.73093   1.73529   1.74295
 Alpha virt. eigenvalues --    1.74926   1.75265   1.75512   1.75902   1.76553
 Alpha virt. eigenvalues --    1.76913   1.77252   1.77393   1.77778   1.78031
 Alpha virt. eigenvalues --    1.78575   1.78811   1.79530   1.79636   1.79928
 Alpha virt. eigenvalues --    1.80755   1.80906   1.81584   1.81943   1.82440
 Alpha virt. eigenvalues --    1.82947   1.83314   1.83949   1.84407   1.84506
 Alpha virt. eigenvalues --    1.85276   1.85704   1.85788   1.86059   1.86526
 Alpha virt. eigenvalues --    1.86996   1.87561   1.87735   1.88165   1.89044
 Alpha virt. eigenvalues --    1.89265   1.89693   1.90573   1.91180   1.91370
 Alpha virt. eigenvalues --    1.91723   1.92425   1.93038   1.93572   1.93956
 Alpha virt. eigenvalues --    1.94435   1.94601   1.95392   1.95613   1.96286
 Alpha virt. eigenvalues --    1.96442   1.97444   1.98306   1.98794   1.98932
 Alpha virt. eigenvalues --    1.99393   2.00193   2.00690   2.01352   2.01931
 Alpha virt. eigenvalues --    2.02833   2.03208   2.03415   2.03584   2.04300
 Alpha virt. eigenvalues --    2.04547   2.05099   2.05268   2.06090   2.06911
 Alpha virt. eigenvalues --    2.07429   2.07928   2.08870   2.08982   2.09301
 Alpha virt. eigenvalues --    2.09627   2.10292   2.11099   2.11431   2.11887
 Alpha virt. eigenvalues --    2.12364   2.12888   2.13513   2.13902   2.14757
 Alpha virt. eigenvalues --    2.15584   2.15850   2.16211   2.16466   2.17164
 Alpha virt. eigenvalues --    2.18497   2.18920   2.19566   2.20136   2.20373
 Alpha virt. eigenvalues --    2.21428   2.22569   2.23018   2.23964   2.24315
 Alpha virt. eigenvalues --    2.24756   2.26171   2.26585   2.26832   2.27195
 Alpha virt. eigenvalues --    2.27678   2.28791   2.29160   2.29264   2.30027
 Alpha virt. eigenvalues --    2.31142   2.31680   2.32046   2.32835   2.33647
 Alpha virt. eigenvalues --    2.34328   2.34405   2.35442   2.36453   2.36482
 Alpha virt. eigenvalues --    2.37966   2.38168   2.38342   2.39744   2.40364
 Alpha virt. eigenvalues --    2.40846   2.41762   2.42278   2.44151   2.44425
 Alpha virt. eigenvalues --    2.45922   2.46433   2.46819   2.47526   2.48112
 Alpha virt. eigenvalues --    2.49447   2.50011   2.50893   2.51559   2.52124
 Alpha virt. eigenvalues --    2.52362   2.52781   2.53340   2.54145   2.54696
 Alpha virt. eigenvalues --    2.55542   2.56139   2.57598   2.58280   2.58530
 Alpha virt. eigenvalues --    2.59824   2.60785   2.61502   2.61626   2.62756
 Alpha virt. eigenvalues --    2.62957   2.63195   2.63731   2.64920   2.65525
 Alpha virt. eigenvalues --    2.66491   2.67516   2.68012   2.68961   2.70014
 Alpha virt. eigenvalues --    2.71228   2.71492   2.72003   2.72556   2.73798
 Alpha virt. eigenvalues --    2.73888   2.74728   2.74896   2.75330   2.75802
 Alpha virt. eigenvalues --    2.76648   2.77219   2.77615   2.78451   2.78613
 Alpha virt. eigenvalues --    2.79388   2.80334   2.81025   2.81809   2.82504
 Alpha virt. eigenvalues --    2.83133   2.83343   2.83621   2.84108   2.84861
 Alpha virt. eigenvalues --    2.86733   2.87203   2.88213   2.89194   2.90114
 Alpha virt. eigenvalues --    2.91178   2.91837   2.92097   2.92857   2.93219
 Alpha virt. eigenvalues --    2.95154   2.95966   2.96568   2.97039   2.97850
 Alpha virt. eigenvalues --    2.98352   2.99035   2.99825   3.00577   3.04878
 Alpha virt. eigenvalues --    3.05613   3.07102   3.08002   3.08805   3.09582
 Alpha virt. eigenvalues --    3.10946   3.11726   3.12657   3.12880   3.13846
 Alpha virt. eigenvalues --    3.14794   3.15304   3.17165   3.17456   3.18390
 Alpha virt. eigenvalues --    3.19347   3.22923   3.25970   3.26843   3.28581
 Alpha virt. eigenvalues --    3.31193   3.35217   3.37020   3.40402   3.42338
 Alpha virt. eigenvalues --    3.43272   3.45983   3.48921   3.53652   3.58224
 Alpha virt. eigenvalues --    3.60288   3.60525   3.60779   3.65000   3.75217
 Alpha virt. eigenvalues --    3.75793   3.91657
          Condensed to atoms (all electrons):
 Mulliken charges:
               1
     1  O   -0.180180
     2  O   -0.027356
     3  O   -0.267743
     4  O   -0.234205
     5  O   -0.185981
     6  O   -0.246734
     7  N   -0.059076
     8  N   -0.251769
     9  N   -0.099255
    10  N   -0.299766
    11  C    0.005112
    12  C    0.238041
    13  C   -0.104386
    14  C   -0.152947
    15  C   -0.067276
    16  C   -0.051818
    17  C   -0.177118
    18  C    0.083404
    19  C   -0.030804
    20  C   -0.127236
    21  C    0.169964
    22  C    0.107805
    23  C   -0.053629
    24  C    0.080775
    25  C    0.050975
    26  C   -0.064118
    27  C   -0.029260
    28  C    0.136685
    29  C    0.153570
    30  C    0.002587
    31  C   -0.084605
    32  C   -0.081415
    33  C   -0.117222
    34  C    0.126600
    35  C    0.068432
    36  C   -0.092712
    37  C    0.140333
    38  C    0.068124
    39  C   -0.133739
    40  C    0.175005
    41  C   -0.100877
    42  C   -0.005164
    43  C   -0.003208
    44  H    0.088709
    45  H   -0.054553
    46  H    0.019113
    47  H    0.135556
    48  H    0.142037
    49  H    0.011595
    50  H   -0.000531
    51  H    0.032572
    52  H   -0.029204
    53  H    0.010108
    54  H    0.075452
    55  H    0.038782
    56  H    0.019582
    57  H    0.054321
    58  H    0.021978
    59  H    0.054401
    60  H    0.168570
    61  H   -0.038363
    62  H    0.062504
    63  H   -0.003310
    64  H    0.091808
    65  H    0.065487
    66  H    0.072551
    67  H    0.069869
    68  H    0.064351
    69  H    0.008163
    70  H    0.040596
    71  H    0.021229
    72  H    0.085613
    73  H    0.015168
    74  H    0.054814
    75  H    0.051016
    76  H    0.036334
    77  H    0.170568
    78  H    0.019873
    79  H    0.045429
 Sum of Mulliken charges =  -0.00000
 Mulliken charges with hydrogens summed into heavy atoms:
               1
     1  O   -0.180180
     2  O    0.058257
     3  O   -0.267743
     4  O   -0.063636
     5  O   -0.185981
     6  O   -0.246734
     7  N    0.076480
     8  N   -0.109732
     9  N    0.069314
    10  N   -0.299766
    11  C    0.093821
    12  C    0.202601
    13  C   -0.104386
    14  C   -0.152947
    15  C   -0.067276
    16  C   -0.051818
    17  C   -0.177118
    18  C    0.094468
    19  C   -0.030804
    20  C   -0.094664
    21  C    0.169964
    22  C    0.107805
    23  C   -0.053629
    24  C    0.137131
    25  C    0.163660
    26  C   -0.064118
    27  C    0.047119
    28  C    0.136685
    29  C    0.177711
    30  C   -0.000723
    31  C    0.072690
    32  C    0.125356
    33  C   -0.109060
    34  C    0.126600
    35  C    0.068432
    36  C   -0.030887
    37  C    0.140333
    38  C    0.068124
    39  C   -0.133739
    40  C    0.175005
    41  C   -0.085708
    42  C    0.136999
    43  C    0.062094
 Electronic spatial extent (au):  <R**2>=          26012.7394
 Charge=              0.0000 electrons
 Dipole moment (field-independent basis, Debye):
    X=              4.7255    Y=              3.2774    Z=             -0.9249  Tot=              5.8247
 Quadrupole moment (field-independent basis, Debye-Ang):
   XX=           -246.3348   YY=           -233.6464   ZZ=           -264.7723
   XY=              6.9797   XZ=            -23.9285   YZ=             -4.9819
 Traceless Quadrupole moment (field-independent basis, Debye-Ang):
   XX=              1.9164   YY=             14.6048   ZZ=            -16.5211
   XY=              6.9797   XZ=            -23.9285   YZ=             -4.9819
 Octapole moment (field-independent basis, Debye-Ang**2):
  XXX=            182.9142  YYY=             85.7422  ZZZ=             45.2324  XYY=            -17.3233
  XXY=             -5.4672  XXZ=            -12.5035  XZZ=             40.4502  YZZ=             62.8226
  YYZ=              1.8938  XYZ=             18.3790
 Hexadecapole moment (field-independent basis, Debye-Ang**3):
 XXXX=         -18409.6377 YYYY=          -8130.1022 ZZZZ=          -6696.1981 XXXY=           -114.4335
 XXXZ=           -422.6610 YYYX=           -289.9573 YYYZ=            -62.7769 ZZZX=           -135.9647
 ZZZY=             85.9246 XXYY=          -4401.9194 XXZZ=          -4612.1802 YYZZ=          -2446.7886
 XXYZ=             52.1694 YYXZ=              1.2337 ZZXY=            220.9588
 N-N= 5.175809298783D+03 E-N=-1.487961222642D+04  KE= 1.926494220436D+03
 1\1\GINC-PADAWAN\SP\RB3LYP TD-FC\SVP\C33H36N4O6\PADAWAN\28-Jul-2019\0\
 \# td=(NStates=1) B3LYP/SVP\\TD\\0,1\O,0,-3.3900959198,-1.2517902345,-
 2.7888995443\O,0,3.2980802628,3.0267743359,3.2483491058\O,0,4.00979528
 77,1.095836712,4.1847629199\O,0,7.7977683797,-1.4264487591,-0.64155491
 73\O,0,6.5735215086,-2.8947702719,-1.9452009682\O,0,-2.9095218587,1.68
 67041595,1.1960996705\N,0,-0.3471404602,-2.504976812,0.9474695878\N,0,
 -2.6863806761,-1.0322383588,-0.6018023248\N,0,1.1532068701,0.084009310
 6,-0.6542703642\N,0,-1.0996191074,1.4755629642,-0.2432452224\C,0,-3.33
 96691166,-1.3214997124,0.7291098849\C,0,-2.702578884,-2.3657307193,1.6
 019855054\C,0,-1.2074763893,-2.0320910231,1.8259105797\C,0,-0.56429623
 19,-1.31448264,2.8508031008\C,0,0.8224333559,-1.2436593669,2.449096104
 2\C,0,0.9396366499,-1.9967561103,1.2921140154\C,0,-4.7958345301,-1.906
 5663053,0.2433612234\C,0,1.8866632577,-0.4881391435,3.1493570902\C,0,-
 4.8539617576,-1.970885797,-1.1310634468\C,0,1.9691748739,-1.9775159438
 ,0.2962018989\C,0,2.1101870406,-0.9260145137,-0.5539292944\C,0,-3.5533
 200019,-1.3266146268,-1.6393712205\C,0,3.0560566689,-0.6214028886,-1.6
 75481447\C,0,-1.2559741696,-0.5992637834,3.9799535037\C,0,-5.823007524
 9,-2.1928457649,1.3380548111\C,0,2.5789075477,0.4432916974,-2.32673728
 37\C,0,1.9804374761,1.0791336054,2.7173283744\C,0,1.3772510916,0.84103
 07517,-1.7645825643\C,0,4.2238177309,-1.4316125904,-1.8710667368\C,0,-
 5.8784621823,-2.4916912595,-1.9661000582\C,0,5.4375293039,-0.830134758
 7,-1.172740691\C,0,3.0523953349,1.0929977024,-3.5966161708\C,0,0.59596
 20203,1.9372588728,-1.972098955\C,0,3.2058692272,1.750994685,3.4997953
 247\C,0,-0.5330071323,2.3003146637,-1.1939646844\C,0,-6.8245263791,-3.
 4107548396,-1.6896775265\C,0,6.6766572353,-1.8231305682,-1.4499256826\
 C,0,-1.3865373085,3.5836305963,-1.3366717419\C,0,-2.3837624656,3.43591
 40704,-0.2707849847\C,0,-2.1075730297,2.1460055341,0.3456835004\C,0,-1
 .2869186703,4.5557818384,-2.4212638944\C,0,-3.5593265692,4.3584763305,
 0.1141456543\C,0,-1.9074746387,5.8344388621,-2.5111848513\H,0,-3.39424
 7918,-0.259941484,1.2557097756\H,0,-2.7522268491,-3.24935006,1.0506854
 176\H,0,-3.3142012399,-2.524615906,2.5846478535\H,0,-0.5779230971,-2.8
 417529404,-0.0168846785\H,0,-1.9071791076,-0.3804243459,-0.8019843008\
 H,0,1.9348214435,-0.5207235262,4.2250646056\H,0,2.8792852614,-1.012493
 1406,2.8494498744\H,0,2.7747162855,-2.7068322661,0.5811211653\H,0,-2.0
 122538547,-1.2150607801,4.3343104928\H,0,-0.7370234703,-0.5870929129,5
 .0113274892\H,0,-1.7114104548,0.403302777,3.4426430296\H,0,-5.64955574
 28,-1.5730154327,2.3053848315\H,0,-5.5690656673,-3.1899030949,1.668389
 6853\H,0,-6.945501927,-2.2645620996,0.9175781195\H,0,2.3782039598,1.20
 29102329,1.7242700383\H,0,0.9681967712,1.5207843227,2.6779257663\H,0,0
 .3035186095,0.2933837082,-0.1149735297\H,0,4.4868744066,-1.3894820072,
 -2.857801382\H,0,4.0837392037,-2.5878805673,-1.6426413721\H,0,-5.86750
 88893,-2.0708180064,-2.9519586597\H,0,5.4269306144,-0.9914996299,0.030
 4062643\H,0,5.9267541167,0.1009030942,-1.609165399\H,0,3.4113410456,0.
 1843949316,-4.3546736969\H,0,3.9054963012,1.9763387126,-3.3798103164\H
 ,0,2.0892247118,1.7010446024,-4.1285360056\H,0,0.7892928393,2.65322681
 92,-2.8699678888\H,0,-7.0241815043,-4.0522274066,-0.5768667079\H,0,-7.
 6362318881,-3.5625175823,-2.4030633598\H,0,4.0035440819,3.1373830993,3
 .6981330675\H,0,-0.6568895678,4.3581170912,-3.3305209475\H,0,-4.162824
 8721,4.9656031421,-0.9278639379\H,0,-4.3587746272,3.7697417678,0.70318
 11295\H,0,-3.294757792,5.1236126524,0.8159673666\H,0,8.3426699605,-2.2
 100741616,-0.8096315982\H,0,-1.7550284274,6.280698527,-3.4506799202\H,
 0,-2.5786802209,6.2372651023,-1.6988357911\\Version=ES64L-G16RevA.03\S
 tate=1-A\HF=-1947.8105901\RMSD=7.052e-09\PG=C01 [X(C33H36N4O6)]\\@


 WHEN A MATHEMATICIAN ENGAGED IN INVESTIGATING
 PHYSICAL ACTIONS AND RESULTS HAS ARRIVED AT HIS
 CONCLUSIONS, MAY THEY NOT BE EXPRESSED IN COMMON
 LANGUAGE AS FULLY, CLEARLY, AND DEFINITELY AS IN
 MATHEMATICAL FORMULAE?
           - LETTER FROM M. FARADAY TO J.C. MAXWELL, 1857.
 Job cpu time:       0 days  4 hours 25 minutes 24.8 seconds.
 Elapsed time:       0 days  1 hours  6 minutes 27.0 seconds.
 File lengths (MBytes):  RWF=   2533 Int=      0 D2E=      0 Chk=     63 Scr=      1
 Normal termination of Gaussian 16 at Sun Jul 28 00:16:17 2019.
