 Entering Gaussian System, Link 0=g16
 Input=Geometria-437-.com
 Output=Geometria-437-.log
 Initial command:
 /usr/local/g16/l1.exe "/home/padawan/israel-mol/dihydrobiliverdin/spectra/emi/Gau-25091.inp" -scrdir="/home/padawan/israel-mol/dihydrobiliverdin/spectra/emi/"
 Entering Link 1 = /usr/local/g16/l1.exe PID=     25093.
  
 Copyright (c) 1988,1990,1992,1993,1995,1998,2003,2009,2016,
            Gaussian, Inc.  All Rights Reserved.
  
 This is part of the Gaussian(R) 16 program.  It is based on
 the Gaussian(R) 09 system (copyright 2009, Gaussian, Inc.),
 the Gaussian(R) 03 system (copyright 2003, Gaussian, Inc.),
 the Gaussian(R) 98 system (copyright 1998, Gaussian, Inc.),
 the Gaussian(R) 94 system (copyright 1995, Gaussian, Inc.),
 the Gaussian 92(TM) system (copyright 1992, Gaussian, Inc.),
 the Gaussian 90(TM) system (copyright 1990, Gaussian, Inc.),
 the Gaussian 88(TM) system (copyright 1988, Gaussian, Inc.),
 the Gaussian 86(TM) system (copyright 1986, Carnegie Mellon
 University), and the Gaussian 82(TM) system (copyright 1983,
 Carnegie Mellon University). Gaussian is a federally registered
 trademark of Gaussian, Inc.
  
 This software contains proprietary and confidential information,
 including trade secrets, belonging to Gaussian, Inc.
  
 This software is provided under written license and may be
 used, copied, transmitted, or stored only in accord with that
 written license.
  
 The following legend is applicable only to US Government
 contracts under FAR:
  
                    RESTRICTED RIGHTS LEGEND
  
 Use, reproduction and disclosure by the US Government is
 subject to restrictions as set forth in subparagraphs (a)
 and (c) of the Commercial Computer Software - Restricted
 Rights clause in FAR 52.227-19.
  
 Gaussian, Inc.
 340 Quinnipiac St., Bldg. 40, Wallingford CT 06492
  
  
 ---------------------------------------------------------------
 Warning -- This program may not be used in any manner that
 competes with the business of Gaussian, Inc. or will provide
 assistance to any competitor of Gaussian, Inc.  The licensee
 of this program is prohibited from giving any competitor of
 Gaussian, Inc. access to this program.  By using this program,
 the user acknowledges that Gaussian, Inc. is engaged in the
 business of creating and licensing software in the field of
 computational chemistry and represents and warrants to the
 licensee that it is not a competitor of Gaussian, Inc. and that
 it will not use this program in any manner prohibited above.
 ---------------------------------------------------------------
  

 Cite this work as:
 Gaussian 16, Revision A.03,
 M. J. Frisch, G. W. Trucks, H. B. Schlegel, G. E. Scuseria, 
 M. A. Robb, J. R. Cheeseman, G. Scalmani, V. Barone, 
 G. A. Petersson, H. Nakatsuji, X. Li, M. Caricato, A. V. Marenich, 
 J. Bloino, B. G. Janesko, R. Gomperts, B. Mennucci, H. P. Hratchian, 
 J. V. Ortiz, A. F. Izmaylov, J. L. Sonnenberg, D. Williams-Young, 
 F. Ding, F. Lipparini, F. Egidi, J. Goings, B. Peng, A. Petrone, 
 T. Henderson, D. Ranasinghe, V. G. Zakrzewski, J. Gao, N. Rega, 
 G. Zheng, W. Liang, M. Hada, M. Ehara, K. Toyota, R. Fukuda, 
 J. Hasegawa, M. Ishida, T. Nakajima, Y. Honda, O. Kitao, H. Nakai, 
 T. Vreven, K. Throssell, J. A. Montgomery, Jr., J. E. Peralta, 
 F. Ogliaro, M. J. Bearpark, J. J. Heyd, E. N. Brothers, K. N. Kudin, 
 V. N. Staroverov, T. A. Keith, R. Kobayashi, J. Normand, 
 K. Raghavachari, A. P. Rendell, J. C. Burant, S. S. Iyengar, 
 J. Tomasi, M. Cossi, J. M. Millam, M. Klene, C. Adamo, R. Cammi, 
 J. W. Ochterski, R. L. Martin, K. Morokuma, O. Farkas, 
 J. B. Foresman, and D. J. Fox, Gaussian, Inc., Wallingford CT, 2016.
 
 ******************************************
 Gaussian 16:  ES64L-G16RevA.03 25-Dec-2016
                30-Jul-2019 
 ******************************************
 %nproc=4
 Will use up to    4 processors via shared memory.
 %Mem=3GB
 --------------------------
 # td=(NStates=1) B3LYP/SVP
 --------------------------
 1/38=1,172=1/1;
 2/12=2,17=6,18=5,40=1/2;
 3/5=18,7=101,11=9,25=1,30=1,74=-5/1,2,3,8;
 4//1;
 5/5=2,38=5/2;
 8/6=1,10=1,108=1/1;
 9/41=1,42=1,70=2/14;
 6/7=2,8=2,9=2,10=2/1;
 99/5=1,9=1/99;
 --
 TD
 --
 Symbolic Z-matrix:
 Charge =  0 Multiplicity = 1
 8                    -3.31187  -1.17919  -2.87718 
 8                     2.96517   3.17441   3.08589 
 8                     3.6826    1.46161   4.40224 
 8                     7.61589  -1.84783  -0.54107 
 8                     6.66305  -2.8688   -2.41861 
 8                    -2.6886    1.61463   1.48076 
 7                    -0.1615   -2.48076   0.9488 
 7                    -2.59285  -1.32921  -0.72243 
 7                     1.08233  -0.00284  -0.78241 
 7                    -1.03281   1.40495  -0.14941 
 6                    -3.27549  -1.46387   0.60469 
 6                    -2.6134   -2.39847   1.57243 
 6                    -1.19596  -2.02439   1.85021 
 6                    -0.66426  -1.17095   2.85387 
 6                     0.75724  -1.02832   2.42798 
 6                     0.95219  -1.83734   1.31119 
 6                    -4.63503  -1.9624    0.24154 
 6                     1.81138  -0.27557   3.22728 
 6                    -4.84492  -2.0621   -1.13279 
 6                     2.13198  -1.84749   0.35941 
 6                     2.18514  -0.893    -0.59445 
 6                    -3.52634  -1.45566  -1.74724 
 6                     3.15404  -0.63182  -1.75413 
 6                    -1.2088   -0.34218   3.93062 
 6                    -5.67039  -2.26369   1.17484 
 6                     2.57049   0.49145  -2.39982 
 6                     1.81011   1.221     2.8374 
 6                     1.32495   0.87634  -1.82411 
 6                     4.30097  -1.43997  -2.0969 
 6                    -5.9221   -2.40942  -2.01619 
 6                     5.42068  -1.20257  -1.06128 
 6                     3.08727   1.07852  -3.63347 
 6                     0.46155   1.92544  -2.09967 
 6                     2.89716   1.90109   3.57213 
 6                    -0.6554    2.1815   -1.14652 
 6                    -6.9482   -3.1613   -1.60008 
 6                     6.59876  -2.06018  -1.51024 
 6                    -1.44598   3.3837   -1.23878 
 6                    -2.36179   3.31826  -0.13302 
 6                    -2.0255    2.07956   0.51849 
 6                    -1.2508    4.45676  -2.2812 
 6                    -3.39353   4.36848   0.24868 
 6                    -1.70366   5.78494  -2.19858 
 1                    -3.40884  -0.52328   1.03666 
 1                    -2.77768  -3.23967   1.05784 
 1                    -3.26956  -2.33508   2.42938 
 1                    -0.27405  -2.97563   0.08107 
 1                    -2.10888  -0.35148  -0.89201 
 1                     1.60855  -0.44645   4.27176 
 1                     2.93003  -0.76351   2.99977 
 1                     2.98693  -2.44988   0.61443 
 1                    -1.76383  -0.98488   4.59742 
 1                    -0.42226   0.22621   4.32235 
 1                    -1.84089   0.41029   3.54641 
 1                    -5.13462  -1.80533   2.13223 
 1                    -5.85746  -3.30785   1.36424 
 1                    -6.73449  -1.86858   1.04389 
 1                     1.82386   1.19264   1.74732 
 1                     0.83939   1.76602   3.08395 
 1                     0.42626   0.20106   0.06926 
 1                     4.74082  -1.18417  -3.17887 
 1                     4.21239  -2.61189  -2.24256 
 1                    -5.86384  -2.1023   -3.04446 
 1                     5.32291  -1.32846  -0.08363 
 1                     5.77231  -0.15667  -1.06326 
 1                     4.14622   0.64118  -3.82074 
 1                     3.45362   2.17796  -3.33733 
 1                     2.47757   1.12357  -4.56843 
 1                     0.41423   2.47232  -2.9542 
 1                    -7.17542  -3.31094  -0.53185 
 1                    -7.73711  -3.50172  -2.39344 
 1                     3.70364   3.82053   3.41045 
 1                    -0.67542   4.19333  -3.04424 
 1                    -3.95793   4.58252  -0.66308 
 1                    -4.26753   4.09785   0.91816 
 1                    -2.9104    5.38479   0.77102 
 1                     8.35439  -2.36916  -1.03602 
 1                    -1.8065    6.40254  -3.10998 
 1                    -2.41942   6.13493  -1.48798 
 
 Stoichiometry    C33H36N4O6
 Framework group  C1[X(C33H36N4O6)]
 Deg. of freedom   231
 Full point group                 C1      NOp   1
 Largest Abelian subgroup         C1      NOp   1
 Largest concise Abelian subgroup C1      NOp   1
                         Standard orientation:                         
 ---------------------------------------------------------------------
 Center     Atomic      Atomic             Coordinates (Angstroms)
 Number     Number       Type             X           Y           Z
 ---------------------------------------------------------------------
      1          8           0       -3.300809   -1.525703   -2.722058
      2          8           0        2.942622    3.529758    2.697824
      3          8           0        3.667459    1.986419    4.205764
      4          8           0        7.626793   -1.854976   -0.313853
      5          8           0        6.682580   -3.093509   -2.060250
      6          8           0       -2.699885    1.761175    1.280545
      7          7           0       -0.149311   -2.353883    1.232583
      8          7           0       -2.584366   -1.419102   -0.563874
      9          7           0        1.083503   -0.087932   -0.774894
     10          7           0       -1.040397    1.372070   -0.312480
     11          6           0       -3.268340   -1.401825    0.769268
     12          6           0       -2.602606   -2.213303    1.840097
     13          6           0       -1.187694   -1.801303    2.073614
     14          6           0       -0.662310   -0.833539    2.971281
     15          6           0        0.759040   -0.733516    2.532958
     16          6           0        0.960227   -1.666239    1.518408
     17          6           0       -4.624520   -1.947051    0.465549
     18          6           0        1.807734    0.113363    3.239896
     19          6           0       -4.831693   -2.207676   -0.887945
     20          6           0        2.141555   -1.780708    0.575405
     21          6           0        2.190934   -0.943788   -0.483302
     22          6           0       -3.515522   -1.669607   -1.567772
     23          6           0        3.160189   -0.814250   -1.664647
     24          6           0       -1.213129    0.112135    3.943426
     25          6           0       -5.659668   -2.143229    1.426685
     26          6           0        2.571445    0.222643   -2.437579
     27          6           0        1.798795    1.554161    2.677986
     28          6           0        1.322886    0.665021   -1.911870
     29          6           0        4.312114   -1.650351   -1.909689
     30          6           0       -5.905536   -2.661846   -1.725744
     31          6           0        5.428863   -1.287334   -0.907834
     32          6           0        3.086909    0.664637   -3.730844
     33          6           0        0.454127    1.669855   -2.308798
     34          6           0        2.880901    2.321530    3.329308
     35          6           0       -0.665721    2.029069   -1.393077
     36          6           0       -6.928113   -3.365836   -1.225659
     37          6           0        6.612381   -2.184777   -1.252540
     38          6           0       -1.462805    3.207767   -1.625762
     39          6           0       -2.379975    3.266636   -0.520762
     40          6           0       -2.037861    2.114375    0.271194
     41          6           0       -1.271921    4.152916   -2.786129
     42          6           0       -3.418115    4.348343   -0.265206
     43          6           0       -1.732269    5.479067   -2.859527
     44          1           0       -3.407573   -0.418011    1.088370
     45          1           0       -2.761413   -3.109732    1.427058
     46          1           0       -3.260452   -2.054047    2.683187
     47          1           0       -0.257753   -2.947276    0.428441
     48          1           0       -2.105550   -0.465117   -0.845976
     49          1           0        1.604212    0.064413    4.296990
     50          1           0        2.929431   -0.391431    3.071923
     51          1           0        2.999422   -2.344338    0.899786
     52          1           0       -1.765640   -0.451488    4.680177
     53          1           0       -0.430370    0.726821    4.266854
     54          1           0       -1.848775    0.811014    3.473434
     55          1           0       -5.127954   -1.573213    2.324517
     56          1           0       -5.841252   -3.159193    1.736501
     57          1           0       -6.725731   -1.772158    1.249536
     58          1           0        1.814416    1.398841    1.598683
     59          1           0        0.824687    2.118707    2.858338
     60          1           0        0.424975    0.210254    0.046559
     61          1           0        4.752248   -1.520089   -3.013722
     62          1           0        4.230262   -2.831746   -1.917643
     63          1           0       -5.847361   -2.476517   -2.782783
     64          1           0        5.330255   -1.298807    0.077743
     65          1           0        5.774699   -0.246833   -1.031563
     66          1           0        4.148564    0.214459   -3.864814
     67          1           0        3.446700    1.793195   -3.564723
     68          1           0        2.478447    0.596785   -4.665230
     69          1           0        0.405122    2.112981   -3.221360
     70          1           0       -7.156180   -3.391063   -0.147477
     71          1           0       -7.713878   -3.801011   -1.974587
     72          1           0        3.676998    4.213534    2.945425
     73          1           0       -0.693897    3.805498   -3.512678
     74          1           0       -3.982260    4.451296   -1.196232
     75          1           0       -4.291651    4.152748    0.430488
     76          1           0       -2.941443    5.421405    0.135380
     77          1           0        8.368948   -2.426306   -0.743888
     78          1           0       -1.837092    5.985470   -3.836873
     79          1           0       -2.451074    5.905532   -2.195296
 ---------------------------------------------------------------------
 Rotational constants (GHZ):           0.0907225           0.0506787           0.0484736
 Standard basis: SVP (5D, 7F)
 There are   825 symmetry adapted cartesian basis functions of A   symmetry.
 There are   782 symmetry adapted basis functions of A   symmetry.
   782 basis functions,  1327 primitive gaussians,   825 cartesian basis functions
   155 alpha electrons      155 beta electrons
       nuclear repulsion energy      5200.2898799913 Hartrees.
 NAtoms=   79 NActive=   79 NUniq=   79 SFac= 1.00D+00 NAtFMM=   60 NAOKFM=T Big=T
 Integral buffers will be    131072 words long.
 Regular integral format.
 Two-electron integral symmetry is turned on.
 One-electron integrals computed using PRISM.
 NBasis=   782 RedAO= T EigKep=  3.69D-04  NBF=   782
 NBsUse=   782 1.00D-06 EigRej= -1.00D+00 NBFU=   782
 ExpMin= 1.22D-01 ExpMax= 2.27D+03 ExpMxC= 3.41D+02 IAcc=3 IRadAn=         5 AccDes= 0.00D+00
 Harris functional with IExCor=  402 and IRadAn=       5 diagonalized for initial guess.
 HarFok:  IExCor=  402 AccDes= 0.00D+00 IRadAn=         5 IDoV= 1 UseB2=F ITyADJ=14
 ICtDFT=  3500011 ScaDFX=  1.000000  1.000000  1.000000  1.000000
 FoFCou: FMM=F IPFlag=           0 FMFlag=      100000 FMFlg1=        2001
         NFxFlg=           0 DoJE=T BraDBF=F KetDBF=T FulRan=T
         wScrn=  0.000000 ICntrl=       500 IOpCl=  0 I1Cent=   200000004 NGrid=           0
         NMat0=    1 NMatS0=      1 NMatT0=    0 NMatD0=    1 NMtDS0=    0 NMtDT0=    0
 Petite list used in FoFCou.
 Requested convergence on RMS density matrix=1.00D-08 within 128 cycles.
 Requested convergence on MAX density matrix=1.00D-06.
 Requested convergence on             energy=1.00D-06.
 No special actions if energy rises.
 Integral accuracy reduced to 1.0D-05 until final iterations.
 Initial convergence to 1.0D-05 achieved.  Increase integral accuracy.
 SCF Done:  E(RB3LYP) =  -1947.87594332     A.U. after   17 cycles
            NFock= 17  Conv=0.47D-08     -V/T= 2.0106
 DoSCS=F DFT=T ScalE2(SS,OS)=  1.000000  1.000000
 ExpMin= 1.22D-01 ExpMax= 2.27D+03 ExpMxC= 3.41D+02 IAcc=3 IRadAn=         5 AccDes= 0.00D+00
 HarFok:  IExCor=  205 AccDes= 0.00D+00 IRadAn=         5 IDoV=-2 UseB2=F ITyADJ=14
 ICtDFT= 12500011 ScaDFX=  1.000000  1.000000  1.000000  1.000000
 GSVD:  LWork=       -2193 too small for GESVD, short by        9890 words or        9890 for optimal perf.
 Range of M.O.s used for correlation:    44   782
 NBasis=   782 NAE=   155 NBE=   155 NFC=    43 NFV=     0
 NROrb=    739 NOA=   112 NOB=   112 NVA=   627 NVB=   627

 **** Warning!!: The smallest alpha delta epsilon is  0.60922286D-01

 Orbital symmetries:
       Occupied  (A) (A) (A) (A) (A) (A) (A) (A) (A) (A) (A) (A)
                 (A) (A) (A) (A) (A) (A) (A) (A) (A) (A) (A) (A)
                 (A) (A) (A) (A) (A) (A) (A) (A) (A) (A) (A) (A)
                 (A) (A) (A) (A) (A) (A) (A) (A) (A) (A) (A) (A)
                 (A) (A) (A) (A) (A) (A) (A) (A) (A) (A) (A) (A)
                 (A) (A) (A) (A) (A) (A) (A) (A) (A) (A) (A) (A)
                 (A) (A) (A) (A) (A) (A) (A) (A) (A) (A) (A) (A)
                 (A) (A) (A) (A) (A) (A) (A) (A) (A) (A) (A) (A)
                 (A) (A) (A) (A) (A) (A) (A) (A) (A) (A) (A) (A)
                 (A) (A) (A) (A) (A) (A) (A) (A) (A) (A) (A) (A)
                 (A) (A) (A) (A) (A) (A) (A) (A) (A) (A) (A) (A)
                 (A) (A) (A) (A) (A) (A) (A) (A) (A) (A) (A) (A)
                 (A) (A) (A) (A) (A) (A) (A) (A) (A) (A) (A)
       Virtual   (A) (A) (A) (A) (A) (A) (A) (A) (A) (A) (A) (A)
                 (A) (A) (A) (A) (A) (A) (A) (A) (A) (A) (A) (A)
                 (A) (A) (A) (A) (A) (A) (A) (A) (A) (A) (A) (A)
                 (A) (A) (A) (A) (A) (A) (A) (A) (A) (A) (A) (A)
                 (A) (A) (A) (A) (A) (A) (A) (A) (A) (A) (A) (A)
                 (A) (A) (A) (A) (A) (A) (A) (A) (A) (A) (A) (A)
                 (A) (A) (A) (A) (A) (A) (A) (A) (A) (A) (A) (A)
                 (A) (A) (A) (A) (A) (A) (A) (A) (A) (A) (A) (A)
                 (A) (A) (A) (A) (A) (A) (A) (A) (A) (A) (A) (A)
                 (A) (A) (A) (A) (A) (A) (A) (A) (A) (A) (A) (A)
                 (A) (A) (A) (A) (A) (A) (A) (A) (A) (A) (A) (A)
                 (A) (A) (A) (A) (A) (A) (A) (A) (A) (A) (A) (A)
                 (A) (A) (A) (A) (A) (A) (A) (A) (A) (A) (A) (A)
                 (A) (A) (A) (A) (A) (A) (A) (A) (A) (A) (A) (A)
                 (A) (A) (A) (A) (A) (A) (A) (A) (A) (A) (A) (A)
                 (A) (A) (A) (A) (A) (A) (A) (A) (A) (A) (A) (A)
                 (A) (A) (A) (A) (A) (A) (A) (A) (A) (A) (A) (A)
                 (A) (A) (A) (A) (A) (A) (A) (A) (A) (A) (A) (A)
                 (A) (A) (A) (A) (A) (A) (A) (A) (A) (A) (A) (A)
                 (A) (A) (A) (A) (A) (A) (A) (A) (A) (A) (A) (A)
                 (A) (A) (A) (A) (A) (A) (A) (A) (A) (A) (A) (A)
                 (A) (A) (A) (A) (A) (A) (A) (A) (A) (A) (A) (A)
                 (A) (A) (A) (A) (A) (A) (A) (A) (A) (A) (A) (A)
                 (A) (A) (A) (A) (A) (A) (A) (A) (A) (A) (A) (A)
                 (A) (A) (A) (A) (A) (A) (A) (A) (A) (A) (A) (A)
                 (A) (A) (A) (A) (A) (A) (A) (A) (A) (A) (A) (A)
                 (A) (A) (A) (A) (A) (A) (A) (A) (A) (A) (A) (A)
                 (A) (A) (A) (A) (A) (A) (A) (A) (A) (A) (A) (A)
                 (A) (A) (A) (A) (A) (A) (A) (A) (A) (A) (A) (A)
                 (A) (A) (A) (A) (A) (A) (A) (A) (A) (A) (A) (A)
                 (A) (A) (A) (A) (A) (A) (A) (A) (A) (A) (A) (A)
                 (A) (A) (A) (A) (A) (A) (A) (A) (A) (A) (A) (A)
                 (A) (A) (A) (A) (A) (A) (A) (A) (A) (A) (A) (A)
                 (A) (A) (A) (A) (A) (A) (A) (A) (A) (A) (A) (A)
                 (A) (A) (A) (A) (A) (A) (A) (A) (A) (A) (A) (A)
                 (A) (A) (A) (A) (A) (A) (A) (A) (A) (A) (A) (A)
                 (A) (A) (A) (A) (A) (A) (A) (A) (A) (A) (A) (A)
                 (A) (A) (A) (A) (A) (A) (A) (A) (A) (A) (A) (A)
                 (A) (A) (A) (A) (A) (A) (A) (A) (A) (A) (A) (A)
                 (A) (A) (A) (A) (A) (A) (A) (A) (A) (A) (A) (A)
                 (A) (A) (A) (A) (A) (A) (A) (A) (A) (A) (A) (A)
                 (A) (A) (A) (A) (A) (A) (A) (A) (A) (A) (A) (A)
                 (A) (A) (A) (A) (A) (A) (A) (A) (A) (A) (A) (A)
                 (A) (A) (A) (A) (A) (A) (A) (A) (A) (A) (A) (A)
                 (A) (A) (A) (A) (A) (A) (A) (A) (A) (A) (A) (A)
                 (A) (A) (A) (A) (A) (A) (A) (A) (A) (A) (A) (A)
                 (A) (A) (A) (A) (A) (A) (A) (A) (A) (A) (A) (A)
                 (A) (A) (A) (A) (A) (A) (A) (A) (A) (A) (A) (A)
                 (A) (A) (A) (A) (A) (A) (A) (A) (A) (A) (A) (A)
                 (A) (A) (A) (A) (A) (A) (A) (A) (A) (A) (A) (A)
                 (A) (A) (A) (A) (A) (A) (A) (A) (A) (A) (A) (A)
                 (A) (A) (A) (A) (A) (A) (A) (A) (A) (A) (A) (A)
                 (A) (A) (A)
     4 initial guesses have been made.
 Convergence on wavefunction:    0.001000000000000
 Iteration     1 Dimension     4 NMult     0 NNew      4
 CISAX will form     4 AO SS matrices at one time.
 Iteration     2 Dimension     6 NMult     4 NNew      2
 Iteration     3 Dimension     8 NMult     6 NNew      2
 Iteration     4 Dimension    10 NMult     8 NNew      2
 Iteration     5 Dimension    12 NMult    10 NNew      2
 ***********************************************************************
 Excited states from <AA,BB:AA,BB> singles matrix:
 ***********************************************************************
 
 Ground to excited state transition densities written to RWF  633
 Ground to excited state transition electric dipole moments (Au):
       state          X           Y           Z        Dip. S.      Osc.
         1         0.0618     -0.0358      0.0578      0.0084      0.0002
 Ground to excited state transition velocity dipole moments (Au):
       state          X           Y           Z        Dip. S.      Osc.
         1        -0.0010      0.0027     -0.0033      0.0000      0.0003
 Ground to excited state transition magnetic dipole moments (Au):
       state          X           Y           Z
         1         0.1095      0.1848      0.1514
 Ground to excited state transition velocity quadrupole moments (Au):
       state          XX          YY          ZZ          XY          XZ          YZ
         1         0.0124     -0.0043     -0.0118      0.0073     -0.0017      0.0063
 <0|del|b> * <b|rxdel|0> + <0|del|b> * <b|delr+rdel|0>
 Rotatory Strengths (R) in cgs (10**-40 erg-esu-cm/Gauss)
       state          XX          YY          ZZ    R(velocity)    E-M Angle
         1        -0.2320     -5.5917      3.6388     -0.7283       95.79
 1/2[<0|r|b>*<b|rxdel|0> + (<0|rxdel|b>*<b|r|0>)*]
 Rotatory Strengths (R) in cgs (10**-40 erg-esu-cm/Gauss)
       state          XX          YY          ZZ     R(length)
         1        -4.7854      4.6786     -6.1939     -2.1002
  1/2[<0|del|b>*<b|r|0> + (<0|r|b>*<b|del|0>)*] (Au)
       state          X           Y           Z        Dip. S.   Osc.(frdel)
         1        -0.0001     -0.0001     -0.0002      0.0003      0.0002

 Excitation energies and oscillator strengths:
 
 Excited State   1:      Singlet-A      1.0195 eV 1216.18 nm  f=0.0002  <S**2>=0.000
     155 ->156         0.70389
 This state for optimization and/or second-order correction.
 Total Energy, E(TD-HF/TD-DFT) =  -1947.83847905    
 Copying the excited state density for this state as the 1-particle RhoCI density.
 SavETr:  write IOETrn=   770 NScale= 10 NData=  16 NLR=1 NState=    1 LETran=      28.

 **********************************************************************

            Population analysis using the SCF density.

 **********************************************************************

 Orbital symmetries:
       Occupied  (A) (A) (A) (A) (A) (A) (A) (A) (A) (A) (A) (A)
                 (A) (A) (A) (A) (A) (A) (A) (A) (A) (A) (A) (A)
                 (A) (A) (A) (A) (A) (A) (A) (A) (A) (A) (A) (A)
                 (A) (A) (A) (A) (A) (A) (A) (A) (A) (A) (A) (A)
                 (A) (A) (A) (A) (A) (A) (A) (A) (A) (A) (A) (A)
                 (A) (A) (A) (A) (A) (A) (A) (A) (A) (A) (A) (A)
                 (A) (A) (A) (A) (A) (A) (A) (A) (A) (A) (A) (A)
                 (A) (A) (A) (A) (A) (A) (A) (A) (A) (A) (A) (A)
                 (A) (A) (A) (A) (A) (A) (A) (A) (A) (A) (A) (A)
                 (A) (A) (A) (A) (A) (A) (A) (A) (A) (A) (A) (A)
                 (A) (A) (A) (A) (A) (A) (A) (A) (A) (A) (A) (A)
                 (A) (A) (A) (A) (A) (A) (A) (A) (A) (A) (A) (A)
                 (A) (A) (A) (A) (A) (A) (A) (A) (A) (A) (A)
       Virtual   (A) (A) (A) (A) (A) (A) (A) (A) (A) (A) (A) (A)
                 (A) (A) (A) (A) (A) (A) (A) (A) (A) (A) (A) (A)
                 (A) (A) (A) (A) (A) (A) (A) (A) (A) (A) (A) (A)
                 (A) (A) (A) (A) (A) (A) (A) (A) (A) (A) (A) (A)
                 (A) (A) (A) (A) (A) (A) (A) (A) (A) (A) (A) (A)
                 (A) (A) (A) (A) (A) (A) (A) (A) (A) (A) (A) (A)
                 (A) (A) (A) (A) (A) (A) (A) (A) (A) (A) (A) (A)
                 (A) (A) (A) (A) (A) (A) (A) (A) (A) (A) (A) (A)
                 (A) (A) (A) (A) (A) (A) (A) (A) (A) (A) (A) (A)
                 (A) (A) (A) (A) (A) (A) (A) (A) (A) (A) (A) (A)
                 (A) (A) (A) (A) (A) (A) (A) (A) (A) (A) (A) (A)
                 (A) (A) (A) (A) (A) (A) (A) (A) (A) (A) (A) (A)
                 (A) (A) (A) (A) (A) (A) (A) (A) (A) (A) (A) (A)
                 (A) (A) (A) (A) (A) (A) (A) (A) (A) (A) (A) (A)
                 (A) (A) (A) (A) (A) (A) (A) (A) (A) (A) (A) (A)
                 (A) (A) (A) (A) (A) (A) (A) (A) (A) (A) (A) (A)
                 (A) (A) (A) (A) (A) (A) (A) (A) (A) (A) (A) (A)
                 (A) (A) (A) (A) (A) (A) (A) (A) (A) (A) (A) (A)
                 (A) (A) (A) (A) (A) (A) (A) (A) (A) (A) (A) (A)
                 (A) (A) (A) (A) (A) (A) (A) (A) (A) (A) (A) (A)
                 (A) (A) (A) (A) (A) (A) (A) (A) (A) (A) (A) (A)
                 (A) (A) (A) (A) (A) (A) (A) (A) (A) (A) (A) (A)
                 (A) (A) (A) (A) (A) (A) (A) (A) (A) (A) (A) (A)
                 (A) (A) (A) (A) (A) (A) (A) (A) (A) (A) (A) (A)
                 (A) (A) (A) (A) (A) (A) (A) (A) (A) (A) (A) (A)
                 (A) (A) (A) (A) (A) (A) (A) (A) (A) (A) (A) (A)
                 (A) (A) (A) (A) (A) (A) (A) (A) (A) (A) (A) (A)
                 (A) (A) (A) (A) (A) (A) (A) (A) (A) (A) (A) (A)
                 (A) (A) (A) (A) (A) (A) (A) (A) (A) (A) (A) (A)
                 (A) (A) (A) (A) (A) (A) (A) (A) (A) (A) (A) (A)
                 (A) (A) (A) (A) (A) (A) (A) (A) (A) (A) (A) (A)
                 (A) (A) (A) (A) (A) (A) (A) (A) (A) (A) (A) (A)
                 (A) (A) (A) (A) (A) (A) (A) (A) (A) (A) (A) (A)
                 (A) (A) (A) (A) (A) (A) (A) (A) (A) (A) (A) (A)
                 (A) (A) (A) (A) (A) (A) (A) (A) (A) (A) (A) (A)
                 (A) (A) (A) (A) (A) (A) (A) (A) (A) (A) (A) (A)
                 (A) (A) (A) (A) (A) (A) (A) (A) (A) (A) (A) (A)
                 (A) (A) (A) (A) (A) (A) (A) (A) (A) (A) (A) (A)
                 (A) (A) (A) (A) (A) (A) (A) (A) (A) (A) (A) (A)
                 (A) (A) (A) (A) (A) (A) (A) (A) (A) (A) (A) (A)
                 (A) (A) (A) (A) (A) (A) (A) (A) (A) (A) (A) (A)
                 (A) (A) (A) (A) (A) (A) (A) (A) (A) (A) (A) (A)
                 (A) (A) (A) (A) (A) (A) (A) (A) (A) (A) (A) (A)
                 (A) (A) (A) (A) (A) (A) (A) (A) (A) (A) (A) (A)
                 (A) (A) (A) (A) (A) (A) (A) (A) (A) (A) (A) (A)
                 (A) (A) (A) (A) (A) (A) (A) (A) (A) (A) (A) (A)
                 (A) (A) (A) (A) (A) (A) (A) (A) (A) (A) (A) (A)
                 (A) (A) (A) (A) (A) (A) (A) (A) (A) (A) (A) (A)
                 (A) (A) (A) (A) (A) (A) (A) (A) (A) (A) (A) (A)
                 (A) (A) (A) (A) (A) (A) (A) (A) (A) (A) (A) (A)
                 (A) (A) (A) (A) (A) (A) (A) (A) (A) (A) (A) (A)
                 (A) (A) (A) (A) (A) (A) (A) (A) (A) (A) (A) (A)
                 (A) (A) (A)
 The electronic state is 1-A.
 Alpha  occ. eigenvalues --  -19.19540 -19.17269 -19.16035 -19.12279 -19.12128
 Alpha  occ. eigenvalues --  -19.08516 -14.37050 -14.36252 -14.32093 -14.30902
 Alpha  occ. eigenvalues --  -10.34175 -10.31710 -10.27995 -10.26383 -10.25871
 Alpha  occ. eigenvalues --  -10.25442 -10.25351 -10.23891 -10.23630 -10.22730
 Alpha  occ. eigenvalues --  -10.22283 -10.22108 -10.22015 -10.21943 -10.21896
 Alpha  occ. eigenvalues --  -10.21775 -10.21506 -10.21032 -10.20771 -10.20707
 Alpha  occ. eigenvalues --  -10.20636 -10.20565 -10.20091 -10.19644 -10.19625
 Alpha  occ. eigenvalues --  -10.19594 -10.18809 -10.18593 -10.18176 -10.17656
 Alpha  occ. eigenvalues --  -10.17326 -10.16834 -10.16223  -1.09411  -1.07170
 Alpha  occ. eigenvalues --   -1.02210  -1.01916  -1.01661  -0.98867  -0.97837
 Alpha  occ. eigenvalues --   -0.95655  -0.94477  -0.90674  -0.84108  -0.82229
 Alpha  occ. eigenvalues --   -0.80742  -0.80633  -0.80069  -0.79427  -0.78743
 Alpha  occ. eigenvalues --   -0.76835  -0.76397  -0.75284  -0.74511  -0.72946
 Alpha  occ. eigenvalues --   -0.70841  -0.70250  -0.69013  -0.68574  -0.67748
 Alpha  occ. eigenvalues --   -0.66544  -0.65681  -0.62695  -0.61446  -0.60329
 Alpha  occ. eigenvalues --   -0.58981  -0.58418  -0.58004  -0.57579  -0.56207
 Alpha  occ. eigenvalues --   -0.55278  -0.54725  -0.54474  -0.53706  -0.53087
 Alpha  occ. eigenvalues --   -0.52306  -0.51798  -0.51278  -0.50539  -0.50088
 Alpha  occ. eigenvalues --   -0.49806  -0.49257  -0.48817  -0.48185  -0.47802
 Alpha  occ. eigenvalues --   -0.47196  -0.46411  -0.46284  -0.45801  -0.45454
 Alpha  occ. eigenvalues --   -0.44939  -0.44628  -0.44552  -0.44273  -0.44053
 Alpha  occ. eigenvalues --   -0.43964  -0.43545  -0.42757  -0.42576  -0.42213
 Alpha  occ. eigenvalues --   -0.42140  -0.41534  -0.41284  -0.40831  -0.40752
 Alpha  occ. eigenvalues --   -0.40427  -0.40312  -0.40266  -0.39814  -0.39495
 Alpha  occ. eigenvalues --   -0.39234  -0.38862  -0.38685  -0.38348  -0.38054
 Alpha  occ. eigenvalues --   -0.37643  -0.37271  -0.37219  -0.36715  -0.36272
 Alpha  occ. eigenvalues --   -0.35961  -0.35671  -0.35420  -0.35121  -0.34946
 Alpha  occ. eigenvalues --   -0.34325  -0.33781  -0.33157  -0.31778  -0.31405
 Alpha  occ. eigenvalues --   -0.31047  -0.30748  -0.30209  -0.29342  -0.28741
 Alpha  occ. eigenvalues --   -0.27827  -0.26538  -0.25816  -0.25249  -0.23733
 Alpha  occ. eigenvalues --   -0.23207  -0.22411  -0.22157  -0.21948  -0.19164
 Alpha virt. eigenvalues --   -0.13071  -0.08257  -0.04040  -0.03132  -0.02418
 Alpha virt. eigenvalues --   -0.00035   0.01918   0.02722   0.03026   0.03226
 Alpha virt. eigenvalues --    0.03629   0.03725   0.04263   0.04741   0.04966
 Alpha virt. eigenvalues --    0.05747   0.06020   0.06701   0.07445   0.07626
 Alpha virt. eigenvalues --    0.07729   0.08232   0.08377   0.08641   0.08777
 Alpha virt. eigenvalues --    0.09048   0.09481   0.10111   0.10449   0.10750
 Alpha virt. eigenvalues --    0.11062   0.11318   0.11791   0.12232   0.12747
 Alpha virt. eigenvalues --    0.13140   0.13272   0.13827   0.14053   0.14263
 Alpha virt. eigenvalues --    0.14681   0.15040   0.15191   0.15864   0.16376
 Alpha virt. eigenvalues --    0.16606   0.16907   0.17223   0.18215   0.18616
 Alpha virt. eigenvalues --    0.19304   0.19524   0.19984   0.20193   0.20862
 Alpha virt. eigenvalues --    0.21340   0.21435   0.22344   0.22878   0.23066
 Alpha virt. eigenvalues --    0.23564   0.23741   0.24279   0.24697   0.24763
 Alpha virt. eigenvalues --    0.25466   0.25884   0.26536   0.26863   0.27405
 Alpha virt. eigenvalues --    0.28082   0.28545   0.28695   0.28912   0.29110
 Alpha virt. eigenvalues --    0.29421   0.29782   0.30400   0.30737   0.31051
 Alpha virt. eigenvalues --    0.31521   0.31771   0.32970   0.33545   0.33864
 Alpha virt. eigenvalues --    0.34216   0.34504   0.35350   0.36223   0.36667
 Alpha virt. eigenvalues --    0.37375   0.37622   0.37717   0.38776   0.39534
 Alpha virt. eigenvalues --    0.39880   0.40491   0.40923   0.41810   0.42150
 Alpha virt. eigenvalues --    0.42474   0.42681   0.42700   0.43522   0.43614
 Alpha virt. eigenvalues --    0.44339   0.44493   0.44666   0.44964   0.45548
 Alpha virt. eigenvalues --    0.45687   0.45974   0.46528   0.46851   0.47116
 Alpha virt. eigenvalues --    0.47725   0.47902   0.48134   0.48171   0.48837
 Alpha virt. eigenvalues --    0.49055   0.49086   0.49217   0.49851   0.49927
 Alpha virt. eigenvalues --    0.50427   0.51023   0.51322   0.51865   0.52144
 Alpha virt. eigenvalues --    0.52435   0.52677   0.52972   0.53234   0.53814
 Alpha virt. eigenvalues --    0.54099   0.54463   0.54767   0.55235   0.55420
 Alpha virt. eigenvalues --    0.55968   0.56078   0.56566   0.57515   0.57766
 Alpha virt. eigenvalues --    0.57922   0.58378   0.58558   0.58801   0.59208
 Alpha virt. eigenvalues --    0.59786   0.60008   0.60604   0.60943   0.61192
 Alpha virt. eigenvalues --    0.61406   0.61674   0.61871   0.62155   0.62456
 Alpha virt. eigenvalues --    0.62666   0.62732   0.63109   0.63155   0.63595
 Alpha virt. eigenvalues --    0.64142   0.64333   0.64445   0.64518   0.64851
 Alpha virt. eigenvalues --    0.65188   0.65365   0.65607   0.65832   0.65985
 Alpha virt. eigenvalues --    0.66456   0.66818   0.67025   0.67318   0.67415
 Alpha virt. eigenvalues --    0.68119   0.68128   0.68391   0.68720   0.69109
 Alpha virt. eigenvalues --    0.69565   0.69834   0.70007   0.70506   0.70844
 Alpha virt. eigenvalues --    0.71026   0.71271   0.71339   0.71953   0.72058
 Alpha virt. eigenvalues --    0.72432   0.72788   0.72988   0.73280   0.73517
 Alpha virt. eigenvalues --    0.73631   0.74317   0.74381   0.75036   0.75254
 Alpha virt. eigenvalues --    0.75437   0.75749   0.75990   0.76681   0.77093
 Alpha virt. eigenvalues --    0.77324   0.77979   0.78348   0.78834   0.79072
 Alpha virt. eigenvalues --    0.79301   0.80456   0.80536   0.80739   0.81506
 Alpha virt. eigenvalues --    0.81766   0.82141   0.82675   0.83963   0.84519
 Alpha virt. eigenvalues --    0.84607   0.85086   0.86092   0.87120   0.87386
 Alpha virt. eigenvalues --    0.87867   0.88442   0.89095   0.89690   0.89931
 Alpha virt. eigenvalues --    0.90844   0.91679   0.92438   0.92873   0.93658
 Alpha virt. eigenvalues --    0.93962   0.94608   0.95084   0.96079   0.96258
 Alpha virt. eigenvalues --    0.96447   0.96489   0.97015   0.97978   0.98255
 Alpha virt. eigenvalues --    0.98438   0.99479   0.99804   1.01227   1.01534
 Alpha virt. eigenvalues --    1.02053   1.02874   1.03815   1.04372   1.05055
 Alpha virt. eigenvalues --    1.06312   1.06897   1.07829   1.08688   1.09130
 Alpha virt. eigenvalues --    1.09846   1.11014   1.11301   1.12003   1.12878
 Alpha virt. eigenvalues --    1.13104   1.13376   1.14512   1.15069   1.15806
 Alpha virt. eigenvalues --    1.16829   1.17290   1.17697   1.18921   1.19449
 Alpha virt. eigenvalues --    1.19613   1.20442   1.20876   1.21067   1.22027
 Alpha virt. eigenvalues --    1.23042   1.23567   1.23810   1.24135   1.25070
 Alpha virt. eigenvalues --    1.25563   1.25886   1.26210   1.27227   1.27928
 Alpha virt. eigenvalues --    1.28216   1.28359   1.28898   1.29563   1.30416
 Alpha virt. eigenvalues --    1.31390   1.32839   1.33395   1.33908   1.34321
 Alpha virt. eigenvalues --    1.34730   1.35012   1.36040   1.36181   1.37035
 Alpha virt. eigenvalues --    1.37120   1.38326   1.38563   1.39300   1.40420
 Alpha virt. eigenvalues --    1.41716   1.42786   1.43479   1.45243   1.45770
 Alpha virt. eigenvalues --    1.47003   1.47506   1.47904   1.48312   1.48460
 Alpha virt. eigenvalues --    1.48934   1.50237   1.50530   1.51126   1.51293
 Alpha virt. eigenvalues --    1.51831   1.52280   1.52785   1.53185   1.54718
 Alpha virt. eigenvalues --    1.54859   1.55187   1.55992   1.56256   1.56894
 Alpha virt. eigenvalues --    1.57753   1.57834   1.59433   1.59825   1.59965
 Alpha virt. eigenvalues --    1.60560   1.61562   1.62029   1.62695   1.62874
 Alpha virt. eigenvalues --    1.63266   1.63537   1.64325   1.64850   1.65347
 Alpha virt. eigenvalues --    1.65753   1.66010   1.66611   1.66941   1.66979
 Alpha virt. eigenvalues --    1.67853   1.68441   1.69170   1.69380   1.69687
 Alpha virt. eigenvalues --    1.69951   1.71093   1.71384   1.72380   1.72709
 Alpha virt. eigenvalues --    1.73202   1.73602   1.73811   1.74141   1.74541
 Alpha virt. eigenvalues --    1.74844   1.75140   1.75363   1.75731   1.76153
 Alpha virt. eigenvalues --    1.76548   1.76864   1.77066   1.77804   1.77957
 Alpha virt. eigenvalues --    1.78355   1.78599   1.79399   1.79560   1.80007
 Alpha virt. eigenvalues --    1.80458   1.81030   1.81284   1.81356   1.82273
 Alpha virt. eigenvalues --    1.82737   1.83280   1.83630   1.83972   1.84139
 Alpha virt. eigenvalues --    1.84523   1.85016   1.85378   1.85673   1.85963
 Alpha virt. eigenvalues --    1.86099   1.86910   1.87173   1.87797   1.88163
 Alpha virt. eigenvalues --    1.88926   1.89339   1.89683   1.89763   1.90102
 Alpha virt. eigenvalues --    1.90289   1.91028   1.91753   1.92108   1.92665
 Alpha virt. eigenvalues --    1.93251   1.94121   1.94731   1.94905   1.95768
 Alpha virt. eigenvalues --    1.96222   1.96694   1.96783   1.97045   1.98153
 Alpha virt. eigenvalues --    1.98751   1.98869   1.99035   1.99691   2.00140
 Alpha virt. eigenvalues --    2.01457   2.01561   2.02094   2.02211   2.02587
 Alpha virt. eigenvalues --    2.03972   2.04622   2.05184   2.05224   2.05942
 Alpha virt. eigenvalues --    2.06346   2.06690   2.07400   2.07826   2.08660
 Alpha virt. eigenvalues --    2.09058   2.09402   2.09556   2.10240   2.10994
 Alpha virt. eigenvalues --    2.11390   2.11980   2.12475   2.12907   2.13146
 Alpha virt. eigenvalues --    2.13504   2.14196   2.14989   2.15818   2.16164
 Alpha virt. eigenvalues --    2.17339   2.17614   2.18300   2.18889   2.19467
 Alpha virt. eigenvalues --    2.19989   2.20735   2.21569   2.21888   2.23343
 Alpha virt. eigenvalues --    2.23826   2.24590   2.25091   2.25726   2.27136
 Alpha virt. eigenvalues --    2.27600   2.28290   2.29142   2.29858   2.30269
 Alpha virt. eigenvalues --    2.30747   2.31279   2.31852   2.32956   2.33047
 Alpha virt. eigenvalues --    2.33635   2.33835   2.34368   2.35016   2.35480
 Alpha virt. eigenvalues --    2.36889   2.37517   2.38058   2.39006   2.39370
 Alpha virt. eigenvalues --    2.39528   2.39784   2.41841   2.42431   2.43100
 Alpha virt. eigenvalues --    2.43531   2.45147   2.46088   2.46166   2.46595
 Alpha virt. eigenvalues --    2.47252   2.47795   2.48472   2.49345   2.49746
 Alpha virt. eigenvalues --    2.51161   2.51836   2.52567   2.53819   2.54411
 Alpha virt. eigenvalues --    2.55186   2.56168   2.56770   2.57219   2.58227
 Alpha virt. eigenvalues --    2.58278   2.59074   2.59878   2.60839   2.61695
 Alpha virt. eigenvalues --    2.62328   2.63323   2.64252   2.64358   2.65230
 Alpha virt. eigenvalues --    2.65662   2.66254   2.66796   2.67155   2.68184
 Alpha virt. eigenvalues --    2.69185   2.70183   2.70887   2.71239   2.72056
 Alpha virt. eigenvalues --    2.72381   2.72843   2.74159   2.75097   2.75371
 Alpha virt. eigenvalues --    2.76344   2.77252   2.77596   2.78815   2.79023
 Alpha virt. eigenvalues --    2.79654   2.79886   2.80528   2.81251   2.81569
 Alpha virt. eigenvalues --    2.81959   2.82651   2.83029   2.83935   2.85482
 Alpha virt. eigenvalues --    2.86088   2.86809   2.87336   2.87537   2.88301
 Alpha virt. eigenvalues --    2.88864   2.89212   2.89702   2.90014   2.90690
 Alpha virt. eigenvalues --    2.93184   2.94797   2.95350   2.96373   2.96811
 Alpha virt. eigenvalues --    2.98229   2.98944   2.99220   3.00443   3.01278
 Alpha virt. eigenvalues --    3.01809   3.01866   3.03285   3.03671   3.06110
 Alpha virt. eigenvalues --    3.06880   3.08715   3.08914   3.09452   3.10200
 Alpha virt. eigenvalues --    3.11427   3.13456   3.14014   3.14850   3.15773
 Alpha virt. eigenvalues --    3.17195   3.17361   3.18367   3.19009   3.19441
 Alpha virt. eigenvalues --    3.20106   3.21258   3.22196   3.22586   3.26931
 Alpha virt. eigenvalues --    3.32554   3.33384   3.35981   3.37401   3.39363
 Alpha virt. eigenvalues --    3.43422   3.48566   3.51763   3.53777   3.54661
 Alpha virt. eigenvalues --    3.57577   3.58499   3.59419   3.64296   3.70645
 Alpha virt. eigenvalues --    3.71379   3.72117
          Condensed to atoms (all electrons):
 Mulliken charges:
               1
     1  O   -0.195160
     2  O   -0.251427
     3  O   -0.227589
     4  O   -0.252517
     5  O   -0.217606
     6  O   -0.228604
     7  N   -0.052407
     8  N   -0.248177
     9  N   -0.180504
    10  N   -0.261713
    11  C    0.112593
    12  C    0.312356
    13  C   -0.079780
    14  C   -0.106807
    15  C   -0.160632
    16  C   -0.046147
    17  C   -0.206052
    18  C    0.055407
    19  C   -0.039776
    20  C   -0.109392
    21  C    0.137185
    22  C    0.094455
    23  C    0.036121
    24  C    0.190211
    25  C    0.023135
    26  C   -0.132454
    27  C   -0.026900
    28  C    0.215560
    29  C   -0.022504
    30  C    0.007289
    31  C    0.052480
    32  C    0.031628
    33  C   -0.072632
    34  C    0.178203
    35  C    0.053928
    36  C   -0.056838
    37  C    0.160356
    38  C   -0.002626
    39  C   -0.139916
    40  C    0.156652
    41  C    0.046569
    42  C    0.021079
    43  C   -0.009774
    44  H    0.008507
    45  H   -0.082768
    46  H   -0.030176
    47  H    0.116897
    48  H    0.172744
    49  H    0.017249
    50  H    0.024570
    51  H    0.005068
    52  H    0.007864
    53  H   -0.030825
    54  H    0.011931
    55  H    0.024573
    56  H    0.032022
    57  H    0.048879
    58  H    0.028199
    59  H    0.057411
    60  H    0.244425
    61  H    0.044841
    62  H    0.069898
    63  H   -0.002576
    64  H    0.003168
    65  H    0.035260
    66  H    0.015331
    67  H    0.033337
    68  H    0.063722
    69  H   -0.050401
    70  H    0.013198
    71  H    0.032427
    72  H    0.210148
    73  H   -0.056828
    74  H    0.033718
    75  H    0.031374
    76  H    0.065827
    77  H    0.198052
    78  H    0.032066
    79  H    0.013596
 Sum of Mulliken charges =  -0.00000
 Mulliken charges with hydrogens summed into heavy atoms:
               1
     1  O   -0.195160
     2  O   -0.041279
     3  O   -0.227589
     4  O   -0.054465
     5  O   -0.217606
     6  O   -0.228604
     7  N    0.064490
     8  N   -0.075434
     9  N    0.063921
    10  N   -0.261713
    11  C    0.121101
    12  C    0.199413
    13  C   -0.079780
    14  C   -0.106807
    15  C   -0.160632
    16  C   -0.046147
    17  C   -0.206052
    18  C    0.097227
    19  C   -0.039776
    20  C   -0.104324
    21  C    0.137185
    22  C    0.094455
    23  C    0.036121
    24  C    0.179180
    25  C    0.128610
    26  C   -0.132454
    27  C    0.058710
    28  C    0.215560
    29  C    0.092236
    30  C    0.004713
    31  C    0.090908
    32  C    0.144018
    33  C   -0.123033
    34  C    0.178203
    35  C    0.053928
    36  C   -0.011214
    37  C    0.160356
    38  C   -0.002626
    39  C   -0.139916
    40  C    0.156652
    41  C   -0.010259
    42  C    0.151998
    43  C    0.035887
 Electronic spatial extent (au):  <R**2>=          25700.7147
 Charge=             -0.0000 electrons
 Dipole moment (field-independent basis, Debye):
    X=              3.1689    Y=              3.1708    Z=             -2.1686  Tot=              4.9798
 Quadrupole moment (field-independent basis, Debye-Ang):
   XX=           -231.7690   YY=           -236.7912   ZZ=           -266.5792
   XY=             -0.5324   XZ=            -21.7380   YZ=            -14.9235
 Traceless Quadrupole moment (field-independent basis, Debye-Ang):
   XX=             13.2775   YY=              8.2553   ZZ=            -21.5327
   XY=             -0.5324   XZ=            -21.7380   YZ=            -14.9235
 Octapole moment (field-independent basis, Debye-Ang**2):
  XXX=            164.9212  YYY=            116.5241  ZZZ=            -60.4351  XYY=             -0.2726
  XXY=              2.6329  XXZ=            -14.6148  XZZ=            -10.9986  YZZ=             54.1932
  YYZ=             28.1493  XYZ=             18.3631
 Hexadecapole moment (field-independent basis, Debye-Ang**3):
 XXXX=         -17063.4582 YYYY=          -7764.2741 ZZZZ=          -7231.3040 XXXY=           -109.4754
 XXXZ=           -366.5087 YYYX=            -47.2896 YYYZ=            109.1268 ZZZX=           -335.2343
 ZZZY=            -78.3257 XXYY=          -4254.7489 XXZZ=          -4694.5226 YYZZ=          -2460.6298
 XXYZ=           -198.2281 YYXZ=            284.9907 ZZXY=             19.2073
 N-N= 5.200289879991D+03 E-N=-1.493003141091D+04  KE= 1.927355230113D+03
 1\1\GINC-PADAWAN\SP\RB3LYP TD-FC\SVP\C33H36N4O6\PADAWAN\30-Jul-2019\0\
 \# td=(NStates=1) B3LYP/SVP\\TD\\0,1\O,0,-3.311868097,-1.1791929748,-2
 .8771783721\O,0,2.9651669715,3.1744090994,3.0858928602\O,0,3.682602568
 5,1.4616132896,4.4022446681\O,0,7.6158901919,-1.8478308973,-0.54107486
 93\O,0,6.6630504614,-2.8687976747,-2.4186083089\O,0,-2.6885997665,1.61
 46269518,1.4807581363\N,0,-0.1615018964,-2.4807643907,0.9487997208\N,0
 ,-2.5928513231,-1.3292080558,-0.722434388\N,0,1.0823297824,-0.00283937
 42,-0.7824131785\N,0,-1.0328124267,1.4049459025,-0.1494058385\C,0,-3.2
 75492699,-1.4638739498,0.6046874426\C,0,-2.6133999661,-2.3984739936,1.
 5724325501\C,0,-1.1959552372,-2.024390253,1.8502130099\C,0,-0.66425622
 79,-1.1709482865,2.8538734078\C,0,0.7572368363,-1.0283178328,2.4279839
 93\C,0,0.952187905,-1.8373401687,1.3111859226\C,0,-4.6350284494,-1.962
 4018889,0.2415410414\C,0,1.811375729,-0.2755678864,3.227284883\C,0,-4.
 8449208535,-2.0621049189,-1.1327936199\C,0,2.1319811545,-1.8474929415,
 0.3594082195\C,0,2.1851445364,-0.8930012123,-0.5944533468\C,0,-3.52633
 73036,-1.4556575311,-1.7472420076\C,0,3.1540364668,-0.6318239307,-1.75
 41293118\C,0,-1.2087994521,-0.3421780748,3.9306185702\C,0,-5.670392263
 3,-2.2636928496,1.1748384894\C,0,2.5704867056,0.4914465129,-2.39982459
 25\C,0,1.8101104434,1.2209977918,2.8374003816\C,0,1.3249458611,0.87634
 4283,-1.8241085169\C,0,4.3009654456,-1.4399734264,-2.09689932\C,0,-5.9
 220965458,-2.4094230327,-2.0161850667\C,0,5.4206776188,-1.2025720024,-
 1.0612795449\C,0,3.0872688223,1.0785162542,-3.6334698562\C,0,0.4615485
 79,1.9254376907,-2.0996717123\C,0,2.8971583561,1.9010896945,3.57213255
 85\C,0,-0.6553993715,2.1815027825,-1.1465199399\C,0,-6.9481987464,-3.1
 612998941,-1.6000785666\C,0,6.5987594455,-2.0601842735,-1.5102417142\C
 ,0,-1.4459832531,3.3837006033,-1.2387819529\C,0,-2.3617902684,3.318262
 3052,-0.1330212083\C,0,-2.0255048229,2.0795588894,0.5184907811\C,0,-1.
 2507950579,4.4567619364,-2.281199888\C,0,-3.3935299895,4.3684773306,0.
 2486791076\C,0,-1.7036642576,5.7849439126,-2.1985835912\H,0,-3.4088393
 771,-0.5232778177,1.0366578704\H,0,-2.7776793943,-3.2396690919,1.05783
 61327\H,0,-3.2695567755,-2.3350769521,2.4293823269\H,0,-0.2740527101,-
 2.9756263277,0.0810651165\H,0,-2.1088792776,-0.3514814516,-0.892013303
 7\H,0,1.6085488163,-0.4464460984,4.271759275\H,0,2.9300303359,-0.76350
 82421,2.9997749069\H,0,2.9869275067,-2.4498765706,0.6144344966\H,0,-1.
 7638290122,-0.9848777618,4.5974168035\H,0,-0.4222619942,0.2262084172,4
 .3223485914\H,0,-1.8408934031,0.410293476,3.5464134066\H,0,-5.13462424
 96,-1.8053286641,2.1322275158\H,0,-5.8574645072,-3.3078548901,1.364239
 2702\H,0,-6.7344908259,-1.8685825017,1.0438907508\H,0,1.8238585253,1.1
 926392058,1.7473223435\H,0,0.8393938909,1.7660188462,3.0839463683\H,0,
 0.4262608837,0.2010644762,0.0692648942\H,0,4.7408198012,-1.1841714761,
 -3.1788734892\H,0,4.212392069,-2.6118929685,-2.2425613641\H,0,-5.86383
 85223,-2.1023011547,-3.0444579096\H,0,5.3229102123,-1.3284633262,-0.08
 36251388\H,0,5.7723086722,-0.1566726634,-1.0632608086\H,0,4.146224534,
 0.6411806102,-3.8207403035\H,0,3.4536211137,2.1779588746,-3.337326068\
 H,0,2.4775735467,1.1235668546,-4.568429995\H,0,0.4142253325,2.47231872
 84,-2.9541963116\H,0,-7.1754166278,-3.3109432782,-0.5318522064\H,0,-7.
 7371119761,-3.5017215027,-2.3934423977\H,0,3.7036440919,3.8205314141,3
 .4104542996\H,0,-0.6754214209,4.1933306126,-3.0442423196\H,0,-3.957934
 383,4.5825248343,-0.6630774592\H,0,-4.2675255023,4.0978545791,0.918162
 6277\H,0,-2.9103993561,5.38478877,0.7710228722\H,0,8.3543911326,-2.369
 1600702,-1.0360242374\H,0,-1.806503575,6.4025407112,-3.1099758498\H,0,
 -2.4194242953,6.1349348693,-1.487984706\\Version=ES64L-G16RevA.03\Stat
 e=1-A\HF=-1947.8759433\RMSD=4.731e-09\PG=C01 [X(C33H36N4O6)]\\@


 ALL OUR THINKING ABOUT NATURE MUST NECESSARILY MOVE IN CIRCLES OR SPIRALS;
 FOR WE CAN ONLY UNDERSTAND NATURE IF WE THINK ABOUT HER, AND WE CAN ONLY
 THINK BECAUSE OUR BRAIN IS BUILT IN ACCORDANCE WITH NATURE'S LAWS.

                                             -- TIMOTHY FERRIS, "GALAXIES"
 Job cpu time:       0 days  3 hours 51 minutes 54.5 seconds.
 Elapsed time:       0 days  0 hours 58 minutes  4.7 seconds.
 File lengths (MBytes):  RWF=   2533 Int=      0 D2E=      0 Chk=     63 Scr=      1
 Normal termination of Gaussian 16 at Tue Jul 30 12:19:11 2019.
