 Entering Gaussian System, Link 0=g16
 Input=Geometria-322-.com
 Output=Geometria-322-.log
 Initial command:
 /usr/local/g16/l1.exe "/home/padawan/israel-mol/dihydrobiliverdin/spectra/emi/Gau-12711.inp" -scrdir="/home/padawan/israel-mol/dihydrobiliverdin/spectra/emi/"
 Entering Link 1 = /usr/local/g16/l1.exe PID=     12713.
  
 Copyright (c) 1988,1990,1992,1993,1995,1998,2003,2009,2016,
            Gaussian, Inc.  All Rights Reserved.
  
 This is part of the Gaussian(R) 16 program.  It is based on
 the Gaussian(R) 09 system (copyright 2009, Gaussian, Inc.),
 the Gaussian(R) 03 system (copyright 2003, Gaussian, Inc.),
 the Gaussian(R) 98 system (copyright 1998, Gaussian, Inc.),
 the Gaussian(R) 94 system (copyright 1995, Gaussian, Inc.),
 the Gaussian 92(TM) system (copyright 1992, Gaussian, Inc.),
 the Gaussian 90(TM) system (copyright 1990, Gaussian, Inc.),
 the Gaussian 88(TM) system (copyright 1988, Gaussian, Inc.),
 the Gaussian 86(TM) system (copyright 1986, Carnegie Mellon
 University), and the Gaussian 82(TM) system (copyright 1983,
 Carnegie Mellon University). Gaussian is a federally registered
 trademark of Gaussian, Inc.
  
 This software contains proprietary and confidential information,
 including trade secrets, belonging to Gaussian, Inc.
  
 This software is provided under written license and may be
 used, copied, transmitted, or stored only in accord with that
 written license.
  
 The following legend is applicable only to US Government
 contracts under FAR:
  
                    RESTRICTED RIGHTS LEGEND
  
 Use, reproduction and disclosure by the US Government is
 subject to restrictions as set forth in subparagraphs (a)
 and (c) of the Commercial Computer Software - Restricted
 Rights clause in FAR 52.227-19.
  
 Gaussian, Inc.
 340 Quinnipiac St., Bldg. 40, Wallingford CT 06492
  
  
 ---------------------------------------------------------------
 Warning -- This program may not be used in any manner that
 competes with the business of Gaussian, Inc. or will provide
 assistance to any competitor of Gaussian, Inc.  The licensee
 of this program is prohibited from giving any competitor of
 Gaussian, Inc. access to this program.  By using this program,
 the user acknowledges that Gaussian, Inc. is engaged in the
 business of creating and licensing software in the field of
 computational chemistry and represents and warrants to the
 licensee that it is not a competitor of Gaussian, Inc. and that
 it will not use this program in any manner prohibited above.
 ---------------------------------------------------------------
  

 Cite this work as:
 Gaussian 16, Revision A.03,
 M. J. Frisch, G. W. Trucks, H. B. Schlegel, G. E. Scuseria, 
 M. A. Robb, J. R. Cheeseman, G. Scalmani, V. Barone, 
 G. A. Petersson, H. Nakatsuji, X. Li, M. Caricato, A. V. Marenich, 
 J. Bloino, B. G. Janesko, R. Gomperts, B. Mennucci, H. P. Hratchian, 
 J. V. Ortiz, A. F. Izmaylov, J. L. Sonnenberg, D. Williams-Young, 
 F. Ding, F. Lipparini, F. Egidi, J. Goings, B. Peng, A. Petrone, 
 T. Henderson, D. Ranasinghe, V. G. Zakrzewski, J. Gao, N. Rega, 
 G. Zheng, W. Liang, M. Hada, M. Ehara, K. Toyota, R. Fukuda, 
 J. Hasegawa, M. Ishida, T. Nakajima, Y. Honda, O. Kitao, H. Nakai, 
 T. Vreven, K. Throssell, J. A. Montgomery, Jr., J. E. Peralta, 
 F. Ogliaro, M. J. Bearpark, J. J. Heyd, E. N. Brothers, K. N. Kudin, 
 V. N. Staroverov, T. A. Keith, R. Kobayashi, J. Normand, 
 K. Raghavachari, A. P. Rendell, J. C. Burant, S. S. Iyengar, 
 J. Tomasi, M. Cossi, J. M. Millam, M. Klene, C. Adamo, R. Cammi, 
 J. W. Ochterski, R. L. Martin, K. Morokuma, O. Farkas, 
 J. B. Foresman, and D. J. Fox, Gaussian, Inc., Wallingford CT, 2016.
 
 ******************************************
 Gaussian 16:  ES64L-G16RevA.03 25-Dec-2016
                28-Jul-2019 
 ******************************************
 %nproc=4
 Will use up to    4 processors via shared memory.
 %Mem=3GB
 --------------------------
 # td=(NStates=1) B3LYP/SVP
 --------------------------
 1/38=1,172=1/1;
 2/12=2,17=6,18=5,40=1/2;
 3/5=18,7=101,11=9,25=1,30=1,74=-5/1,2,3,8;
 4//1;
 5/5=2,38=5/2;
 8/6=1,10=1,108=1/1;
 9/41=1,42=1,70=2/14;
 6/7=2,8=2,9=2,10=2/1;
 99/5=1,9=1/99;
 --
 TD
 --
 Symbolic Z-matrix:
 Charge =  0 Multiplicity = 1
 8                    -3.17986  -1.39565  -2.82057 
 8                     2.90625   3.12084   3.16068 
 8                     3.45777   1.53894   4.64912 
 8                     7.57922  -1.84196  -0.46922 
 8                     6.62033  -3.02696  -2.20233 
 8                    -2.60867   1.63845   1.42743 
 7                    -0.24254  -2.42598   0.94555 
 7                    -2.5589   -1.24645  -0.54737 
 7                     1.09787   0.10005  -0.81357 
 7                    -0.97543   1.57759  -0.17318 
 6                    -3.31074  -1.4136    0.69127 
 6                    -2.68455  -2.3594    1.69532 
 6                    -1.17995  -2.05287   1.88963 
 6                    -0.48994  -1.18575   2.86877 
 6                     0.87831  -1.16928   2.42664 
 6                     0.9173   -1.87262   1.20606 
 6                    -4.63269  -1.83203   0.21905 
 6                     1.9933   -0.49184   3.07099 
 6                    -4.69081  -1.96585  -1.11504 
 6                     2.06757  -1.79954   0.27722 
 6                     2.05941  -0.8679   -0.75512 
 6                    -3.44578  -1.54121  -1.67294 
 6                     2.97828  -0.68401  -1.90363 
 6                    -1.11396  -0.51632   4.05993 
 6                    -5.73611  -2.2887    1.28 
 6                     2.60585   0.51381  -2.5988 
 6                     1.94024   0.95346   2.86727 
 6                     1.43149   1.00526  -1.8687 
 6                     4.21446  -1.52887  -2.22125 
 6                    -5.77229  -2.33719  -2.01253 
 6                     5.42398  -1.15112  -1.29086 
 6                     3.19164   1.16377  -3.72072 
 6                     0.59222   2.13166  -1.99403 
 6                     2.87043   1.86984   3.62923 
 6                    -0.61456   2.4626   -1.09135 
 6                    -6.90162  -3.1955   -1.68933 
 6                     6.60564  -2.14343  -1.40963 
 6                    -1.38465   3.57011  -1.16742 
 6                    -2.37543   3.40473  -0.22453 
 6                    -1.98533   2.23703   0.47982 
 6                    -1.29433   4.5606   -2.22595 
 6                    -3.53282   4.32944   0.30713 
 6                    -2.15553   5.60732  -2.62709 
 1                    -3.48064  -0.29988   1.17863 
 1                    -2.75283  -3.33926   1.33062 
 1                    -3.21089  -2.379     2.53072 
 1                    -0.60715  -2.93714   0.09538 
 1                    -1.958    -0.41917  -0.59694 
 1                     1.9365   -0.72341   4.19763 
 1                     2.96427  -1.04253   2.8445 
 1                     2.96968  -2.53695   0.06273 
 1                    -1.8759   -1.05489   4.62077 
 1                    -0.35884  -0.1605    4.69447 
 1                    -1.5075    0.46173   3.64394 
 1                    -5.73723  -1.89959   2.3712 
 1                    -5.66248  -3.41459   1.53206 
 1                    -6.9477   -1.90166   1.06933 
 1                     2.18609   1.13781   1.78564 
 1                     0.64072   1.26499   2.82896 
 1                     0.35117   0.55992   0.03596 
 1                     4.5777   -1.33579  -3.1846 
 1                     3.9624   -2.68891  -2.15532 
 1                    -5.62863  -1.98214  -2.99304 
 1                     5.08529  -1.2281   -0.36925 
 1                     5.91506  -0.27482  -1.77159 
 1                     4.01788   0.44121  -3.98919 
 1                     3.80033   2.08035  -3.45231 
 1                     2.33861   1.28339  -4.54519 
 1                     0.6979    2.77985  -2.74574 
 1                    -6.9931   -3.62485  -0.80997 
 1                    -7.54129  -3.54552  -2.45172 
 1                     3.30185   3.64362   4.12991 
 1                    -0.29208   4.60682  -2.7725 
 1                    -4.45848   4.11241  -0.36229 
 1                    -3.88954   3.96971   1.37166 
 1                    -3.15509   5.53147  -0.01922 
 1                     8.23266  -2.60989  -0.67869 
 1                    -2.00003   6.2755   -3.38838 
 1                    -3.22672   5.70109  -2.15883 
 
 Stoichiometry    C33H36N4O6
 Framework group  C1[X(C33H36N4O6)]
 Deg. of freedom   231
 Full point group                 C1      NOp   1
 Largest Abelian subgroup         C1      NOp   1
 Largest concise Abelian subgroup C1      NOp   1
                         Standard orientation:                         
 ---------------------------------------------------------------------
 Center     Atomic      Atomic             Coordinates (Angstroms)
 Number     Number       Type             X           Y           Z
 ---------------------------------------------------------------------
      1          8           0       -3.134751   -1.353884   -2.889201
      2          8           0        2.817371    3.061254    3.298994
      3          8           0        3.403120    1.433463    4.723505
      4          8           0        7.624261   -1.630780   -0.511624
      5          8           0        6.700868   -2.766679   -2.296126
      6          8           0       -2.653227    1.515759    1.482399
      7          7           0       -0.185197   -2.465661    0.844055
      8          7           0       -2.525211   -1.283193   -0.609115
      9          7           0        1.097812    0.163061   -0.803890
     10          7           0       -1.013687    1.561286   -0.112274
     11          6           0       -3.276756   -1.519769    0.618331
     12          6           0       -2.630572   -2.490387    1.585354
     13          6           0       -1.134715   -2.155052    1.798608
     14          6           0       -0.469716   -1.312236    2.815560
     15          6           0        0.899155   -1.243764    2.380408
     16          6           0        0.959664   -1.895028    1.132112
     17          6           0       -4.586326   -1.950913    0.123589
     18          6           0        1.994825   -0.566114    3.056884
     19          6           0       -4.636684   -2.031030   -1.215114
     20          6           0        2.110828   -1.755331    0.212057
     21          6           0        2.082922   -0.782425   -0.781129
     22          6           0       -3.400761   -1.553132   -1.749690
     23          6           0        3.000728   -0.528715   -1.917123
     24          6           0       -1.114125   -0.708080    4.030521
     25          6           0       -5.681557   -2.478035    1.160078
     26          6           0        2.600937    0.687168   -2.564060
     27          6           0        1.906523    0.884602    2.912539
     28          6           0        1.412309    1.118948   -1.819461
     29          6           0        4.258573   -1.328974   -2.263855
     30          6           0       -5.705628   -2.391672   -2.131791
     31          6           0        5.455244   -0.960117   -1.313492
     32          6           0        3.174095    1.397091   -3.655754
     33          6           0        0.545718    2.228479   -1.902001
     34          6           0        2.811108    1.791498    3.715549
     35          6           0       -0.671893    2.492026   -0.991714
     36          6           0       -6.814336   -3.290218   -1.849041
     37          6           0        6.661598   -1.917200   -1.467844
     38          6           0       -1.469026    3.582366   -1.025516
     39          6           0       -2.458507    3.353843   -0.094518
     40          6           0       -2.041829    2.168105    0.562904
     41          6           0       -1.399859    4.617570   -2.042023
     42          6           0       -3.640284    4.226984    0.469703
     43          6           0       -2.285484    5.658330   -2.403504
     44          1           0       -3.475904   -0.431614    1.150338
     45          1           0       -2.673262   -3.455771    1.180380
     46          1           0       -3.159027   -2.557397    2.416952
     47          1           0       -0.534166   -2.950205   -0.027987
     48          1           0       -1.944910   -0.439979   -0.622032
     49          1           0        1.940070   -0.845254    4.172796
     50          1           0        2.979930   -1.082843    2.812149
     51          1           0        3.031689   -2.460761   -0.028665
     52          1           0       -1.864291   -1.287974    4.565435
     53          1           0       -0.370184   -0.360171    4.682412
     54          1           0       -1.530481    0.276255    3.653399
     55          1           0       -5.695967   -2.134375    2.266342
     56          1           0       -5.580789   -3.611193    1.365945
     57          1           0       -6.901695   -2.112692    0.960261
     58          1           0        2.151292    1.119392    1.840471
     59          1           0        0.599794    1.165245    2.881442
     60          1           0        0.337105    0.568942    0.060587
     61          1           0        4.620093   -1.087436   -3.216871
     62          1           0        4.035215   -2.496616   -2.246771
     63          1           0       -5.567590   -1.993078   -3.096240
     64          1           0        5.115523   -1.083363   -0.397303
     65          1           0        5.925979   -0.052893   -1.755653
     66          1           0        4.018930    0.706837   -3.950126
     67          1           0        3.758914    2.316582   -3.347251
     68          1           0        2.321088    1.529475   -4.478293
     69          1           0        0.637739    2.909512   -2.625954
     70          1           0       -6.898016   -3.757573   -0.988485
     71          1           0       -7.442578   -3.624209   -2.627941
     72          1           0        3.196645    3.553260    4.290599
     73          1           0       -0.397269    4.711020   -2.581857
     74          1           0       -4.558043    4.014919   -0.212078
     75          1           0       -3.991465    3.814985    1.516981
     76          1           0       -3.291478    5.450407    0.194691
     77          1           0        8.297283   -2.373052   -0.749661
     78          1           0       -2.144130    6.360956   -3.136003
     79          1           0       -3.360214    5.706237   -1.936431
 ---------------------------------------------------------------------
 Rotational constants (GHZ):           0.0882174           0.0505078           0.0486696
 Standard basis: SVP (5D, 7F)
 There are   825 symmetry adapted cartesian basis functions of A   symmetry.
 There are   782 symmetry adapted basis functions of A   symmetry.
   782 basis functions,  1327 primitive gaussians,   825 cartesian basis functions
   155 alpha electrons      155 beta electrons
       nuclear repulsion energy      5177.1135008229 Hartrees.
 NAtoms=   79 NActive=   79 NUniq=   79 SFac= 1.00D+00 NAtFMM=   60 NAOKFM=T Big=T
 Integral buffers will be    131072 words long.
 Regular integral format.
 Two-electron integral symmetry is turned on.
 One-electron integrals computed using PRISM.
 NBasis=   782 RedAO= T EigKep=  3.73D-04  NBF=   782
 NBsUse=   782 1.00D-06 EigRej= -1.00D+00 NBFU=   782
 ExpMin= 1.22D-01 ExpMax= 2.27D+03 ExpMxC= 3.41D+02 IAcc=3 IRadAn=         5 AccDes= 0.00D+00
 Harris functional with IExCor=  402 and IRadAn=       5 diagonalized for initial guess.
 HarFok:  IExCor=  402 AccDes= 0.00D+00 IRadAn=         5 IDoV= 1 UseB2=F ITyADJ=14
 ICtDFT=  3500011 ScaDFX=  1.000000  1.000000  1.000000  1.000000
 FoFCou: FMM=F IPFlag=           0 FMFlag=      100000 FMFlg1=        2001
         NFxFlg=           0 DoJE=T BraDBF=F KetDBF=T FulRan=T
         wScrn=  0.000000 ICntrl=       500 IOpCl=  0 I1Cent=   200000004 NGrid=           0
         NMat0=    1 NMatS0=      1 NMatT0=    0 NMatD0=    1 NMtDS0=    0 NMtDT0=    0
 Petite list used in FoFCou.
 Requested convergence on RMS density matrix=1.00D-08 within 128 cycles.
 Requested convergence on MAX density matrix=1.00D-06.
 Requested convergence on             energy=1.00D-06.
 No special actions if energy rises.
 Integral accuracy reduced to 1.0D-05 until final iterations.
 Initial convergence to 1.0D-05 achieved.  Increase integral accuracy.
 SCF Done:  E(RB3LYP) =  -1947.76964082     A.U. after   18 cycles
            NFock= 18  Conv=0.92D-08     -V/T= 2.0109
 DoSCS=F DFT=T ScalE2(SS,OS)=  1.000000  1.000000
 ExpMin= 1.22D-01 ExpMax= 2.27D+03 ExpMxC= 3.41D+02 IAcc=3 IRadAn=         5 AccDes= 0.00D+00
 HarFok:  IExCor=  205 AccDes= 0.00D+00 IRadAn=         5 IDoV=-2 UseB2=F ITyADJ=14
 ICtDFT= 12500011 ScaDFX=  1.000000  1.000000  1.000000  1.000000
 GSVD:  LWork=       -2193 too small for GESVD, short by        9890 words or        9890 for optimal perf.
 Range of M.O.s used for correlation:    44   782
 NBasis=   782 NAE=   155 NBE=   155 NFC=    43 NFV=     0
 NROrb=    739 NOA=   112 NOB=   112 NVA=   627 NVB=   627

 **** Warning!!: The smallest alpha delta epsilon is  0.52171936D-01

 Orbital symmetries:
       Occupied  (A) (A) (A) (A) (A) (A) (A) (A) (A) (A) (A) (A)
                 (A) (A) (A) (A) (A) (A) (A) (A) (A) (A) (A) (A)
                 (A) (A) (A) (A) (A) (A) (A) (A) (A) (A) (A) (A)
                 (A) (A) (A) (A) (A) (A) (A) (A) (A) (A) (A) (A)
                 (A) (A) (A) (A) (A) (A) (A) (A) (A) (A) (A) (A)
                 (A) (A) (A) (A) (A) (A) (A) (A) (A) (A) (A) (A)
                 (A) (A) (A) (A) (A) (A) (A) (A) (A) (A) (A) (A)
                 (A) (A) (A) (A) (A) (A) (A) (A) (A) (A) (A) (A)
                 (A) (A) (A) (A) (A) (A) (A) (A) (A) (A) (A) (A)
                 (A) (A) (A) (A) (A) (A) (A) (A) (A) (A) (A) (A)
                 (A) (A) (A) (A) (A) (A) (A) (A) (A) (A) (A) (A)
                 (A) (A) (A) (A) (A) (A) (A) (A) (A) (A) (A) (A)
                 (A) (A) (A) (A) (A) (A) (A) (A) (A) (A) (A)
       Virtual   (A) (A) (A) (A) (A) (A) (A) (A) (A) (A) (A) (A)
                 (A) (A) (A) (A) (A) (A) (A) (A) (A) (A) (A) (A)
                 (A) (A) (A) (A) (A) (A) (A) (A) (A) (A) (A) (A)
                 (A) (A) (A) (A) (A) (A) (A) (A) (A) (A) (A) (A)
                 (A) (A) (A) (A) (A) (A) (A) (A) (A) (A) (A) (A)
                 (A) (A) (A) (A) (A) (A) (A) (A) (A) (A) (A) (A)
                 (A) (A) (A) (A) (A) (A) (A) (A) (A) (A) (A) (A)
                 (A) (A) (A) (A) (A) (A) (A) (A) (A) (A) (A) (A)
                 (A) (A) (A) (A) (A) (A) (A) (A) (A) (A) (A) (A)
                 (A) (A) (A) (A) (A) (A) (A) (A) (A) (A) (A) (A)
                 (A) (A) (A) (A) (A) (A) (A) (A) (A) (A) (A) (A)
                 (A) (A) (A) (A) (A) (A) (A) (A) (A) (A) (A) (A)
                 (A) (A) (A) (A) (A) (A) (A) (A) (A) (A) (A) (A)
                 (A) (A) (A) (A) (A) (A) (A) (A) (A) (A) (A) (A)
                 (A) (A) (A) (A) (A) (A) (A) (A) (A) (A) (A) (A)
                 (A) (A) (A) (A) (A) (A) (A) (A) (A) (A) (A) (A)
                 (A) (A) (A) (A) (A) (A) (A) (A) (A) (A) (A) (A)
                 (A) (A) (A) (A) (A) (A) (A) (A) (A) (A) (A) (A)
                 (A) (A) (A) (A) (A) (A) (A) (A) (A) (A) (A) (A)
                 (A) (A) (A) (A) (A) (A) (A) (A) (A) (A) (A) (A)
                 (A) (A) (A) (A) (A) (A) (A) (A) (A) (A) (A) (A)
                 (A) (A) (A) (A) (A) (A) (A) (A) (A) (A) (A) (A)
                 (A) (A) (A) (A) (A) (A) (A) (A) (A) (A) (A) (A)
                 (A) (A) (A) (A) (A) (A) (A) (A) (A) (A) (A) (A)
                 (A) (A) (A) (A) (A) (A) (A) (A) (A) (A) (A) (A)
                 (A) (A) (A) (A) (A) (A) (A) (A) (A) (A) (A) (A)
                 (A) (A) (A) (A) (A) (A) (A) (A) (A) (A) (A) (A)
                 (A) (A) (A) (A) (A) (A) (A) (A) (A) (A) (A) (A)
                 (A) (A) (A) (A) (A) (A) (A) (A) (A) (A) (A) (A)
                 (A) (A) (A) (A) (A) (A) (A) (A) (A) (A) (A) (A)
                 (A) (A) (A) (A) (A) (A) (A) (A) (A) (A) (A) (A)
                 (A) (A) (A) (A) (A) (A) (A) (A) (A) (A) (A) (A)
                 (A) (A) (A) (A) (A) (A) (A) (A) (A) (A) (A) (A)
                 (A) (A) (A) (A) (A) (A) (A) (A) (A) (A) (A) (A)
                 (A) (A) (A) (A) (A) (A) (A) (A) (A) (A) (A) (A)
                 (A) (A) (A) (A) (A) (A) (A) (A) (A) (A) (A) (A)
                 (A) (A) (A) (A) (A) (A) (A) (A) (A) (A) (A) (A)
                 (A) (A) (A) (A) (A) (A) (A) (A) (A) (A) (A) (A)
                 (A) (A) (A) (A) (A) (A) (A) (A) (A) (A) (A) (A)
                 (A) (A) (A) (A) (A) (A) (A) (A) (A) (A) (A) (A)
                 (A) (A) (A) (A) (A) (A) (A) (A) (A) (A) (A) (A)
                 (A) (A) (A) (A) (A) (A) (A) (A) (A) (A) (A) (A)
                 (A) (A) (A) (A) (A) (A) (A) (A) (A) (A) (A) (A)
                 (A) (A) (A) (A) (A) (A) (A) (A) (A) (A) (A) (A)
                 (A) (A) (A) (A) (A) (A) (A) (A) (A) (A) (A) (A)
                 (A) (A) (A) (A) (A) (A) (A) (A) (A) (A) (A) (A)
                 (A) (A) (A) (A) (A) (A) (A) (A) (A) (A) (A) (A)
                 (A) (A) (A) (A) (A) (A) (A) (A) (A) (A) (A) (A)
                 (A) (A) (A) (A) (A) (A) (A) (A) (A) (A) (A) (A)
                 (A) (A) (A) (A) (A) (A) (A) (A) (A) (A) (A) (A)
                 (A) (A) (A) (A) (A) (A) (A) (A) (A) (A) (A) (A)
                 (A) (A) (A) (A) (A) (A) (A) (A) (A) (A) (A) (A)
                 (A) (A) (A)
     4 initial guesses have been made.
 Convergence on wavefunction:    0.001000000000000
 Iteration     1 Dimension     4 NMult     0 NNew      4
 CISAX will form     4 AO SS matrices at one time.
 Iteration     2 Dimension     6 NMult     4 NNew      2
 Iteration     3 Dimension     8 NMult     6 NNew      2
 Iteration     4 Dimension    10 NMult     8 NNew      2
 Iteration     5 Dimension    12 NMult    10 NNew      2
 ***********************************************************************
 Excited states from <AA,BB:AA,BB> singles matrix:
 ***********************************************************************
 
 Ground to excited state transition densities written to RWF  633
 Ground to excited state transition electric dipole moments (Au):
       state          X           Y           Z        Dip. S.      Osc.
         1        -0.0924      0.1039     -0.0794      0.0257      0.0005
 Ground to excited state transition velocity dipole moments (Au):
       state          X           Y           Z        Dip. S.      Osc.
         1         0.0025     -0.0030      0.0039      0.0000      0.0007
 Ground to excited state transition magnetic dipole moments (Au):
       state          X           Y           Z
         1        -0.1042     -0.1606     -0.1940
 Ground to excited state transition velocity quadrupole moments (Au):
       state          XX          YY          ZZ          XY          XZ          YZ
         1        -0.0109     -0.0064      0.0164     -0.0020      0.0018     -0.0056
 <0|del|b> * <b|rxdel|0> + <0|del|b> * <b|delr+rdel|0>
 Rotatory Strengths (R) in cgs (10**-40 erg-esu-cm/Gauss)
       state          XX          YY          ZZ    R(velocity)    E-M Angle
         1        -3.4067    -12.6317      2.8838     -4.3849      110.71
 1/2[<0|r|b>*<b|rxdel|0> + (<0|rxdel|b>*<b|r|0>)*]
 Rotatory Strengths (R) in cgs (10**-40 erg-esu-cm/Gauss)
       state          XX          YY          ZZ     R(length)
         1        -6.8118     11.8046    -10.8974     -1.9682
  1/2[<0|del|b>*<b|r|0> + (<0|r|b>*<b|del|0>)*] (Au)
       state          X           Y           Z        Dip. S.   Osc.(frdel)
         1        -0.0002     -0.0003     -0.0003      0.0009      0.0006

 Excitation energies and oscillator strengths:
 
 Excited State   1:      Singlet-A      0.7787 eV 1592.28 nm  f=0.0005  <S**2>=0.000
     155 ->156         0.70384
 This state for optimization and/or second-order correction.
 Total Energy, E(TD-HF/TD-DFT) =  -1947.74102574    
 Copying the excited state density for this state as the 1-particle RhoCI density.
 SavETr:  write IOETrn=   770 NScale= 10 NData=  16 NLR=1 NState=    1 LETran=      28.

 **********************************************************************

            Population analysis using the SCF density.

 **********************************************************************

 Orbital symmetries:
       Occupied  (A) (A) (A) (A) (A) (A) (A) (A) (A) (A) (A) (A)
                 (A) (A) (A) (A) (A) (A) (A) (A) (A) (A) (A) (A)
                 (A) (A) (A) (A) (A) (A) (A) (A) (A) (A) (A) (A)
                 (A) (A) (A) (A) (A) (A) (A) (A) (A) (A) (A) (A)
                 (A) (A) (A) (A) (A) (A) (A) (A) (A) (A) (A) (A)
                 (A) (A) (A) (A) (A) (A) (A) (A) (A) (A) (A) (A)
                 (A) (A) (A) (A) (A) (A) (A) (A) (A) (A) (A) (A)
                 (A) (A) (A) (A) (A) (A) (A) (A) (A) (A) (A) (A)
                 (A) (A) (A) (A) (A) (A) (A) (A) (A) (A) (A) (A)
                 (A) (A) (A) (A) (A) (A) (A) (A) (A) (A) (A) (A)
                 (A) (A) (A) (A) (A) (A) (A) (A) (A) (A) (A) (A)
                 (A) (A) (A) (A) (A) (A) (A) (A) (A) (A) (A) (A)
                 (A) (A) (A) (A) (A) (A) (A) (A) (A) (A) (A)
       Virtual   (A) (A) (A) (A) (A) (A) (A) (A) (A) (A) (A) (A)
                 (A) (A) (A) (A) (A) (A) (A) (A) (A) (A) (A) (A)
                 (A) (A) (A) (A) (A) (A) (A) (A) (A) (A) (A) (A)
                 (A) (A) (A) (A) (A) (A) (A) (A) (A) (A) (A) (A)
                 (A) (A) (A) (A) (A) (A) (A) (A) (A) (A) (A) (A)
                 (A) (A) (A) (A) (A) (A) (A) (A) (A) (A) (A) (A)
                 (A) (A) (A) (A) (A) (A) (A) (A) (A) (A) (A) (A)
                 (A) (A) (A) (A) (A) (A) (A) (A) (A) (A) (A) (A)
                 (A) (A) (A) (A) (A) (A) (A) (A) (A) (A) (A) (A)
                 (A) (A) (A) (A) (A) (A) (A) (A) (A) (A) (A) (A)
                 (A) (A) (A) (A) (A) (A) (A) (A) (A) (A) (A) (A)
                 (A) (A) (A) (A) (A) (A) (A) (A) (A) (A) (A) (A)
                 (A) (A) (A) (A) (A) (A) (A) (A) (A) (A) (A) (A)
                 (A) (A) (A) (A) (A) (A) (A) (A) (A) (A) (A) (A)
                 (A) (A) (A) (A) (A) (A) (A) (A) (A) (A) (A) (A)
                 (A) (A) (A) (A) (A) (A) (A) (A) (A) (A) (A) (A)
                 (A) (A) (A) (A) (A) (A) (A) (A) (A) (A) (A) (A)
                 (A) (A) (A) (A) (A) (A) (A) (A) (A) (A) (A) (A)
                 (A) (A) (A) (A) (A) (A) (A) (A) (A) (A) (A) (A)
                 (A) (A) (A) (A) (A) (A) (A) (A) (A) (A) (A) (A)
                 (A) (A) (A) (A) (A) (A) (A) (A) (A) (A) (A) (A)
                 (A) (A) (A) (A) (A) (A) (A) (A) (A) (A) (A) (A)
                 (A) (A) (A) (A) (A) (A) (A) (A) (A) (A) (A) (A)
                 (A) (A) (A) (A) (A) (A) (A) (A) (A) (A) (A) (A)
                 (A) (A) (A) (A) (A) (A) (A) (A) (A) (A) (A) (A)
                 (A) (A) (A) (A) (A) (A) (A) (A) (A) (A) (A) (A)
                 (A) (A) (A) (A) (A) (A) (A) (A) (A) (A) (A) (A)
                 (A) (A) (A) (A) (A) (A) (A) (A) (A) (A) (A) (A)
                 (A) (A) (A) (A) (A) (A) (A) (A) (A) (A) (A) (A)
                 (A) (A) (A) (A) (A) (A) (A) (A) (A) (A) (A) (A)
                 (A) (A) (A) (A) (A) (A) (A) (A) (A) (A) (A) (A)
                 (A) (A) (A) (A) (A) (A) (A) (A) (A) (A) (A) (A)
                 (A) (A) (A) (A) (A) (A) (A) (A) (A) (A) (A) (A)
                 (A) (A) (A) (A) (A) (A) (A) (A) (A) (A) (A) (A)
                 (A) (A) (A) (A) (A) (A) (A) (A) (A) (A) (A) (A)
                 (A) (A) (A) (A) (A) (A) (A) (A) (A) (A) (A) (A)
                 (A) (A) (A) (A) (A) (A) (A) (A) (A) (A) (A) (A)
                 (A) (A) (A) (A) (A) (A) (A) (A) (A) (A) (A) (A)
                 (A) (A) (A) (A) (A) (A) (A) (A) (A) (A) (A) (A)
                 (A) (A) (A) (A) (A) (A) (A) (A) (A) (A) (A) (A)
                 (A) (A) (A) (A) (A) (A) (A) (A) (A) (A) (A) (A)
                 (A) (A) (A) (A) (A) (A) (A) (A) (A) (A) (A) (A)
                 (A) (A) (A) (A) (A) (A) (A) (A) (A) (A) (A) (A)
                 (A) (A) (A) (A) (A) (A) (A) (A) (A) (A) (A) (A)
                 (A) (A) (A) (A) (A) (A) (A) (A) (A) (A) (A) (A)
                 (A) (A) (A) (A) (A) (A) (A) (A) (A) (A) (A) (A)
                 (A) (A) (A) (A) (A) (A) (A) (A) (A) (A) (A) (A)
                 (A) (A) (A) (A) (A) (A) (A) (A) (A) (A) (A) (A)
                 (A) (A) (A) (A) (A) (A) (A) (A) (A) (A) (A) (A)
                 (A) (A) (A) (A) (A) (A) (A) (A) (A) (A) (A) (A)
                 (A) (A) (A) (A) (A) (A) (A) (A) (A) (A) (A) (A)
                 (A) (A) (A) (A) (A) (A) (A) (A) (A) (A) (A) (A)
                 (A) (A) (A)
 The electronic state is 1-A.
 Alpha  occ. eigenvalues --  -19.19943 -19.18883 -19.14790 -19.12079 -19.11955
 Alpha  occ. eigenvalues --  -19.09190 -14.37169 -14.35938 -14.31780 -14.31294
 Alpha  occ. eigenvalues --  -10.33231 -10.31388 -10.27757 -10.26524 -10.26020
 Alpha  occ. eigenvalues --  -10.25192 -10.24600 -10.23533 -10.23406 -10.23038
 Alpha  occ. eigenvalues --  -10.22770 -10.22575 -10.22423 -10.22332 -10.22199
 Alpha  occ. eigenvalues --  -10.22040 -10.21946 -10.21916 -10.21647 -10.21455
 Alpha  occ. eigenvalues --  -10.21286 -10.21057 -10.20845 -10.20729 -10.20254
 Alpha  occ. eigenvalues --  -10.19698 -10.18608 -10.18338 -10.18141 -10.18137
 Alpha  occ. eigenvalues --  -10.17372 -10.17087 -10.16631  -1.10431  -1.08269
 Alpha  occ. eigenvalues --   -1.02582  -1.02542  -1.01837  -0.98606  -0.97477
 Alpha  occ. eigenvalues --   -0.96534  -0.95132  -0.91570  -0.83076  -0.82017
 Alpha  occ. eigenvalues --   -0.81493  -0.80729  -0.79829  -0.78633  -0.77798
 Alpha  occ. eigenvalues --   -0.76167  -0.75213  -0.74638  -0.73172  -0.72465
 Alpha  occ. eigenvalues --   -0.71147  -0.70050  -0.68952  -0.68158  -0.66679
 Alpha  occ. eigenvalues --   -0.65775  -0.65473  -0.63406  -0.61628  -0.60388
 Alpha  occ. eigenvalues --   -0.59715  -0.58716  -0.56834  -0.56511  -0.55996
 Alpha  occ. eigenvalues --   -0.55376  -0.54507  -0.54195  -0.53728  -0.52935
 Alpha  occ. eigenvalues --   -0.52340  -0.51844  -0.50924  -0.49880  -0.49764
 Alpha  occ. eigenvalues --   -0.49248  -0.48780  -0.48352  -0.48032  -0.47543
 Alpha  occ. eigenvalues --   -0.47042  -0.46575  -0.46338  -0.46010  -0.45546
 Alpha  occ. eigenvalues --   -0.45416  -0.45071  -0.44097  -0.44025  -0.43826
 Alpha  occ. eigenvalues --   -0.43287  -0.42839  -0.42674  -0.41822  -0.41690
 Alpha  occ. eigenvalues --   -0.41432  -0.41398  -0.40916  -0.40701  -0.40657
 Alpha  occ. eigenvalues --   -0.40362  -0.39807  -0.39610  -0.39540  -0.39388
 Alpha  occ. eigenvalues --   -0.39193  -0.38778  -0.38591  -0.38320  -0.37961
 Alpha  occ. eigenvalues --   -0.37725  -0.37675  -0.37610  -0.37305  -0.37097
 Alpha  occ. eigenvalues --   -0.36168  -0.35903  -0.35670  -0.35206  -0.34966
 Alpha  occ. eigenvalues --   -0.34276  -0.33787  -0.32199  -0.31481  -0.31126
 Alpha  occ. eigenvalues --   -0.30747  -0.29972  -0.29615  -0.29490  -0.28752
 Alpha  occ. eigenvalues --   -0.27491  -0.26251  -0.25986  -0.24994  -0.24181
 Alpha  occ. eigenvalues --   -0.24050  -0.22368  -0.22154  -0.21383  -0.18760
 Alpha virt. eigenvalues --   -0.13543  -0.08242  -0.04919  -0.02966  -0.01625
 Alpha virt. eigenvalues --   -0.00186   0.00773   0.00888   0.01981   0.03019
 Alpha virt. eigenvalues --    0.03148   0.03238   0.03684   0.04608   0.04776
 Alpha virt. eigenvalues --    0.05418   0.06083   0.06189   0.06471   0.06617
 Alpha virt. eigenvalues --    0.07117   0.07668   0.07739   0.08067   0.08437
 Alpha virt. eigenvalues --    0.09463   0.09989   0.10077   0.10156   0.10848
 Alpha virt. eigenvalues --    0.11300   0.11487   0.11659   0.11967   0.12535
 Alpha virt. eigenvalues --    0.12792   0.13014   0.13369   0.13892   0.14465
 Alpha virt. eigenvalues --    0.14590   0.15096   0.15497   0.15589   0.15842
 Alpha virt. eigenvalues --    0.16833   0.17323   0.17787   0.18161   0.18227
 Alpha virt. eigenvalues --    0.18548   0.18868   0.19144   0.19584   0.19810
 Alpha virt. eigenvalues --    0.20138   0.20608   0.21425   0.22322   0.22670
 Alpha virt. eigenvalues --    0.23066   0.23268   0.23691   0.24672   0.25155
 Alpha virt. eigenvalues --    0.25618   0.25718   0.26252   0.26565   0.26889
 Alpha virt. eigenvalues --    0.27707   0.27937   0.28335   0.28622   0.29466
 Alpha virt. eigenvalues --    0.29713   0.29855   0.30406   0.30778   0.31052
 Alpha virt. eigenvalues --    0.31424   0.31775   0.32126   0.32851   0.33274
 Alpha virt. eigenvalues --    0.34604   0.34742   0.35027   0.36044   0.36605
 Alpha virt. eigenvalues --    0.36882   0.37111   0.37860   0.38249   0.38814
 Alpha virt. eigenvalues --    0.39234   0.40106   0.40692   0.41083   0.41830
 Alpha virt. eigenvalues --    0.42067   0.42198   0.42466   0.42576   0.43322
 Alpha virt. eigenvalues --    0.43596   0.43974   0.44735   0.44914   0.45070
 Alpha virt. eigenvalues --    0.45549   0.45878   0.46098   0.46602   0.46901
 Alpha virt. eigenvalues --    0.47309   0.47563   0.47762   0.48085   0.48325
 Alpha virt. eigenvalues --    0.48719   0.49232   0.49425   0.49699   0.49804
 Alpha virt. eigenvalues --    0.50169   0.50287   0.50413   0.50684   0.50979
 Alpha virt. eigenvalues --    0.51059   0.51533   0.52269   0.52430   0.52861
 Alpha virt. eigenvalues --    0.53125   0.53710   0.54426   0.54832   0.54968
 Alpha virt. eigenvalues --    0.55544   0.55994   0.56684   0.56972   0.57568
 Alpha virt. eigenvalues --    0.57973   0.58342   0.58606   0.58749   0.59198
 Alpha virt. eigenvalues --    0.59613   0.59683   0.59980   0.60103   0.60411
 Alpha virt. eigenvalues --    0.60958   0.61467   0.61586   0.62169   0.62371
 Alpha virt. eigenvalues --    0.62534   0.62683   0.62828   0.63085   0.63511
 Alpha virt. eigenvalues --    0.63581   0.63761   0.63870   0.64328   0.64431
 Alpha virt. eigenvalues --    0.64737   0.65102   0.65931   0.65946   0.66325
 Alpha virt. eigenvalues --    0.66376   0.66708   0.66885   0.67176   0.67410
 Alpha virt. eigenvalues --    0.67808   0.67924   0.68436   0.68609   0.68826
 Alpha virt. eigenvalues --    0.69089   0.69380   0.69465   0.69594   0.70039
 Alpha virt. eigenvalues --    0.70260   0.70549   0.70652   0.71271   0.71420
 Alpha virt. eigenvalues --    0.71943   0.72145   0.72783   0.73633   0.73767
 Alpha virt. eigenvalues --    0.73922   0.74136   0.74558   0.74575   0.75001
 Alpha virt. eigenvalues --    0.75415   0.75792   0.75957   0.76261   0.76991
 Alpha virt. eigenvalues --    0.77130   0.77494   0.77706   0.78892   0.79286
 Alpha virt. eigenvalues --    0.79797   0.80140   0.80405   0.80691   0.81342
 Alpha virt. eigenvalues --    0.81947   0.82387   0.82621   0.83148   0.83693
 Alpha virt. eigenvalues --    0.84302   0.85066   0.85429   0.85929   0.86441
 Alpha virt. eigenvalues --    0.86945   0.87959   0.88465   0.89260   0.89988
 Alpha virt. eigenvalues --    0.90938   0.91482   0.91956   0.93007   0.93550
 Alpha virt. eigenvalues --    0.94373   0.94763   0.94814   0.95213   0.95843
 Alpha virt. eigenvalues --    0.96731   0.97252   0.97388   0.98287   0.98722
 Alpha virt. eigenvalues --    0.99698   1.00351   1.00882   1.01605   1.02621
 Alpha virt. eigenvalues --    1.03192   1.03897   1.04717   1.06016   1.06539
 Alpha virt. eigenvalues --    1.07285   1.08022   1.08366   1.08976   1.09793
 Alpha virt. eigenvalues --    1.10665   1.11097   1.11690   1.12584   1.12770
 Alpha virt. eigenvalues --    1.13517   1.13966   1.14370   1.14664   1.15475
 Alpha virt. eigenvalues --    1.16222   1.16318   1.17342   1.17972   1.18782
 Alpha virt. eigenvalues --    1.19639   1.20154   1.20737   1.21455   1.21622
 Alpha virt. eigenvalues --    1.22597   1.23071   1.23577   1.24196   1.24898
 Alpha virt. eigenvalues --    1.25445   1.26067   1.26432   1.26782   1.27046
 Alpha virt. eigenvalues --    1.27467   1.27760   1.28207   1.29357   1.29652
 Alpha virt. eigenvalues --    1.30365   1.31083   1.32191   1.32544   1.33397
 Alpha virt. eigenvalues --    1.34442   1.35367   1.35772   1.35972   1.36281
 Alpha virt. eigenvalues --    1.37650   1.38479   1.39175   1.40073   1.40345
 Alpha virt. eigenvalues --    1.40862   1.41963   1.42796   1.43013   1.43635
 Alpha virt. eigenvalues --    1.44038   1.44910   1.45789   1.47059   1.47489
 Alpha virt. eigenvalues --    1.47754   1.48793   1.49075   1.49758   1.50300
 Alpha virt. eigenvalues --    1.50694   1.51268   1.52171   1.52316   1.52629
 Alpha virt. eigenvalues --    1.53199   1.54323   1.55484   1.55771   1.56628
 Alpha virt. eigenvalues --    1.57585   1.58470   1.58783   1.59377   1.60163
 Alpha virt. eigenvalues --    1.60884   1.61070   1.61128   1.61456   1.62635
 Alpha virt. eigenvalues --    1.63059   1.63304   1.63463   1.64067   1.64563
 Alpha virt. eigenvalues --    1.64688   1.65149   1.65316   1.66086   1.66821
 Alpha virt. eigenvalues --    1.66932   1.67396   1.67648   1.68059   1.68320
 Alpha virt. eigenvalues --    1.69004   1.69602   1.69789   1.70705   1.70935
 Alpha virt. eigenvalues --    1.71578   1.71824   1.72258   1.72655   1.73183
 Alpha virt. eigenvalues --    1.73843   1.74058   1.74623   1.74715   1.75228
 Alpha virt. eigenvalues --    1.75700   1.76127   1.76473   1.76958   1.77130
 Alpha virt. eigenvalues --    1.77364   1.77701   1.78184   1.78233   1.78899
 Alpha virt. eigenvalues --    1.79122   1.79582   1.79662   1.80441   1.81043
 Alpha virt. eigenvalues --    1.81591   1.81749   1.82697   1.82770   1.83294
 Alpha virt. eigenvalues --    1.83961   1.84481   1.84973   1.85316   1.85624
 Alpha virt. eigenvalues --    1.86021   1.86371   1.87012   1.87297   1.87514
 Alpha virt. eigenvalues --    1.87847   1.88200   1.89131   1.89248   1.89578
 Alpha virt. eigenvalues --    1.89965   1.90074   1.90338   1.90741   1.91221
 Alpha virt. eigenvalues --    1.91861   1.92655   1.93476   1.93817   1.94127
 Alpha virt. eigenvalues --    1.94586   1.94855   1.95288   1.95859   1.96713
 Alpha virt. eigenvalues --    1.97150   1.97786   1.97875   1.98598   1.98960
 Alpha virt. eigenvalues --    1.99421   1.99911   2.01075   2.01512   2.01654
 Alpha virt. eigenvalues --    2.02490   2.02745   2.03861   2.04495   2.04519
 Alpha virt. eigenvalues --    2.05067   2.05298   2.05731   2.06413   2.06535
 Alpha virt. eigenvalues --    2.06640   2.07268   2.07832   2.08143   2.08707
 Alpha virt. eigenvalues --    2.08883   2.09236   2.10596   2.11461   2.11789
 Alpha virt. eigenvalues --    2.12673   2.12922   2.13641   2.13695   2.14399
 Alpha virt. eigenvalues --    2.14954   2.15296   2.16198   2.17362   2.17877
 Alpha virt. eigenvalues --    2.18781   2.19146   2.20178   2.20948   2.21443
 Alpha virt. eigenvalues --    2.21865   2.21912   2.22078   2.24159   2.24745
 Alpha virt. eigenvalues --    2.24936   2.25898   2.26211   2.27419   2.27561
 Alpha virt. eigenvalues --    2.28835   2.29148   2.29734   2.30010   2.30997
 Alpha virt. eigenvalues --    2.31889   2.32220   2.33675   2.34339   2.35028
 Alpha virt. eigenvalues --    2.35359   2.36300   2.36685   2.37113   2.37658
 Alpha virt. eigenvalues --    2.37919   2.38058   2.38495   2.39232   2.39955
 Alpha virt. eigenvalues --    2.40434   2.40786   2.41178   2.42378   2.43034
 Alpha virt. eigenvalues --    2.43811   2.44640   2.45657   2.46777   2.47744
 Alpha virt. eigenvalues --    2.50162   2.51039   2.52091   2.52675   2.53328
 Alpha virt. eigenvalues --    2.54239   2.54767   2.55691   2.55876   2.56056
 Alpha virt. eigenvalues --    2.56578   2.57913   2.58380   2.59298   2.60416
 Alpha virt. eigenvalues --    2.60692   2.60918   2.61423   2.62643   2.63956
 Alpha virt. eigenvalues --    2.64339   2.65059   2.66008   2.66154   2.67502
 Alpha virt. eigenvalues --    2.68083   2.68607   2.69128   2.70016   2.70437
 Alpha virt. eigenvalues --    2.70866   2.71052   2.71525   2.72175   2.73978
 Alpha virt. eigenvalues --    2.74537   2.74724   2.76052   2.76523   2.76697
 Alpha virt. eigenvalues --    2.77403   2.78810   2.79169   2.80233   2.80365
 Alpha virt. eigenvalues --    2.81169   2.82025   2.82278   2.82792   2.83714
 Alpha virt. eigenvalues --    2.84573   2.85110   2.85619   2.86730   2.87129
 Alpha virt. eigenvalues --    2.87629   2.88084   2.88596   2.89115   2.90128
 Alpha virt. eigenvalues --    2.90994   2.92400   2.93126   2.93520   2.95268
 Alpha virt. eigenvalues --    2.96042   2.97334   2.98580   2.99258   3.00440
 Alpha virt. eigenvalues --    3.02272   3.02937   3.03607   3.03706   3.04714
 Alpha virt. eigenvalues --    3.05501   3.06746   3.08264   3.09691   3.11145
 Alpha virt. eigenvalues --    3.12097   3.12323   3.13983   3.14377   3.16617
 Alpha virt. eigenvalues --    3.18126   3.18277   3.18979   3.19956   3.20637
 Alpha virt. eigenvalues --    3.22180   3.23223   3.23727   3.25464   3.27111
 Alpha virt. eigenvalues --    3.29881   3.34654   3.34761   3.36952   3.39530
 Alpha virt. eigenvalues --    3.39779   3.42557   3.45289   3.51640   3.55577
 Alpha virt. eigenvalues --    3.57016   3.61557   3.62647   3.62751   3.65760
 Alpha virt. eigenvalues --    3.70902   3.73613
          Condensed to atoms (all electrons):
 Mulliken charges:
               1
     1  O   -0.185837
     2  O   -0.254602
     3  O   -0.246496
     4  O   -0.230154
     5  O   -0.191485
     6  O   -0.258306
     7  N   -0.002067
     8  N   -0.274979
     9  N   -0.225853
    10  N   -0.266588
    11  C    0.007591
    12  C    0.365237
    13  C   -0.161336
    14  C   -0.141342
    15  C   -0.149165
    16  C    0.024226
    17  C   -0.119229
    18  C    0.132200
    19  C   -0.029301
    20  C   -0.123055
    21  C    0.071488
    22  C    0.133225
    23  C   -0.057193
    24  C    0.131595
    25  C   -0.058242
    26  C   -0.099341
    27  C   -0.102846
    28  C    0.150321
    29  C    0.041062
    30  C   -0.021900
    31  C    0.095477
    32  C    0.057833
    33  C   -0.027895
    34  C    0.175941
    35  C    0.050166
    36  C    0.037656
    37  C    0.108714
    38  C    0.062680
    39  C   -0.151577
    40  C    0.156734
    41  C   -0.061612
    42  C   -0.014060
    43  C   -0.028367
    44  H    0.088912
    45  H   -0.056127
    46  H   -0.068555
    47  H    0.140052
    48  H    0.147602
    49  H    0.016709
    50  H    0.004116
    51  H    0.010551
    52  H    0.015292
    53  H   -0.024584
    54  H    0.033722
    55  H    0.027452
    56  H    0.050635
    57  H    0.058442
    58  H    0.027105
    59  H    0.094754
    60  H    0.280818
    61  H   -0.008492
    62  H    0.053184
    63  H   -0.009223
    64  H   -0.002936
    65  H    0.046256
    66  H    0.007412
    67  H    0.049904
    68  H    0.073423
    69  H   -0.092647
    70  H   -0.025624
    71  H    0.016165
    72  H    0.249923
    73  H    0.025586
    74  H    0.052325
    75  H    0.072343
    76  H    0.068521
    77  H    0.201038
    78  H    0.014176
    79  H    0.042456
 Sum of Mulliken charges =  -0.00000
 Mulliken charges with hydrogens summed into heavy atoms:
               1
     1  O   -0.185837
     2  O   -0.004679
     3  O   -0.246496
     4  O   -0.029116
     5  O   -0.191485
     6  O   -0.258306
     7  N    0.137985
     8  N   -0.127377
     9  N    0.054965
    10  N   -0.266588
    11  C    0.096503
    12  C    0.240555
    13  C   -0.161336
    14  C   -0.141342
    15  C   -0.149165
    16  C    0.024226
    17  C   -0.119229
    18  C    0.153025
    19  C   -0.029301
    20  C   -0.112504
    21  C    0.071488
    22  C    0.133225
    23  C   -0.057193
    24  C    0.156025
    25  C    0.078288
    26  C   -0.099341
    27  C    0.019013
    28  C    0.150321
    29  C    0.085754
    30  C   -0.031123
    31  C    0.138796
    32  C    0.188572
    33  C   -0.120541
    34  C    0.175941
    35  C    0.050166
    36  C    0.028196
    37  C    0.108714
    38  C    0.062680
    39  C   -0.151577
    40  C    0.156734
    41  C   -0.036026
    42  C    0.179129
    43  C    0.028265
 Electronic spatial extent (au):  <R**2>=          25854.1711
 Charge=              0.0000 electrons
 Dipole moment (field-independent basis, Debye):
    X=              2.1569    Y=              3.1040    Z=             -1.4946  Tot=              4.0646
 Quadrupole moment (field-independent basis, Debye-Ang):
   XX=           -232.7574   YY=           -230.3379   ZZ=           -268.1268
   XY=              1.0370   XZ=            -21.9341   YZ=            -14.1342
 Traceless Quadrupole moment (field-independent basis, Debye-Ang):
   XX=             10.9833   YY=             13.4028   ZZ=            -24.3861
   XY=              1.0370   XZ=            -21.9341   YZ=            -14.1342
 Octapole moment (field-independent basis, Debye-Ang**2):
  XXX=            173.3579  YYY=             84.0794  ZZZ=            -12.7001  XYY=            -23.9546
  XXY=            -30.2530  XXZ=             -0.5336  XZZ=             -2.5046  YZZ=             82.9593
  YYZ=             11.9781  XYZ=             13.7695
 Hexadecapole moment (field-independent basis, Debye-Ang**3):
 XXXX=         -17066.6984 YYYY=          -7947.7056 ZZZZ=          -7537.0870 XXXY=           -308.4899
 XXXZ=           -299.4815 YYYX=            -83.3328 YYYZ=            -30.8531 ZZZX=           -295.1115
 ZZZY=             90.5749 XXYY=          -4171.6344 XXZZ=          -4652.5237 YYZZ=          -2387.7445
 XXYZ=           -235.4806 YYXZ=            264.6482 ZZXY=            197.7070
 N-N= 5.177113500823D+03 E-N=-1.488305158770D+04  KE= 1.926675173705D+03
 1\1\GINC-PADAWAN\SP\RB3LYP TD-FC\SVP\C33H36N4O6\PADAWAN\28-Jul-2019\0\
 \# td=(NStates=1) B3LYP/SVP\\TD\\0,1\O,0,-3.1798648967,-1.395654621,-2
 .8205727116\O,0,2.9062510799,3.1208437429,3.1606803389\O,0,3.457770085
 2,1.5389410224,4.6491193555\O,0,7.5792165246,-1.8419603102,-0.46921768
 36\O,0,6.620326189,-3.0269634912,-2.2023266808\O,0,-2.6086717737,1.638
 449334,1.4274328038\N,0,-0.2425400002,-2.4259789122,0.9455493957\N,0,-
 2.5588979278,-1.24644978,-0.5473668813\N,0,1.0978713365,0.1000509148,-
 0.8135662938\N,0,-0.9754266882,1.5775931672,-0.1731782157\C,0,-3.31073
 62233,-1.4135989223,0.6912661005\C,0,-2.6845470808,-2.3594000862,1.695
 3248393\C,0,-1.1799536371,-2.0528731013,1.8896269513\C,0,-0.4899387962
 ,-1.1857497667,2.868774898\C,0,0.8783089435,-1.1692819292,2.426643859\
 C,0,0.9173044166,-1.8726236971,1.2060554095\C,0,-4.6326882154,-1.83202
 88516,0.2190487922\C,0,1.9933039218,-0.4918395136,3.0709892534\C,0,-4.
 6908054419,-1.9658452929,-1.1150418447\C,0,2.0675747139,-1.799538146,0
 .2772200007\C,0,2.0594119631,-0.8678987021,-0.7551194134\C,0,-3.445779
 2478,-1.5412060859,-1.6729445779\C,0,2.9782788911,-0.6840091492,-1.903
 6342623\C,0,-1.1139599682,-0.5163154885,4.0599315015\C,0,-5.736108835,
 -2.2886953498,1.2799990055\C,0,2.6058502419,0.5138087491,-2.5988044904
 \C,0,1.9402434567,0.9534610381,2.8672733689\C,0,1.4314865152,1.0052571
 743,-1.8687029763\C,0,4.2144567948,-1.5288723163,-2.2212517553\C,0,-5.
 7722915653,-2.337185809,-2.0125347017\C,0,5.4239779488,-1.1511168569,-
 1.2908625032\C,0,3.1916392593,1.1637747801,-3.7207185811\C,0,0.5922216
 463,2.1316583127,-1.9940311482\C,0,2.8704256829,1.8698365692,3.6292282
 68\C,0,-0.6145552871,2.4626008923,-1.0913544233\C,0,-6.9016240889,-3.1
 955033144,-1.6893274914\C,0,6.6056401336,-2.1434325984,-1.4096316532\C
 ,0,-1.3846471195,3.5701092441,-1.1674248172\C,0,-2.3754316326,3.404730
 9521,-0.2245303592\C,0,-1.9853308055,2.237034637,0.4798169137\C,0,-1.2
 943294113,4.5606023204,-2.2259543634\C,0,-3.5328239189,4.3294434272,0.
 3071349532\C,0,-2.1555294441,5.6073161498,-2.6270864414\H,0,-3.4806365
 569,-0.2998754774,1.1786320678\H,0,-2.7528269091,-3.3392590509,1.33062
 34114\H,0,-3.2108909089,-2.3790013445,2.5307224609\H,0,-0.6071460194,-
 2.9371424793,0.0953765477\H,0,-1.9580041901,-0.4191682203,-0.596943796
 8\H,0,1.9365016116,-0.7234137952,4.1976318623\H,0,2.9642737603,-1.0425
 261439,2.8444993793\H,0,2.9696757815,-2.5369452774,0.0627293261\H,0,-1
 .8759002193,-1.0548947635,4.6207691387\H,0,-0.3588356516,-0.1605002536
 ,4.6944658031\H,0,-1.5075000638,0.4617286196,3.6439431596\H,0,-5.73723
 45107,-1.89958809,2.3712014131\H,0,-5.6624750082,-3.4145855632,1.53205
 60519\H,0,-6.947702147,-1.901655809,1.069333295\H,0,2.1860947489,1.137
 8137233,1.7856361749\H,0,0.6407240239,1.2649887432,2.8289608698\H,0,0.
 3511733749,0.5599203618,0.0359615639\H,0,4.5777034895,-1.3357866377,-3
 .1846040623\H,0,3.9623970695,-2.6889106703,-2.1553226403\H,0,-5.628625
 0009,-1.9821391385,-2.9930427681\H,0,5.0852864499,-1.2281032902,-0.369
 2537017\H,0,5.9150629476,-0.2748244785,-1.7715916417\H,0,4.0178816997,
 0.4412106132,-3.9891871482\H,0,3.8003257842,2.0803491136,-3.4523075662
 \H,0,2.3386096503,1.2833928372,-4.5451876708\H,0,0.6979037004,2.779849
 4814,-2.7457354655\H,0,-6.9930983959,-3.6248546694,-0.8099700182\H,0,-
 7.5412923941,-3.5455158821,-2.4517182253\H,0,3.3018539129,3.6436237234
 ,4.1299062448\H,0,-0.2920830871,4.6068219617,-2.7724951449\H,0,-4.4584
 84438,4.1124078226,-0.3622873802\H,0,-3.8895377035,3.9697117648,1.3716
 579772\H,0,-3.1550938256,5.5314734384,-0.0192161517\H,0,8.2326589594,-
 2.6098941436,-0.6786885039\H,0,-2.0000329279,6.2754980069,-3.388383690
 6\H,0,-3.2267150244,5.7010914849,-2.1588317907\\Version=ES64L-G16RevA.
 03\State=1-A\HF=-1947.7696408\RMSD=9.224e-09\PG=C01 [X(C33H36N4O6)]\\@


 "MATHEMATICS IS THE ART OF GIVING THE SAME NAME
 TO DIFFERENT THINGS."
                    - H. POINCARE
 Job cpu time:       0 days  3 hours 45 minutes 39.9 seconds.
 Elapsed time:       0 days  0 hours 56 minutes 31.1 seconds.
 File lengths (MBytes):  RWF=   2533 Int=      0 D2E=      0 Chk=     63 Scr=      1
 Normal termination of Gaussian 16 at Sun Jul 28 19:22:59 2019.
