 Entering Gaussian System, Link 0=g16
 Input=Geometria-50-.com
 Output=Geometria-50-.log
 Initial command:
 /usr/local/g16/l1.exe "/home/padawan/israel-mol/dihydrobiliverdin/spectra/emi/Gau-12733.inp" -scrdir="/home/padawan/israel-mol/dihydrobiliverdin/spectra/emi/"
 Entering Link 1 = /usr/local/g16/l1.exe PID=     12735.
  
 Copyright (c) 1988,1990,1992,1993,1995,1998,2003,2009,2016,
            Gaussian, Inc.  All Rights Reserved.
  
 This is part of the Gaussian(R) 16 program.  It is based on
 the Gaussian(R) 09 system (copyright 2009, Gaussian, Inc.),
 the Gaussian(R) 03 system (copyright 2003, Gaussian, Inc.),
 the Gaussian(R) 98 system (copyright 1998, Gaussian, Inc.),
 the Gaussian(R) 94 system (copyright 1995, Gaussian, Inc.),
 the Gaussian 92(TM) system (copyright 1992, Gaussian, Inc.),
 the Gaussian 90(TM) system (copyright 1990, Gaussian, Inc.),
 the Gaussian 88(TM) system (copyright 1988, Gaussian, Inc.),
 the Gaussian 86(TM) system (copyright 1986, Carnegie Mellon
 University), and the Gaussian 82(TM) system (copyright 1983,
 Carnegie Mellon University). Gaussian is a federally registered
 trademark of Gaussian, Inc.
  
 This software contains proprietary and confidential information,
 including trade secrets, belonging to Gaussian, Inc.
  
 This software is provided under written license and may be
 used, copied, transmitted, or stored only in accord with that
 written license.
  
 The following legend is applicable only to US Government
 contracts under FAR:
  
                    RESTRICTED RIGHTS LEGEND
  
 Use, reproduction and disclosure by the US Government is
 subject to restrictions as set forth in subparagraphs (a)
 and (c) of the Commercial Computer Software - Restricted
 Rights clause in FAR 52.227-19.
  
 Gaussian, Inc.
 340 Quinnipiac St., Bldg. 40, Wallingford CT 06492
  
  
 ---------------------------------------------------------------
 Warning -- This program may not be used in any manner that
 competes with the business of Gaussian, Inc. or will provide
 assistance to any competitor of Gaussian, Inc.  The licensee
 of this program is prohibited from giving any competitor of
 Gaussian, Inc. access to this program.  By using this program,
 the user acknowledges that Gaussian, Inc. is engaged in the
 business of creating and licensing software in the field of
 computational chemistry and represents and warrants to the
 licensee that it is not a competitor of Gaussian, Inc. and that
 it will not use this program in any manner prohibited above.
 ---------------------------------------------------------------
  

 Cite this work as:
 Gaussian 16, Revision A.03,
 M. J. Frisch, G. W. Trucks, H. B. Schlegel, G. E. Scuseria, 
 M. A. Robb, J. R. Cheeseman, G. Scalmani, V. Barone, 
 G. A. Petersson, H. Nakatsuji, X. Li, M. Caricato, A. V. Marenich, 
 J. Bloino, B. G. Janesko, R. Gomperts, B. Mennucci, H. P. Hratchian, 
 J. V. Ortiz, A. F. Izmaylov, J. L. Sonnenberg, D. Williams-Young, 
 F. Ding, F. Lipparini, F. Egidi, J. Goings, B. Peng, A. Petrone, 
 T. Henderson, D. Ranasinghe, V. G. Zakrzewski, J. Gao, N. Rega, 
 G. Zheng, W. Liang, M. Hada, M. Ehara, K. Toyota, R. Fukuda, 
 J. Hasegawa, M. Ishida, T. Nakajima, Y. Honda, O. Kitao, H. Nakai, 
 T. Vreven, K. Throssell, J. A. Montgomery, Jr., J. E. Peralta, 
 F. Ogliaro, M. J. Bearpark, J. J. Heyd, E. N. Brothers, K. N. Kudin, 
 V. N. Staroverov, T. A. Keith, R. Kobayashi, J. Normand, 
 K. Raghavachari, A. P. Rendell, J. C. Burant, S. S. Iyengar, 
 J. Tomasi, M. Cossi, J. M. Millam, M. Klene, C. Adamo, R. Cammi, 
 J. W. Ochterski, R. L. Martin, K. Morokuma, O. Farkas, 
 J. B. Foresman, and D. J. Fox, Gaussian, Inc., Wallingford CT, 2016.
 
 ******************************************
 Gaussian 16:  ES64L-G16RevA.03 25-Dec-2016
                15-Sep-2019 
 ******************************************
 %nproc=4
 Will use up to    4 processors via shared memory.
 %Mem=4GB
 --------------------------
 # td=(NStates=1) B3LYP/SVP
 --------------------------
 1/38=1,172=1/1;
 2/12=2,17=6,18=5,40=1/2;
 3/5=18,7=101,11=9,25=1,30=1,74=-5/1,2,3,8;
 4//1;
 5/5=2,38=5/2;
 8/6=1,10=1,108=1/1;
 9/41=1,42=1,70=2/14;
 6/7=2,8=2,9=2,10=2/1;
 99/5=1,9=1/99;
 --
 TD
 --
 Symbolic Z-matrix:
 Charge =  0 Multiplicity = 1
 8                    -5.52077  -0.05673  -3.26952 
 8                     3.16792   2.66528   2.91187 
 8                     3.44344   0.40695   2.69164 
 8                     1.9261   -7.0455    1.54364 
 8                     0.45329  -6.94291  -0.24303 
 8                     1.60251   3.89888   0.02096 
 7                    -2.30768  -0.90561   0.54505 
 7                    -4.40307   0.44173  -1.2803 
 7                     1.8807   -0.60247  -0.49149 
 7                     2.53288   1.91185  -0.39041 
 6                    -4.70606   1.16534  -0.03096 
 6                    -4.38822   0.37164   1.27638 
 6                    -2.96934   0.04775   1.37855 
 6                    -1.94783   0.5354    2.37044 
 6                    -0.76815  -0.13853   1.95253 
 6                    -0.99604  -1.00709   0.90897 
 6                    -6.25277   1.38651  -0.20874 
 6                     0.58427   0.06626   2.67672 
 6                    -6.65929   0.87867  -1.38163 
 6                    -0.20747  -1.90439   0.03736 
 6                     1.07773  -1.792    -0.41658 
 6                    -5.53414   0.38996  -2.11691 
 6                     1.99015  -2.89924  -1.01646 
 6                    -2.2015    1.62418   3.35803 
 6                    -7.06951   2.16502   0.74133 
 6                     3.18542  -2.28335  -1.28918 
 6                     1.2189    1.47941   2.46483 
 6                     3.09084  -0.82985  -1.10323 
 6                     1.54747  -4.36165  -0.86727 
 6                    -7.98833   0.88318  -2.03045 
 6                     1.90181  -4.92358   0.38128 
 6                     4.35587  -2.87751  -1.97756 
 6                     3.96281   0.14821  -1.28935 
 6                     2.71489   1.42059   2.81804 
 6                     3.65949   1.44942  -1.03831 
 6                    -9.23055   0.90443  -1.48612 
 6                     1.21285  -6.36442   0.45575 
 6                     4.59817   2.66445  -1.45088 
 6                     3.76602   3.84231  -1.03757 
 6                     2.56987   3.36929  -0.44529 
 6                     5.96227   2.50355  -1.79963 
 6                     4.03855   5.22646  -1.17494 
 6                     6.66131   3.56191  -2.34405 
 1                    -4.09992   2.03273  -0.19931 
 1                    -5.10456  -0.447     1.15465 
 1                    -4.70413   1.09554   2.01879 
 1                    -2.72454  -1.32     -0.19243 
 1                    -3.42835   0.56755  -1.78498 
 1                     0.45032   0.02874   3.97729 
 1                     1.54852  -0.76702   2.27676 
 1                    -0.70377  -2.77242  -0.23529 
 1                    -3.45181   1.70296   3.48711 
 1                    -1.94626   1.17973   4.28871 
 1                    -1.52054   2.56292   2.96513 
 1                    -6.49948   3.15294   1.10926 
 1                    -7.52588   1.73659   1.69016 
 1                    -7.90281   2.67966   0.15185 
 1                     1.11775   1.84831   1.52409 
 1                     0.69009   2.37359   3.11898 
 1                     1.62811   0.43574  -0.35455 
 1                     2.00597  -4.90429  -1.66483 
 1                     0.65088  -4.48627  -1.2849 
 1                    -8.20173   1.07481  -3.05618 
 1                     1.58437  -4.421     1.25232 
 1                     2.85542  -5.19924   0.79066 
 1                     4.21496  -3.98473  -2.26103 
 1                     5.28455  -2.77022  -1.31434 
 1                     4.55719  -2.34296  -2.94905 
 1                     4.85707  -0.25227  -1.63829 
 1                    -9.52115   0.94718  -0.42107 
 1                    -10.02811   1.02099  -1.97264 
 1                     4.23439   2.62332   2.66612 
 1                     6.62204   1.58701  -1.82463 
 1                     5.05289   5.40697  -0.55383 
 1                     4.09297   5.80247  -2.13784 
 1                     3.19624   5.73702  -0.66497 
 1                     1.51619  -8.07018   1.60736 
 1                     7.78547   3.34433  -2.50509 
 1                     6.22421   4.58597  -2.75054 
 
 Stoichiometry    C33H36N4O6
 Framework group  C1[X(C33H36N4O6)]
 Deg. of freedom   231
 Full point group                 C1      NOp   1
 Largest Abelian subgroup         C1      NOp   1
 Largest concise Abelian subgroup C1      NOp   1
                         Standard orientation:                         
 ---------------------------------------------------------------------
 Center     Atomic      Atomic             Coordinates (Angstroms)
 Number     Number       Type             X           Y           Z
 ---------------------------------------------------------------------
      1          8           0        5.549962    0.072234   -3.222019
      2          8           0       -3.140703   -2.634360    2.963351
      3          8           0       -3.458544   -0.389662    2.672126
      4          8           0       -2.077490    7.053439    1.311195
      5          8           0       -0.586364    6.926258   -0.458627
      6          8           0       -1.524458   -3.923358    0.125069
      7          7           0        2.285392    0.971833    0.536806
      8          7           0        4.423797   -0.388032   -1.228372
      9          7           0       -1.886372    0.553993   -0.526498
     10          7           0       -2.489871   -1.968628   -0.354655
     11          6           0        4.729313   -1.067332    0.044997
     12          6           0        4.383751   -0.240952    1.324767
     13          6           0        2.957888    0.057513    1.404659
     14          6           0        1.936975   -0.420198    2.401985
     15          6           0        0.748209    0.217115    1.953494
     16          6           0        0.968679    1.058093    0.886025
     17          6           0        6.281665   -1.262878   -0.112483
     18          6           0       -0.606610    0.007388    2.671765
     19          6           0        6.689024   -0.782738   -1.296700
     20          6           0        0.170756    1.912706   -0.019328
     21          6           0       -1.107700    1.761022   -0.480822
     22          6           0        5.561384   -0.339032   -2.056282
     23          6           0       -2.036098    2.831192   -1.122037
     24          6           0        2.202797   -1.473332    3.424416
     25          6           0        7.104683   -1.995857    0.867910
     26          6           0       -3.216428    2.183612   -1.386302
     27          6           0       -1.211313   -1.423902    2.497447
     28          6           0       -3.094998    0.738580   -1.155404
     29          6           0       -1.623681    4.305987   -1.013555
     30          6           0        8.023891   -0.780359   -1.933471
     31          6           0       -2.000625    4.898243    0.214187
     32          6           0       -4.391873    2.733211   -2.102612
     33          6           0       -3.945784   -0.261867   -1.319273
     34          6           0       -2.711401   -1.384284    2.835648
     35          6           0       -3.619277   -1.548575   -1.026124
     36          6           0        9.261157   -0.760354   -1.377942
     37          6           0       -1.340869    6.354133    0.250789
     38          6           0       -4.529983   -2.794014   -1.409705
     39          6           0       -3.678704   -3.942001   -0.953506
     40          6           0       -2.497665   -3.427517   -0.365496
     41          6           0       -5.893677   -2.670971   -1.775065
     42          6           0       -3.922661   -5.334827   -1.051076
     43          6           0       -6.566652   -3.759054   -2.293102
     44          1           0        4.141959   -1.951342   -0.102162
     45          1           0        5.084948    0.587752    1.184430
     46          1           0        4.706912   -0.935627    2.091576
     47          1           0        2.700873    1.371961   -0.209276
     48          1           0        3.456494   -0.548475   -1.737467
     49          1           0       -0.485550    0.086885    3.971710
     50          1           0       -1.583301    0.808787    2.238255
     51          1           0        0.652403    2.781826   -0.313919
     52          1           0        3.453157   -1.523218    3.566725
     53          1           0        1.930201   -1.006116    4.338881
     54          1           0        1.544131   -2.436925    3.054342
     55          1           0        6.550796   -2.983371    1.260749
     56          1           0        7.543673   -1.529906    1.807206
     57          1           0        7.953395   -2.511365    0.301652
     58          1           0       -1.094170   -1.818996    1.569283
     59          1           0       -0.671134   -2.287169    3.183080
     60          1           0       -1.614690   -0.474361   -0.355841
     61          1           0       -2.085317    4.815003   -1.831224
     62          1           0       -0.725862    4.435775   -1.426951
     63          1           0        8.250565   -0.998627   -2.950997
     64          1           0       -1.681491    4.428670    1.102847
     65          1           0       -2.963251    5.167075    0.606657
     66          1           0       -4.270134    3.833941   -2.418401
     67          1           0       -5.324399    2.627525   -1.444553
     68          1           0       -4.573572    2.165613   -3.059114
     69          1           0       -4.844458    0.109959   -1.688014
     70          1           0        9.542603   -0.765066   -0.309593
     71          1           0       10.065357   -0.875643   -1.853720
     72          1           0       -4.205458   -2.621126    2.707156
     73          1           0       -6.571086   -1.768956   -1.833687
     74          1           0       -4.938992   -5.516673   -0.433631
     75          1           0       -3.956765   -5.940667   -1.996440
     76          1           0       -3.075254   -5.812830   -0.518485
     77          1           0       -1.688430    8.087547    1.347275
     78          1           0       -7.693331   -3.568911   -2.470479
     79          1           0       -6.105728   -4.786019   -2.664421
 ---------------------------------------------------------------------
 Rotational constants (GHZ):           0.0764721           0.0452596           0.0349767
 Standard basis: SVP (5D, 7F)
 There are   825 symmetry adapted cartesian basis functions of A   symmetry.
 There are   782 symmetry adapted basis functions of A   symmetry.
   782 basis functions,  1327 primitive gaussians,   825 cartesian basis functions
   155 alpha electrons      155 beta electrons
       nuclear repulsion energy      4942.8681471728 Hartrees.
 NAtoms=   79 NActive=   79 NUniq=   79 SFac= 1.00D+00 NAtFMM=   60 NAOKFM=T Big=T
 Integral buffers will be    131072 words long.
 Regular integral format.
 Two-electron integral symmetry is turned on.
 One-electron integrals computed using PRISM.
 NBasis=   782 RedAO= T EigKep=  3.24D-04  NBF=   782
 NBsUse=   782 1.00D-06 EigRej= -1.00D+00 NBFU=   782
 ExpMin= 1.22D-01 ExpMax= 2.27D+03 ExpMxC= 3.41D+02 IAcc=3 IRadAn=         5 AccDes= 0.00D+00
 Harris functional with IExCor=  402 and IRadAn=       5 diagonalized for initial guess.
 HarFok:  IExCor=  402 AccDes= 0.00D+00 IRadAn=         5 IDoV= 1 UseB2=F ITyADJ=14
 ICtDFT=  3500011 ScaDFX=  1.000000  1.000000  1.000000  1.000000
 FoFCou: FMM=F IPFlag=           0 FMFlag=      100000 FMFlg1=        2001
         NFxFlg=           0 DoJE=T BraDBF=F KetDBF=T FulRan=T
         wScrn=  0.000000 ICntrl=       500 IOpCl=  0 I1Cent=   200000004 NGrid=           0
         NMat0=    1 NMatS0=      1 NMatT0=    0 NMatD0=    1 NMtDS0=    0 NMtDT0=    0
 Petite list used in FoFCou.
 Requested convergence on RMS density matrix=1.00D-08 within 128 cycles.
 Requested convergence on MAX density matrix=1.00D-06.
 Requested convergence on             energy=1.00D-06.
 No special actions if energy rises.
 Integral accuracy reduced to 1.0D-05 until final iterations.
 Initial convergence to 1.0D-05 achieved.  Increase integral accuracy.
 SCF Done:  E(RB3LYP) =  -1947.76535958     A.U. after   17 cycles
            NFock= 17  Conv=0.38D-08     -V/T= 2.0109
 DoSCS=F DFT=T ScalE2(SS,OS)=  1.000000  1.000000
 ExpMin= 1.22D-01 ExpMax= 2.27D+03 ExpMxC= 3.41D+02 IAcc=3 IRadAn=         5 AccDes= 0.00D+00
 HarFok:  IExCor=  205 AccDes= 0.00D+00 IRadAn=         5 IDoV=-2 UseB2=F ITyADJ=14
 ICtDFT= 12500011 ScaDFX=  1.000000  1.000000  1.000000  1.000000
 GSVD:  LWork=       -2193 too small for GESVD, short by        9890 words or        9890 for optimal perf.
 Range of M.O.s used for correlation:    44   782
 NBasis=   782 NAE=   155 NBE=   155 NFC=    43 NFV=     0
 NROrb=    739 NOA=   112 NOB=   112 NVA=   627 NVB=   627

 **** Warning!!: The smallest alpha delta epsilon is  0.75909633D-01

 Orbital symmetries:
       Occupied  (A) (A) (A) (A) (A) (A) (A) (A) (A) (A) (A) (A)
                 (A) (A) (A) (A) (A) (A) (A) (A) (A) (A) (A) (A)
                 (A) (A) (A) (A) (A) (A) (A) (A) (A) (A) (A) (A)
                 (A) (A) (A) (A) (A) (A) (A) (A) (A) (A) (A) (A)
                 (A) (A) (A) (A) (A) (A) (A) (A) (A) (A) (A) (A)
                 (A) (A) (A) (A) (A) (A) (A) (A) (A) (A) (A) (A)
                 (A) (A) (A) (A) (A) (A) (A) (A) (A) (A) (A) (A)
                 (A) (A) (A) (A) (A) (A) (A) (A) (A) (A) (A) (A)
                 (A) (A) (A) (A) (A) (A) (A) (A) (A) (A) (A) (A)
                 (A) (A) (A) (A) (A) (A) (A) (A) (A) (A) (A) (A)
                 (A) (A) (A) (A) (A) (A) (A) (A) (A) (A) (A) (A)
                 (A) (A) (A) (A) (A) (A) (A) (A) (A) (A) (A) (A)
                 (A) (A) (A) (A) (A) (A) (A) (A) (A) (A) (A)
       Virtual   (A) (A) (A) (A) (A) (A) (A) (A) (A) (A) (A) (A)
                 (A) (A) (A) (A) (A) (A) (A) (A) (A) (A) (A) (A)
                 (A) (A) (A) (A) (A) (A) (A) (A) (A) (A) (A) (A)
                 (A) (A) (A) (A) (A) (A) (A) (A) (A) (A) (A) (A)
                 (A) (A) (A) (A) (A) (A) (A) (A) (A) (A) (A) (A)
                 (A) (A) (A) (A) (A) (A) (A) (A) (A) (A) (A) (A)
                 (A) (A) (A) (A) (A) (A) (A) (A) (A) (A) (A) (A)
                 (A) (A) (A) (A) (A) (A) (A) (A) (A) (A) (A) (A)
                 (A) (A) (A) (A) (A) (A) (A) (A) (A) (A) (A) (A)
                 (A) (A) (A) (A) (A) (A) (A) (A) (A) (A) (A) (A)
                 (A) (A) (A) (A) (A) (A) (A) (A) (A) (A) (A) (A)
                 (A) (A) (A) (A) (A) (A) (A) (A) (A) (A) (A) (A)
                 (A) (A) (A) (A) (A) (A) (A) (A) (A) (A) (A) (A)
                 (A) (A) (A) (A) (A) (A) (A) (A) (A) (A) (A) (A)
                 (A) (A) (A) (A) (A) (A) (A) (A) (A) (A) (A) (A)
                 (A) (A) (A) (A) (A) (A) (A) (A) (A) (A) (A) (A)
                 (A) (A) (A) (A) (A) (A) (A) (A) (A) (A) (A) (A)
                 (A) (A) (A) (A) (A) (A) (A) (A) (A) (A) (A) (A)
                 (A) (A) (A) (A) (A) (A) (A) (A) (A) (A) (A) (A)
                 (A) (A) (A) (A) (A) (A) (A) (A) (A) (A) (A) (A)
                 (A) (A) (A) (A) (A) (A) (A) (A) (A) (A) (A) (A)
                 (A) (A) (A) (A) (A) (A) (A) (A) (A) (A) (A) (A)
                 (A) (A) (A) (A) (A) (A) (A) (A) (A) (A) (A) (A)
                 (A) (A) (A) (A) (A) (A) (A) (A) (A) (A) (A) (A)
                 (A) (A) (A) (A) (A) (A) (A) (A) (A) (A) (A) (A)
                 (A) (A) (A) (A) (A) (A) (A) (A) (A) (A) (A) (A)
                 (A) (A) (A) (A) (A) (A) (A) (A) (A) (A) (A) (A)
                 (A) (A) (A) (A) (A) (A) (A) (A) (A) (A) (A) (A)
                 (A) (A) (A) (A) (A) (A) (A) (A) (A) (A) (A) (A)
                 (A) (A) (A) (A) (A) (A) (A) (A) (A) (A) (A) (A)
                 (A) (A) (A) (A) (A) (A) (A) (A) (A) (A) (A) (A)
                 (A) (A) (A) (A) (A) (A) (A) (A) (A) (A) (A) (A)
                 (A) (A) (A) (A) (A) (A) (A) (A) (A) (A) (A) (A)
                 (A) (A) (A) (A) (A) (A) (A) (A) (A) (A) (A) (A)
                 (A) (A) (A) (A) (A) (A) (A) (A) (A) (A) (A) (A)
                 (A) (A) (A) (A) (A) (A) (A) (A) (A) (A) (A) (A)
                 (A) (A) (A) (A) (A) (A) (A) (A) (A) (A) (A) (A)
                 (A) (A) (A) (A) (A) (A) (A) (A) (A) (A) (A) (A)
                 (A) (A) (A) (A) (A) (A) (A) (A) (A) (A) (A) (A)
                 (A) (A) (A) (A) (A) (A) (A) (A) (A) (A) (A) (A)
                 (A) (A) (A) (A) (A) (A) (A) (A) (A) (A) (A) (A)
                 (A) (A) (A) (A) (A) (A) (A) (A) (A) (A) (A) (A)
                 (A) (A) (A) (A) (A) (A) (A) (A) (A) (A) (A) (A)
                 (A) (A) (A) (A) (A) (A) (A) (A) (A) (A) (A) (A)
                 (A) (A) (A) (A) (A) (A) (A) (A) (A) (A) (A) (A)
                 (A) (A) (A) (A) (A) (A) (A) (A) (A) (A) (A) (A)
                 (A) (A) (A) (A) (A) (A) (A) (A) (A) (A) (A) (A)
                 (A) (A) (A) (A) (A) (A) (A) (A) (A) (A) (A) (A)
                 (A) (A) (A) (A) (A) (A) (A) (A) (A) (A) (A) (A)
                 (A) (A) (A) (A) (A) (A) (A) (A) (A) (A) (A) (A)
                 (A) (A) (A) (A) (A) (A) (A) (A) (A) (A) (A) (A)
                 (A) (A) (A) (A) (A) (A) (A) (A) (A) (A) (A) (A)
                 (A) (A) (A)
     4 initial guesses have been made.
 Convergence on wavefunction:    0.001000000000000
 Iteration     1 Dimension     4 NMult     0 NNew      4
 CISAX will form     4 AO SS matrices at one time.
 Iteration     2 Dimension     6 NMult     4 NNew      2
 Iteration     3 Dimension     8 NMult     6 NNew      2
 Iteration     4 Dimension    10 NMult     8 NNew      2
 Iteration     5 Dimension    12 NMult    10 NNew      2
 Iteration     6 Dimension    14 NMult    12 NNew      2
 ***********************************************************************
 Excited states from <AA,BB:AA,BB> singles matrix:
 ***********************************************************************
 
 Ground to excited state transition densities written to RWF  633
 Ground to excited state transition electric dipole moments (Au):
       state          X           Y           Z        Dip. S.      Osc.
         1        -2.1422     -1.2404     -0.7831      6.7409      0.3008
 Ground to excited state transition velocity dipole moments (Au):
       state          X           Y           Z        Dip. S.      Osc.
         1         0.1379      0.0757      0.0538      0.0276      0.2754
 Ground to excited state transition magnetic dipole moments (Au):
       state          X           Y           Z
         1         0.5539     -0.0817     -1.0313
 Ground to excited state transition velocity quadrupole moments (Au):
       state          XX          YY          ZZ          XY          XZ          YZ
         1        -0.4016     -0.4044      0.0683     -0.6622     -0.2980     -0.2195
 <0|del|b> * <b|rxdel|0> + <0|del|b> * <b|delr+rdel|0>
 Rotatory Strengths (R) in cgs (10**-40 erg-esu-cm/Gauss)
       state          XX          YY          ZZ    R(velocity)    E-M Angle
         1      -395.0422    138.7102    411.7477     51.8053       85.68
 1/2[<0|r|b>*<b|rxdel|0> + (<0|rxdel|b>*<b|r|0>)*]
 Rotatory Strengths (R) in cgs (10**-40 erg-esu-cm/Gauss)
       state          XX          YY          ZZ     R(length)
         1       839.0901    -71.6353   -571.0843     65.4568
  1/2[<0|del|b>*<b|r|0> + (<0|r|b>*<b|del|0>)*] (Au)
       state          X           Y           Z        Dip. S.   Osc.(frdel)
         1        -0.2955     -0.0938     -0.0422      0.4315      0.2877

 Excitation energies and oscillator strengths:
 
 Excited State   1:      Singlet-A      1.8216 eV  680.63 nm  f=0.3008  <S**2>=0.000
     154 ->156         0.11396
     155 ->156         0.69524
 This state for optimization and/or second-order correction.
 Total Energy, E(TD-HF/TD-DFT) =  -1947.69841709    
 Copying the excited state density for this state as the 1-particle RhoCI density.
 SavETr:  write IOETrn=   770 NScale= 10 NData=  16 NLR=1 NState=    1 LETran=      28.

 **********************************************************************

            Population analysis using the SCF density.

 **********************************************************************

 Orbital symmetries:
       Occupied  (A) (A) (A) (A) (A) (A) (A) (A) (A) (A) (A) (A)
                 (A) (A) (A) (A) (A) (A) (A) (A) (A) (A) (A) (A)
                 (A) (A) (A) (A) (A) (A) (A) (A) (A) (A) (A) (A)
                 (A) (A) (A) (A) (A) (A) (A) (A) (A) (A) (A) (A)
                 (A) (A) (A) (A) (A) (A) (A) (A) (A) (A) (A) (A)
                 (A) (A) (A) (A) (A) (A) (A) (A) (A) (A) (A) (A)
                 (A) (A) (A) (A) (A) (A) (A) (A) (A) (A) (A) (A)
                 (A) (A) (A) (A) (A) (A) (A) (A) (A) (A) (A) (A)
                 (A) (A) (A) (A) (A) (A) (A) (A) (A) (A) (A) (A)
                 (A) (A) (A) (A) (A) (A) (A) (A) (A) (A) (A) (A)
                 (A) (A) (A) (A) (A) (A) (A) (A) (A) (A) (A) (A)
                 (A) (A) (A) (A) (A) (A) (A) (A) (A) (A) (A) (A)
                 (A) (A) (A) (A) (A) (A) (A) (A) (A) (A) (A)
       Virtual   (A) (A) (A) (A) (A) (A) (A) (A) (A) (A) (A) (A)
                 (A) (A) (A) (A) (A) (A) (A) (A) (A) (A) (A) (A)
                 (A) (A) (A) (A) (A) (A) (A) (A) (A) (A) (A) (A)
                 (A) (A) (A) (A) (A) (A) (A) (A) (A) (A) (A) (A)
                 (A) (A) (A) (A) (A) (A) (A) (A) (A) (A) (A) (A)
                 (A) (A) (A) (A) (A) (A) (A) (A) (A) (A) (A) (A)
                 (A) (A) (A) (A) (A) (A) (A) (A) (A) (A) (A) (A)
                 (A) (A) (A) (A) (A) (A) (A) (A) (A) (A) (A) (A)
                 (A) (A) (A) (A) (A) (A) (A) (A) (A) (A) (A) (A)
                 (A) (A) (A) (A) (A) (A) (A) (A) (A) (A) (A) (A)
                 (A) (A) (A) (A) (A) (A) (A) (A) (A) (A) (A) (A)
                 (A) (A) (A) (A) (A) (A) (A) (A) (A) (A) (A) (A)
                 (A) (A) (A) (A) (A) (A) (A) (A) (A) (A) (A) (A)
                 (A) (A) (A) (A) (A) (A) (A) (A) (A) (A) (A) (A)
                 (A) (A) (A) (A) (A) (A) (A) (A) (A) (A) (A) (A)
                 (A) (A) (A) (A) (A) (A) (A) (A) (A) (A) (A) (A)
                 (A) (A) (A) (A) (A) (A) (A) (A) (A) (A) (A) (A)
                 (A) (A) (A) (A) (A) (A) (A) (A) (A) (A) (A) (A)
                 (A) (A) (A) (A) (A) (A) (A) (A) (A) (A) (A) (A)
                 (A) (A) (A) (A) (A) (A) (A) (A) (A) (A) (A) (A)
                 (A) (A) (A) (A) (A) (A) (A) (A) (A) (A) (A) (A)
                 (A) (A) (A) (A) (A) (A) (A) (A) (A) (A) (A) (A)
                 (A) (A) (A) (A) (A) (A) (A) (A) (A) (A) (A) (A)
                 (A) (A) (A) (A) (A) (A) (A) (A) (A) (A) (A) (A)
                 (A) (A) (A) (A) (A) (A) (A) (A) (A) (A) (A) (A)
                 (A) (A) (A) (A) (A) (A) (A) (A) (A) (A) (A) (A)
                 (A) (A) (A) (A) (A) (A) (A) (A) (A) (A) (A) (A)
                 (A) (A) (A) (A) (A) (A) (A) (A) (A) (A) (A) (A)
                 (A) (A) (A) (A) (A) (A) (A) (A) (A) (A) (A) (A)
                 (A) (A) (A) (A) (A) (A) (A) (A) (A) (A) (A) (A)
                 (A) (A) (A) (A) (A) (A) (A) (A) (A) (A) (A) (A)
                 (A) (A) (A) (A) (A) (A) (A) (A) (A) (A) (A) (A)
                 (A) (A) (A) (A) (A) (A) (A) (A) (A) (A) (A) (A)
                 (A) (A) (A) (A) (A) (A) (A) (A) (A) (A) (A) (A)
                 (A) (A) (A) (A) (A) (A) (A) (A) (A) (A) (A) (A)
                 (A) (A) (A) (A) (A) (A) (A) (A) (A) (A) (A) (A)
                 (A) (A) (A) (A) (A) (A) (A) (A) (A) (A) (A) (A)
                 (A) (A) (A) (A) (A) (A) (A) (A) (A) (A) (A) (A)
                 (A) (A) (A) (A) (A) (A) (A) (A) (A) (A) (A) (A)
                 (A) (A) (A) (A) (A) (A) (A) (A) (A) (A) (A) (A)
                 (A) (A) (A) (A) (A) (A) (A) (A) (A) (A) (A) (A)
                 (A) (A) (A) (A) (A) (A) (A) (A) (A) (A) (A) (A)
                 (A) (A) (A) (A) (A) (A) (A) (A) (A) (A) (A) (A)
                 (A) (A) (A) (A) (A) (A) (A) (A) (A) (A) (A) (A)
                 (A) (A) (A) (A) (A) (A) (A) (A) (A) (A) (A) (A)
                 (A) (A) (A) (A) (A) (A) (A) (A) (A) (A) (A) (A)
                 (A) (A) (A) (A) (A) (A) (A) (A) (A) (A) (A) (A)
                 (A) (A) (A) (A) (A) (A) (A) (A) (A) (A) (A) (A)
                 (A) (A) (A) (A) (A) (A) (A) (A) (A) (A) (A) (A)
                 (A) (A) (A) (A) (A) (A) (A) (A) (A) (A) (A) (A)
                 (A) (A) (A) (A) (A) (A) (A) (A) (A) (A) (A) (A)
                 (A) (A) (A) (A) (A) (A) (A) (A) (A) (A) (A) (A)
                 (A) (A) (A)
 The electronic state is 1-A.
 Alpha  occ. eigenvalues --  -19.18122 -19.17216 -19.15294 -19.11080 -19.10520
 Alpha  occ. eigenvalues --  -19.09533 -14.37368 -14.35377 -14.35291 -14.29043
 Alpha  occ. eigenvalues --  -10.32952 -10.30620 -10.27893 -10.26309 -10.24594
 Alpha  occ. eigenvalues --  -10.24485 -10.23625 -10.23423 -10.23032 -10.22913
 Alpha  occ. eigenvalues --  -10.22703 -10.22422 -10.22290 -10.22143 -10.22017
 Alpha  occ. eigenvalues --  -10.21922 -10.21571 -10.21503 -10.21309 -10.21216
 Alpha  occ. eigenvalues --  -10.21157 -10.21155 -10.21075 -10.20866 -10.20769
 Alpha  occ. eigenvalues --  -10.20455 -10.20074 -10.19869 -10.19578 -10.18815
 Alpha  occ. eigenvalues --  -10.18650 -10.18537 -10.17697  -1.08438  -1.07145
 Alpha  occ. eigenvalues --   -1.02815  -1.01186  -0.98147  -0.97492  -0.97038
 Alpha  occ. eigenvalues --   -0.96026  -0.92947  -0.89399  -0.83787  -0.82334
 Alpha  occ. eigenvalues --   -0.81410  -0.80586  -0.80383  -0.79622  -0.78776
 Alpha  occ. eigenvalues --   -0.77395  -0.76622  -0.75594  -0.74668  -0.72421
 Alpha  occ. eigenvalues --   -0.71658  -0.70887  -0.68770  -0.68051  -0.67865
 Alpha  occ. eigenvalues --   -0.65834  -0.64605  -0.64044  -0.61749  -0.60903
 Alpha  occ. eigenvalues --   -0.58588  -0.57949  -0.57504  -0.57135  -0.56605
 Alpha  occ. eigenvalues --   -0.55693  -0.55190  -0.54548  -0.54100  -0.53148
 Alpha  occ. eigenvalues --   -0.51843  -0.51399  -0.50302  -0.50010  -0.49469
 Alpha  occ. eigenvalues --   -0.48852  -0.48218  -0.48027  -0.47815  -0.47436
 Alpha  occ. eigenvalues --   -0.46829  -0.46647  -0.46446  -0.45904  -0.45593
 Alpha  occ. eigenvalues --   -0.45062  -0.44552  -0.44488  -0.44004  -0.43939
 Alpha  occ. eigenvalues --   -0.43489  -0.43131  -0.42797  -0.42346  -0.42225
 Alpha  occ. eigenvalues --   -0.42025  -0.41879  -0.41531  -0.41499  -0.40815
 Alpha  occ. eigenvalues --   -0.40549  -0.40245  -0.40178  -0.39914  -0.39594
 Alpha  occ. eigenvalues --   -0.39071  -0.39059  -0.38809  -0.38716  -0.37715
 Alpha  occ. eigenvalues --   -0.37477  -0.37432  -0.37135  -0.36900  -0.36461
 Alpha  occ. eigenvalues --   -0.35964  -0.34867  -0.34772  -0.34679  -0.34363
 Alpha  occ. eigenvalues --   -0.33942  -0.32806  -0.31921  -0.31621  -0.30738
 Alpha  occ. eigenvalues --   -0.30330  -0.30179  -0.29369  -0.28036  -0.26970
 Alpha  occ. eigenvalues --   -0.26296  -0.25925  -0.25824  -0.25439  -0.25153
 Alpha  occ. eigenvalues --   -0.24565  -0.24067  -0.23117  -0.21578  -0.18833
 Alpha virt. eigenvalues --   -0.11242  -0.07233  -0.06133  -0.01335  -0.00663
 Alpha virt. eigenvalues --   -0.00094   0.00045   0.00388   0.01999   0.02459
 Alpha virt. eigenvalues --    0.03359   0.03676   0.03909   0.04493   0.04509
 Alpha virt. eigenvalues --    0.05366   0.05486   0.06203   0.06614   0.06943
 Alpha virt. eigenvalues --    0.07579   0.07791   0.08146   0.08420   0.08815
 Alpha virt. eigenvalues --    0.08912   0.09127   0.09718   0.10126   0.10173
 Alpha virt. eigenvalues --    0.10799   0.11091   0.11548   0.11961   0.12230
 Alpha virt. eigenvalues --    0.12521   0.12703   0.12899   0.13010   0.13410
 Alpha virt. eigenvalues --    0.13480   0.14349   0.14861   0.15206   0.15635
 Alpha virt. eigenvalues --    0.15864   0.16455   0.16564   0.17011   0.17111
 Alpha virt. eigenvalues --    0.17424   0.18486   0.19032   0.19772   0.19906
 Alpha virt. eigenvalues --    0.21364   0.21426   0.21818   0.22106   0.22298
 Alpha virt. eigenvalues --    0.22813   0.23169   0.23474   0.23592   0.24073
 Alpha virt. eigenvalues --    0.24486   0.25144   0.25316   0.25508   0.26102
 Alpha virt. eigenvalues --    0.26500   0.26694   0.27414   0.27919   0.28349
 Alpha virt. eigenvalues --    0.29302   0.29599   0.30145   0.30529   0.30793
 Alpha virt. eigenvalues --    0.30953   0.31492   0.32118   0.32505   0.33781
 Alpha virt. eigenvalues --    0.34438   0.35041   0.35479   0.35912   0.36447
 Alpha virt. eigenvalues --    0.36784   0.37004   0.37218   0.38025   0.38898
 Alpha virt. eigenvalues --    0.39867   0.39913   0.40508   0.40883   0.41280
 Alpha virt. eigenvalues --    0.41523   0.41933   0.42679   0.42909   0.43105
 Alpha virt. eigenvalues --    0.44262   0.44482   0.44865   0.45174   0.45301
 Alpha virt. eigenvalues --    0.45518   0.45937   0.46280   0.46501   0.47035
 Alpha virt. eigenvalues --    0.47219   0.47330   0.47544   0.47883   0.48323
 Alpha virt. eigenvalues --    0.48944   0.49169   0.49523   0.49898   0.49951
 Alpha virt. eigenvalues --    0.50183   0.50805   0.51118   0.51456   0.51694
 Alpha virt. eigenvalues --    0.52061   0.52211   0.52579   0.52735   0.53454
 Alpha virt. eigenvalues --    0.53529   0.53810   0.54571   0.54651   0.55602
 Alpha virt. eigenvalues --    0.55782   0.55893   0.56340   0.56956   0.56994
 Alpha virt. eigenvalues --    0.57325   0.57842   0.58062   0.58263   0.58359
 Alpha virt. eigenvalues --    0.58569   0.59449   0.59721   0.60130   0.60320
 Alpha virt. eigenvalues --    0.60447   0.60651   0.61058   0.61275   0.61872
 Alpha virt. eigenvalues --    0.62254   0.62387   0.62531   0.62785   0.63046
 Alpha virt. eigenvalues --    0.63225   0.63622   0.63818   0.64267   0.64393
 Alpha virt. eigenvalues --    0.64482   0.64974   0.65253   0.65433   0.65553
 Alpha virt. eigenvalues --    0.65890   0.66231   0.66392   0.66598   0.66834
 Alpha virt. eigenvalues --    0.67229   0.67352   0.67374   0.67738   0.67947
 Alpha virt. eigenvalues --    0.68076   0.68403   0.68629   0.69061   0.69154
 Alpha virt. eigenvalues --    0.69642   0.69869   0.69926   0.70075   0.70543
 Alpha virt. eigenvalues --    0.70642   0.71226   0.71495   0.71860   0.72712
 Alpha virt. eigenvalues --    0.73006   0.73289   0.73805   0.74396   0.74554
 Alpha virt. eigenvalues --    0.74802   0.75153   0.75854   0.76180   0.76801
 Alpha virt. eigenvalues --    0.77522   0.77645   0.77715   0.77915   0.78244
 Alpha virt. eigenvalues --    0.78547   0.79159   0.79508   0.79711   0.80654
 Alpha virt. eigenvalues --    0.80962   0.81850   0.82382   0.83001   0.83272
 Alpha virt. eigenvalues --    0.83709   0.84321   0.85396   0.85763   0.86232
 Alpha virt. eigenvalues --    0.87097   0.87767   0.87909   0.89280   0.89837
 Alpha virt. eigenvalues --    0.90732   0.90862   0.91413   0.92474   0.93196
 Alpha virt. eigenvalues --    0.93443   0.93725   0.94023   0.94660   0.95465
 Alpha virt. eigenvalues --    0.96144   0.96715   0.97097   0.97369   0.97614
 Alpha virt. eigenvalues --    0.98933   0.99276   0.99988   1.01188   1.01573
 Alpha virt. eigenvalues --    1.01941   1.02751   1.03381   1.04431   1.05304
 Alpha virt. eigenvalues --    1.05536   1.06593   1.06836   1.07627   1.08028
 Alpha virt. eigenvalues --    1.08487   1.09012   1.09064   1.10014   1.10396
 Alpha virt. eigenvalues --    1.11412   1.11650   1.12558   1.13417   1.13681
 Alpha virt. eigenvalues --    1.15260   1.15533   1.16583   1.17134   1.18321
 Alpha virt. eigenvalues --    1.19527   1.19982   1.20349   1.21100   1.21458
 Alpha virt. eigenvalues --    1.21834   1.22527   1.23610   1.23913   1.24657
 Alpha virt. eigenvalues --    1.25041   1.26072   1.26534   1.27075   1.27348
 Alpha virt. eigenvalues --    1.27915   1.28521   1.29343   1.29993   1.30855
 Alpha virt. eigenvalues --    1.31156   1.32060   1.32826   1.33202   1.33513
 Alpha virt. eigenvalues --    1.35101   1.35274   1.36686   1.37450   1.37628
 Alpha virt. eigenvalues --    1.38105   1.39289   1.40025   1.40519   1.40785
 Alpha virt. eigenvalues --    1.42024   1.42668   1.43913   1.44568   1.45716
 Alpha virt. eigenvalues --    1.46219   1.46795   1.47879   1.47972   1.48656
 Alpha virt. eigenvalues --    1.48918   1.49202   1.49461   1.49749   1.50136
 Alpha virt. eigenvalues --    1.50442   1.51709   1.52241   1.52513   1.53335
 Alpha virt. eigenvalues --    1.53580   1.53682   1.54076   1.54389   1.54940
 Alpha virt. eigenvalues --    1.55224   1.56391   1.57543   1.58066   1.58927
 Alpha virt. eigenvalues --    1.59199   1.60848   1.61298   1.61520   1.61880
 Alpha virt. eigenvalues --    1.62651   1.62943   1.63105   1.63390   1.64073
 Alpha virt. eigenvalues --    1.64267   1.64727   1.65136   1.65480   1.65607
 Alpha virt. eigenvalues --    1.66115   1.66771   1.67066   1.68024   1.68303
 Alpha virt. eigenvalues --    1.68423   1.68640   1.69380   1.70016   1.70196
 Alpha virt. eigenvalues --    1.70685   1.71167   1.71524   1.71874   1.72835
 Alpha virt. eigenvalues --    1.72973   1.73640   1.74274   1.74416   1.74869
 Alpha virt. eigenvalues --    1.75267   1.75574   1.76195   1.76343   1.76454
 Alpha virt. eigenvalues --    1.77295   1.77382   1.77575   1.78072   1.78355
 Alpha virt. eigenvalues --    1.78758   1.78946   1.79228   1.79377   1.80221
 Alpha virt. eigenvalues --    1.80494   1.80804   1.81185   1.82412   1.82467
 Alpha virt. eigenvalues --    1.83359   1.83697   1.83947   1.84289   1.85104
 Alpha virt. eigenvalues --    1.85806   1.86139   1.86317   1.86821   1.87112
 Alpha virt. eigenvalues --    1.87602   1.87869   1.88875   1.89648   1.89969
 Alpha virt. eigenvalues --    1.90306   1.90943   1.91209   1.92123   1.92311
 Alpha virt. eigenvalues --    1.92510   1.93026   1.93823   1.94219   1.94350
 Alpha virt. eigenvalues --    1.94578   1.95063   1.95227   1.95838   1.95931
 Alpha virt. eigenvalues --    1.96821   1.97414   1.97663   1.98284   1.99171
 Alpha virt. eigenvalues --    1.99583   2.00162   2.00809   2.01370   2.01552
 Alpha virt. eigenvalues --    2.02117   2.02627   2.03080   2.03247   2.04608
 Alpha virt. eigenvalues --    2.04936   2.05161   2.05457   2.06256   2.06542
 Alpha virt. eigenvalues --    2.06849   2.07435   2.08228   2.08873   2.09294
 Alpha virt. eigenvalues --    2.10287   2.10972   2.11136   2.11573   2.12316
 Alpha virt. eigenvalues --    2.12540   2.13269   2.14061   2.14422   2.15180
 Alpha virt. eigenvalues --    2.15288   2.16285   2.16699   2.16831   2.17149
 Alpha virt. eigenvalues --    2.17987   2.18962   2.19643   2.20490   2.21216
 Alpha virt. eigenvalues --    2.21385   2.23064   2.23300   2.23968   2.24864
 Alpha virt. eigenvalues --    2.26204   2.26627   2.27064   2.27681   2.29010
 Alpha virt. eigenvalues --    2.29424   2.30065   2.30268   2.31099   2.31724
 Alpha virt. eigenvalues --    2.32293   2.32733   2.33327   2.33938   2.34366
 Alpha virt. eigenvalues --    2.36116   2.36438   2.37071   2.37586   2.37732
 Alpha virt. eigenvalues --    2.38074   2.38737   2.40402   2.41181   2.41529
 Alpha virt. eigenvalues --    2.42599   2.42950   2.43500   2.44527   2.45452
 Alpha virt. eigenvalues --    2.46581   2.47042   2.47806   2.48096   2.48847
 Alpha virt. eigenvalues --    2.49357   2.49932   2.50376   2.51309   2.53050
 Alpha virt. eigenvalues --    2.53341   2.54907   2.55500   2.56036   2.56339
 Alpha virt. eigenvalues --    2.56932   2.58930   2.59233   2.60115   2.60903
 Alpha virt. eigenvalues --    2.61657   2.62317   2.62607   2.62719   2.62878
 Alpha virt. eigenvalues --    2.64149   2.65287   2.66059   2.66466   2.66845
 Alpha virt. eigenvalues --    2.67196   2.67575   2.67933   2.69341   2.70001
 Alpha virt. eigenvalues --    2.70681   2.70779   2.71368   2.72634   2.73529
 Alpha virt. eigenvalues --    2.74347   2.74703   2.75389   2.75799   2.76750
 Alpha virt. eigenvalues --    2.77487   2.78084   2.78425   2.78861   2.79681
 Alpha virt. eigenvalues --    2.80449   2.80886   2.80976   2.81996   2.82104
 Alpha virt. eigenvalues --    2.83263   2.84530   2.85767   2.86343   2.86517
 Alpha virt. eigenvalues --    2.86711   2.87303   2.88268   2.88710   2.89261
 Alpha virt. eigenvalues --    2.91300   2.91785   2.92052   2.92852   2.94038
 Alpha virt. eigenvalues --    2.94741   2.96055   2.97469   2.98660   2.98790
 Alpha virt. eigenvalues --    2.99536   3.00218   3.01334   3.02259   3.03267
 Alpha virt. eigenvalues --    3.04876   3.08089   3.09145   3.09596   3.10588
 Alpha virt. eigenvalues --    3.12302   3.13008   3.13412   3.16624   3.16927
 Alpha virt. eigenvalues --    3.17575   3.18414   3.18980   3.19924   3.20378
 Alpha virt. eigenvalues --    3.21328   3.22091   3.22951   3.25084   3.27067
 Alpha virt. eigenvalues --    3.28929   3.30719   3.38277   3.41746   3.42459
 Alpha virt. eigenvalues --    3.44643   3.50145   3.52540   3.54523   3.56173
 Alpha virt. eigenvalues --    3.59480   3.61242   3.62240   3.64474   3.66213
 Alpha virt. eigenvalues --    3.67280   3.71922
          Condensed to atoms (all electrons):
 Mulliken charges:
               1
     1  O   -0.233211
     2  O   -0.216317
     3  O   -0.281830
     4  O   -0.341720
     5  O   -0.167576
     6  O   -0.167575
     7  N   -0.047849
     8  N   -0.281014
     9  N   -0.142880
    10  N   -0.350043
    11  C    0.067569
    12  C    0.258211
    13  C   -0.088785
    14  C   -0.125581
    15  C   -0.086102
    16  C    0.117225
    17  C   -0.153409
    18  C   -0.105493
    19  C    0.054228
    20  C   -0.054569
    21  C    0.099881
    22  C    0.137459
    23  C   -0.117565
    24  C    0.052838
    25  C   -0.003671
    26  C   -0.098425
    27  C    0.003005
    28  C    0.081438
    29  C    0.241231
    30  C   -0.012509
    31  C    0.071907
    32  C    0.032941
    33  C   -0.064066
    34  C    0.185002
    35  C    0.141830
    36  C    0.006063
    37  C    0.141141
    38  C    0.078129
    39  C   -0.163517
    40  C    0.161203
    41  C   -0.070485
    42  C    0.009225
    43  C   -0.086593
    44  H    0.007857
    45  H   -0.001482
    46  H   -0.013888
    47  H    0.070193
    48  H    0.163173
    49  H    0.024860
    50  H    0.085449
    51  H   -0.031810
    52  H    0.024948
    53  H    0.016850
    54  H    0.092229
    55  H    0.031629
    56  H    0.059644
    57  H    0.040181
    58  H    0.034553
    59  H    0.033279
    60  H    0.174232
    61  H   -0.026307
    62  H   -0.029450
    63  H    0.010709
    64  H    0.020392
    65  H    0.033292
    66  H    0.029093
    67  H    0.038660
    68  H    0.041732
    69  H   -0.076557
    70  H    0.003951
    71  H   -0.041708
    72  H    0.229701
    73  H    0.032027
    74  H    0.040748
    75  H    0.047877
    76  H    0.024018
    77  H    0.224919
    78  H    0.038292
    79  H    0.066974
 Sum of Mulliken charges =  -0.00000
 Mulliken charges with hydrogens summed into heavy atoms:
               1
     1  O   -0.233211
     2  O    0.013383
     3  O   -0.281830
     4  O   -0.116801
     5  O   -0.167576
     6  O   -0.167575
     7  N    0.022344
     8  N   -0.117841
     9  N    0.031352
    10  N   -0.350043
    11  C    0.075425
    12  C    0.242841
    13  C   -0.088785
    14  C   -0.125581
    15  C   -0.086102
    16  C    0.117225
    17  C   -0.153409
    18  C    0.004816
    19  C    0.054228
    20  C   -0.086379
    21  C    0.099881
    22  C    0.137459
    23  C   -0.117565
    24  C    0.186864
    25  C    0.127784
    26  C   -0.098425
    27  C    0.070837
    28  C    0.081438
    29  C    0.185474
    30  C   -0.001800
    31  C    0.125590
    32  C    0.142427
    33  C   -0.140622
    34  C    0.185002
    35  C    0.141830
    36  C   -0.031694
    37  C    0.141141
    38  C    0.078129
    39  C   -0.163517
    40  C    0.161203
    41  C   -0.038459
    42  C    0.121868
    43  C    0.018673
 Electronic spatial extent (au):  <R**2>=          31764.0797
 Charge=             -0.0000 electrons
 Dipole moment (field-independent basis, Debye):
    X=             -1.2065    Y=             -0.2016    Z=              0.8370  Tot=              1.4822
 Quadrupole moment (field-independent basis, Debye-Ang):
   XX=           -211.2669   YY=           -243.3735   ZZ=           -264.4540
   XY=             -9.3824   XZ=             36.6377   YZ=              5.0890
 Traceless Quadrupole moment (field-independent basis, Debye-Ang):
   XX=             28.4313   YY=             -3.6754   ZZ=            -24.7559
   XY=             -9.3824   XZ=             36.6377   YZ=              5.0890
 Octapole moment (field-independent basis, Debye-Ang**2):
  XXX=              1.0228  YYY=            105.6794  ZZZ=             59.7751  XYY=            -86.0498
  XXY=           -152.2866  XXZ=             45.7191  XZZ=            -64.2722  YZZ=            -12.0938
  YYZ=             15.6355  XYZ=             10.5620
 Hexadecapole moment (field-independent basis, Debye-Ang**3):
 XXXX=         -22488.8210 YYYY=         -11465.9928 ZZZZ=          -4821.5611 XXXY=           -336.4502
 XXXZ=            689.4610 YYYX=           -137.4366 YYYZ=            661.5375 ZZZX=            146.7897
 ZZZY=            -36.0808 XXYY=          -5968.7318 XXZZ=          -5268.8389 YYZZ=          -2796.8288
 XXYZ=             55.7309 YYXZ=             95.0101 ZZXY=            -17.0731
 N-N= 4.942868147173D+03 E-N=-1.441472502963D+04  KE= 1.926716695760D+03
 1\1\GINC-PADAWAN\SP\RB3LYP TD-FC\SVP\C33H36N4O6\PADAWAN\15-Sep-2019\0\
 \# td=(NStates=1) B3LYP/SVP\\TD\\0,1\O,0,-5.5207683068,-0.0567302334,-
 3.2695167414\O,0,3.1679167972,2.6652837831,2.9118672651\O,0,3.44344269
 29,0.4069460936,2.6916410492\O,0,1.9261002495,-7.0455008202,1.54364287
 06\O,0,0.453290217,-6.9429107147,-0.2430322861\O,0,1.6025072988,3.8988
 830111,0.0209616036\N,0,-2.3076803791,-0.9056089911,0.5450515218\N,0,-
 4.4030651879,0.4417318397,-1.2802963844\N,0,1.8806984614,-0.6024718202
 ,-0.4914876264\N,0,2.5328788298,1.9118469302,-0.3904057873\C,0,-4.7060
 569969,1.1653380308,-0.0309572959\C,0,-4.3882162144,0.371637329,1.2763
 849962\C,0,-2.9693420298,0.0477450312,1.378549868\C,0,-1.9478338801,0.
 535398497,2.3704402136\C,0,-0.7681534256,-0.1385292884,1.9525259302\C,
 0,-0.9960437922,-1.0070937683,0.9089727167\C,0,-6.2527676329,1.3865064
 399,-0.208736089\C,0,0.5842670333,0.0662573022,2.6767166918\C,0,-6.659
 2864431,0.8786671151,-1.3816338921\C,0,-0.2074670028,-1.9043891758,0.0
 373558171\C,0,1.0777346697,-1.7919987465,-0.4165832405\C,0,-5.53414401
 47,0.3899572104,-2.1169090024\C,0,1.9901531005,-2.8992404624,-1.016458
 6552\C,0,-2.2014958505,1.6241781747,3.3580301932\C,0,-7.0695144446,2.1
 650246317,0.7413281187\C,0,3.1854248762,-2.283348286,-1.2891801631\C,0
 ,1.2188979171,1.479406434,2.4648301189\C,0,3.090837159,-0.8298516108,-
 1.1032343116\C,0,1.5474685171,-4.3616521296,-0.8672684437\C,0,-7.98833
 47395,0.8831799556,-2.0304514329\C,0,1.9018077464,-4.9235832929,0.3812
 841239\C,0,4.3558711961,-2.8775062194,-1.977556987\C,0,3.9628071513,0.
 1482142249,-1.2893536178\C,0,2.7148921104,1.4205896472,2.8180377037\C,
 0,3.6594903268,1.4494203535,-1.0383103983\C,0,-9.2305480382,0.90443260
 36,-1.4861234276\C,0,1.2128463493,-6.3644230925,0.4557542344\C,0,4.598
 1686515,2.6644532002,-1.4508821713\C,0,3.76601587,3.8423147552,-1.0375
 650508\C,0,2.5698685577,3.3692947806,-0.445293292\C,0,5.9622698323,2.5
 035451951,-1.7996319183\C,0,4.0385494747,5.2264575216,-1.1749395074\C,
 0,6.6613061882,3.561911876,-2.3440488818\H,0,-4.0999244785,2.032734353
 5,-0.1993068904\H,0,-5.1045551124,-0.4469961757,1.1546502092\H,0,-4.70
 41272526,1.0955435541,2.0187887886\H,0,-2.724541494,-1.3199993954,-0.1
 924261644\H,0,-3.4283538327,0.567548672,-1.7849760485\H,0,0.4503194666
 ,0.0287431863,3.9772872768\H,0,1.5485188613,-0.7670213695,2.2767628091
 \H,0,-0.7037690378,-2.7724247075,-0.2352885266\H,0,-3.4518053258,1.702
 9615603,3.4871087006\H,0,-1.9462558407,1.1797273366,4.2887072586\H,0,-
 1.5205384349,2.5629201118,2.9651339352\H,0,-6.4994833992,3.1529440979,
 1.1092631593\H,0,-7.5258823552,1.7365934685,1.6901560263\H,0,-7.902806
 2178,2.6796640495,0.1518536656\H,0,1.1177544838,1.8483068673,1.5240904
 763\H,0,0.6900921217,2.3735941814,3.118977722\H,0,1.6281071371,0.43574
 42194,-0.3545508204\H,0,2.005968389,-4.9042942598,-1.6648310928\H,0,0.
 6508768852,-4.4862684743,-1.2848969731\H,0,-8.2017312349,1.0748077114,
 -3.0561815564\H,0,1.584370626,-4.42100328,1.2523228089\H,0,2.855421812
 3,-5.1992371282,0.7906568806\H,0,4.214956558,-3.9847259248,-2.26102956
 41\H,0,5.2845495534,-2.7702158718,-1.3143350511\H,0,4.5571871518,-2.34
 29565283,-2.949053979\H,0,4.857065326,-0.2522673212,-1.6382900047\H,0,
 -9.5211457151,0.9471821737,-0.4210747973\H,0,-10.0281109447,1.02099351
 51,-1.9726433643\H,0,4.2343881253,2.6233157153,2.6661213778\H,0,6.6220
 356718,1.5870108503,-1.8246312781\H,0,5.0528859884,5.4069734615,-0.553
 8340033\H,0,4.0929713196,5.8024670124,-2.1378363285\H,0,3.1962372933,5
 .7370233087,-0.6649682384\H,0,1.516188927,-8.0701781749,1.6073567906\H
 ,0,7.7854709915,3.3443299729,-2.5050877821\H,0,6.2242143089,4.58597410
 96,-2.7505374062\\Version=ES64L-G16RevA.03\State=1-A\HF=-1947.7653596\
 RMSD=3.812e-09\PG=C01 [X(C33H36N4O6)]\\@


 I DON'T PRETEND TO UNDERSTAND THE UNIVERSE --
 IT'S A GREAT DEAL BIGGER THAN I AM.
       -- ATTR. TO WILLIAM ALLINGHAM (1828-89)
 Job cpu time:       0 days  9 hours 21 minutes 16.1 seconds.
 Elapsed time:       0 days  2 hours 20 minutes 46.8 seconds.
 File lengths (MBytes):  RWF=   2533 Int=      0 D2E=      0 Chk=     63 Scr=      1
 Normal termination of Gaussian 16 at Sun Sep 15 09:30:59 2019.
