 Entering Gaussian System, Link 0=g16
 Input=Geometria-117-.com
 Output=Geometria-117-.log
 Initial command:
 /usr/local/g16/l1.exe "/home/padawan/israel-mol/dihydrobiliverdin/spectra/emi/Gau-24201.inp" -scrdir="/home/padawan/israel-mol/dihydrobiliverdin/spectra/emi/"
 Entering Link 1 = /usr/local/g16/l1.exe PID=     24203.
  
 Copyright (c) 1988,1990,1992,1993,1995,1998,2003,2009,2016,
            Gaussian, Inc.  All Rights Reserved.
  
 This is part of the Gaussian(R) 16 program.  It is based on
 the Gaussian(R) 09 system (copyright 2009, Gaussian, Inc.),
 the Gaussian(R) 03 system (copyright 2003, Gaussian, Inc.),
 the Gaussian(R) 98 system (copyright 1998, Gaussian, Inc.),
 the Gaussian(R) 94 system (copyright 1995, Gaussian, Inc.),
 the Gaussian 92(TM) system (copyright 1992, Gaussian, Inc.),
 the Gaussian 90(TM) system (copyright 1990, Gaussian, Inc.),
 the Gaussian 88(TM) system (copyright 1988, Gaussian, Inc.),
 the Gaussian 86(TM) system (copyright 1986, Carnegie Mellon
 University), and the Gaussian 82(TM) system (copyright 1983,
 Carnegie Mellon University). Gaussian is a federally registered
 trademark of Gaussian, Inc.
  
 This software contains proprietary and confidential information,
 including trade secrets, belonging to Gaussian, Inc.
  
 This software is provided under written license and may be
 used, copied, transmitted, or stored only in accord with that
 written license.
  
 The following legend is applicable only to US Government
 contracts under FAR:
  
                    RESTRICTED RIGHTS LEGEND
  
 Use, reproduction and disclosure by the US Government is
 subject to restrictions as set forth in subparagraphs (a)
 and (c) of the Commercial Computer Software - Restricted
 Rights clause in FAR 52.227-19.
  
 Gaussian, Inc.
 340 Quinnipiac St., Bldg. 40, Wallingford CT 06492
  
  
 ---------------------------------------------------------------
 Warning -- This program may not be used in any manner that
 competes with the business of Gaussian, Inc. or will provide
 assistance to any competitor of Gaussian, Inc.  The licensee
 of this program is prohibited from giving any competitor of
 Gaussian, Inc. access to this program.  By using this program,
 the user acknowledges that Gaussian, Inc. is engaged in the
 business of creating and licensing software in the field of
 computational chemistry and represents and warrants to the
 licensee that it is not a competitor of Gaussian, Inc. and that
 it will not use this program in any manner prohibited above.
 ---------------------------------------------------------------
  

 Cite this work as:
 Gaussian 16, Revision A.03,
 M. J. Frisch, G. W. Trucks, H. B. Schlegel, G. E. Scuseria, 
 M. A. Robb, J. R. Cheeseman, G. Scalmani, V. Barone, 
 G. A. Petersson, H. Nakatsuji, X. Li, M. Caricato, A. V. Marenich, 
 J. Bloino, B. G. Janesko, R. Gomperts, B. Mennucci, H. P. Hratchian, 
 J. V. Ortiz, A. F. Izmaylov, J. L. Sonnenberg, D. Williams-Young, 
 F. Ding, F. Lipparini, F. Egidi, J. Goings, B. Peng, A. Petrone, 
 T. Henderson, D. Ranasinghe, V. G. Zakrzewski, J. Gao, N. Rega, 
 G. Zheng, W. Liang, M. Hada, M. Ehara, K. Toyota, R. Fukuda, 
 J. Hasegawa, M. Ishida, T. Nakajima, Y. Honda, O. Kitao, H. Nakai, 
 T. Vreven, K. Throssell, J. A. Montgomery, Jr., J. E. Peralta, 
 F. Ogliaro, M. J. Bearpark, J. J. Heyd, E. N. Brothers, K. N. Kudin, 
 V. N. Staroverov, T. A. Keith, R. Kobayashi, J. Normand, 
 K. Raghavachari, A. P. Rendell, J. C. Burant, S. S. Iyengar, 
 J. Tomasi, M. Cossi, J. M. Millam, M. Klene, C. Adamo, R. Cammi, 
 J. W. Ochterski, R. L. Martin, K. Morokuma, O. Farkas, 
 J. B. Foresman, and D. J. Fox, Gaussian, Inc., Wallingford CT, 2016.
 
 ******************************************
 Gaussian 16:  ES64L-G16RevA.03 25-Dec-2016
                25-Jul-2019 
 ******************************************
 %nproc=4
 Will use up to    4 processors via shared memory.
 %Mem=3GB
 --------------------------
 # td=(NStates=1) B3LYP/SVP
 --------------------------
 1/38=1,172=1/1;
 2/12=2,17=6,18=5,40=1/2;
 3/5=18,7=101,11=9,25=1,30=1,74=-5/1,2,3,8;
 4//1;
 5/5=2,38=5/2;
 8/6=1,10=1,108=1/1;
 9/41=1,42=1,70=2/14;
 6/7=2,8=2,9=2,10=2/1;
 99/5=1,9=1/99;
 --
 TD
 --
 Symbolic Z-matrix:
 Charge =  0 Multiplicity = 1
 8                    -3.12237  -1.47965  -2.82799 
 8                     2.99719   3.16218   3.14109 
 8                     3.75367   1.34443   4.35295 
 8                     7.78838  -1.73598  -0.85039 
 8                     6.6148   -3.09615  -2.12863 
 8                    -2.75501   1.75154   1.44777 
 7                    -0.29199  -2.38486   0.99627 
 7                    -2.66551  -1.22184  -0.63261 
 7                     1.16028   0.07105  -0.75483 
 7                    -1.09215   1.57206  -0.16288 
 6                    -3.38458  -1.34013   0.63996 
 6                    -2.67314  -2.29584   1.60866 
 6                    -1.30979  -1.98076   1.77916 
 6                    -0.5094   -1.20392   2.76605 
 6                     0.81716  -1.26041   2.52644 
 6                     1.00198  -1.91297   1.2974 
 6                    -4.78094  -1.81308   0.20195 
 6                     1.86417  -0.35304   3.21305 
 6                    -4.80618  -2.03554  -1.11386 
 6                     2.00903  -1.87125   0.28057 
 6                     2.10587  -0.87048  -0.65368 
 6                    -3.48553  -1.54247  -1.64887 
 6                     3.10272  -0.60056  -1.75816 
 6                    -1.27703  -0.3208    3.79982 
 6                    -5.8691   -2.11282   1.20848 
 6                     2.66801   0.5516   -2.40024 
 6                     1.9222    1.15973   2.84846 
 6                     1.38335   0.92933  -1.76699 
 6                     4.29016  -1.43445  -1.94277 
 6                    -5.74694  -2.5463   -2.00078 
 6                     5.5384   -1.24605  -1.15058 
 6                     3.18234   1.13923  -3.59404 
 6                     0.51392   2.06584  -1.92567 
 6                     2.99494   1.85286   3.50758 
 6                    -0.71313   2.2845   -1.24109 
 6                    -6.90428  -3.32251  -1.75959 
 6                     6.73779  -2.16104  -1.46489 
 6                    -1.50671   3.431    -1.29926 
 6                    -2.37106   3.42374  -0.16654 
 6                    -2.0707    2.13008   0.46023 
 6                    -1.38339   4.57087  -2.29251 
 6                    -3.35737   4.33786   0.45946 
 6                    -2.05929   5.72905  -2.30237 
 1                    -3.42955  -0.46671   1.09894 
 1                    -2.83018  -3.33098   1.14831 
 1                    -3.22541  -2.4822    2.65204 
 1                    -0.70437  -2.75482   0.04965 
 1                    -1.9847   -0.48952  -0.83463 
 1                     1.76567  -0.492     4.34922 
 1                     2.87739  -0.70994   2.83798 
 1                     2.75744  -2.67219   0.12741 
 1                    -1.94175  -0.94714   4.45599 
 1                    -0.41671   0.07267   4.36316 
 1                    -1.78256   0.46347   3.19984 
 1                    -5.75813  -1.64584   2.40414 
 1                    -5.8549   -3.30682   1.26399 
 1                    -6.77602  -1.8078    1.02022 
 1                     1.85736   1.26595   1.84041 
 1                     0.92877   1.60659   3.19697 
 1                     0.49164   0.28526  -0.02657 
 1                     4.78366  -1.34427  -3.16584 
 1                     4.14562  -2.70018  -2.01696 
 1                    -5.6519   -2.39495  -3.08531 
 1                     5.4251   -1.34126   0.00809 
 1                     5.9254   -0.07929  -1.24121 
 1                     3.98327   0.59326  -4.08468 
 1                     3.43689   2.14513  -3.33534 
 1                     2.15903   1.14584  -4.3037 
 1                     0.80317   2.65606  -2.90207 
 1                    -7.11947  -3.98694  -1.03015 
 1                    -7.42264  -3.77969  -2.57394 
 1                     3.84985   3.58757   3.46089 
 1                    -0.76463   4.34131  -3.21991 
 1                    -4.1813    4.58916  -0.29181 
 1                    -3.88005   3.74195   1.32827 
 1                    -3.09805   5.32557   0.80661 
 1                     8.61603  -2.24861  -1.16997 
 1                    -1.69095   6.52986  -3.02657 
 1                    -2.71207   6.10553  -1.49965 
 
 Stoichiometry    C33H36N4O6
 Framework group  C1[X(C33H36N4O6)]
 Deg. of freedom   231
 Full point group                 C1      NOp   1
 Largest Abelian subgroup         C1      NOp   1
 Largest concise Abelian subgroup C1      NOp   1
                         Standard orientation:                         
 ---------------------------------------------------------------------
 Center     Atomic      Atomic             Coordinates (Angstroms)
 Number     Number       Type             X           Y           Z
 ---------------------------------------------------------------------
      1          8           0       -3.090928   -1.819748   -2.657729
      2          8           0        2.938958    3.526886    2.790163
      3          8           0        3.718308    1.861077    4.191150
      4          8           0        7.815743   -1.697592   -0.645109
      5          8           0        6.666789   -3.204471   -1.772267
      6          8           0       -2.785939    1.856078    1.247787
      7          7           0       -0.260230   -2.267139    1.246428
      8          7           0       -2.645300   -1.321352   -0.501821
      9          7           0        1.161237    0.008753   -0.755251
     10          7           0       -1.115216    1.530280   -0.331469
     11          6           0       -3.366793   -1.313513    0.774844
     12          6           0       -2.644467   -2.149077    1.841610
     13          6           0       -1.286529   -1.796941    1.979728
     14          6           0       -0.501084   -0.906832    2.879084
     15          6           0        0.826967   -0.968581    2.649209
     16          6           0        1.025577   -1.746170    1.497500
     17          6           0       -4.754496   -1.851737    0.387611
     18          6           0        1.858070    0.022867    3.236445
     19          6           0       -4.772017   -2.214233   -0.896822
     20          6           0        2.035289   -1.798379    0.483799
     21          6           0        2.120370   -0.902101   -0.552146
     22          6           0       -3.457063   -1.761376   -1.479298
     23          6           0        3.116795   -0.736997   -1.677459
     24          6           0       -1.285206    0.070233    3.810921
     25          6           0       -5.841443   -2.058363    1.418581
     26          6           0        2.667157    0.333042   -2.440069
     27          6           0        1.894833    1.488577    2.711942
     28          6           0        1.374918    0.756946   -1.853172
     29          6           0        4.317111   -1.567800   -1.769588
     30          6           0       -5.702110   -2.831238   -1.725534
     31          6           0        5.559749   -1.276744   -0.999979
     32          6           0        3.176692    0.797123   -3.689063
     33          6           0        0.489232    1.856630   -2.134239
     34          6           0        2.954938    2.264484    3.294844
     35          6           0       -0.743216    2.128773   -1.479159
     36          6           0       -6.848593   -3.594570   -1.404563
     37          6           0        6.773654   -2.201890   -1.212343
     38          6           0       -1.553552    3.250294   -1.661231
     39          6           0       -2.421487    3.351343   -0.535765
     40          6           0       -2.104032    2.136966    0.226557
     41          6           0       -1.443861    4.278947   -2.770701
     42          6           0       -3.423358    4.312232   -0.013037
     43          6           0       -2.136863    5.419038   -2.905792
     44          1           0       -3.426272   -0.396732    1.137508
     45          1           0       -2.784573   -3.229828    1.494566
     46          1           0       -3.197402   -2.230928    2.898001
     47          1           0       -0.663886   -2.742574    0.344188
     48          1           0       -1.974775   -0.604666   -0.779976
     49          1           0        1.757848    0.004937    4.380785
     50          1           0        2.877726   -0.356791    2.903536
     51          1           0        2.796034   -2.599702    0.418646
     52          1           0       -1.942737   -0.492207    4.529286
     53          1           0       -0.432724    0.534761    4.330351
     54          1           0       -1.800325    0.777972    3.129479
     55          1           0       -5.741422   -1.464365    2.557507
     56          1           0       -5.809688   -3.239201    1.601746
     57          1           0       -6.752164   -1.789026    1.197141
     58          1           0        1.831796    1.485200    1.698204
     59          1           0        0.893712    1.955113    3.008830
     60          1           0        0.487053    0.289604   -0.055306
     61          1           0        4.813307   -1.601695   -2.994419
     62          1           0        4.191637   -2.836234   -1.707958
     63          1           0       -5.605699   -2.795521   -2.819870
     64          1           0        5.444000   -1.248997    0.162027
     65          1           0        5.929673   -0.120693   -1.214447
     66          1           0        3.987285    0.213914   -4.116980
     67          1           0        3.415398    1.828678   -3.539205
     68          1           0        2.155781    0.712181   -4.397127
     69          1           0        0.772945    2.343163   -3.167759
     70          1           0       -7.056322   -4.180221   -0.608493
     71          1           0       -7.357369   -4.144151   -2.166125
     72          1           0        3.784125    3.996942    3.064016
     73          1           0       -0.818659    3.960744   -3.667083
     74          1           0       -4.248413    4.469099   -0.788339
     75          1           0       -3.940030    3.804975    0.913725
     76          1           0       -3.179911    5.335256    0.226715
     77          1           0        8.651984   -2.228920   -0.906479
     78          1           0       -1.778045    6.143148   -3.710992
     79          1           0       -2.797853    5.869423   -2.149166
 ---------------------------------------------------------------------
 Rotational constants (GHZ):           0.0903076           0.0501630           0.0474927
 Standard basis: SVP (5D, 7F)
 There are   825 symmetry adapted cartesian basis functions of A   symmetry.
 There are   782 symmetry adapted basis functions of A   symmetry.
   782 basis functions,  1327 primitive gaussians,   825 cartesian basis functions
   155 alpha electrons      155 beta electrons
       nuclear repulsion energy      5185.9581015496 Hartrees.
 NAtoms=   79 NActive=   79 NUniq=   79 SFac= 1.00D+00 NAtFMM=   60 NAOKFM=T Big=T
 Integral buffers will be    131072 words long.
 Regular integral format.
 Two-electron integral symmetry is turned on.
 One-electron integrals computed using PRISM.
 NBasis=   782 RedAO= T EigKep=  3.75D-04  NBF=   782
 NBsUse=   782 1.00D-06 EigRej= -1.00D+00 NBFU=   782
 ExpMin= 1.22D-01 ExpMax= 2.27D+03 ExpMxC= 3.41D+02 IAcc=3 IRadAn=         5 AccDes= 0.00D+00
 Harris functional with IExCor=  402 and IRadAn=       5 diagonalized for initial guess.
 HarFok:  IExCor=  402 AccDes= 0.00D+00 IRadAn=         5 IDoV= 1 UseB2=F ITyADJ=14
 ICtDFT=  3500011 ScaDFX=  1.000000  1.000000  1.000000  1.000000
 FoFCou: FMM=F IPFlag=           0 FMFlag=      100000 FMFlg1=        2001
         NFxFlg=           0 DoJE=T BraDBF=F KetDBF=T FulRan=T
         wScrn=  0.000000 ICntrl=       500 IOpCl=  0 I1Cent=   200000004 NGrid=           0
         NMat0=    1 NMatS0=      1 NMatT0=    0 NMatD0=    1 NMtDS0=    0 NMtDT0=    0
 Petite list used in FoFCou.
 Requested convergence on RMS density matrix=1.00D-08 within 128 cycles.
 Requested convergence on MAX density matrix=1.00D-06.
 Requested convergence on             energy=1.00D-06.
 No special actions if energy rises.
 Integral accuracy reduced to 1.0D-05 until final iterations.
 EnCoef did     2 forward-backward iterations
 Initial convergence to 1.0D-05 achieved.  Increase integral accuracy.
 SCF Done:  E(RB3LYP) =  -1947.82635593     A.U. after   21 cycles
            NFock= 21  Conv=0.82D-08     -V/T= 2.0104
 DoSCS=F DFT=T ScalE2(SS,OS)=  1.000000  1.000000
 ExpMin= 1.22D-01 ExpMax= 2.27D+03 ExpMxC= 3.41D+02 IAcc=3 IRadAn=         5 AccDes= 0.00D+00
 HarFok:  IExCor=  205 AccDes= 0.00D+00 IRadAn=         5 IDoV=-2 UseB2=F ITyADJ=14
 ICtDFT= 12500011 ScaDFX=  1.000000  1.000000  1.000000  1.000000
 GSVD:  LWork=       -2193 too small for GESVD, short by        9890 words or        9890 for optimal perf.
 Range of M.O.s used for correlation:    44   782
 NBasis=   782 NAE=   155 NBE=   155 NFC=    43 NFV=     0
 NROrb=    739 NOA=   112 NOB=   112 NVA=   627 NVB=   627

 **** Warning!!: The smallest alpha delta epsilon is  0.54120021D-01

 Orbital symmetries:
       Occupied  (A) (A) (A) (A) (A) (A) (A) (A) (A) (A) (A) (A)
                 (A) (A) (A) (A) (A) (A) (A) (A) (A) (A) (A) (A)
                 (A) (A) (A) (A) (A) (A) (A) (A) (A) (A) (A) (A)
                 (A) (A) (A) (A) (A) (A) (A) (A) (A) (A) (A) (A)
                 (A) (A) (A) (A) (A) (A) (A) (A) (A) (A) (A) (A)
                 (A) (A) (A) (A) (A) (A) (A) (A) (A) (A) (A) (A)
                 (A) (A) (A) (A) (A) (A) (A) (A) (A) (A) (A) (A)
                 (A) (A) (A) (A) (A) (A) (A) (A) (A) (A) (A) (A)
                 (A) (A) (A) (A) (A) (A) (A) (A) (A) (A) (A) (A)
                 (A) (A) (A) (A) (A) (A) (A) (A) (A) (A) (A) (A)
                 (A) (A) (A) (A) (A) (A) (A) (A) (A) (A) (A) (A)
                 (A) (A) (A) (A) (A) (A) (A) (A) (A) (A) (A) (A)
                 (A) (A) (A) (A) (A) (A) (A) (A) (A) (A) (A)
       Virtual   (A) (A) (A) (A) (A) (A) (A) (A) (A) (A) (A) (A)
                 (A) (A) (A) (A) (A) (A) (A) (A) (A) (A) (A) (A)
                 (A) (A) (A) (A) (A) (A) (A) (A) (A) (A) (A) (A)
                 (A) (A) (A) (A) (A) (A) (A) (A) (A) (A) (A) (A)
                 (A) (A) (A) (A) (A) (A) (A) (A) (A) (A) (A) (A)
                 (A) (A) (A) (A) (A) (A) (A) (A) (A) (A) (A) (A)
                 (A) (A) (A) (A) (A) (A) (A) (A) (A) (A) (A) (A)
                 (A) (A) (A) (A) (A) (A) (A) (A) (A) (A) (A) (A)
                 (A) (A) (A) (A) (A) (A) (A) (A) (A) (A) (A) (A)
                 (A) (A) (A) (A) (A) (A) (A) (A) (A) (A) (A) (A)
                 (A) (A) (A) (A) (A) (A) (A) (A) (A) (A) (A) (A)
                 (A) (A) (A) (A) (A) (A) (A) (A) (A) (A) (A) (A)
                 (A) (A) (A) (A) (A) (A) (A) (A) (A) (A) (A) (A)
                 (A) (A) (A) (A) (A) (A) (A) (A) (A) (A) (A) (A)
                 (A) (A) (A) (A) (A) (A) (A) (A) (A) (A) (A) (A)
                 (A) (A) (A) (A) (A) (A) (A) (A) (A) (A) (A) (A)
                 (A) (A) (A) (A) (A) (A) (A) (A) (A) (A) (A) (A)
                 (A) (A) (A) (A) (A) (A) (A) (A) (A) (A) (A) (A)
                 (A) (A) (A) (A) (A) (A) (A) (A) (A) (A) (A) (A)
                 (A) (A) (A) (A) (A) (A) (A) (A) (A) (A) (A) (A)
                 (A) (A) (A) (A) (A) (A) (A) (A) (A) (A) (A) (A)
                 (A) (A) (A) (A) (A) (A) (A) (A) (A) (A) (A) (A)
                 (A) (A) (A) (A) (A) (A) (A) (A) (A) (A) (A) (A)
                 (A) (A) (A) (A) (A) (A) (A) (A) (A) (A) (A) (A)
                 (A) (A) (A) (A) (A) (A) (A) (A) (A) (A) (A) (A)
                 (A) (A) (A) (A) (A) (A) (A) (A) (A) (A) (A) (A)
                 (A) (A) (A) (A) (A) (A) (A) (A) (A) (A) (A) (A)
                 (A) (A) (A) (A) (A) (A) (A) (A) (A) (A) (A) (A)
                 (A) (A) (A) (A) (A) (A) (A) (A) (A) (A) (A) (A)
                 (A) (A) (A) (A) (A) (A) (A) (A) (A) (A) (A) (A)
                 (A) (A) (A) (A) (A) (A) (A) (A) (A) (A) (A) (A)
                 (A) (A) (A) (A) (A) (A) (A) (A) (A) (A) (A) (A)
                 (A) (A) (A) (A) (A) (A) (A) (A) (A) (A) (A) (A)
                 (A) (A) (A) (A) (A) (A) (A) (A) (A) (A) (A) (A)
                 (A) (A) (A) (A) (A) (A) (A) (A) (A) (A) (A) (A)
                 (A) (A) (A) (A) (A) (A) (A) (A) (A) (A) (A) (A)
                 (A) (A) (A) (A) (A) (A) (A) (A) (A) (A) (A) (A)
                 (A) (A) (A) (A) (A) (A) (A) (A) (A) (A) (A) (A)
                 (A) (A) (A) (A) (A) (A) (A) (A) (A) (A) (A) (A)
                 (A) (A) (A) (A) (A) (A) (A) (A) (A) (A) (A) (A)
                 (A) (A) (A) (A) (A) (A) (A) (A) (A) (A) (A) (A)
                 (A) (A) (A) (A) (A) (A) (A) (A) (A) (A) (A) (A)
                 (A) (A) (A) (A) (A) (A) (A) (A) (A) (A) (A) (A)
                 (A) (A) (A) (A) (A) (A) (A) (A) (A) (A) (A) (A)
                 (A) (A) (A) (A) (A) (A) (A) (A) (A) (A) (A) (A)
                 (A) (A) (A) (A) (A) (A) (A) (A) (A) (A) (A) (A)
                 (A) (A) (A) (A) (A) (A) (A) (A) (A) (A) (A) (A)
                 (A) (A) (A) (A) (A) (A) (A) (A) (A) (A) (A) (A)
                 (A) (A) (A) (A) (A) (A) (A) (A) (A) (A) (A) (A)
                 (A) (A) (A) (A) (A) (A) (A) (A) (A) (A) (A) (A)
                 (A) (A) (A) (A) (A) (A) (A) (A) (A) (A) (A) (A)
                 (A) (A) (A) (A) (A) (A) (A) (A) (A) (A) (A) (A)
                 (A) (A) (A)
     4 initial guesses have been made.
 Convergence on wavefunction:    0.001000000000000
 Iteration     1 Dimension     4 NMult     0 NNew      4
 CISAX will form     4 AO SS matrices at one time.
 Iteration     2 Dimension     6 NMult     4 NNew      2
 Iteration     3 Dimension     8 NMult     6 NNew      2
 Iteration     4 Dimension    10 NMult     8 NNew      2
 Iteration     5 Dimension    12 NMult    10 NNew      2
 ***********************************************************************
 Excited states from <AA,BB:AA,BB> singles matrix:
 ***********************************************************************
 
 Ground to excited state transition densities written to RWF  633
 Ground to excited state transition electric dipole moments (Au):
       state          X           Y           Z        Dip. S.      Osc.
         1         0.0873      0.0925     -0.1292      0.0329      0.0006
 Ground to excited state transition velocity dipole moments (Au):
       state          X           Y           Z        Dip. S.      Osc.
         1        -0.0015     -0.0035      0.0033      0.0000      0.0006
 Ground to excited state transition magnetic dipole moments (Au):
       state          X           Y           Z
         1         0.0171      0.1028      0.1071
 Ground to excited state transition velocity quadrupole moments (Au):
       state          XX          YY          ZZ          XY          XZ          YZ
         1        -0.0058      0.0050      0.0080      0.0211     -0.0001     -0.0025
 <0|del|b> * <b|rxdel|0> + <0|del|b> * <b|delr+rdel|0>
 Rotatory Strengths (R) in cgs (10**-40 erg-esu-cm/Gauss)
       state          XX          YY          ZZ    R(velocity)    E-M Angle
         1         0.8809      3.3150     -4.7963     -0.2001       90.00
 1/2[<0|r|b>*<b|rxdel|0> + (<0|rxdel|b>*<b|r|0>)*]
 Rotatory Strengths (R) in cgs (10**-40 erg-esu-cm/Gauss)
       state          XX          YY          ZZ     R(length)
         1        -1.0587     -6.7192      9.7804      0.6675
  1/2[<0|del|b>*<b|r|0> + (<0|r|b>*<b|del|0>)*] (Au)
       state          X           Y           Z        Dip. S.   Osc.(frdel)
         1        -0.0001     -0.0003     -0.0004      0.0009      0.0006

 Excitation energies and oscillator strengths:
 
 Excited State   1:      Singlet-A      0.7730 eV 1603.84 nm  f=0.0006  <S**2>=0.000
     155 ->156         0.70435
 This state for optimization and/or second-order correction.
 Total Energy, E(TD-HF/TD-DFT) =  -1947.79794703    
 Copying the excited state density for this state as the 1-particle RhoCI density.
 SavETr:  write IOETrn=   770 NScale= 10 NData=  16 NLR=1 NState=    1 LETran=      28.

 **********************************************************************

            Population analysis using the SCF density.

 **********************************************************************

 Orbital symmetries:
       Occupied  (A) (A) (A) (A) (A) (A) (A) (A) (A) (A) (A) (A)
                 (A) (A) (A) (A) (A) (A) (A) (A) (A) (A) (A) (A)
                 (A) (A) (A) (A) (A) (A) (A) (A) (A) (A) (A) (A)
                 (A) (A) (A) (A) (A) (A) (A) (A) (A) (A) (A) (A)
                 (A) (A) (A) (A) (A) (A) (A) (A) (A) (A) (A) (A)
                 (A) (A) (A) (A) (A) (A) (A) (A) (A) (A) (A) (A)
                 (A) (A) (A) (A) (A) (A) (A) (A) (A) (A) (A) (A)
                 (A) (A) (A) (A) (A) (A) (A) (A) (A) (A) (A) (A)
                 (A) (A) (A) (A) (A) (A) (A) (A) (A) (A) (A) (A)
                 (A) (A) (A) (A) (A) (A) (A) (A) (A) (A) (A) (A)
                 (A) (A) (A) (A) (A) (A) (A) (A) (A) (A) (A) (A)
                 (A) (A) (A) (A) (A) (A) (A) (A) (A) (A) (A) (A)
                 (A) (A) (A) (A) (A) (A) (A) (A) (A) (A) (A)
       Virtual   (A) (A) (A) (A) (A) (A) (A) (A) (A) (A) (A) (A)
                 (A) (A) (A) (A) (A) (A) (A) (A) (A) (A) (A) (A)
                 (A) (A) (A) (A) (A) (A) (A) (A) (A) (A) (A) (A)
                 (A) (A) (A) (A) (A) (A) (A) (A) (A) (A) (A) (A)
                 (A) (A) (A) (A) (A) (A) (A) (A) (A) (A) (A) (A)
                 (A) (A) (A) (A) (A) (A) (A) (A) (A) (A) (A) (A)
                 (A) (A) (A) (A) (A) (A) (A) (A) (A) (A) (A) (A)
                 (A) (A) (A) (A) (A) (A) (A) (A) (A) (A) (A) (A)
                 (A) (A) (A) (A) (A) (A) (A) (A) (A) (A) (A) (A)
                 (A) (A) (A) (A) (A) (A) (A) (A) (A) (A) (A) (A)
                 (A) (A) (A) (A) (A) (A) (A) (A) (A) (A) (A) (A)
                 (A) (A) (A) (A) (A) (A) (A) (A) (A) (A) (A) (A)
                 (A) (A) (A) (A) (A) (A) (A) (A) (A) (A) (A) (A)
                 (A) (A) (A) (A) (A) (A) (A) (A) (A) (A) (A) (A)
                 (A) (A) (A) (A) (A) (A) (A) (A) (A) (A) (A) (A)
                 (A) (A) (A) (A) (A) (A) (A) (A) (A) (A) (A) (A)
                 (A) (A) (A) (A) (A) (A) (A) (A) (A) (A) (A) (A)
                 (A) (A) (A) (A) (A) (A) (A) (A) (A) (A) (A) (A)
                 (A) (A) (A) (A) (A) (A) (A) (A) (A) (A) (A) (A)
                 (A) (A) (A) (A) (A) (A) (A) (A) (A) (A) (A) (A)
                 (A) (A) (A) (A) (A) (A) (A) (A) (A) (A) (A) (A)
                 (A) (A) (A) (A) (A) (A) (A) (A) (A) (A) (A) (A)
                 (A) (A) (A) (A) (A) (A) (A) (A) (A) (A) (A) (A)
                 (A) (A) (A) (A) (A) (A) (A) (A) (A) (A) (A) (A)
                 (A) (A) (A) (A) (A) (A) (A) (A) (A) (A) (A) (A)
                 (A) (A) (A) (A) (A) (A) (A) (A) (A) (A) (A) (A)
                 (A) (A) (A) (A) (A) (A) (A) (A) (A) (A) (A) (A)
                 (A) (A) (A) (A) (A) (A) (A) (A) (A) (A) (A) (A)
                 (A) (A) (A) (A) (A) (A) (A) (A) (A) (A) (A) (A)
                 (A) (A) (A) (A) (A) (A) (A) (A) (A) (A) (A) (A)
                 (A) (A) (A) (A) (A) (A) (A) (A) (A) (A) (A) (A)
                 (A) (A) (A) (A) (A) (A) (A) (A) (A) (A) (A) (A)
                 (A) (A) (A) (A) (A) (A) (A) (A) (A) (A) (A) (A)
                 (A) (A) (A) (A) (A) (A) (A) (A) (A) (A) (A) (A)
                 (A) (A) (A) (A) (A) (A) (A) (A) (A) (A) (A) (A)
                 (A) (A) (A) (A) (A) (A) (A) (A) (A) (A) (A) (A)
                 (A) (A) (A) (A) (A) (A) (A) (A) (A) (A) (A) (A)
                 (A) (A) (A) (A) (A) (A) (A) (A) (A) (A) (A) (A)
                 (A) (A) (A) (A) (A) (A) (A) (A) (A) (A) (A) (A)
                 (A) (A) (A) (A) (A) (A) (A) (A) (A) (A) (A) (A)
                 (A) (A) (A) (A) (A) (A) (A) (A) (A) (A) (A) (A)
                 (A) (A) (A) (A) (A) (A) (A) (A) (A) (A) (A) (A)
                 (A) (A) (A) (A) (A) (A) (A) (A) (A) (A) (A) (A)
                 (A) (A) (A) (A) (A) (A) (A) (A) (A) (A) (A) (A)
                 (A) (A) (A) (A) (A) (A) (A) (A) (A) (A) (A) (A)
                 (A) (A) (A) (A) (A) (A) (A) (A) (A) (A) (A) (A)
                 (A) (A) (A) (A) (A) (A) (A) (A) (A) (A) (A) (A)
                 (A) (A) (A) (A) (A) (A) (A) (A) (A) (A) (A) (A)
                 (A) (A) (A) (A) (A) (A) (A) (A) (A) (A) (A) (A)
                 (A) (A) (A) (A) (A) (A) (A) (A) (A) (A) (A) (A)
                 (A) (A) (A) (A) (A) (A) (A) (A) (A) (A) (A) (A)
                 (A) (A) (A) (A) (A) (A) (A) (A) (A) (A) (A) (A)
                 (A) (A) (A)
 The electronic state is 1-A.
 Alpha  occ. eigenvalues --  -19.20776 -19.18529 -19.13970 -19.12331 -19.11026
 Alpha  occ. eigenvalues --  -19.07830 -14.38756 -14.37302 -14.33355 -14.29529
 Alpha  occ. eigenvalues --  -10.33015 -10.31856 -10.27998 -10.26438 -10.26372
 Alpha  occ. eigenvalues --  -10.25789 -10.25391 -10.24902 -10.24151 -10.23827
 Alpha  occ. eigenvalues --  -10.23330 -10.22837 -10.22677 -10.22505 -10.21737
 Alpha  occ. eigenvalues --  -10.21237 -10.21208 -10.21059 -10.20996 -10.20843
 Alpha  occ. eigenvalues --  -10.20836 -10.20791 -10.20123 -10.19913 -10.19833
 Alpha  occ. eigenvalues --  -10.19799 -10.19729 -10.19391 -10.18657 -10.17885
 Alpha  occ. eigenvalues --  -10.17434 -10.16940 -10.16520  -1.13805  -1.08279
 Alpha  occ. eigenvalues --   -1.05012  -1.02228  -1.01416  -1.00509  -0.99125
 Alpha  occ. eigenvalues --   -0.96560  -0.94821  -0.92290  -0.84994  -0.83205
 Alpha  occ. eigenvalues --   -0.81602  -0.80569  -0.80048  -0.79346  -0.78819
 Alpha  occ. eigenvalues --   -0.77090  -0.76391  -0.75163  -0.74559  -0.74090
 Alpha  occ. eigenvalues --   -0.71676  -0.70310  -0.70065  -0.69655  -0.67517
 Alpha  occ. eigenvalues --   -0.66790  -0.65828  -0.64063  -0.62678  -0.61596
 Alpha  occ. eigenvalues --   -0.60555  -0.59562  -0.59180  -0.58503  -0.56846
 Alpha  occ. eigenvalues --   -0.56336  -0.55374  -0.54023  -0.53818  -0.53290
 Alpha  occ. eigenvalues --   -0.52272  -0.51913  -0.51340  -0.50858  -0.50546
 Alpha  occ. eigenvalues --   -0.49971  -0.49771  -0.49650  -0.48889  -0.48331
 Alpha  occ. eigenvalues --   -0.47863  -0.47205  -0.47192  -0.47089  -0.46688
 Alpha  occ. eigenvalues --   -0.45936  -0.45130  -0.44869  -0.44354  -0.43979
 Alpha  occ. eigenvalues --   -0.43810  -0.43603  -0.43387  -0.42929  -0.42360
 Alpha  occ. eigenvalues --   -0.41886  -0.41493  -0.40948  -0.40835  -0.40645
 Alpha  occ. eigenvalues --   -0.40448  -0.40277  -0.40145  -0.39798  -0.39285
 Alpha  occ. eigenvalues --   -0.39032  -0.38594  -0.38504  -0.38311  -0.38302
 Alpha  occ. eigenvalues --   -0.37914  -0.37686  -0.36695  -0.36620  -0.36377
 Alpha  occ. eigenvalues --   -0.35937  -0.35577  -0.35283  -0.34734  -0.33962
 Alpha  occ. eigenvalues --   -0.33742  -0.33285  -0.32265  -0.31884  -0.31332
 Alpha  occ. eigenvalues --   -0.30875  -0.30691  -0.29806  -0.28854  -0.27983
 Alpha  occ. eigenvalues --   -0.27867  -0.27670  -0.25157  -0.24877  -0.23998
 Alpha  occ. eigenvalues --   -0.23663  -0.22954  -0.22611  -0.22357  -0.18777
 Alpha virt. eigenvalues --   -0.13365  -0.07929  -0.05443  -0.01711  -0.00628
 Alpha virt. eigenvalues --    0.00544   0.00591   0.01330   0.01835   0.01904
 Alpha virt. eigenvalues --    0.02748   0.03101   0.03854   0.04417   0.04516
 Alpha virt. eigenvalues --    0.05067   0.05905   0.06167   0.06525   0.06765
 Alpha virt. eigenvalues --    0.07000   0.07489   0.07667   0.08201   0.08769
 Alpha virt. eigenvalues --    0.09129   0.09565   0.09787   0.10176   0.10661
 Alpha virt. eigenvalues --    0.11099   0.11364   0.12091   0.12277   0.12510
 Alpha virt. eigenvalues --    0.12734   0.12886   0.13770   0.13972   0.14163
 Alpha virt. eigenvalues --    0.14276   0.14860   0.16013   0.16091   0.16371
 Alpha virt. eigenvalues --    0.16638   0.16899   0.17529   0.17848   0.18532
 Alpha virt. eigenvalues --    0.19092   0.19468   0.20057   0.20695   0.20937
 Alpha virt. eigenvalues --    0.21351   0.21684   0.22443   0.22728   0.22868
 Alpha virt. eigenvalues --    0.23232   0.23377   0.24139   0.24955   0.25467
 Alpha virt. eigenvalues --    0.25737   0.25984   0.26418   0.26566   0.27022
 Alpha virt. eigenvalues --    0.27851   0.28597   0.28655   0.29064   0.29333
 Alpha virt. eigenvalues --    0.29740   0.30846   0.31240   0.31478   0.32023
 Alpha virt. eigenvalues --    0.32522   0.32697   0.33169   0.33835   0.34000
 Alpha virt. eigenvalues --    0.34328   0.35321   0.35511   0.36291   0.36648
 Alpha virt. eigenvalues --    0.37346   0.37583   0.38862   0.39189   0.39563
 Alpha virt. eigenvalues --    0.40041   0.40572   0.40973   0.41799   0.42049
 Alpha virt. eigenvalues --    0.42149   0.42676   0.42762   0.43058   0.43173
 Alpha virt. eigenvalues --    0.43727   0.44142   0.44502   0.45312   0.45610
 Alpha virt. eigenvalues --    0.45884   0.45945   0.46095   0.46842   0.47137
 Alpha virt. eigenvalues --    0.47334   0.47427   0.47965   0.48501   0.48801
 Alpha virt. eigenvalues --    0.49112   0.49200   0.49472   0.49983   0.50195
 Alpha virt. eigenvalues --    0.50282   0.50692   0.50806   0.50992   0.51214
 Alpha virt. eigenvalues --    0.51667   0.52365   0.52577   0.53205   0.53608
 Alpha virt. eigenvalues --    0.53913   0.54122   0.54563   0.54629   0.55168
 Alpha virt. eigenvalues --    0.55280   0.56179   0.56428   0.56665   0.57181
 Alpha virt. eigenvalues --    0.57445   0.57734   0.58179   0.58377   0.58736
 Alpha virt. eigenvalues --    0.58853   0.59342   0.59769   0.60170   0.60271
 Alpha virt. eigenvalues --    0.60636   0.60971   0.61212   0.61331   0.61440
 Alpha virt. eigenvalues --    0.61943   0.62181   0.62454   0.62907   0.63195
 Alpha virt. eigenvalues --    0.63237   0.63541   0.63750   0.63929   0.64547
 Alpha virt. eigenvalues --    0.64623   0.65035   0.65219   0.65507   0.66128
 Alpha virt. eigenvalues --    0.66423   0.66531   0.66859   0.67003   0.67466
 Alpha virt. eigenvalues --    0.67789   0.67912   0.68033   0.68335   0.68720
 Alpha virt. eigenvalues --    0.68899   0.69157   0.69347   0.69547   0.69889
 Alpha virt. eigenvalues --    0.70487   0.70623   0.70846   0.71251   0.71597
 Alpha virt. eigenvalues --    0.71837   0.72512   0.72712   0.73136   0.73563
 Alpha virt. eigenvalues --    0.73720   0.74043   0.74275   0.74689   0.75028
 Alpha virt. eigenvalues --    0.75167   0.75411   0.75477   0.75674   0.76167
 Alpha virt. eigenvalues --    0.76728   0.77510   0.77936   0.78031   0.78111
 Alpha virt. eigenvalues --    0.78618   0.79389   0.80067   0.80403   0.81046
 Alpha virt. eigenvalues --    0.82006   0.83114   0.83389   0.83897   0.84913
 Alpha virt. eigenvalues --    0.85410   0.85781   0.86022   0.86565   0.87321
 Alpha virt. eigenvalues --    0.87422   0.88058   0.88384   0.88714   0.89486
 Alpha virt. eigenvalues --    0.89812   0.90336   0.90763   0.91772   0.92582
 Alpha virt. eigenvalues --    0.92817   0.93832   0.94153   0.94541   0.94971
 Alpha virt. eigenvalues --    0.95441   0.95827   0.96029   0.96336   0.97035
 Alpha virt. eigenvalues --    0.98086   0.98633   0.98813   1.00260   1.01499
 Alpha virt. eigenvalues --    1.01708   1.02849   1.03727   1.04662   1.05457
 Alpha virt. eigenvalues --    1.06435   1.06860   1.07675   1.07929   1.08992
 Alpha virt. eigenvalues --    1.09834   1.09975   1.11181   1.12190   1.12524
 Alpha virt. eigenvalues --    1.13317   1.13354   1.13670   1.14381   1.15312
 Alpha virt. eigenvalues --    1.15737   1.16291   1.16616   1.17627   1.18441
 Alpha virt. eigenvalues --    1.18692   1.19477   1.19661   1.20925   1.21377
 Alpha virt. eigenvalues --    1.22327   1.22462   1.23648   1.24080   1.24306
 Alpha virt. eigenvalues --    1.24770   1.25708   1.26155   1.27082   1.27430
 Alpha virt. eigenvalues --    1.28194   1.28850   1.28970   1.30004   1.31102
 Alpha virt. eigenvalues --    1.31765   1.32194   1.32604   1.33482   1.34003
 Alpha virt. eigenvalues --    1.35784   1.36033   1.36573   1.37015   1.37507
 Alpha virt. eigenvalues --    1.37962   1.39145   1.39471   1.39934   1.40306
 Alpha virt. eigenvalues --    1.40793   1.42806   1.43935   1.44207   1.45022
 Alpha virt. eigenvalues --    1.45291   1.46310   1.46673   1.47677   1.48064
 Alpha virt. eigenvalues --    1.48698   1.48804   1.49564   1.50762   1.51640
 Alpha virt. eigenvalues --    1.52252   1.52578   1.53095   1.53707   1.53820
 Alpha virt. eigenvalues --    1.53870   1.54378   1.55568   1.55808   1.56561
 Alpha virt. eigenvalues --    1.56902   1.57701   1.58015   1.59019   1.59452
 Alpha virt. eigenvalues --    1.59858   1.60577   1.60796   1.61404   1.61553
 Alpha virt. eigenvalues --    1.61774   1.62070   1.62708   1.63479   1.63693
 Alpha virt. eigenvalues --    1.64160   1.64628   1.65311   1.65741   1.66500
 Alpha virt. eigenvalues --    1.66706   1.67682   1.67796   1.68466   1.68564
 Alpha virt. eigenvalues --    1.69068   1.69808   1.70072   1.70581   1.71247
 Alpha virt. eigenvalues --    1.71648   1.71862   1.72173   1.72479   1.73057
 Alpha virt. eigenvalues --    1.73320   1.73987   1.74792   1.74912   1.75206
 Alpha virt. eigenvalues --    1.75644   1.76228   1.76256   1.76531   1.77004
 Alpha virt. eigenvalues --    1.77624   1.78393   1.78504   1.78989   1.79484
 Alpha virt. eigenvalues --    1.79685   1.80150   1.80437   1.80850   1.80960
 Alpha virt. eigenvalues --    1.81933   1.82046   1.82706   1.83075   1.83458
 Alpha virt. eigenvalues --    1.83946   1.84213   1.84661   1.84862   1.85687
 Alpha virt. eigenvalues --    1.86136   1.86539   1.86876   1.87418   1.88075
 Alpha virt. eigenvalues --    1.88347   1.88634   1.88997   1.89378   1.90176
 Alpha virt. eigenvalues --    1.90634   1.91618   1.91936   1.92224   1.92402
 Alpha virt. eigenvalues --    1.93193   1.94134   1.94418   1.94723   1.95229
 Alpha virt. eigenvalues --    1.95911   1.96173   1.96517   1.97109   1.97244
 Alpha virt. eigenvalues --    1.98179   1.98832   1.98969   1.99709   2.00023
 Alpha virt. eigenvalues --    2.00776   2.01203   2.01484   2.01884   2.02460
 Alpha virt. eigenvalues --    2.02830   2.03025   2.03746   2.04110   2.04442
 Alpha virt. eigenvalues --    2.05188   2.05430   2.06552   2.06833   2.07120
 Alpha virt. eigenvalues --    2.08287   2.08833   2.09155   2.09312   2.09846
 Alpha virt. eigenvalues --    2.10125   2.10378   2.11077   2.11625   2.12172
 Alpha virt. eigenvalues --    2.12518   2.13234   2.13921   2.14781   2.15833
 Alpha virt. eigenvalues --    2.16153   2.16714   2.17511   2.17822   2.18548
 Alpha virt. eigenvalues --    2.18898   2.19453   2.19749   2.21059   2.21347
 Alpha virt. eigenvalues --    2.21698   2.22509   2.23245   2.23630   2.24684
 Alpha virt. eigenvalues --    2.25206   2.25439   2.26510   2.27247   2.27581
 Alpha virt. eigenvalues --    2.29268   2.29495   2.30048   2.30822   2.31014
 Alpha virt. eigenvalues --    2.32203   2.32761   2.33232   2.34186   2.34821
 Alpha virt. eigenvalues --    2.35451   2.35865   2.36426   2.37295   2.37693
 Alpha virt. eigenvalues --    2.38275   2.38828   2.39421   2.39585   2.40173
 Alpha virt. eigenvalues --    2.41160   2.41760   2.42003   2.44052   2.45052
 Alpha virt. eigenvalues --    2.45943   2.46908   2.47388   2.47600   2.48420
 Alpha virt. eigenvalues --    2.50342   2.51480   2.52218   2.52330   2.52564
 Alpha virt. eigenvalues --    2.55509   2.55859   2.55938   2.57095   2.57549
 Alpha virt. eigenvalues --    2.58604   2.59136   2.59516   2.60418   2.62002
 Alpha virt. eigenvalues --    2.62471   2.62745   2.64278   2.64843   2.64893
 Alpha virt. eigenvalues --    2.65466   2.65801   2.67113   2.68024   2.68603
 Alpha virt. eigenvalues --    2.68707   2.68981   2.70687   2.70909   2.71770
 Alpha virt. eigenvalues --    2.72236   2.72620   2.72757   2.73107   2.73555
 Alpha virt. eigenvalues --    2.74489   2.75508   2.75611   2.75803   2.77443
 Alpha virt. eigenvalues --    2.78970   2.79793   2.80194   2.81310   2.81801
 Alpha virt. eigenvalues --    2.82080   2.82343   2.83557   2.84523   2.85069
 Alpha virt. eigenvalues --    2.85361   2.85507   2.86116   2.87169   2.87586
 Alpha virt. eigenvalues --    2.87946   2.88638   2.89194   2.90254   2.90916
 Alpha virt. eigenvalues --    2.91024   2.91615   2.92638   2.93268   2.93592
 Alpha virt. eigenvalues --    2.94253   2.94844   2.95182   2.98039   3.00307
 Alpha virt. eigenvalues --    3.01601   3.01984   3.02988   3.05743   3.06700
 Alpha virt. eigenvalues --    3.07269   3.09278   3.09719   3.11764   3.12271
 Alpha virt. eigenvalues --    3.13341   3.15673   3.15850   3.17401   3.18084
 Alpha virt. eigenvalues --    3.18389   3.19219   3.19824   3.22149   3.22602
 Alpha virt. eigenvalues --    3.23726   3.23942   3.24747   3.28047   3.29151
 Alpha virt. eigenvalues --    3.32213   3.33810   3.40043   3.45288   3.45503
 Alpha virt. eigenvalues --    3.46561   3.49898   3.52617   3.53587   3.57112
 Alpha virt. eigenvalues --    3.58277   3.61891   3.68190   3.69518   3.73522
 Alpha virt. eigenvalues --    3.73725   3.73794
          Condensed to atoms (all electrons):
 Mulliken charges:
               1
     1  O   -0.257882
     2  O   -0.207436
     3  O   -0.252875
     4  O   -0.157120
     5  O   -0.162343
     6  O   -0.259658
     7  N   -0.095412
     8  N   -0.182830
     9  N   -0.015815
    10  N   -0.231411
    11  C    0.194174
    12  C    0.114658
    13  C   -0.061364
    14  C   -0.191688
    15  C   -0.064093
    16  C    0.026449
    17  C   -0.168031
    18  C    0.032961
    19  C    0.041611
    20  C   -0.086302
    21  C    0.035617
    22  C    0.102705
    23  C    0.071195
    24  C    0.085479
    25  C    0.050720
    26  C   -0.109277
    27  C    0.050242
    28  C    0.043523
    29  C   -0.110132
    30  C   -0.056681
    31  C   -0.084892
    32  C    0.069190
    33  C   -0.101242
    34  C    0.154864
    35  C    0.131520
    36  C   -0.023785
    37  C    0.097349
    38  C    0.007027
    39  C   -0.154733
    40  C    0.117841
    41  C   -0.013409
    42  C    0.032292
    43  C   -0.047888
    44  H   -0.027910
    45  H   -0.013336
    46  H    0.032507
    47  H    0.139208
    48  H    0.141847
    49  H    0.039979
    50  H    0.003147
    51  H    0.006163
    52  H    0.013866
    53  H   -0.011503
    54  H    0.058276
    55  H    0.039680
    56  H    0.055578
    57  H   -0.005545
    58  H   -0.018044
    59  H    0.054520
    60  H    0.174257
    61  H    0.036946
    62  H    0.077299
    63  H    0.021903
    64  H    0.055385
    65  H    0.044861
    66  H    0.028248
    67  H    0.033133
    68  H    0.068319
    69  H    0.017388
    70  H   -0.021221
    71  H    0.001728
    72  H    0.197795
    73  H    0.007149
    74  H    0.031922
    75  H    0.056659
    76  H    0.034828
    77  H    0.211255
    78  H    0.033998
    79  H    0.016594
 Sum of Mulliken charges =  -0.00000
 Mulliken charges with hydrogens summed into heavy atoms:
               1
     1  O   -0.257882
     2  O   -0.009641
     3  O   -0.252875
     4  O    0.054134
     5  O   -0.162343
     6  O   -0.259658
     7  N    0.043797
     8  N   -0.040982
     9  N    0.158443
    10  N   -0.231411
    11  C    0.166264
    12  C    0.133829
    13  C   -0.061364
    14  C   -0.191688
    15  C   -0.064093
    16  C    0.026449
    17  C   -0.168031
    18  C    0.076087
    19  C    0.041611
    20  C   -0.080139
    21  C    0.035617
    22  C    0.102705
    23  C    0.071195
    24  C    0.146119
    25  C    0.140433
    26  C   -0.109277
    27  C    0.086718
    28  C    0.043523
    29  C    0.004113
    30  C   -0.034778
    31  C    0.015353
    32  C    0.198890
    33  C   -0.083854
    34  C    0.154864
    35  C    0.131520
    36  C   -0.043278
    37  C    0.097349
    38  C    0.007027
    39  C   -0.154733
    40  C    0.117841
    41  C   -0.006260
    42  C    0.155702
    43  C    0.002705
 Electronic spatial extent (au):  <R**2>=          26029.6130
 Charge=              0.0000 electrons
 Dipole moment (field-independent basis, Debye):
    X=              5.2466    Y=              2.0308    Z=             -2.2099  Tot=              6.0444
 Quadrupole moment (field-independent basis, Debye-Ang):
   XX=           -217.1290   YY=           -241.7565   ZZ=           -270.8771
   XY=              5.9120   XZ=            -28.1733   YZ=            -14.6150
 Traceless Quadrupole moment (field-independent basis, Debye-Ang):
   XX=             26.1252   YY=              1.4977   ZZ=            -27.6229
   XY=              5.9120   XZ=            -28.1733   YZ=            -14.6150
 Octapole moment (field-independent basis, Debye-Ang**2):
  XXX=            377.1286  YYY=             96.1452  ZZZ=            -53.4361  XYY=            -17.5642
  XXY=            -46.2436  XXZ=            -16.8866  XZZ=             16.7242  YZZ=             40.8158
  YYZ=             31.7041  XYZ=             14.7966
 Hexadecapole moment (field-independent basis, Debye-Ang**3):
 XXXX=         -15792.1882 YYYY=          -7975.9608 ZZZZ=          -7247.2081 XXXY=           -371.8744
 XXXZ=           -672.7626 YYYX=            191.7743 YYYZ=            100.9681 ZZZX=           -431.3501
 ZZZY=            -27.4890 XXYY=          -4256.1231 XXZZ=          -4656.8501 YYZZ=          -2544.7565
 XXYZ=            -94.2337 YYXZ=            216.5696 ZZXY=             59.0459
 N-N= 5.185958101550D+03 E-N=-1.490059831806D+04  KE= 1.927687509749D+03
 1\1\GINC-PADAWAN\SP\RB3LYP TD-FC\SVP\C33H36N4O6\PADAWAN\25-Jul-2019\0\
 \# td=(NStates=1) B3LYP/SVP\\TD\\0,1\O,0,-3.1223691471,-1.4796530208,-
 2.8279934536\O,0,2.9971901738,3.1621778763,3.1410883797\O,0,3.75366967
 52,1.3444315715,4.3529497386\O,0,7.7883774406,-1.7359797122,-0.8503858
 004\O,0,6.614795636,-3.0961504099,-2.128629311\O,0,-2.7550064071,1.751
 5406432,1.447774838\N,0,-0.2919949457,-2.3848648008,0.9962744682\N,0,-
 2.6655085889,-1.2218373187,-0.6326054051\N,0,1.1602775772,0.0710480145
 ,-0.7548304202\N,0,-1.0921483603,1.5720626142,-0.1628771856\C,0,-3.384
 5836081,-1.3401315756,0.63996097\C,0,-2.6731359397,-2.2958437306,1.608
 6561724\C,0,-1.3097866204,-1.9807558896,1.7791559042\C,0,-0.5094007424
 ,-1.2039215839,2.766054626\C,0,0.8171628289,-1.2604110421,2.526443839\
 C,0,1.0019828845,-1.9129677315,1.2974045445\C,0,-4.7809430409,-1.81307
 69564,0.201947082\C,0,1.8641710085,-0.3530356332,3.2130534598\C,0,-4.8
 061769791,-2.0355422626,-1.1138617267\C,0,2.0090288593,-1.8712453167,0
 .2805703357\C,0,2.1058666086,-0.8704789601,-0.6536792694\C,0,-3.485533
 2232,-1.5424662119,-1.6488721706\C,0,3.1027213353,-0.6005608044,-1.758
 1597149\C,0,-1.2770262748,-0.3207959366,3.7998154898\C,0,-5.8691021343
 ,-2.1128177621,1.2084818538\C,0,2.6680064575,0.5516025285,-2.400244634
 5\C,0,1.9222016526,1.1597316652,2.8484614877\C,0,1.3833517017,0.929329
 5816,-1.7669928053\C,0,4.2901643655,-1.4344528744,-1.9427739075\C,0,-5
 .74693903,-2.5462967201,-2.0007835266\C,0,5.5383993909,-1.2460463498,-
 1.1505784747\C,0,3.1823383292,1.1392323258,-3.5940359128\C,0,0.5139238
 165,2.0658417311,-1.9256743125\C,0,2.9949381341,1.852864872,3.50757610
 28\C,0,-0.7131251441,2.2845030825,-1.2410893968\C,0,-6.9042843549,-3.3
 225060147,-1.7595945182\C,0,6.7377933489,-2.1610443595,-1.4648871787\C
 ,0,-1.5067093257,3.4309953327,-1.2992580005\C,0,-2.3710611955,3.423742
 8533,-0.1665445607\C,0,-2.0706993423,2.1300839419,0.4602349555\C,0,-1.
 3833883172,4.5708733475,-2.2925110191\C,0,-3.3573663731,4.3378642693,0
 .4594601857\C,0,-2.0592898202,5.729048323,-2.3023739702\H,0,-3.4295514
 483,-0.4667121611,1.098944099\H,0,-2.8301846449,-3.3309782228,1.148305
 1796\H,0,-3.225412361,-2.4822016646,2.6520445932\H,0,-0.7043657414,-2.
 7548242475,0.0496519752\H,0,-1.9846968594,-0.489515255,-0.8346275652\H
 ,0,1.7656745289,-0.4920006539,4.3492170208\H,0,2.8773850714,-0.7099428
 856,2.8379787273\H,0,2.7574445584,-2.6721888018,0.1274057938\H,0,-1.94
 1746804,-0.9471439884,4.4559926611\H,0,-0.4167114391,0.0726730637,4.36
 31626728\H,0,-1.7825575696,0.4634687936,3.1998387492\H,0,-5.7581265999
 ,-1.6458427155,2.4041447075\H,0,-5.8549042511,-3.3068247871,1.26398924
 52\H,0,-6.7760249793,-1.807796423,1.0202183835\H,0,1.8573618756,1.2659
 465366,1.8404116525\H,0,0.9287728288,1.6065929036,3.1969676705\H,0,0.4
 916374213,0.2852628961,-0.0265746898\H,0,4.7836640856,-1.3442674857,-3
 .1658421861\H,0,4.1456153913,-2.7001817974,-2.0169588039\H,0,-5.651897
 3281,-2.3949504196,-3.085311995\H,0,5.4251004313,-1.3412646064,0.00809
 40331\H,0,5.9254039817,-0.0792949256,-1.2412086034\H,0,3.9832682383,0.
 5932558177,-4.0846766972\H,0,3.4368894405,2.1451255913,-3.335335869\H,
 0,2.1590316925,1.1458390818,-4.3037035224\H,0,0.8031742274,2.656057102
 2,-2.9020710991\H,0,-7.1194710332,-3.986940878,-1.0301520364\H,0,-7.42
 2640529,-3.7796892994,-2.5739404475\H,0,3.8498487124,3.5875681178,3.46
 08893431\H,0,-0.7646303418,4.34130541,-3.2199098864\H,0,-4.1812967193,
 4.5891554973,-0.2918103325\H,0,-3.8800467544,3.7419489885,1.3282736388
 \H,0,-3.098048121,5.3255728484,0.8066064305\H,0,8.6160272962,-2.248608
 015,-1.1699676318\H,0,-1.6909520198,6.5298634434,-3.026567509\H,0,-2.7
 120735603,6.105531929,-1.4996458721\\Version=ES64L-G16RevA.03\State=1-
 A\HF=-1947.8263559\RMSD=8.163e-09\PG=C01 [X(C33H36N4O6)]\\@


 KINETICS       FACT
 ---------  =  -------
 MECHANISM     FICTION
 Job cpu time:       0 days  4 hours  8 minutes 20.5 seconds.
 Elapsed time:       0 days  1 hours  2 minutes  9.8 seconds.
 File lengths (MBytes):  RWF=   2533 Int=      0 D2E=      0 Chk=     63 Scr=      1
 Normal termination of Gaussian 16 at Thu Jul 25 18:03:46 2019.
