 Entering Gaussian System, Link 0=g16
 Input=Geometria-345-.com
 Output=Geometria-345-.log
 Initial command:
 /usr/local/g16/l1.exe "/home/padawan/israel-mol/dihydrobiliverdin/spectra/emi/Gau-9295.inp" -scrdir="/home/padawan/israel-mol/dihydrobiliverdin/spectra/emi/"
 Entering Link 1 = /usr/local/g16/l1.exe PID=      9297.
  
 Copyright (c) 1988,1990,1992,1993,1995,1998,2003,2009,2016,
            Gaussian, Inc.  All Rights Reserved.
  
 This is part of the Gaussian(R) 16 program.  It is based on
 the Gaussian(R) 09 system (copyright 2009, Gaussian, Inc.),
 the Gaussian(R) 03 system (copyright 2003, Gaussian, Inc.),
 the Gaussian(R) 98 system (copyright 1998, Gaussian, Inc.),
 the Gaussian(R) 94 system (copyright 1995, Gaussian, Inc.),
 the Gaussian 92(TM) system (copyright 1992, Gaussian, Inc.),
 the Gaussian 90(TM) system (copyright 1990, Gaussian, Inc.),
 the Gaussian 88(TM) system (copyright 1988, Gaussian, Inc.),
 the Gaussian 86(TM) system (copyright 1986, Carnegie Mellon
 University), and the Gaussian 82(TM) system (copyright 1983,
 Carnegie Mellon University). Gaussian is a federally registered
 trademark of Gaussian, Inc.
  
 This software contains proprietary and confidential information,
 including trade secrets, belonging to Gaussian, Inc.
  
 This software is provided under written license and may be
 used, copied, transmitted, or stored only in accord with that
 written license.
  
 The following legend is applicable only to US Government
 contracts under FAR:
  
                    RESTRICTED RIGHTS LEGEND
  
 Use, reproduction and disclosure by the US Government is
 subject to restrictions as set forth in subparagraphs (a)
 and (c) of the Commercial Computer Software - Restricted
 Rights clause in FAR 52.227-19.
  
 Gaussian, Inc.
 340 Quinnipiac St., Bldg. 40, Wallingford CT 06492
  
  
 ---------------------------------------------------------------
 Warning -- This program may not be used in any manner that
 competes with the business of Gaussian, Inc. or will provide
 assistance to any competitor of Gaussian, Inc.  The licensee
 of this program is prohibited from giving any competitor of
 Gaussian, Inc. access to this program.  By using this program,
 the user acknowledges that Gaussian, Inc. is engaged in the
 business of creating and licensing software in the field of
 computational chemistry and represents and warrants to the
 licensee that it is not a competitor of Gaussian, Inc. and that
 it will not use this program in any manner prohibited above.
 ---------------------------------------------------------------
  

 Cite this work as:
 Gaussian 16, Revision A.03,
 M. J. Frisch, G. W. Trucks, H. B. Schlegel, G. E. Scuseria, 
 M. A. Robb, J. R. Cheeseman, G. Scalmani, V. Barone, 
 G. A. Petersson, H. Nakatsuji, X. Li, M. Caricato, A. V. Marenich, 
 J. Bloino, B. G. Janesko, R. Gomperts, B. Mennucci, H. P. Hratchian, 
 J. V. Ortiz, A. F. Izmaylov, J. L. Sonnenberg, D. Williams-Young, 
 F. Ding, F. Lipparini, F. Egidi, J. Goings, B. Peng, A. Petrone, 
 T. Henderson, D. Ranasinghe, V. G. Zakrzewski, J. Gao, N. Rega, 
 G. Zheng, W. Liang, M. Hada, M. Ehara, K. Toyota, R. Fukuda, 
 J. Hasegawa, M. Ishida, T. Nakajima, Y. Honda, O. Kitao, H. Nakai, 
 T. Vreven, K. Throssell, J. A. Montgomery, Jr., J. E. Peralta, 
 F. Ogliaro, M. J. Bearpark, J. J. Heyd, E. N. Brothers, K. N. Kudin, 
 V. N. Staroverov, T. A. Keith, R. Kobayashi, J. Normand, 
 K. Raghavachari, A. P. Rendell, J. C. Burant, S. S. Iyengar, 
 J. Tomasi, M. Cossi, J. M. Millam, M. Klene, C. Adamo, R. Cammi, 
 J. W. Ochterski, R. L. Martin, K. Morokuma, O. Farkas, 
 J. B. Foresman, and D. J. Fox, Gaussian, Inc., Wallingford CT, 2016.
 
 ******************************************
 Gaussian 16:  ES64L-G16RevA.03 25-Dec-2016
                 2-Oct-2019 
 ******************************************
 %nproc=4
 Will use up to    4 processors via shared memory.
 %Mem=4GB
 --------------------------
 # td=(NStates=1) B3LYP/SVP
 --------------------------
 1/38=1,172=1/1;
 2/12=2,17=6,18=5,40=1/2;
 3/5=18,7=101,11=9,25=1,30=1,74=-5/1,2,3,8;
 4//1;
 5/5=2,38=5/2;
 8/6=1,10=1,108=1/1;
 9/41=1,42=1,70=2/14;
 6/7=2,8=2,9=2,10=2/1;
 99/5=1,9=1/99;
 --
 TD
 --
 Symbolic Z-matrix:
 Charge =  0 Multiplicity = 1
 8                    -5.34383   0.04883  -3.26828 
 8                     3.07769   2.80584   3.47957 
 8                     3.41507   0.58458   2.93306 
 8                     1.64524  -7.16661   1.51188 
 8                     0.86286  -7.11659  -0.56629 
 8                     1.53589   3.92181   0.10679 
 7                    -2.32273  -0.95805   0.65747 
 7                    -4.24581   0.40984  -1.25459 
 7                     1.83099  -0.7243   -0.40963 
 7                     2.50318   1.82822  -0.35322 
 6                    -4.59545   1.15344  -0.07821 
 6                    -4.30574   0.44329   1.33705 
 6                    -2.88406   0.09498   1.38557 
 6                    -1.85025   0.61398   2.19636 
 6                    -0.62048  -0.01438   1.86098 
 6                    -0.93308  -1.0656    0.84443 
 6                    -6.17541   1.418    -0.21639 
 6                     0.67042   0.14035   2.6364 
 6                    -6.58605   1.03137  -1.42588 
 6                    -0.0862   -2.0231    0.29298 
 6                     1.08609  -1.88289  -0.29453 
 6                    -5.3668    0.37594  -2.14 
 6                     1.89834  -2.97502  -0.8814 
 6                    -2.14487   1.76271   3.13556 
 6                    -6.87081   2.18353   0.74728 
 6                     3.03633  -2.38689  -1.27898 
 6                     1.18482   1.51561   2.72032 
 6                     3.03928  -0.95386  -1.0957 
 6                     1.53439  -4.43589  -0.86689 
 6                    -7.8331    0.87458  -2.17909 
 6                     1.74369  -5.03755   0.40283 
 6                     4.15742  -3.13299  -1.9375 
 6                     3.85172   0.1092   -1.46541 
 6                     2.61753   1.60125   3.10165 
 6                     3.55594   1.46686  -1.10104 
 6                    -9.07007   1.04184  -1.55728 
 6                     1.32234  -6.56558   0.43518 
 6                     4.40265   2.72242  -1.54012 
 6                     3.6831    3.83227  -1.05412 
 6                     2.45492   3.33031  -0.46125 
 6                     5.59562   2.71034  -2.34459 
 6                     4.02354   5.27351  -1.10659 
 6                     6.43532   3.62886  -2.69837 
 1                    -4.05584   2.13848  -0.05884 
 1                    -4.99508  -0.4123    1.35295 
 1                    -4.76103   1.10132   2.20983 
 1                    -2.78121  -1.60561  -0.05151 
 1                    -3.40318   0.56581  -1.53113 
 1                     0.52494  -0.34833   3.70371 
 1                     1.4004   -0.58028   2.11669 
 1                    -0.71267  -2.94938   0.10872 
 1                    -3.09411   2.1159    3.28395 
 1                    -1.68251   1.51714   4.28787 
 1                    -1.38473   2.64341   2.6413 
 1                    -6.32701   2.97811   1.26681 
 1                    -7.44254   1.58467   1.51002 
 1                    -7.78496   2.64505   0.22225 
 1                     1.07089   2.133     1.85502 
 1                     0.50271   1.9369    3.48415 
 1                     1.71035   0.18364   0.01231 
 1                     2.22103  -4.87374  -1.63021 
 1                     0.50234  -4.5194   -1.47868 
 1                    -7.67879   0.59734  -3.2159 
 1                     1.26997  -4.35947   1.0703 
 1                     2.90033  -5.20615   0.77788 
 1                     4.04483  -4.13629  -1.98992 
 1                     5.13722  -2.6761   -1.32551 
 1                     4.47973  -2.67852  -2.86481 
 1                     4.92086   0.04699  -1.78491 
 1                    -9.33133   1.27219  -0.45746 
 1                    -9.92468   0.83293  -2.33458 
 1                     4.09299   2.76693   3.2349 
 1                     5.69961   1.67824  -2.66852 
 1                     5.31743   5.35545  -0.84039 
 1                     3.92802   5.48545  -2.29596 
 1                     3.32709   5.83241  -0.38493 
 1                     1.37419  -8.06602   1.16779 
 1                     7.20568   3.31591  -3.32815 
 1                     6.29265   4.64748  -2.57187 
 
 Stoichiometry    C33H36N4O6
 Framework group  C1[X(C33H36N4O6)]
 Deg. of freedom   231
 Full point group                 C1      NOp   1
 Largest Abelian subgroup         C1      NOp   1
 Largest concise Abelian subgroup C1      NOp   1
                         Standard orientation:                         
 ---------------------------------------------------------------------
 Center     Atomic      Atomic             Coordinates (Angstroms)
 Number     Number       Type             X           Y           Z
 ---------------------------------------------------------------------
      1          8           0        5.381704    0.116671   -3.204623
      2          8           0       -3.010418   -2.876888    3.478747
      3          8           0       -3.424785   -0.676672    2.900968
      4          8           0       -1.931766    7.118544    1.404779
      5          8           0       -1.123083    7.073464   -0.663416
      6          8           0       -1.387095   -3.973709    0.138089
      7          7           0        2.277698    1.055035    0.673131
      8          7           0        4.273918   -0.261683   -1.199491
      9          7           0       -1.851094    0.651409   -0.439050
     10          7           0       -2.427094   -1.923893   -0.358917
     11          6           0        4.637177   -0.977447   -0.010045
     12          6           0        4.303851   -0.261996    1.392890
     13          6           0        2.869562    0.032763    1.420632
     14          6           0        1.846387   -0.515339    2.225740
     15          6           0        0.597902    0.061939    1.868396
     16          6           0        0.882824    1.112075    0.842631
     17          6           0        6.227549   -1.183591   -0.126629
     18          6           0       -0.695478   -0.132346    2.630667
     19          6           0        6.637841   -0.796107   -1.335965
     20          6           0        0.007121    2.030176    0.269631
     21          6           0       -1.151882    1.838669   -0.329646
     22          6           0        5.403410   -0.195877   -2.072204
     23          6           0       -1.997653    2.892182   -0.939323
     24          6           0        2.172815   -1.640829    3.182400
     25          6           0        6.939694   -1.910699    0.854408
     26          6           0       -3.107761    2.256673   -1.342770
     27          6           0       -1.158591   -1.525006    2.725592
     28          6           0       -3.058835    0.826848   -1.141859
     29          6           0       -1.689291    4.365862   -0.938642
     30          6           0        7.887066   -0.601159   -2.076554
     31          6           0       -1.936430    4.974235    0.321036
     32          6           0       -4.248200    2.951878   -2.023401
     33          6           0       -3.826058   -0.270556   -1.507797
     34          6           0       -2.591535   -1.660314    3.091328
     35          6           0       -3.483663   -1.611605   -1.123283
     36          6           0        9.121891   -0.714022   -1.438443
     37          6           0       -1.573464    6.517406    0.339399
     38          6           0       -4.277034   -2.903475   -1.556608
     39          6           0       -3.522014   -3.979410   -1.048632
     40          6           0       -2.320882   -3.424259   -0.447826
     41          6           0       -5.459839   -2.946170   -2.374927
     42          6           0       -3.807162   -5.433034   -1.087246
     43          6           0       -6.259954   -3.899991   -2.727049
     44          1           0        4.134937   -1.981930    0.015235
     45          1           0        4.960173    0.619231    1.406207
     46          1           0        4.773111   -0.891870    2.278942
     47          1           0        2.719913    1.711009   -0.038437
     48          1           0        3.441168   -0.452743   -1.483824
     49          1           0       -0.581411    0.374172    3.693472
     50          1           0       -1.445832    0.553883    2.093670
     51          1           0        0.600355    2.977266    0.081210
     52          1           0        3.132852   -1.956014    3.346127
     53          1           0        1.687671   -1.399252    4.326155
     54          1           0        1.452467   -2.555510    2.690284
     55          1           0        6.420043   -2.719071    1.377376
     56          1           0        7.479187   -1.281576    1.616265
     57          1           0        7.876867   -2.343477    0.345744
     58          1           0       -1.011024   -2.147886    1.869368
     59          1           0       -0.470315   -1.911032    3.502426
     60          1           0       -1.701355   -0.246225   -0.004566
     61          1           0       -2.382726    4.768270   -1.715213
     62          1           0       -0.653840    4.481124   -1.539418
     63          1           0        7.734900   -0.342325   -3.118428
     64          1           0       -1.445526    4.322573    1.002280
     65          1           0       -3.103036    5.103341    0.680550
     66          1           0       -4.172930    3.958028   -2.086898
     67          1           0       -5.217361    2.465509   -1.417200
     68          1           0       -4.541935    2.474518   -2.948692
     69          1           0       -4.892864   -0.252704   -1.840409
     70          1           0        9.378389   -0.921212   -0.332907
     71          1           0        9.977306   -0.482161   -2.208310
     72          1           0       -4.023449   -2.879387    3.221864
     73          1           0       -5.598799   -1.922684   -2.712760
     74          1           0       -5.100154   -5.560755   -0.835062
     75          1           0       -3.689402   -5.655337   -2.272722
     76          1           0       -3.098859   -5.956520   -0.350717
     77          1           0       -1.690731    8.023412    1.052775
     78          1           0       -7.033935   -3.623966   -3.369524
     79          1           0       -6.080474   -4.910898   -2.586331
 ---------------------------------------------------------------------
 Rotational constants (GHZ):           0.0722568           0.0466355           0.0356376
 Standard basis: SVP (5D, 7F)
 There are   825 symmetry adapted cartesian basis functions of A   symmetry.
 There are   782 symmetry adapted basis functions of A   symmetry.
   782 basis functions,  1327 primitive gaussians,   825 cartesian basis functions
   155 alpha electrons      155 beta electrons
       nuclear repulsion energy      4942.6590373108 Hartrees.
 NAtoms=   79 NActive=   79 NUniq=   79 SFac= 1.00D+00 NAtFMM=   60 NAOKFM=T Big=T
 Integral buffers will be    131072 words long.
 Regular integral format.
 Two-electron integral symmetry is turned on.
 One-electron integrals computed using PRISM.
 NBasis=   782 RedAO= T EigKep=  3.81D-04  NBF=   782
 NBsUse=   782 1.00D-06 EigRej= -1.00D+00 NBFU=   782
 ExpMin= 1.22D-01 ExpMax= 2.27D+03 ExpMxC= 3.41D+02 IAcc=3 IRadAn=         5 AccDes= 0.00D+00
 Harris functional with IExCor=  402 and IRadAn=       5 diagonalized for initial guess.
 HarFok:  IExCor=  402 AccDes= 0.00D+00 IRadAn=         5 IDoV= 1 UseB2=F ITyADJ=14
 ICtDFT=  3500011 ScaDFX=  1.000000  1.000000  1.000000  1.000000
 FoFCou: FMM=F IPFlag=           0 FMFlag=      100000 FMFlg1=        2001
         NFxFlg=           0 DoJE=T BraDBF=F KetDBF=T FulRan=T
         wScrn=  0.000000 ICntrl=       500 IOpCl=  0 I1Cent=   200000004 NGrid=           0
         NMat0=    1 NMatS0=      1 NMatT0=    0 NMatD0=    1 NMtDS0=    0 NMtDT0=    0
 Petite list used in FoFCou.
 Requested convergence on RMS density matrix=1.00D-08 within 128 cycles.
 Requested convergence on MAX density matrix=1.00D-06.
 Requested convergence on             energy=1.00D-06.
 No special actions if energy rises.
 Integral accuracy reduced to 1.0D-05 until final iterations.
 Initial convergence to 1.0D-05 achieved.  Increase integral accuracy.
 SCF Done:  E(RB3LYP) =  -1947.83784507     A.U. after   16 cycles
            NFock= 16  Conv=0.68D-08     -V/T= 2.0108
 DoSCS=F DFT=T ScalE2(SS,OS)=  1.000000  1.000000
 ExpMin= 1.22D-01 ExpMax= 2.27D+03 ExpMxC= 3.41D+02 IAcc=3 IRadAn=         5 AccDes= 0.00D+00
 HarFok:  IExCor=  205 AccDes= 0.00D+00 IRadAn=         5 IDoV=-2 UseB2=F ITyADJ=14
 ICtDFT= 12500011 ScaDFX=  1.000000  1.000000  1.000000  1.000000
 GSVD:  LWork=       -2193 too small for GESVD, short by        9890 words or        9890 for optimal perf.
 Range of M.O.s used for correlation:    44   782
 NBasis=   782 NAE=   155 NBE=   155 NFC=    43 NFV=     0
 NROrb=    739 NOA=   112 NOB=   112 NVA=   627 NVB=   627

 **** Warning!!: The smallest alpha delta epsilon is  0.75934750D-01

 Orbital symmetries:
       Occupied  (A) (A) (A) (A) (A) (A) (A) (A) (A) (A) (A) (A)
                 (A) (A) (A) (A) (A) (A) (A) (A) (A) (A) (A) (A)
                 (A) (A) (A) (A) (A) (A) (A) (A) (A) (A) (A) (A)
                 (A) (A) (A) (A) (A) (A) (A) (A) (A) (A) (A) (A)
                 (A) (A) (A) (A) (A) (A) (A) (A) (A) (A) (A) (A)
                 (A) (A) (A) (A) (A) (A) (A) (A) (A) (A) (A) (A)
                 (A) (A) (A) (A) (A) (A) (A) (A) (A) (A) (A) (A)
                 (A) (A) (A) (A) (A) (A) (A) (A) (A) (A) (A) (A)
                 (A) (A) (A) (A) (A) (A) (A) (A) (A) (A) (A) (A)
                 (A) (A) (A) (A) (A) (A) (A) (A) (A) (A) (A) (A)
                 (A) (A) (A) (A) (A) (A) (A) (A) (A) (A) (A) (A)
                 (A) (A) (A) (A) (A) (A) (A) (A) (A) (A) (A) (A)
                 (A) (A) (A) (A) (A) (A) (A) (A) (A) (A) (A)
       Virtual   (A) (A) (A) (A) (A) (A) (A) (A) (A) (A) (A) (A)
                 (A) (A) (A) (A) (A) (A) (A) (A) (A) (A) (A) (A)
                 (A) (A) (A) (A) (A) (A) (A) (A) (A) (A) (A) (A)
                 (A) (A) (A) (A) (A) (A) (A) (A) (A) (A) (A) (A)
                 (A) (A) (A) (A) (A) (A) (A) (A) (A) (A) (A) (A)
                 (A) (A) (A) (A) (A) (A) (A) (A) (A) (A) (A) (A)
                 (A) (A) (A) (A) (A) (A) (A) (A) (A) (A) (A) (A)
                 (A) (A) (A) (A) (A) (A) (A) (A) (A) (A) (A) (A)
                 (A) (A) (A) (A) (A) (A) (A) (A) (A) (A) (A) (A)
                 (A) (A) (A) (A) (A) (A) (A) (A) (A) (A) (A) (A)
                 (A) (A) (A) (A) (A) (A) (A) (A) (A) (A) (A) (A)
                 (A) (A) (A) (A) (A) (A) (A) (A) (A) (A) (A) (A)
                 (A) (A) (A) (A) (A) (A) (A) (A) (A) (A) (A) (A)
                 (A) (A) (A) (A) (A) (A) (A) (A) (A) (A) (A) (A)
                 (A) (A) (A) (A) (A) (A) (A) (A) (A) (A) (A) (A)
                 (A) (A) (A) (A) (A) (A) (A) (A) (A) (A) (A) (A)
                 (A) (A) (A) (A) (A) (A) (A) (A) (A) (A) (A) (A)
                 (A) (A) (A) (A) (A) (A) (A) (A) (A) (A) (A) (A)
                 (A) (A) (A) (A) (A) (A) (A) (A) (A) (A) (A) (A)
                 (A) (A) (A) (A) (A) (A) (A) (A) (A) (A) (A) (A)
                 (A) (A) (A) (A) (A) (A) (A) (A) (A) (A) (A) (A)
                 (A) (A) (A) (A) (A) (A) (A) (A) (A) (A) (A) (A)
                 (A) (A) (A) (A) (A) (A) (A) (A) (A) (A) (A) (A)
                 (A) (A) (A) (A) (A) (A) (A) (A) (A) (A) (A) (A)
                 (A) (A) (A) (A) (A) (A) (A) (A) (A) (A) (A) (A)
                 (A) (A) (A) (A) (A) (A) (A) (A) (A) (A) (A) (A)
                 (A) (A) (A) (A) (A) (A) (A) (A) (A) (A) (A) (A)
                 (A) (A) (A) (A) (A) (A) (A) (A) (A) (A) (A) (A)
                 (A) (A) (A) (A) (A) (A) (A) (A) (A) (A) (A) (A)
                 (A) (A) (A) (A) (A) (A) (A) (A) (A) (A) (A) (A)
                 (A) (A) (A) (A) (A) (A) (A) (A) (A) (A) (A) (A)
                 (A) (A) (A) (A) (A) (A) (A) (A) (A) (A) (A) (A)
                 (A) (A) (A) (A) (A) (A) (A) (A) (A) (A) (A) (A)
                 (A) (A) (A) (A) (A) (A) (A) (A) (A) (A) (A) (A)
                 (A) (A) (A) (A) (A) (A) (A) (A) (A) (A) (A) (A)
                 (A) (A) (A) (A) (A) (A) (A) (A) (A) (A) (A) (A)
                 (A) (A) (A) (A) (A) (A) (A) (A) (A) (A) (A) (A)
                 (A) (A) (A) (A) (A) (A) (A) (A) (A) (A) (A) (A)
                 (A) (A) (A) (A) (A) (A) (A) (A) (A) (A) (A) (A)
                 (A) (A) (A) (A) (A) (A) (A) (A) (A) (A) (A) (A)
                 (A) (A) (A) (A) (A) (A) (A) (A) (A) (A) (A) (A)
                 (A) (A) (A) (A) (A) (A) (A) (A) (A) (A) (A) (A)
                 (A) (A) (A) (A) (A) (A) (A) (A) (A) (A) (A) (A)
                 (A) (A) (A) (A) (A) (A) (A) (A) (A) (A) (A) (A)
                 (A) (A) (A) (A) (A) (A) (A) (A) (A) (A) (A) (A)
                 (A) (A) (A) (A) (A) (A) (A) (A) (A) (A) (A) (A)
                 (A) (A) (A) (A) (A) (A) (A) (A) (A) (A) (A) (A)
                 (A) (A) (A) (A) (A) (A) (A) (A) (A) (A) (A) (A)
                 (A) (A) (A) (A) (A) (A) (A) (A) (A) (A) (A) (A)
                 (A) (A) (A) (A) (A) (A) (A) (A) (A) (A) (A) (A)
                 (A) (A) (A) (A) (A) (A) (A) (A) (A) (A) (A) (A)
                 (A) (A) (A) (A) (A) (A) (A) (A) (A) (A) (A) (A)
                 (A) (A) (A)
     4 initial guesses have been made.
 Convergence on wavefunction:    0.001000000000000
 Iteration     1 Dimension     4 NMult     0 NNew      4
 CISAX will form     4 AO SS matrices at one time.
 Iteration     2 Dimension     6 NMult     4 NNew      2
 Iteration     3 Dimension     8 NMult     6 NNew      2
 Iteration     4 Dimension    10 NMult     8 NNew      2
 Iteration     5 Dimension    12 NMult    10 NNew      2
 Iteration     6 Dimension    14 NMult    12 NNew      2
 Iteration     7 Dimension    16 NMult    14 NNew      2
 ***********************************************************************
 Excited states from <AA,BB:AA,BB> singles matrix:
 ***********************************************************************
 
 Ground to excited state transition densities written to RWF  633
 Ground to excited state transition electric dipole moments (Au):
       state          X           Y           Z        Dip. S.      Osc.
         1         2.1643      1.3168      0.8909      7.2118      0.3313
 Ground to excited state transition velocity dipole moments (Au):
       state          X           Y           Z        Dip. S.      Osc.
         1        -0.1440     -0.0816     -0.0620      0.0312      0.3022
 Ground to excited state transition magnetic dipole moments (Au):
       state          X           Y           Z
         1        -0.7276      0.0183      1.2921
 Ground to excited state transition velocity quadrupole moments (Au):
       state          XX          YY          ZZ          XY          XZ          YZ
         1         0.1617      0.4859     -0.0770      0.6538      0.2981      0.2313
 <0|del|b> * <b|rxdel|0> + <0|del|b> * <b|delr+rdel|0>
 Rotatory Strengths (R) in cgs (10**-40 erg-esu-cm/Gauss)
       state          XX          YY          ZZ    R(velocity)    E-M Angle
         1      -502.2117    163.5104    575.9131     79.0706       84.94
 1/2[<0|r|b>*<b|rxdel|0> + (<0|rxdel|b>*<b|r|0>)*]
 Rotatory Strengths (R) in cgs (10**-40 erg-esu-cm/Gauss)
       state          XX          YY          ZZ     R(length)
         1      1113.6273    -17.0738   -813.9979     94.1852
  1/2[<0|del|b>*<b|r|0> + (<0|r|b>*<b|del|0>)*] (Au)
       state          X           Y           Z        Dip. S.   Osc.(frdel)
         1        -0.3116     -0.1074     -0.0553      0.4744      0.3162

 Excitation energies and oscillator strengths:
 
 Excited State   1:      Singlet-A      1.8753 eV  661.13 nm  f=0.3313  <S**2>=0.000
     155 ->156         0.70307
 This state for optimization and/or second-order correction.
 Total Energy, E(TD-HF/TD-DFT) =  -1947.76892799    
 Copying the excited state density for this state as the 1-particle RhoCI density.
 SavETr:  write IOETrn=   770 NScale= 10 NData=  16 NLR=1 NState=    1 LETran=      28.

 **********************************************************************

            Population analysis using the SCF density.

 **********************************************************************

 Orbital symmetries:
       Occupied  (A) (A) (A) (A) (A) (A) (A) (A) (A) (A) (A) (A)
                 (A) (A) (A) (A) (A) (A) (A) (A) (A) (A) (A) (A)
                 (A) (A) (A) (A) (A) (A) (A) (A) (A) (A) (A) (A)
                 (A) (A) (A) (A) (A) (A) (A) (A) (A) (A) (A) (A)
                 (A) (A) (A) (A) (A) (A) (A) (A) (A) (A) (A) (A)
                 (A) (A) (A) (A) (A) (A) (A) (A) (A) (A) (A) (A)
                 (A) (A) (A) (A) (A) (A) (A) (A) (A) (A) (A) (A)
                 (A) (A) (A) (A) (A) (A) (A) (A) (A) (A) (A) (A)
                 (A) (A) (A) (A) (A) (A) (A) (A) (A) (A) (A) (A)
                 (A) (A) (A) (A) (A) (A) (A) (A) (A) (A) (A) (A)
                 (A) (A) (A) (A) (A) (A) (A) (A) (A) (A) (A) (A)
                 (A) (A) (A) (A) (A) (A) (A) (A) (A) (A) (A) (A)
                 (A) (A) (A) (A) (A) (A) (A) (A) (A) (A) (A)
       Virtual   (A) (A) (A) (A) (A) (A) (A) (A) (A) (A) (A) (A)
                 (A) (A) (A) (A) (A) (A) (A) (A) (A) (A) (A) (A)
                 (A) (A) (A) (A) (A) (A) (A) (A) (A) (A) (A) (A)
                 (A) (A) (A) (A) (A) (A) (A) (A) (A) (A) (A) (A)
                 (A) (A) (A) (A) (A) (A) (A) (A) (A) (A) (A) (A)
                 (A) (A) (A) (A) (A) (A) (A) (A) (A) (A) (A) (A)
                 (A) (A) (A) (A) (A) (A) (A) (A) (A) (A) (A) (A)
                 (A) (A) (A) (A) (A) (A) (A) (A) (A) (A) (A) (A)
                 (A) (A) (A) (A) (A) (A) (A) (A) (A) (A) (A) (A)
                 (A) (A) (A) (A) (A) (A) (A) (A) (A) (A) (A) (A)
                 (A) (A) (A) (A) (A) (A) (A) (A) (A) (A) (A) (A)
                 (A) (A) (A) (A) (A) (A) (A) (A) (A) (A) (A) (A)
                 (A) (A) (A) (A) (A) (A) (A) (A) (A) (A) (A) (A)
                 (A) (A) (A) (A) (A) (A) (A) (A) (A) (A) (A) (A)
                 (A) (A) (A) (A) (A) (A) (A) (A) (A) (A) (A) (A)
                 (A) (A) (A) (A) (A) (A) (A) (A) (A) (A) (A) (A)
                 (A) (A) (A) (A) (A) (A) (A) (A) (A) (A) (A) (A)
                 (A) (A) (A) (A) (A) (A) (A) (A) (A) (A) (A) (A)
                 (A) (A) (A) (A) (A) (A) (A) (A) (A) (A) (A) (A)
                 (A) (A) (A) (A) (A) (A) (A) (A) (A) (A) (A) (A)
                 (A) (A) (A) (A) (A) (A) (A) (A) (A) (A) (A) (A)
                 (A) (A) (A) (A) (A) (A) (A) (A) (A) (A) (A) (A)
                 (A) (A) (A) (A) (A) (A) (A) (A) (A) (A) (A) (A)
                 (A) (A) (A) (A) (A) (A) (A) (A) (A) (A) (A) (A)
                 (A) (A) (A) (A) (A) (A) (A) (A) (A) (A) (A) (A)
                 (A) (A) (A) (A) (A) (A) (A) (A) (A) (A) (A) (A)
                 (A) (A) (A) (A) (A) (A) (A) (A) (A) (A) (A) (A)
                 (A) (A) (A) (A) (A) (A) (A) (A) (A) (A) (A) (A)
                 (A) (A) (A) (A) (A) (A) (A) (A) (A) (A) (A) (A)
                 (A) (A) (A) (A) (A) (A) (A) (A) (A) (A) (A) (A)
                 (A) (A) (A) (A) (A) (A) (A) (A) (A) (A) (A) (A)
                 (A) (A) (A) (A) (A) (A) (A) (A) (A) (A) (A) (A)
                 (A) (A) (A) (A) (A) (A) (A) (A) (A) (A) (A) (A)
                 (A) (A) (A) (A) (A) (A) (A) (A) (A) (A) (A) (A)
                 (A) (A) (A) (A) (A) (A) (A) (A) (A) (A) (A) (A)
                 (A) (A) (A) (A) (A) (A) (A) (A) (A) (A) (A) (A)
                 (A) (A) (A) (A) (A) (A) (A) (A) (A) (A) (A) (A)
                 (A) (A) (A) (A) (A) (A) (A) (A) (A) (A) (A) (A)
                 (A) (A) (A) (A) (A) (A) (A) (A) (A) (A) (A) (A)
                 (A) (A) (A) (A) (A) (A) (A) (A) (A) (A) (A) (A)
                 (A) (A) (A) (A) (A) (A) (A) (A) (A) (A) (A) (A)
                 (A) (A) (A) (A) (A) (A) (A) (A) (A) (A) (A) (A)
                 (A) (A) (A) (A) (A) (A) (A) (A) (A) (A) (A) (A)
                 (A) (A) (A) (A) (A) (A) (A) (A) (A) (A) (A) (A)
                 (A) (A) (A) (A) (A) (A) (A) (A) (A) (A) (A) (A)
                 (A) (A) (A) (A) (A) (A) (A) (A) (A) (A) (A) (A)
                 (A) (A) (A) (A) (A) (A) (A) (A) (A) (A) (A) (A)
                 (A) (A) (A) (A) (A) (A) (A) (A) (A) (A) (A) (A)
                 (A) (A) (A) (A) (A) (A) (A) (A) (A) (A) (A) (A)
                 (A) (A) (A) (A) (A) (A) (A) (A) (A) (A) (A) (A)
                 (A) (A) (A) (A) (A) (A) (A) (A) (A) (A) (A) (A)
                 (A) (A) (A) (A) (A) (A) (A) (A) (A) (A) (A) (A)
                 (A) (A) (A)
 The electronic state is 1-A.
 Alpha  occ. eigenvalues --  -19.21125 -19.18230 -19.13089 -19.11556 -19.11553
 Alpha  occ. eigenvalues --  -19.10349 -14.38618 -14.35338 -14.34285 -14.29512
 Alpha  occ. eigenvalues --  -10.32966 -10.30925 -10.29063 -10.27429 -10.24864
 Alpha  occ. eigenvalues --  -10.24674 -10.23717 -10.23273 -10.22771 -10.22726
 Alpha  occ. eigenvalues --  -10.22726 -10.22140 -10.21792 -10.21731 -10.21724
 Alpha  occ. eigenvalues --  -10.21278 -10.21270 -10.21105 -10.21005 -10.20960
 Alpha  occ. eigenvalues --  -10.20628 -10.20478 -10.20186 -10.20106 -10.20098
 Alpha  occ. eigenvalues --  -10.20035 -10.19853 -10.19530 -10.19159 -10.19119
 Alpha  occ. eigenvalues --  -10.18842 -10.18724 -10.18218  -1.14431  -1.06908
 Alpha  occ. eigenvalues --   -1.05450  -1.01359  -1.01028  -0.97260  -0.96425
 Alpha  occ. eigenvalues --   -0.94884  -0.94463  -0.90093  -0.83520  -0.83117
 Alpha  occ. eigenvalues --   -0.81843  -0.81193  -0.80580  -0.79073  -0.78269
 Alpha  occ. eigenvalues --   -0.77116  -0.76630  -0.75711  -0.74645  -0.71744
 Alpha  occ. eigenvalues --   -0.71652  -0.70034  -0.69342  -0.68286  -0.67721
 Alpha  occ. eigenvalues --   -0.65816  -0.65142  -0.63579  -0.61474  -0.61360
 Alpha  occ. eigenvalues --   -0.60328  -0.59058  -0.58308  -0.57338  -0.56594
 Alpha  occ. eigenvalues --   -0.55999  -0.55316  -0.54627  -0.53213  -0.53009
 Alpha  occ. eigenvalues --   -0.52210  -0.51682  -0.50967  -0.50624  -0.50419
 Alpha  occ. eigenvalues --   -0.49355  -0.49141  -0.48759  -0.48202  -0.47737
 Alpha  occ. eigenvalues --   -0.47555  -0.46810  -0.46421  -0.46183  -0.45586
 Alpha  occ. eigenvalues --   -0.45017  -0.44940  -0.44604  -0.44507  -0.44155
 Alpha  occ. eigenvalues --   -0.43704  -0.43372  -0.43216  -0.43108  -0.42894
 Alpha  occ. eigenvalues --   -0.42432  -0.42281  -0.41843  -0.41605  -0.41064
 Alpha  occ. eigenvalues --   -0.40885  -0.40148  -0.40003  -0.39367  -0.39135
 Alpha  occ. eigenvalues --   -0.38799  -0.38595  -0.38386  -0.38230  -0.38019
 Alpha  occ. eigenvalues --   -0.37494  -0.37470  -0.37069  -0.36608  -0.36455
 Alpha  occ. eigenvalues --   -0.36202  -0.35388  -0.35236  -0.34394  -0.33859
 Alpha  occ. eigenvalues --   -0.33502  -0.33299  -0.33169  -0.31780  -0.31652
 Alpha  occ. eigenvalues --   -0.31194  -0.29391  -0.28944  -0.28764  -0.27970
 Alpha  occ. eigenvalues --   -0.27545  -0.26359  -0.25495  -0.25350  -0.24711
 Alpha  occ. eigenvalues --   -0.24218  -0.23677  -0.23455  -0.22225  -0.18372
 Alpha virt. eigenvalues --   -0.10779  -0.06644  -0.05821  -0.00780  -0.00154
 Alpha virt. eigenvalues --   -0.00003   0.00504   0.01398   0.02841   0.03727
 Alpha virt. eigenvalues --    0.04021   0.04171   0.04262   0.04577   0.04854
 Alpha virt. eigenvalues --    0.05091   0.05261   0.05837   0.06489   0.06587
 Alpha virt. eigenvalues --    0.06757   0.07674   0.07932   0.08151   0.08184
 Alpha virt. eigenvalues --    0.08589   0.08957   0.09703   0.09977   0.10223
 Alpha virt. eigenvalues --    0.10693   0.10989   0.11875   0.12115   0.12304
 Alpha virt. eigenvalues --    0.12619   0.12707   0.13372   0.14210   0.14525
 Alpha virt. eigenvalues --    0.14577   0.15088   0.15343   0.15609   0.15799
 Alpha virt. eigenvalues --    0.16010   0.16599   0.17069   0.17383   0.17786
 Alpha virt. eigenvalues --    0.18730   0.19119   0.19541   0.20113   0.20376
 Alpha virt. eigenvalues --    0.21273   0.21899   0.22093   0.22350   0.22660
 Alpha virt. eigenvalues --    0.23018   0.23483   0.24060   0.24495   0.25009
 Alpha virt. eigenvalues --    0.25056   0.25572   0.25755   0.26198   0.26700
 Alpha virt. eigenvalues --    0.26844   0.27180   0.28033   0.28773   0.28979
 Alpha virt. eigenvalues --    0.29565   0.29689   0.29973   0.30666   0.31290
 Alpha virt. eigenvalues --    0.31974   0.32427   0.33079   0.33877   0.34711
 Alpha virt. eigenvalues --    0.35114   0.35179   0.35858   0.36216   0.36714
 Alpha virt. eigenvalues --    0.37158   0.37441   0.37739   0.38887   0.38942
 Alpha virt. eigenvalues --    0.39544   0.39982   0.40755   0.41271   0.41524
 Alpha virt. eigenvalues --    0.41858   0.42276   0.42765   0.43097   0.43756
 Alpha virt. eigenvalues --    0.43837   0.44043   0.44326   0.44724   0.45037
 Alpha virt. eigenvalues --    0.45555   0.45742   0.46164   0.46266   0.46833
 Alpha virt. eigenvalues --    0.46936   0.47240   0.47616   0.48101   0.48288
 Alpha virt. eigenvalues --    0.48664   0.49147   0.49549   0.49644   0.50255
 Alpha virt. eigenvalues --    0.50460   0.50748   0.50972   0.51512   0.51799
 Alpha virt. eigenvalues --    0.52292   0.52576   0.52716   0.52964   0.53242
 Alpha virt. eigenvalues --    0.53298   0.53940   0.54066   0.55089   0.55197
 Alpha virt. eigenvalues --    0.55249   0.55713   0.55887   0.56390   0.56913
 Alpha virt. eigenvalues --    0.57543   0.57886   0.58183   0.58382   0.58745
 Alpha virt. eigenvalues --    0.59259   0.59446   0.59543   0.60064   0.60677
 Alpha virt. eigenvalues --    0.60717   0.61120   0.61413   0.61599   0.61821
 Alpha virt. eigenvalues --    0.62059   0.62485   0.62807   0.63028   0.63326
 Alpha virt. eigenvalues --    0.63455   0.63573   0.63991   0.64439   0.64706
 Alpha virt. eigenvalues --    0.64775   0.64992   0.65403   0.65668   0.65893
 Alpha virt. eigenvalues --    0.66008   0.66414   0.66746   0.66916   0.66986
 Alpha virt. eigenvalues --    0.67218   0.67359   0.67766   0.67909   0.68476
 Alpha virt. eigenvalues --    0.68601   0.69146   0.69163   0.69235   0.69554
 Alpha virt. eigenvalues --    0.69629   0.70252   0.70570   0.70680   0.71250
 Alpha virt. eigenvalues --    0.71551   0.71806   0.72209   0.72381   0.72594
 Alpha virt. eigenvalues --    0.73165   0.73703   0.73894   0.74102   0.74494
 Alpha virt. eigenvalues --    0.74616   0.75096   0.75399   0.76154   0.76545
 Alpha virt. eigenvalues --    0.77198   0.77531   0.78120   0.78510   0.79367
 Alpha virt. eigenvalues --    0.79717   0.80066   0.80326   0.80664   0.81249
 Alpha virt. eigenvalues --    0.81650   0.81825   0.82494   0.83256   0.83674
 Alpha virt. eigenvalues --    0.84222   0.84558   0.84789   0.85251   0.86311
 Alpha virt. eigenvalues --    0.86939   0.87141   0.88104   0.88522   0.89889
 Alpha virt. eigenvalues --    0.90349   0.91399   0.92488   0.93073   0.93507
 Alpha virt. eigenvalues --    0.94009   0.94313   0.94492   0.95116   0.95430
 Alpha virt. eigenvalues --    0.95736   0.96705   0.97262   0.97462   0.97770
 Alpha virt. eigenvalues --    0.98389   0.99568   0.99678   1.00640   1.01830
 Alpha virt. eigenvalues --    1.02377   1.03563   1.04388   1.04784   1.05575
 Alpha virt. eigenvalues --    1.06193   1.06557   1.07688   1.08322   1.08776
 Alpha virt. eigenvalues --    1.09150   1.09415   1.10746   1.11001   1.11401
 Alpha virt. eigenvalues --    1.11838   1.12379   1.13439   1.14026   1.14925
 Alpha virt. eigenvalues --    1.15548   1.16352   1.16750   1.17531   1.17802
 Alpha virt. eigenvalues --    1.18316   1.19037   1.20084   1.20951   1.21411
 Alpha virt. eigenvalues --    1.21837   1.22420   1.23438   1.23761   1.24870
 Alpha virt. eigenvalues --    1.25224   1.25382   1.26110   1.27011   1.27672
 Alpha virt. eigenvalues --    1.27880   1.28609   1.29246   1.29536   1.30504
 Alpha virt. eigenvalues --    1.31118   1.31700   1.33019   1.33211   1.33832
 Alpha virt. eigenvalues --    1.34587   1.35441   1.36250   1.36644   1.37341
 Alpha virt. eigenvalues --    1.38563   1.38934   1.39181   1.40227   1.40337
 Alpha virt. eigenvalues --    1.40888   1.41304   1.43271   1.43686   1.44001
 Alpha virt. eigenvalues --    1.45012   1.45519   1.45816   1.47217   1.47338
 Alpha virt. eigenvalues --    1.48268   1.48576   1.49200   1.49694   1.50210
 Alpha virt. eigenvalues --    1.50430   1.51395   1.51827   1.52978   1.52993
 Alpha virt. eigenvalues --    1.53159   1.53551   1.54268   1.54960   1.55179
 Alpha virt. eigenvalues --    1.55623   1.56187   1.56622   1.58157   1.59465
 Alpha virt. eigenvalues --    1.59821   1.60465   1.60792   1.61179   1.61891
 Alpha virt. eigenvalues --    1.62038   1.62447   1.63073   1.63730   1.64341
 Alpha virt. eigenvalues --    1.64507   1.65313   1.65803   1.66306   1.66409
 Alpha virt. eigenvalues --    1.66516   1.67072   1.67400   1.67954   1.68833
 Alpha virt. eigenvalues --    1.69181   1.69534   1.69598   1.70134   1.70933
 Alpha virt. eigenvalues --    1.71235   1.71875   1.72019   1.73014   1.73422
 Alpha virt. eigenvalues --    1.73898   1.74286   1.74734   1.75064   1.75331
 Alpha virt. eigenvalues --    1.75754   1.76416   1.76779   1.77221   1.77724
 Alpha virt. eigenvalues --    1.78018   1.78352   1.78446   1.78769   1.79337
 Alpha virt. eigenvalues --    1.79447   1.80302   1.80938   1.81198   1.81276
 Alpha virt. eigenvalues --    1.81625   1.82295   1.82591   1.82760   1.83135
 Alpha virt. eigenvalues --    1.83354   1.83942   1.84283   1.84624   1.85017
 Alpha virt. eigenvalues --    1.85418   1.86167   1.86510   1.87137   1.87202
 Alpha virt. eigenvalues --    1.87814   1.88023   1.88572   1.89012   1.89085
 Alpha virt. eigenvalues --    1.89847   1.90251   1.90329   1.90822   1.91329
 Alpha virt. eigenvalues --    1.91848   1.92456   1.92983   1.93113   1.93504
 Alpha virt. eigenvalues --    1.94082   1.94541   1.95025   1.95935   1.96444
 Alpha virt. eigenvalues --    1.96581   1.96682   1.97182   1.97817   1.98302
 Alpha virt. eigenvalues --    1.99056   1.99864   2.00570   2.01527   2.02394
 Alpha virt. eigenvalues --    2.02881   2.03303   2.03796   2.03933   2.04564
 Alpha virt. eigenvalues --    2.05064   2.05548   2.06224   2.06696   2.06819
 Alpha virt. eigenvalues --    2.07139   2.07730   2.08223   2.08457   2.08783
 Alpha virt. eigenvalues --    2.09154   2.09866   2.10729   2.11241   2.11617
 Alpha virt. eigenvalues --    2.12046   2.13062   2.13234   2.13739   2.14597
 Alpha virt. eigenvalues --    2.14783   2.15803   2.16739   2.18275   2.18569
 Alpha virt. eigenvalues --    2.18744   2.19281   2.19809   2.20729   2.21207
 Alpha virt. eigenvalues --    2.22048   2.22983   2.23441   2.23700   2.24106
 Alpha virt. eigenvalues --    2.24936   2.25431   2.25798   2.26315   2.26552
 Alpha virt. eigenvalues --    2.27675   2.28781   2.28856   2.30872   2.30900
 Alpha virt. eigenvalues --    2.31960   2.32813   2.33230   2.33440   2.34166
 Alpha virt. eigenvalues --    2.34551   2.35112   2.36170   2.36791   2.37355
 Alpha virt. eigenvalues --    2.38028   2.38464   2.39067   2.39669   2.40376
 Alpha virt. eigenvalues --    2.41301   2.43391   2.43961   2.44640   2.45113
 Alpha virt. eigenvalues --    2.45934   2.46155   2.47352   2.47571   2.48663
 Alpha virt. eigenvalues --    2.48976   2.49690   2.51172   2.51993   2.54339
 Alpha virt. eigenvalues --    2.54459   2.55250   2.55872   2.56276   2.57870
 Alpha virt. eigenvalues --    2.58847   2.59181   2.59562   2.60490   2.61047
 Alpha virt. eigenvalues --    2.61582   2.62270   2.62465   2.63389   2.64012
 Alpha virt. eigenvalues --    2.64616   2.65272   2.66241   2.66988   2.67363
 Alpha virt. eigenvalues --    2.67785   2.69530   2.69766   2.70209   2.70351
 Alpha virt. eigenvalues --    2.70819   2.71390   2.72073   2.72793   2.73385
 Alpha virt. eigenvalues --    2.73821   2.74515   2.74905   2.75702   2.76124
 Alpha virt. eigenvalues --    2.76774   2.77317   2.78507   2.79341   2.79549
 Alpha virt. eigenvalues --    2.80571   2.81290   2.81910   2.81961   2.82589
 Alpha virt. eigenvalues --    2.83465   2.83726   2.84288   2.84458   2.86525
 Alpha virt. eigenvalues --    2.88337   2.89344   2.89734   2.90095   2.91069
 Alpha virt. eigenvalues --    2.92452   2.92581   2.92758   2.93949   2.94994
 Alpha virt. eigenvalues --    2.96236   2.96874   2.97842   2.98799   2.99399
 Alpha virt. eigenvalues --    3.00939   3.02161   3.02260   3.02874   3.04067
 Alpha virt. eigenvalues --    3.05005   3.05538   3.07613   3.07956   3.09582
 Alpha virt. eigenvalues --    3.12035   3.13235   3.13761   3.14294   3.15296
 Alpha virt. eigenvalues --    3.16245   3.16925   3.18110   3.20019   3.22178
 Alpha virt. eigenvalues --    3.22238   3.23025   3.25542   3.29568   3.30121
 Alpha virt. eigenvalues --    3.31081   3.36247   3.39758   3.39969   3.43243
 Alpha virt. eigenvalues --    3.45041   3.46768   3.47224   3.50495   3.55858
 Alpha virt. eigenvalues --    3.58540   3.61386   3.64021   3.64895   3.69646
 Alpha virt. eigenvalues --    3.70119   3.76568
          Condensed to atoms (all electrons):
 Mulliken charges:
               1
     1  O   -0.165963
     2  O   -0.203164
     3  O   -0.324216
     4  O   -0.101399
     5  O   -0.268047
     6  O   -0.205887
     7  N   -0.117549
     8  N   -0.127421
     9  N   -0.102286
    10  N   -0.328750
    11  C   -0.001215
    12  C    0.133620
    13  C   -0.016573
    14  C   -0.104338
    15  C   -0.105798
    16  C    0.042052
    17  C   -0.153549
    18  C    0.034128
    19  C   -0.048912
    20  C   -0.159516
    21  C    0.164750
    22  C    0.130803
    23  C   -0.129817
    24  C    0.011594
    25  C    0.046702
    26  C   -0.114055
    27  C    0.041526
    28  C    0.169855
    29  C    0.099090
    30  C    0.013965
    31  C   -0.017018
    32  C    0.133487
    33  C   -0.117687
    34  C    0.168480
    35  C    0.053985
    36  C   -0.074924
    37  C    0.131646
    38  C    0.025543
    39  C   -0.177939
    40  C    0.173097
    41  C   -0.005873
    42  C   -0.038288
    43  C    0.038787
    44  H    0.028512
    45  H   -0.010855
    46  H    0.028827
    47  H    0.138159
    48  H    0.075066
    49  H    0.028315
    50  H    0.023647
    51  H   -0.002420
    52  H   -0.015466
    53  H    0.039023
    54  H    0.071288
    55  H    0.031626
    56  H    0.033161
    57  H    0.030626
    58  H    0.064152
    59  H    0.019241
    60  H    0.139819
    61  H   -0.005028
    62  H    0.053711
    63  H    0.022442
    64  H    0.030254
    65  H    0.065517
    66  H   -0.005312
    67  H    0.023186
    68  H    0.010608
    69  H    0.001655
    70  H    0.053806
    71  H    0.044833
    72  H    0.221381
    73  H   -0.022611
    74  H    0.060435
    75  H    0.070683
    76  H    0.067393
    77  H    0.180513
    78  H    0.007971
    79  H   -0.007085
 Sum of Mulliken charges =  -0.00000
 Mulliken charges with hydrogens summed into heavy atoms:
               1
     1  O   -0.165963
     2  O    0.018217
     3  O   -0.324216
     4  O    0.079113
     5  O   -0.268047
     6  O   -0.205887
     7  N    0.020610
     8  N   -0.052355
     9  N    0.037533
    10  N   -0.328750
    11  C    0.027297
    12  C    0.151592
    13  C   -0.016573
    14  C   -0.104338
    15  C   -0.105798
    16  C    0.042052
    17  C   -0.153549
    18  C    0.086090
    19  C   -0.048912
    20  C   -0.161936
    21  C    0.164750
    22  C    0.130803
    23  C   -0.129817
    24  C    0.106440
    25  C    0.142115
    26  C   -0.114055
    27  C    0.124919
    28  C    0.169855
    29  C    0.147772
    30  C    0.036407
    31  C    0.078754
    32  C    0.161969
    33  C   -0.116033
    34  C    0.168480
    35  C    0.053985
    36  C    0.023715
    37  C    0.131646
    38  C    0.025543
    39  C   -0.177939
    40  C    0.173097
    41  C   -0.028484
    42  C    0.160223
    43  C    0.039673
 Electronic spatial extent (au):  <R**2>=          31519.0765
 Charge=              0.0000 electrons
 Dipole moment (field-independent basis, Debye):
    X=              0.6143    Y=              0.9096    Z=              1.5633  Tot=              1.9102
 Quadrupole moment (field-independent basis, Debye-Ang):
   XX=           -218.4727   YY=           -242.1146   ZZ=           -263.6606
   XY=             -4.1474   XZ=             32.7973   YZ=              8.5698
 Traceless Quadrupole moment (field-independent basis, Debye-Ang):
   XX=             22.9433   YY=             -0.6987   ZZ=            -22.2446
   XY=             -4.1474   XZ=             32.7973   YZ=              8.5698
 Octapole moment (field-independent basis, Debye-Ang**2):
  XXX=             37.8002  YYY=            126.2552  ZZZ=             45.3430  XYY=           -106.5405
  XXY=            -83.7427  XXZ=             45.0262  XZZ=            -48.3035  YZZ=            -22.3746
  YYZ=             64.4779  XYZ=            -18.5208
 Hexadecapole moment (field-independent basis, Debye-Ang**3):
 XXXX=         -22513.4223 YYYY=         -12165.2157 ZZZZ=          -5165.3331 XXXY=            -34.8013
 XXXZ=            704.1173 YYYX=           -200.5123 YYYZ=            753.2461 ZZZX=            115.6611
 ZZZY=            -42.8847 XXYY=          -5805.0389 XXZZ=          -4959.4899 YYZZ=          -3071.9072
 XXYZ=            -85.5048 YYXZ=             10.3103 ZZXY=             53.9482
 N-N= 4.942659037311D+03 E-N=-1.441411868066D+04  KE= 1.927025253844D+03
 1\1\GINC-PADAWAN\SP\RB3LYP TD-FC\SVP\C33H36N4O6\PADAWAN\02-Oct-2019\0\
 \# td=(NStates=1) B3LYP/SVP\\TD\\0,1\O,0,-5.3438306131,0.0488303226,-3
 .2682766174\O,0,3.0776877743,2.8058378385,3.4795740358\O,0,3.415069855
 6,0.5845838574,2.9330551906\O,0,1.6452421637,-7.1666129314,1.511879694
 3\O,0,0.8628611741,-7.1165880824,-0.5662946124\O,0,1.5358906372,3.9218
 053033,0.1067901864\N,0,-2.3227318843,-0.9580542356,0.6574727639\N,0,-
 4.2458094623,0.4098386504,-1.2545938142\N,0,1.8309934909,-0.7243040034
 ,-0.4096294405\N,0,2.5031758595,1.8282185674,-0.3532220689\C,0,-4.5954
 459358,1.1534368407,-0.0782120214\C,0,-4.3057379666,0.4432944947,1.337
 0510628\C,0,-2.884063502,0.0949797547,1.3855705701\C,0,-1.8502541221,0
 .6139763548,2.1963628059\C,0,-0.6204786582,-0.0143768732,1.8609767753\
 C,0,-0.9330774955,-1.0655996189,0.844426262\C,0,-6.1754098971,1.417999
 5893,-0.2163868541\C,0,0.6704156482,0.140354712,2.6364026604\C,0,-6.58
 60491194,1.0313723856,-1.4258783165\C,0,-0.0862048766,-2.023101047,0.2
 929813796\C,0,1.0860855048,-1.8828878354,-0.2945310353\C,0,-5.36679728
 ,0.3759358083,-2.1400013116\C,0,1.8983439196,-2.9750180402,-0.88139514
 88\C,0,-2.1448701879,1.7627120281,3.135557946\C,0,-6.8708145747,2.1835
 264818,0.7472787138\C,0,3.0363299667,-2.3868886401,-1.278979143\C,0,1.
 1848245098,1.5156100544,2.7203156675\C,0,3.0392820035,-0.953864012,-1.
 0957035586\C,0,1.5343872089,-4.4358895534,-0.8668884057\C,0,-7.8330992
 159,0.8745790955,-2.1790862964\C,0,1.7436919348,-5.0375546901,0.402826
 2781\C,0,4.1574213511,-3.132991768,-1.9375029816\C,0,3.8517160422,0.10
 92003235,-1.4654112235\C,0,2.6175323744,1.601247713,3.1016460645\C,0,3
 .5559399718,1.4668620977,-1.101036671\C,0,-9.0700719906,1.0418363439,-
 1.5572805434\C,0,1.3223372984,-6.5655832085,0.4351821772\C,0,4.4026490
 995,2.7224189968,-1.5401210952\C,0,3.6830975782,3.8322737511,-1.054116
 706\C,0,2.4549170625,3.3303108822,-0.4612548882\C,0,5.5956231676,2.710
 3358742,-2.3445864137\C,0,4.0235379736,5.273512227,-1.1065926727\C,0,6
 .43532359,3.6288585707,-2.6983743143\H,0,-4.0558400701,2.1384849286,-0
 .058842844\H,0,-4.9950841653,-0.4123027064,1.3529500392\H,0,-4.7610329
 432,1.1013241321,2.2098278925\H,0,-2.7812071606,-1.6056079563,-0.05151
 2073\H,0,-3.4031813154,0.5658084979,-1.531130664\H,0,0.5249369284,-0.3
 483345215,3.7037099191\H,0,1.4004040498,-0.5802826957,2.1166868015\H,0
 ,-0.7126699279,-2.9493824032,0.1087158739\H,0,-3.0941095563,2.11590285
 44,3.2839483845\H,0,-1.682509466,1.517141078,4.2878671746\H,0,-1.38473
 48546,2.6434081606,2.641301552\H,0,-6.3270061515,2.9781066142,1.266808
 9139\H,0,-7.4425440214,1.584668276,1.5100180125\H,0,-7.7849644336,2.64
 50505882,0.2222507053\H,0,1.0708897974,2.1329953361,1.8550235697\H,0,0
 .5027133838,1.9369005121,3.4841542396\H,0,1.7103453609,0.1836390089,0.
 0123058653\H,0,2.2210298952,-4.8737412045,-1.6302076305\H,0,0.50234203
 17,-4.5194017877,-1.478676351\H,0,-7.6787889407,0.5973399646,-3.215897
 528\H,0,1.2699691858,-4.3594671264,1.0703046071\H,0,2.9003263027,-5.20
 61478193,0.7778756025\H,0,4.0448295453,-4.1362910813,-1.9899224533\H,0
 ,5.1372248209,-2.6760964598,-1.3255061682\H,0,4.479729406,-2.678520084
 6,-2.8648055542\H,0,4.9208617057,0.0469926048,-1.7849146672\H,0,-9.331
 3267332,1.272194675,-0.4574584356\H,0,-9.9246806017,0.8329347092,-2.33
 4579558\H,0,4.0929939859,2.7669300767,3.2348982555\H,0,5.6996134295,1.
 6782399732,-2.6685156666\H,0,5.317432443,5.355448309,-0.8403926592\H,0
 ,3.928024825,5.4854453102,-2.2959621411\H,0,3.3270903786,5.8324128477,
 -0.3849302346\H,0,1.3741947276,-8.0660177589,1.1677928342\H,0,7.205683
 0127,3.3159071306,-3.3281500883\H,0,6.2926511526,4.6474802602,-2.57186
 95395\\Version=ES64L-G16RevA.03\State=1-A\HF=-1947.8378451\RMSD=6.782e
 -09\PG=C01 [X(C33H36N4O6)]\\@


 MOST BUREAUCRACIES FUNCTION LIKE A SEPTIC TANK.
 THE LARGE CHUNKS RISE TO THE TOP.
 Job cpu time:       0 days 10 hours 39 minutes  1.8 seconds.
 Elapsed time:       0 days  2 hours 40 minutes 21.6 seconds.
 File lengths (MBytes):  RWF=   2533 Int=      0 D2E=      0 Chk=     63 Scr=      1
 Normal termination of Gaussian 16 at Wed Oct  2 21:30:56 2019.
