 Entering Gaussian System, Link 0=g16
 Input=Geometria-284-.com
 Output=Geometria-284-.log
 Initial command:
 /usr/local/g16/l1.exe "/home/padawan/israel-mol/dihydrobiliverdin/spectra/emi/Gau-8259.inp" -scrdir="/home/padawan/israel-mol/dihydrobiliverdin/spectra/emi/"
 Entering Link 1 = /usr/local/g16/l1.exe PID=      8261.
  
 Copyright (c) 1988,1990,1992,1993,1995,1998,2003,2009,2016,
            Gaussian, Inc.  All Rights Reserved.
  
 This is part of the Gaussian(R) 16 program.  It is based on
 the Gaussian(R) 09 system (copyright 2009, Gaussian, Inc.),
 the Gaussian(R) 03 system (copyright 2003, Gaussian, Inc.),
 the Gaussian(R) 98 system (copyright 1998, Gaussian, Inc.),
 the Gaussian(R) 94 system (copyright 1995, Gaussian, Inc.),
 the Gaussian 92(TM) system (copyright 1992, Gaussian, Inc.),
 the Gaussian 90(TM) system (copyright 1990, Gaussian, Inc.),
 the Gaussian 88(TM) system (copyright 1988, Gaussian, Inc.),
 the Gaussian 86(TM) system (copyright 1986, Carnegie Mellon
 University), and the Gaussian 82(TM) system (copyright 1983,
 Carnegie Mellon University). Gaussian is a federally registered
 trademark of Gaussian, Inc.
  
 This software contains proprietary and confidential information,
 including trade secrets, belonging to Gaussian, Inc.
  
 This software is provided under written license and may be
 used, copied, transmitted, or stored only in accord with that
 written license.
  
 The following legend is applicable only to US Government
 contracts under FAR:
  
                    RESTRICTED RIGHTS LEGEND
  
 Use, reproduction and disclosure by the US Government is
 subject to restrictions as set forth in subparagraphs (a)
 and (c) of the Commercial Computer Software - Restricted
 Rights clause in FAR 52.227-19.
  
 Gaussian, Inc.
 340 Quinnipiac St., Bldg. 40, Wallingford CT 06492
  
  
 ---------------------------------------------------------------
 Warning -- This program may not be used in any manner that
 competes with the business of Gaussian, Inc. or will provide
 assistance to any competitor of Gaussian, Inc.  The licensee
 of this program is prohibited from giving any competitor of
 Gaussian, Inc. access to this program.  By using this program,
 the user acknowledges that Gaussian, Inc. is engaged in the
 business of creating and licensing software in the field of
 computational chemistry and represents and warrants to the
 licensee that it is not a competitor of Gaussian, Inc. and that
 it will not use this program in any manner prohibited above.
 ---------------------------------------------------------------
  

 Cite this work as:
 Gaussian 16, Revision A.03,
 M. J. Frisch, G. W. Trucks, H. B. Schlegel, G. E. Scuseria, 
 M. A. Robb, J. R. Cheeseman, G. Scalmani, V. Barone, 
 G. A. Petersson, H. Nakatsuji, X. Li, M. Caricato, A. V. Marenich, 
 J. Bloino, B. G. Janesko, R. Gomperts, B. Mennucci, H. P. Hratchian, 
 J. V. Ortiz, A. F. Izmaylov, J. L. Sonnenberg, D. Williams-Young, 
 F. Ding, F. Lipparini, F. Egidi, J. Goings, B. Peng, A. Petrone, 
 T. Henderson, D. Ranasinghe, V. G. Zakrzewski, J. Gao, N. Rega, 
 G. Zheng, W. Liang, M. Hada, M. Ehara, K. Toyota, R. Fukuda, 
 J. Hasegawa, M. Ishida, T. Nakajima, Y. Honda, O. Kitao, H. Nakai, 
 T. Vreven, K. Throssell, J. A. Montgomery, Jr., J. E. Peralta, 
 F. Ogliaro, M. J. Bearpark, J. J. Heyd, E. N. Brothers, K. N. Kudin, 
 V. N. Staroverov, T. A. Keith, R. Kobayashi, J. Normand, 
 K. Raghavachari, A. P. Rendell, J. C. Burant, S. S. Iyengar, 
 J. Tomasi, M. Cossi, J. M. Millam, M. Klene, C. Adamo, R. Cammi, 
 J. W. Ochterski, R. L. Martin, K. Morokuma, O. Farkas, 
 J. B. Foresman, and D. J. Fox, Gaussian, Inc., Wallingford CT, 2016.
 
 ******************************************
 Gaussian 16:  ES64L-G16RevA.03 25-Dec-2016
                29-Sep-2019 
 ******************************************
 %nproc=4
 Will use up to    4 processors via shared memory.
 %Mem=4GB
 --------------------------
 # td=(NStates=1) B3LYP/SVP
 --------------------------
 1/38=1,172=1/1;
 2/12=2,17=6,18=5,40=1/2;
 3/5=18,7=101,11=9,25=1,30=1,74=-5/1,2,3,8;
 4//1;
 5/5=2,38=5/2;
 8/6=1,10=1,108=1/1;
 9/41=1,42=1,70=2/14;
 6/7=2,8=2,9=2,10=2/1;
 99/5=1,9=1/99;
 --
 TD
 --
 Symbolic Z-matrix:
 Charge =  0 Multiplicity = 1
 8                    -5.43001   0.09681  -3.24145 
 8                     2.98579   2.91507   3.18965 
 8                     3.40349   0.66209   3.10649 
 8                     1.69556  -7.15233   1.52746 
 8                     0.9308   -7.13181  -0.60878 
 8                     1.76718   4.02716  -0.02113 
 7                    -2.42801  -0.94742   0.68738 
 7                    -4.42701   0.62464  -1.24193 
 7                     1.75054  -0.66663  -0.48861 
 7                     2.49029   1.9304   -0.58963 
 6                    -4.87138   1.16272   0.00416 
 6                    -4.46218   0.32062   1.29869 
 6                    -2.96857   0.08002   1.33783 
 6                    -1.86037   0.67371   2.02201 
 6                    -0.67434   0.04807   1.70502 
 6                    -1.03473  -0.99069   0.79301 
 6                    -6.34381   1.33195  -0.07442 
 6                     0.60901   0.25706   2.44765 
 6                    -6.67176   0.94284  -1.38237 
 6                    -0.1998   -2.0153    0.14159 
 6                     1.08532  -1.87802  -0.36808 
 6                    -5.50207   0.55064  -2.11742 
 6                     1.87836  -2.85681  -0.85448 
 6                    -2.03146   1.76812   3.06336 
 6                    -7.23257   1.9259    0.94614 
 6                     3.1227   -2.29475  -1.18671 
 6                     1.22317   1.68113   2.54672 
 6                     3.07384  -0.9233   -0.97108 
 6                     1.46477  -4.34864  -0.97617 
 6                    -8.00726   0.83696  -2.01734 
 6                     1.78943  -5.12013   0.36795 
 6                     4.28348  -2.93055  -2.00433 
 6                     3.98512   0.14935  -1.22708 
 6                     2.60138   1.66429   2.9158 
 6                     3.6873    1.47709  -1.03229 
 6                    -9.21982   0.75279  -1.42178 
 6                     1.44959  -6.58573   0.32066 
 6                     4.51033   2.53982  -1.39329 
 6                     3.95548   3.6669   -1.03747 
 6                     2.61401   3.26524  -0.48478 
 6                     5.84169   2.3986   -1.98643 
 6                     4.27583   5.16075  -1.18857 
 6                     6.75326   3.39141  -2.39001 
 1                    -4.3043    2.09687  -0.01572 
 1                    -4.76723  -0.53353   1.40947 
 1                    -4.81754   1.05391   2.15885 
 1                    -2.72261  -1.81824   0.04835 
 1                    -3.56128   0.63864  -1.65596 
 1                     0.47925  -0.26318   3.37377 
 1                     1.40174  -0.4368    2.05559 
 1                    -0.72992  -2.8496   -0.27814 
 1                    -3.0135    2.12407   3.41384 
 1                    -1.52615   1.47424   4.05061 
 1                    -1.14475   2.54114   2.9766 
 1                    -6.79346   2.78117   1.46849 
 1                    -7.45905   1.17022   1.70058 
 1                    -8.13458   2.12081   0.46083 
 1                     1.28238   2.17359   1.55992 
 1                     0.78659   2.28273   3.51922 
 1                     1.21544   0.22517  -0.36914 
 1                     1.88961  -4.80966  -1.78214 
 1                     0.4153   -4.51924  -1.02312 
 1                    -7.90503   1.13247  -3.18628 
 1                     1.35087  -4.64088   1.36273 
 1                     2.87944  -5.13219   0.65035 
 1                     4.33653  -3.98808  -2.31702 
 1                     5.21644  -2.71752  -1.4494 
 1                     4.41492  -2.17972  -2.92949 
 1                     4.86472  -0.20596  -1.61781 
 1                    -9.26181   0.88039  -0.09823 
 1                    -10.02004   0.61811  -2.07546 
 1                     3.96953   3.04921   3.25329 
 1                     6.14386   1.49459  -2.06925 
 1                     5.17849   5.64644  -0.74927 
 1                     4.1148    5.22831  -2.3126 
 1                     3.53542   5.61811  -0.55458 
 1                     1.12663  -7.91487   1.39473 
 1                     7.66908   3.03114  -2.93199 
 1                     6.55866   4.46295  -2.19056 
 
 Stoichiometry    C33H36N4O6
 Framework group  C1[X(C33H36N4O6)]
 Deg. of freedom   231
 Full point group                 C1      NOp   1
 Largest Abelian subgroup         C1      NOp   1
 Largest concise Abelian subgroup C1      NOp   1
                         Standard orientation:                         
 ---------------------------------------------------------------------
 Center     Atomic      Atomic             Coordinates (Angstroms)
 Number     Number       Type             X           Y           Z
 ---------------------------------------------------------------------
      1          8           0        5.444150    0.007192   -3.219417
      2          8           0       -2.952568   -2.977155    3.161500
      3          8           0       -3.405713   -0.730706    3.087888
      4          8           0       -1.815750    7.117809    1.555435
      5          8           0       -1.041831    7.120319   -0.577601
      6          8           0       -1.703001   -4.053375   -0.049599
      7          7           0        2.409508    0.983568    0.701774
      8          7           0        4.441318   -0.546688   -1.226867
      9          7           0       -1.759087    0.642400   -0.493410
     10          7           0       -2.456999   -1.965507   -0.610629
     11          6           0        4.888983   -1.083974    0.018386
     12          6           0        4.461024   -0.255089    1.315375
     13          6           0        2.963622   -0.038452    1.349353
     14          6           0        1.862150   -0.653157    2.025810
     15          6           0        0.667660   -0.044834    1.706919
     16          6           0        1.015282    1.004153    0.801684
     17          6           0        6.364229   -1.229386   -0.054764
     18          6           0       -0.615301   -0.277966    2.443014
     19          6           0        6.691415   -0.828462   -1.359334
     20          6           0        0.166885    2.018668    0.151861
     21          6           0       -1.113736    1.863577   -0.363961
     22          6           0        5.518721   -0.451161   -2.097379
     23          6           0       -1.920215    2.832104   -0.848818
     24          6           0        2.046279   -1.749998    3.062373
     25          6           0        7.258054   -1.814326    0.966580
     26          6           0       -3.154050    2.252044   -1.189168
     27          6           0       -1.207131   -1.712102    2.532302
     28          6           0       -3.084273    0.880465   -0.980226
     29          6           0       -1.529909    4.330923   -0.961244
     30          6           0        8.027705   -0.698134   -1.988060
     31          6           0       -1.872420    5.090305    0.385341
     32          6           0       -4.321375    2.873475   -2.008525
     33          6           0       -3.977295   -0.205218   -1.245492
     34          6           0       -2.586969   -1.719052    2.895582
     35          6           0       -3.659207   -1.529031   -1.056109
     36          6           0        9.236270   -0.597741   -1.386917
     37          6           0       -1.555752    6.561335    0.346863
     38          6           0       -4.463702   -2.602851   -1.425947
     39          6           0       -3.892486   -3.722766   -1.073430
     40          6           0       -2.559899   -3.302666   -0.513017
     41          6           0       -5.794645   -2.479791   -2.024045
     42          6           0       -4.188389   -5.220733   -1.233404
     43          6           0       -6.688604   -3.484894   -2.436494
     44          1           0        4.336929   -2.026907   -0.008600
     45          1           0        4.751976    0.603232    1.431743
     46          1           0        4.824401   -0.987007    2.173352
     47          1           0        2.692884    1.862198    0.068392
     48          1           0        3.577660   -0.572331   -1.644651
     49          1           0       -0.497713    0.239540    3.372274
     50          1           0       -1.417329    0.405191    2.051065
     51          1           0        0.685419    2.863415   -0.261406
     52          1           0        3.032386   -2.092079    3.415245
     53          1           0        1.532236   -1.469210    4.048927
     54          1           0        1.172354   -2.536555    2.967945
     55          1           0        6.830429   -2.679110    1.482750
     56          1           0        7.469318   -1.058990    1.725765
     57          1           0        8.165072   -1.992402    0.484154
     58          1           0       -1.254372   -2.200413    1.542803
     59          1           0       -0.765109   -2.311631    3.503620
     60          1           0       -1.210369   -0.241383   -0.376147
     61          1           0       -1.958652    4.789236   -1.766695
     62          1           0       -0.483102    4.518416   -1.002862
     63          1           0        7.935086   -0.989283   -3.158899
     64          1           0       -1.430455    4.613019    1.379563
     65          1           0       -2.963663    5.083602    0.663148
     66          1           0       -4.389932    3.931602   -2.316116
     67          1           0       -5.253139    2.642823   -1.458654
     68          1           0       -4.436979    2.125370   -2.938000
     69          1           0       -4.860792    0.138061   -1.638179
     70          1           0        9.274751   -0.731393   -0.063863
     71          1           0       10.036977   -0.447042   -2.036501
     72          1           0       -3.934309   -3.127232    3.220276
     73          1           0       -6.110813   -1.580284   -2.103605
     74          1           0       -5.085032   -5.722932   -0.800405
     75          1           0       -4.021604   -5.280000   -2.357065
     76          1           0       -3.443452   -5.669492   -0.598565
     77          1           0       -1.258478    7.889960    1.428959
     78          1           0       -7.607769   -3.136461   -2.980554
     79          1           0       -6.477817   -4.554205   -2.241600
 ---------------------------------------------------------------------
 Rotational constants (GHZ):           0.0748626           0.0450963           0.0346428
 Standard basis: SVP (5D, 7F)
 There are   825 symmetry adapted cartesian basis functions of A   symmetry.
 There are   782 symmetry adapted basis functions of A   symmetry.
   782 basis functions,  1327 primitive gaussians,   825 cartesian basis functions
   155 alpha electrons      155 beta electrons
       nuclear repulsion energy      4943.9072234223 Hartrees.
 NAtoms=   79 NActive=   79 NUniq=   79 SFac= 1.00D+00 NAtFMM=   60 NAOKFM=T Big=T
 Integral buffers will be    131072 words long.
 Regular integral format.
 Two-electron integral symmetry is turned on.
 One-electron integrals computed using PRISM.
 NBasis=   782 RedAO= T EigKep=  3.17D-04  NBF=   782
 NBsUse=   782 1.00D-06 EigRej= -1.00D+00 NBFU=   782
 ExpMin= 1.22D-01 ExpMax= 2.27D+03 ExpMxC= 3.41D+02 IAcc=3 IRadAn=         5 AccDes= 0.00D+00
 Harris functional with IExCor=  402 and IRadAn=       5 diagonalized for initial guess.
 HarFok:  IExCor=  402 AccDes= 0.00D+00 IRadAn=         5 IDoV= 1 UseB2=F ITyADJ=14
 ICtDFT=  3500011 ScaDFX=  1.000000  1.000000  1.000000  1.000000
 FoFCou: FMM=F IPFlag=           0 FMFlag=      100000 FMFlg1=        2001
         NFxFlg=           0 DoJE=T BraDBF=F KetDBF=T FulRan=T
         wScrn=  0.000000 ICntrl=       500 IOpCl=  0 I1Cent=   200000004 NGrid=           0
         NMat0=    1 NMatS0=      1 NMatT0=    0 NMatD0=    1 NMtDS0=    0 NMtDT0=    0
 Petite list used in FoFCou.
 Requested convergence on RMS density matrix=1.00D-08 within 128 cycles.
 Requested convergence on MAX density matrix=1.00D-06.
 Requested convergence on             energy=1.00D-06.
 No special actions if energy rises.
 Integral accuracy reduced to 1.0D-05 until final iterations.
 EnCoef did     3 forward-backward iterations
 Initial convergence to 1.0D-05 achieved.  Increase integral accuracy.
 SCF Done:  E(RB3LYP) =  -1947.81963267     A.U. after   21 cycles
            NFock= 21  Conv=0.36D-08     -V/T= 2.0102
 DoSCS=F DFT=T ScalE2(SS,OS)=  1.000000  1.000000
 ExpMin= 1.22D-01 ExpMax= 2.27D+03 ExpMxC= 3.41D+02 IAcc=3 IRadAn=         5 AccDes= 0.00D+00
 HarFok:  IExCor=  205 AccDes= 0.00D+00 IRadAn=         5 IDoV=-2 UseB2=F ITyADJ=14
 ICtDFT= 12500011 ScaDFX=  1.000000  1.000000  1.000000  1.000000
 GSVD:  LWork=       -2193 too small for GESVD, short by        9890 words or        9890 for optimal perf.
 Range of M.O.s used for correlation:    44   782
 NBasis=   782 NAE=   155 NBE=   155 NFC=    43 NFV=     0
 NROrb=    739 NOA=   112 NOB=   112 NVA=   627 NVB=   627

 **** Warning!!: The smallest alpha delta epsilon is  0.74372857D-01

 Orbital symmetries:
       Occupied  (A) (A) (A) (A) (A) (A) (A) (A) (A) (A) (A) (A)
                 (A) (A) (A) (A) (A) (A) (A) (A) (A) (A) (A) (A)
                 (A) (A) (A) (A) (A) (A) (A) (A) (A) (A) (A) (A)
                 (A) (A) (A) (A) (A) (A) (A) (A) (A) (A) (A) (A)
                 (A) (A) (A) (A) (A) (A) (A) (A) (A) (A) (A) (A)
                 (A) (A) (A) (A) (A) (A) (A) (A) (A) (A) (A) (A)
                 (A) (A) (A) (A) (A) (A) (A) (A) (A) (A) (A) (A)
                 (A) (A) (A) (A) (A) (A) (A) (A) (A) (A) (A) (A)
                 (A) (A) (A) (A) (A) (A) (A) (A) (A) (A) (A) (A)
                 (A) (A) (A) (A) (A) (A) (A) (A) (A) (A) (A) (A)
                 (A) (A) (A) (A) (A) (A) (A) (A) (A) (A) (A) (A)
                 (A) (A) (A) (A) (A) (A) (A) (A) (A) (A) (A) (A)
                 (A) (A) (A) (A) (A) (A) (A) (A) (A) (A) (A)
       Virtual   (A) (A) (A) (A) (A) (A) (A) (A) (A) (A) (A) (A)
                 (A) (A) (A) (A) (A) (A) (A) (A) (A) (A) (A) (A)
                 (A) (A) (A) (A) (A) (A) (A) (A) (A) (A) (A) (A)
                 (A) (A) (A) (A) (A) (A) (A) (A) (A) (A) (A) (A)
                 (A) (A) (A) (A) (A) (A) (A) (A) (A) (A) (A) (A)
                 (A) (A) (A) (A) (A) (A) (A) (A) (A) (A) (A) (A)
                 (A) (A) (A) (A) (A) (A) (A) (A) (A) (A) (A) (A)
                 (A) (A) (A) (A) (A) (A) (A) (A) (A) (A) (A) (A)
                 (A) (A) (A) (A) (A) (A) (A) (A) (A) (A) (A) (A)
                 (A) (A) (A) (A) (A) (A) (A) (A) (A) (A) (A) (A)
                 (A) (A) (A) (A) (A) (A) (A) (A) (A) (A) (A) (A)
                 (A) (A) (A) (A) (A) (A) (A) (A) (A) (A) (A) (A)
                 (A) (A) (A) (A) (A) (A) (A) (A) (A) (A) (A) (A)
                 (A) (A) (A) (A) (A) (A) (A) (A) (A) (A) (A) (A)
                 (A) (A) (A) (A) (A) (A) (A) (A) (A) (A) (A) (A)
                 (A) (A) (A) (A) (A) (A) (A) (A) (A) (A) (A) (A)
                 (A) (A) (A) (A) (A) (A) (A) (A) (A) (A) (A) (A)
                 (A) (A) (A) (A) (A) (A) (A) (A) (A) (A) (A) (A)
                 (A) (A) (A) (A) (A) (A) (A) (A) (A) (A) (A) (A)
                 (A) (A) (A) (A) (A) (A) (A) (A) (A) (A) (A) (A)
                 (A) (A) (A) (A) (A) (A) (A) (A) (A) (A) (A) (A)
                 (A) (A) (A) (A) (A) (A) (A) (A) (A) (A) (A) (A)
                 (A) (A) (A) (A) (A) (A) (A) (A) (A) (A) (A) (A)
                 (A) (A) (A) (A) (A) (A) (A) (A) (A) (A) (A) (A)
                 (A) (A) (A) (A) (A) (A) (A) (A) (A) (A) (A) (A)
                 (A) (A) (A) (A) (A) (A) (A) (A) (A) (A) (A) (A)
                 (A) (A) (A) (A) (A) (A) (A) (A) (A) (A) (A) (A)
                 (A) (A) (A) (A) (A) (A) (A) (A) (A) (A) (A) (A)
                 (A) (A) (A) (A) (A) (A) (A) (A) (A) (A) (A) (A)
                 (A) (A) (A) (A) (A) (A) (A) (A) (A) (A) (A) (A)
                 (A) (A) (A) (A) (A) (A) (A) (A) (A) (A) (A) (A)
                 (A) (A) (A) (A) (A) (A) (A) (A) (A) (A) (A) (A)
                 (A) (A) (A) (A) (A) (A) (A) (A) (A) (A) (A) (A)
                 (A) (A) (A) (A) (A) (A) (A) (A) (A) (A) (A) (A)
                 (A) (A) (A) (A) (A) (A) (A) (A) (A) (A) (A) (A)
                 (A) (A) (A) (A) (A) (A) (A) (A) (A) (A) (A) (A)
                 (A) (A) (A) (A) (A) (A) (A) (A) (A) (A) (A) (A)
                 (A) (A) (A) (A) (A) (A) (A) (A) (A) (A) (A) (A)
                 (A) (A) (A) (A) (A) (A) (A) (A) (A) (A) (A) (A)
                 (A) (A) (A) (A) (A) (A) (A) (A) (A) (A) (A) (A)
                 (A) (A) (A) (A) (A) (A) (A) (A) (A) (A) (A) (A)
                 (A) (A) (A) (A) (A) (A) (A) (A) (A) (A) (A) (A)
                 (A) (A) (A) (A) (A) (A) (A) (A) (A) (A) (A) (A)
                 (A) (A) (A) (A) (A) (A) (A) (A) (A) (A) (A) (A)
                 (A) (A) (A) (A) (A) (A) (A) (A) (A) (A) (A) (A)
                 (A) (A) (A) (A) (A) (A) (A) (A) (A) (A) (A) (A)
                 (A) (A) (A) (A) (A) (A) (A) (A) (A) (A) (A) (A)
                 (A) (A) (A) (A) (A) (A) (A) (A) (A) (A) (A) (A)
                 (A) (A) (A) (A) (A) (A) (A) (A) (A) (A) (A) (A)
                 (A) (A) (A) (A) (A) (A) (A) (A) (A) (A) (A) (A)
                 (A) (A) (A) (A) (A) (A) (A) (A) (A) (A) (A) (A)
                 (A) (A) (A) (A) (A) (A) (A) (A) (A) (A) (A) (A)
                 (A) (A) (A)
     4 initial guesses have been made.
 Convergence on wavefunction:    0.001000000000000
 Iteration     1 Dimension     4 NMult     0 NNew      4
 CISAX will form     4 AO SS matrices at one time.
 New state      1 was old state      3
 Iteration     2 Dimension     6 NMult     4 NNew      2
 Iteration     3 Dimension     8 NMult     6 NNew      2
 Iteration     4 Dimension    10 NMult     8 NNew      2
 Iteration     5 Dimension    12 NMult    10 NNew      2
 Iteration     6 Dimension    14 NMult    12 NNew      2
 Iteration     7 Dimension    16 NMult    14 NNew      2
 Iteration     8 Dimension    18 NMult    16 NNew      2
 ***********************************************************************
 Excited states from <AA,BB:AA,BB> singles matrix:
 ***********************************************************************
 
 Ground to excited state transition densities written to RWF  633
 Ground to excited state transition electric dipole moments (Au):
       state          X           Y           Z        Dip. S.      Osc.
         1        -2.2513     -1.0470     -0.7818      6.7760      0.3253
 Ground to excited state transition velocity dipole moments (Au):
       state          X           Y           Z        Dip. S.      Osc.
         1         0.1559      0.0688      0.0554      0.0321      0.2972
 Ground to excited state transition magnetic dipole moments (Au):
       state          X           Y           Z
         1         0.6062     -0.0157     -1.3003
 Ground to excited state transition velocity quadrupole moments (Au):
       state          XX          YY          ZZ          XY          XZ          YZ
         1        -0.2829     -0.2899      0.0677     -0.5265     -0.3048     -0.1765
 <0|del|b> * <b|rxdel|0> + <0|del|b> * <b|delr+rdel|0>
 Rotatory Strengths (R) in cgs (10**-40 erg-esu-cm/Gauss)
       state          XX          YY          ZZ    R(velocity)    E-M Angle
         1      -399.3357    118.4170    490.9939     70.0251       85.23
 1/2[<0|r|b>*<b|rxdel|0> + (<0|rxdel|b>*<b|r|0>)*]
 Rotatory Strengths (R) in cgs (10**-40 erg-esu-cm/Gauss)
       state          XX          YY          ZZ     R(length)
         1       965.0640    -11.6332   -718.8638     78.1890
  1/2[<0|del|b>*<b|r|0> + (<0|r|b>*<b|del|0>)*] (Au)
       state          X           Y           Z        Dip. S.   Osc.(frdel)
         1        -0.3510     -0.0720     -0.0433      0.4663      0.3109

 Excitation energies and oscillator strengths:
 
 Excited State   1:      Singlet-A      1.9594 eV  632.76 nm  f=0.3253  <S**2>=0.000
     154 ->156         0.31888
     155 ->156         0.63372
     155 <-156        -0.12451
 This state for optimization and/or second-order correction.
 Total Energy, E(TD-HF/TD-DFT) =  -1947.74762533    
 Copying the excited state density for this state as the 1-particle RhoCI density.
 SavETr:  write IOETrn=   770 NScale= 10 NData=  16 NLR=1 NState=    1 LETran=      28.

 **********************************************************************

            Population analysis using the SCF density.

 **********************************************************************

 Orbital symmetries:
       Occupied  (A) (A) (A) (A) (A) (A) (A) (A) (A) (A) (A) (A)
                 (A) (A) (A) (A) (A) (A) (A) (A) (A) (A) (A) (A)
                 (A) (A) (A) (A) (A) (A) (A) (A) (A) (A) (A) (A)
                 (A) (A) (A) (A) (A) (A) (A) (A) (A) (A) (A) (A)
                 (A) (A) (A) (A) (A) (A) (A) (A) (A) (A) (A) (A)
                 (A) (A) (A) (A) (A) (A) (A) (A) (A) (A) (A) (A)
                 (A) (A) (A) (A) (A) (A) (A) (A) (A) (A) (A) (A)
                 (A) (A) (A) (A) (A) (A) (A) (A) (A) (A) (A) (A)
                 (A) (A) (A) (A) (A) (A) (A) (A) (A) (A) (A) (A)
                 (A) (A) (A) (A) (A) (A) (A) (A) (A) (A) (A) (A)
                 (A) (A) (A) (A) (A) (A) (A) (A) (A) (A) (A) (A)
                 (A) (A) (A) (A) (A) (A) (A) (A) (A) (A) (A) (A)
                 (A) (A) (A) (A) (A) (A) (A) (A) (A) (A) (A)
       Virtual   (A) (A) (A) (A) (A) (A) (A) (A) (A) (A) (A) (A)
                 (A) (A) (A) (A) (A) (A) (A) (A) (A) (A) (A) (A)
                 (A) (A) (A) (A) (A) (A) (A) (A) (A) (A) (A) (A)
                 (A) (A) (A) (A) (A) (A) (A) (A) (A) (A) (A) (A)
                 (A) (A) (A) (A) (A) (A) (A) (A) (A) (A) (A) (A)
                 (A) (A) (A) (A) (A) (A) (A) (A) (A) (A) (A) (A)
                 (A) (A) (A) (A) (A) (A) (A) (A) (A) (A) (A) (A)
                 (A) (A) (A) (A) (A) (A) (A) (A) (A) (A) (A) (A)
                 (A) (A) (A) (A) (A) (A) (A) (A) (A) (A) (A) (A)
                 (A) (A) (A) (A) (A) (A) (A) (A) (A) (A) (A) (A)
                 (A) (A) (A) (A) (A) (A) (A) (A) (A) (A) (A) (A)
                 (A) (A) (A) (A) (A) (A) (A) (A) (A) (A) (A) (A)
                 (A) (A) (A) (A) (A) (A) (A) (A) (A) (A) (A) (A)
                 (A) (A) (A) (A) (A) (A) (A) (A) (A) (A) (A) (A)
                 (A) (A) (A) (A) (A) (A) (A) (A) (A) (A) (A) (A)
                 (A) (A) (A) (A) (A) (A) (A) (A) (A) (A) (A) (A)
                 (A) (A) (A) (A) (A) (A) (A) (A) (A) (A) (A) (A)
                 (A) (A) (A) (A) (A) (A) (A) (A) (A) (A) (A) (A)
                 (A) (A) (A) (A) (A) (A) (A) (A) (A) (A) (A) (A)
                 (A) (A) (A) (A) (A) (A) (A) (A) (A) (A) (A) (A)
                 (A) (A) (A) (A) (A) (A) (A) (A) (A) (A) (A) (A)
                 (A) (A) (A) (A) (A) (A) (A) (A) (A) (A) (A) (A)
                 (A) (A) (A) (A) (A) (A) (A) (A) (A) (A) (A) (A)
                 (A) (A) (A) (A) (A) (A) (A) (A) (A) (A) (A) (A)
                 (A) (A) (A) (A) (A) (A) (A) (A) (A) (A) (A) (A)
                 (A) (A) (A) (A) (A) (A) (A) (A) (A) (A) (A) (A)
                 (A) (A) (A) (A) (A) (A) (A) (A) (A) (A) (A) (A)
                 (A) (A) (A) (A) (A) (A) (A) (A) (A) (A) (A) (A)
                 (A) (A) (A) (A) (A) (A) (A) (A) (A) (A) (A) (A)
                 (A) (A) (A) (A) (A) (A) (A) (A) (A) (A) (A) (A)
                 (A) (A) (A) (A) (A) (A) (A) (A) (A) (A) (A) (A)
                 (A) (A) (A) (A) (A) (A) (A) (A) (A) (A) (A) (A)
                 (A) (A) (A) (A) (A) (A) (A) (A) (A) (A) (A) (A)
                 (A) (A) (A) (A) (A) (A) (A) (A) (A) (A) (A) (A)
                 (A) (A) (A) (A) (A) (A) (A) (A) (A) (A) (A) (A)
                 (A) (A) (A) (A) (A) (A) (A) (A) (A) (A) (A) (A)
                 (A) (A) (A) (A) (A) (A) (A) (A) (A) (A) (A) (A)
                 (A) (A) (A) (A) (A) (A) (A) (A) (A) (A) (A) (A)
                 (A) (A) (A) (A) (A) (A) (A) (A) (A) (A) (A) (A)
                 (A) (A) (A) (A) (A) (A) (A) (A) (A) (A) (A) (A)
                 (A) (A) (A) (A) (A) (A) (A) (A) (A) (A) (A) (A)
                 (A) (A) (A) (A) (A) (A) (A) (A) (A) (A) (A) (A)
                 (A) (A) (A) (A) (A) (A) (A) (A) (A) (A) (A) (A)
                 (A) (A) (A) (A) (A) (A) (A) (A) (A) (A) (A) (A)
                 (A) (A) (A) (A) (A) (A) (A) (A) (A) (A) (A) (A)
                 (A) (A) (A) (A) (A) (A) (A) (A) (A) (A) (A) (A)
                 (A) (A) (A) (A) (A) (A) (A) (A) (A) (A) (A) (A)
                 (A) (A) (A) (A) (A) (A) (A) (A) (A) (A) (A) (A)
                 (A) (A) (A) (A) (A) (A) (A) (A) (A) (A) (A) (A)
                 (A) (A) (A) (A) (A) (A) (A) (A) (A) (A) (A) (A)
                 (A) (A) (A) (A) (A) (A) (A) (A) (A) (A) (A) (A)
                 (A) (A) (A) (A) (A) (A) (A) (A) (A) (A) (A) (A)
                 (A) (A) (A)
 The electronic state is 1-A.
 Alpha  occ. eigenvalues --  -19.19225 -19.17095 -19.14259 -19.10237 -19.09621
 Alpha  occ. eigenvalues --  -19.08723 -14.40897 -14.36046 -14.34788 -14.27179
 Alpha  occ. eigenvalues --  -10.32860 -10.30665 -10.27849 -10.25746 -10.25055
 Alpha  occ. eigenvalues --  -10.24680 -10.24318 -10.24308 -10.23332 -10.23265
 Alpha  occ. eigenvalues --  -10.23217 -10.22653 -10.22300 -10.21669 -10.21614
 Alpha  occ. eigenvalues --  -10.21548 -10.21519 -10.21325 -10.21053 -10.21023
 Alpha  occ. eigenvalues --  -10.20935 -10.20813 -10.20660 -10.20197 -10.20130
 Alpha  occ. eigenvalues --  -10.20047 -10.19357 -10.19353 -10.18529 -10.18445
 Alpha  occ. eigenvalues --  -10.18387 -10.17990 -10.17379  -1.11740  -1.07182
 Alpha  occ. eigenvalues --   -1.02937  -1.02808  -1.00425  -0.99890  -0.97447
 Alpha  occ. eigenvalues --   -0.95208  -0.94936  -0.92339  -0.83286  -0.82654
 Alpha  occ. eigenvalues --   -0.82177  -0.81627  -0.80472  -0.79587  -0.77803
 Alpha  occ. eigenvalues --   -0.77570  -0.77249  -0.76229  -0.74008  -0.73528
 Alpha  occ. eigenvalues --   -0.72769  -0.71328  -0.70038  -0.69366  -0.68870
 Alpha  occ. eigenvalues --   -0.68736  -0.67275  -0.64903  -0.61416  -0.60805
 Alpha  occ. eigenvalues --   -0.59306  -0.59124  -0.58827  -0.58526  -0.58105
 Alpha  occ. eigenvalues --   -0.56443  -0.55978  -0.55708  -0.54363  -0.53476
 Alpha  occ. eigenvalues --   -0.52229  -0.51751  -0.51402  -0.50622  -0.50561
 Alpha  occ. eigenvalues --   -0.49826  -0.49351  -0.48922  -0.48857  -0.48157
 Alpha  occ. eigenvalues --   -0.47759  -0.46924  -0.46827  -0.46086  -0.45562
 Alpha  occ. eigenvalues --   -0.45152  -0.44676  -0.44575  -0.44492  -0.43894
 Alpha  occ. eigenvalues --   -0.43716  -0.43343  -0.43304  -0.43029  -0.42414
 Alpha  occ. eigenvalues --   -0.42184  -0.41824  -0.41349  -0.41200  -0.41126
 Alpha  occ. eigenvalues --   -0.40903  -0.40826  -0.40602  -0.40292  -0.39849
 Alpha  occ. eigenvalues --   -0.39707  -0.39309  -0.39224  -0.39172  -0.38806
 Alpha  occ. eigenvalues --   -0.38664  -0.38113  -0.37863  -0.37463  -0.36899
 Alpha  occ. eigenvalues --   -0.36239  -0.35975  -0.35713  -0.35570  -0.34491
 Alpha  occ. eigenvalues --   -0.34195  -0.34069  -0.33568  -0.32672  -0.30878
 Alpha  occ. eigenvalues --   -0.30529  -0.29702  -0.29255  -0.27973  -0.26390
 Alpha  occ. eigenvalues --   -0.25996  -0.25661  -0.25506  -0.25319  -0.25239
 Alpha  occ. eigenvalues --   -0.24742  -0.23929  -0.22893  -0.21462  -0.19029
 Alpha virt. eigenvalues --   -0.11592  -0.06859  -0.06087  -0.00892  -0.00649
 Alpha virt. eigenvalues --   -0.00106   0.00225   0.00410   0.01554   0.02691
 Alpha virt. eigenvalues --    0.03720   0.03936   0.04386   0.05340   0.05405
 Alpha virt. eigenvalues --    0.05691   0.06429   0.06621   0.06784   0.07327
 Alpha virt. eigenvalues --    0.07877   0.07902   0.08392   0.08531   0.08977
 Alpha virt. eigenvalues --    0.09364   0.10148   0.10507   0.10638   0.10802
 Alpha virt. eigenvalues --    0.10930   0.11379   0.11536   0.12346   0.12593
 Alpha virt. eigenvalues --    0.12712   0.13010   0.13335   0.13608   0.13756
 Alpha virt. eigenvalues --    0.14331   0.14580   0.14735   0.15096   0.15569
 Alpha virt. eigenvalues --    0.15774   0.16416   0.16850   0.17237   0.17513
 Alpha virt. eigenvalues --    0.17785   0.18398   0.18872   0.19552   0.20026
 Alpha virt. eigenvalues --    0.20689   0.21187   0.21482   0.22042   0.22429
 Alpha virt. eigenvalues --    0.22991   0.23199   0.23353   0.23775   0.24539
 Alpha virt. eigenvalues --    0.25079   0.25388   0.25908   0.26317   0.26530
 Alpha virt. eigenvalues --    0.27533   0.27883   0.28196   0.28372   0.29331
 Alpha virt. eigenvalues --    0.30204   0.30450   0.30754   0.30881   0.31275
 Alpha virt. eigenvalues --    0.31476   0.32363   0.33457   0.33830   0.34979
 Alpha virt. eigenvalues --    0.35177   0.35289   0.35746   0.36130   0.36334
 Alpha virt. eigenvalues --    0.36896   0.37607   0.38572   0.38934   0.39533
 Alpha virt. eigenvalues --    0.39789   0.39918   0.40471   0.40865   0.40961
 Alpha virt. eigenvalues --    0.41563   0.41924   0.42404   0.42666   0.43118
 Alpha virt. eigenvalues --    0.43755   0.43922   0.44365   0.44492   0.45014
 Alpha virt. eigenvalues --    0.45398   0.45669   0.46101   0.46286   0.46606
 Alpha virt. eigenvalues --    0.47058   0.47728   0.48140   0.48344   0.48538
 Alpha virt. eigenvalues --    0.48852   0.49307   0.49395   0.49872   0.50121
 Alpha virt. eigenvalues --    0.50540   0.50869   0.51156   0.51782   0.51939
 Alpha virt. eigenvalues --    0.52079   0.52423   0.53135   0.53217   0.53592
 Alpha virt. eigenvalues --    0.53876   0.54121   0.54728   0.55050   0.55322
 Alpha virt. eigenvalues --    0.55680   0.55906   0.56593   0.56969   0.57557
 Alpha virt. eigenvalues --    0.57603   0.57982   0.58475   0.58778   0.59029
 Alpha virt. eigenvalues --    0.59364   0.59728   0.60211   0.60540   0.60819
 Alpha virt. eigenvalues --    0.61270   0.61514   0.61956   0.62054   0.62458
 Alpha virt. eigenvalues --    0.62809   0.62938   0.63240   0.63452   0.63628
 Alpha virt. eigenvalues --    0.64029   0.64066   0.64256   0.64446   0.64631
 Alpha virt. eigenvalues --    0.65006   0.65319   0.65779   0.65872   0.65928
 Alpha virt. eigenvalues --    0.66109   0.66497   0.66707   0.66817   0.67024
 Alpha virt. eigenvalues --    0.67248   0.67577   0.67847   0.68223   0.68639
 Alpha virt. eigenvalues --    0.68955   0.69436   0.69543   0.69873   0.70192
 Alpha virt. eigenvalues --    0.70292   0.70502   0.70660   0.70905   0.71610
 Alpha virt. eigenvalues --    0.71958   0.72220   0.72329   0.73199   0.73461
 Alpha virt. eigenvalues --    0.73770   0.74140   0.74243   0.74764   0.75109
 Alpha virt. eigenvalues --    0.75556   0.75798   0.76114   0.76178   0.76524
 Alpha virt. eigenvalues --    0.77101   0.77366   0.77888   0.78426   0.78717
 Alpha virt. eigenvalues --    0.79237   0.79723   0.79934   0.80339   0.80871
 Alpha virt. eigenvalues --    0.82868   0.83048   0.83161   0.84347   0.84624
 Alpha virt. eigenvalues --    0.84739   0.85393   0.85715   0.86549   0.87230
 Alpha virt. eigenvalues --    0.87917   0.88739   0.89910   0.90539   0.91196
 Alpha virt. eigenvalues --    0.92017   0.92098   0.92267   0.92621   0.92873
 Alpha virt. eigenvalues --    0.94222   0.94930   0.95257   0.95430   0.95717
 Alpha virt. eigenvalues --    0.96195   0.97097   0.97343   0.98096   0.98579
 Alpha virt. eigenvalues --    0.99074   0.99748   1.00242   1.00446   1.01281
 Alpha virt. eigenvalues --    1.02350   1.02859   1.03137   1.03961   1.05042
 Alpha virt. eigenvalues --    1.05744   1.07217   1.07414   1.09324   1.09623
 Alpha virt. eigenvalues --    1.10053   1.10725   1.11510   1.11930   1.12229
 Alpha virt. eigenvalues --    1.12651   1.13711   1.14116   1.14600   1.15023
 Alpha virt. eigenvalues --    1.16211   1.16811   1.17297   1.17864   1.18195
 Alpha virt. eigenvalues --    1.18460   1.19418   1.20392   1.21384   1.21985
 Alpha virt. eigenvalues --    1.22910   1.23168   1.23450   1.23904   1.24478
 Alpha virt. eigenvalues --    1.24913   1.25253   1.25777   1.26765   1.27100
 Alpha virt. eigenvalues --    1.27880   1.28076   1.28942   1.29193   1.29769
 Alpha virt. eigenvalues --    1.30777   1.32127   1.32659   1.33295   1.33958
 Alpha virt. eigenvalues --    1.34154   1.34750   1.35157   1.35765   1.36534
 Alpha virt. eigenvalues --    1.37124   1.37789   1.38219   1.39000   1.39813
 Alpha virt. eigenvalues --    1.41320   1.41587   1.42158   1.43170   1.43400
 Alpha virt. eigenvalues --    1.45522   1.45928   1.46457   1.46901   1.47205
 Alpha virt. eigenvalues --    1.47549   1.48687   1.49464   1.49876   1.50108
 Alpha virt. eigenvalues --    1.50380   1.50611   1.50806   1.51064   1.52276
 Alpha virt. eigenvalues --    1.52899   1.53343   1.54278   1.55130   1.55730
 Alpha virt. eigenvalues --    1.56103   1.57331   1.58252   1.58786   1.58876
 Alpha virt. eigenvalues --    1.59602   1.60075   1.60574   1.61589   1.62332
 Alpha virt. eigenvalues --    1.62625   1.63251   1.63737   1.64052   1.64521
 Alpha virt. eigenvalues --    1.65331   1.65934   1.66424   1.66953   1.67346
 Alpha virt. eigenvalues --    1.67883   1.68320   1.68404   1.68667   1.68987
 Alpha virt. eigenvalues --    1.69092   1.69873   1.69970   1.70319   1.70867
 Alpha virt. eigenvalues --    1.71604   1.72177   1.72470   1.72626   1.73161
 Alpha virt. eigenvalues --    1.73921   1.74335   1.75040   1.75383   1.75936
 Alpha virt. eigenvalues --    1.76868   1.77006   1.77220   1.77313   1.78090
 Alpha virt. eigenvalues --    1.78230   1.78751   1.79577   1.80129   1.80212
 Alpha virt. eigenvalues --    1.80706   1.80852   1.81315   1.81620   1.82026
 Alpha virt. eigenvalues --    1.82298   1.82389   1.82994   1.83043   1.83631
 Alpha virt. eigenvalues --    1.83995   1.84317   1.84894   1.84937   1.85325
 Alpha virt. eigenvalues --    1.86005   1.86702   1.87021   1.87651   1.88372
 Alpha virt. eigenvalues --    1.88670   1.88888   1.89442   1.89723   1.90570
 Alpha virt. eigenvalues --    1.90718   1.92014   1.92242   1.92416   1.92793
 Alpha virt. eigenvalues --    1.93379   1.93959   1.94589   1.95156   1.95517
 Alpha virt. eigenvalues --    1.96476   1.96727   1.97809   1.98210   1.98381
 Alpha virt. eigenvalues --    1.99730   2.00153   2.00669   2.01556   2.02008
 Alpha virt. eigenvalues --    2.02108   2.02748   2.03498   2.03980   2.04173
 Alpha virt. eigenvalues --    2.04625   2.04846   2.06003   2.06244   2.06744
 Alpha virt. eigenvalues --    2.07435   2.07541   2.07948   2.08174   2.08954
 Alpha virt. eigenvalues --    2.09241   2.09885   2.10096   2.10604   2.11463
 Alpha virt. eigenvalues --    2.11938   2.12634   2.12931   2.13081   2.13209
 Alpha virt. eigenvalues --    2.13896   2.14636   2.14926   2.15745   2.16344
 Alpha virt. eigenvalues --    2.16501   2.17108   2.17817   2.18026   2.18750
 Alpha virt. eigenvalues --    2.19622   2.20358   2.20870   2.21391   2.21859
 Alpha virt. eigenvalues --    2.22496   2.23163   2.24628   2.25523   2.26112
 Alpha virt. eigenvalues --    2.26685   2.27544   2.27950   2.28766   2.29812
 Alpha virt. eigenvalues --    2.30040   2.30468   2.31076   2.31730   2.32719
 Alpha virt. eigenvalues --    2.33079   2.34059   2.34854   2.35676   2.35879
 Alpha virt. eigenvalues --    2.36346   2.36547   2.37422   2.37810   2.38827
 Alpha virt. eigenvalues --    2.39303   2.40251   2.41603   2.41962   2.42488
 Alpha virt. eigenvalues --    2.42987   2.44811   2.44918   2.45368   2.46134
 Alpha virt. eigenvalues --    2.47382   2.48062   2.48144   2.48551   2.49171
 Alpha virt. eigenvalues --    2.50154   2.50832   2.51567   2.52639   2.54124
 Alpha virt. eigenvalues --    2.55302   2.55692   2.57187   2.57826   2.57947
 Alpha virt. eigenvalues --    2.59243   2.59492   2.59855   2.61576   2.63186
 Alpha virt. eigenvalues --    2.63346   2.63999   2.64225   2.64814   2.65083
 Alpha virt. eigenvalues --    2.65512   2.66076   2.66864   2.67298   2.68701
 Alpha virt. eigenvalues --    2.69326   2.69912   2.70678   2.71113   2.71702
 Alpha virt. eigenvalues --    2.72236   2.73006   2.73680   2.73764   2.74193
 Alpha virt. eigenvalues --    2.74539   2.75661   2.76490   2.76929   2.78825
 Alpha virt. eigenvalues --    2.79522   2.80010   2.81211   2.81871   2.81889
 Alpha virt. eigenvalues --    2.82655   2.83325   2.83765   2.84775   2.86203
 Alpha virt. eigenvalues --    2.86310   2.86589   2.86959   2.88091   2.89066
 Alpha virt. eigenvalues --    2.89930   2.91061   2.91518   2.91630   2.92207
 Alpha virt. eigenvalues --    2.93218   2.93787   2.94134   2.95175   2.95790
 Alpha virt. eigenvalues --    2.95997   2.98014   2.98932   3.01592   3.01808
 Alpha virt. eigenvalues --    3.02862   3.03440   3.04299   3.05953   3.06477
 Alpha virt. eigenvalues --    3.07053   3.08082   3.08499   3.11538   3.11957
 Alpha virt. eigenvalues --    3.12986   3.13420   3.14467   3.15553   3.16874
 Alpha virt. eigenvalues --    3.19075   3.19290   3.20381   3.21228   3.22226
 Alpha virt. eigenvalues --    3.23389   3.24579   3.25191   3.30031   3.32422
 Alpha virt. eigenvalues --    3.37231   3.39767   3.42790   3.44328   3.45687
 Alpha virt. eigenvalues --    3.47126   3.51071   3.51596   3.55217   3.55982
 Alpha virt. eigenvalues --    3.57280   3.62734   3.62831   3.68022   3.68782
 Alpha virt. eigenvalues --    3.74831   3.79549
          Condensed to atoms (all electrons):
 Mulliken charges:
               1
     1  O   -0.216494
     2  O   -0.194721
     3  O   -0.314809
     4  O   -0.169730
     5  O   -0.212629
     6  O   -0.233738
     7  N   -0.084958
     8  N   -0.175655
     9  N   -0.133187
    10  N   -0.251231
    11  C    0.099832
    12  C    0.317209
    13  C   -0.100397
    14  C   -0.125603
    15  C   -0.048089
    16  C   -0.038243
    17  C   -0.172455
    18  C    0.067322
    19  C   -0.084215
    20  C   -0.030686
    21  C    0.069917
    22  C    0.109129
    23  C   -0.092095
    24  C    0.064698
    25  C    0.155683
    26  C   -0.117614
    27  C    0.019417
    28  C    0.117344
    29  C    0.232116
    30  C   -0.042530
    31  C   -0.093011
    32  C    0.043566
    33  C   -0.097147
    34  C    0.131508
    35  C    0.176266
    36  C   -0.050675
    37  C    0.136252
    38  C    0.061268
    39  C   -0.231188
    40  C    0.102278
    41  C    0.044657
    42  C    0.079825
    43  C   -0.028132
    44  H    0.021666
    45  H   -0.100713
    46  H    0.025193
    47  H    0.172965
    48  H    0.102634
    49  H    0.004794
    50  H    0.017143
    51  H   -0.027964
    52  H    0.019928
    53  H   -0.000950
    54  H    0.035760
    55  H    0.032109
    56  H    0.027082
    57  H    0.015525
    58  H    0.087060
    59  H    0.067051
    60  H    0.164207
    61  H   -0.011500
    62  H   -0.010068
    63  H    0.057837
    64  H    0.064166
    65  H    0.042434
    66  H    0.034920
    67  H    0.024858
    68  H    0.046349
    69  H   -0.079579
    70  H    0.051254
    71  H    0.021226
    72  H    0.200744
    73  H   -0.108971
    74  H    0.030209
    75  H    0.054733
    76  H    0.016007
    77  H    0.162353
    78  H    0.029980
    79  H    0.020496
 Sum of Mulliken charges =  -0.00000
 Mulliken charges with hydrogens summed into heavy atoms:
               1
     1  O   -0.216494
     2  O    0.006023
     3  O   -0.314809
     4  O   -0.007377
     5  O   -0.212629
     6  O   -0.233738
     7  N    0.088007
     8  N   -0.073021
     9  N    0.031020
    10  N   -0.251231
    11  C    0.121498
    12  C    0.241689
    13  C   -0.100397
    14  C   -0.125603
    15  C   -0.048089
    16  C   -0.038243
    17  C   -0.172455
    18  C    0.089260
    19  C   -0.084215
    20  C   -0.058650
    21  C    0.069917
    22  C    0.109129
    23  C   -0.092095
    24  C    0.119437
    25  C    0.230399
    26  C   -0.117614
    27  C    0.173529
    28  C    0.117344
    29  C    0.210548
    30  C    0.015308
    31  C    0.013589
    32  C    0.149693
    33  C   -0.176727
    34  C    0.131508
    35  C    0.176266
    36  C    0.021805
    37  C    0.136252
    38  C    0.061268
    39  C   -0.231188
    40  C    0.102278
    41  C   -0.064314
    42  C    0.180774
    43  C    0.022344
 Electronic spatial extent (au):  <R**2>=          32026.9559
 Charge=             -0.0000 electrons
 Dipole moment (field-independent basis, Debye):
    X=              3.1945    Y=              2.6743    Z=              3.7983  Tot=              5.6377
 Quadrupole moment (field-independent basis, Debye-Ang):
   XX=           -224.8823   YY=           -251.8201   ZZ=           -263.7804
   XY=             -8.6423   XZ=             34.0437   YZ=              1.3388
 Traceless Quadrupole moment (field-independent basis, Debye-Ang):
   XX=             21.9454   YY=             -4.9925   ZZ=            -16.9528
   XY=             -8.6423   XZ=             34.0437   YZ=              1.3388
 Octapole moment (field-independent basis, Debye-Ang**2):
  XXX=             68.9327  YYY=             91.5837  ZZZ=             75.8196  XYY=            -35.1218
  XXY=            -82.0152  XXZ=             82.7126  XZZ=            -44.0583  YZZ=            -27.8374
  YYZ=             87.5829  XYZ=             34.0111
 Hexadecapole moment (field-independent basis, Debye-Ang**3):
 XXXX=         -24030.5043 YYYY=         -12568.3132 ZZZZ=          -4796.3303 XXXY=           -396.4645
 XXXZ=            614.0586 YYYX=            166.4420 YYYZ=            594.5118 ZZZX=            113.2259
 ZZZY=           -123.8662 XXYY=          -6069.4422 XXZZ=          -5258.0031 YYZZ=          -2853.0212
 XXYZ=           -177.8888 YYXZ=            -44.9733 ZZXY=             -6.1026
 N-N= 4.943907223422D+03 E-N=-1.441701184106D+04  KE= 1.928233130644D+03
 1\1\GINC-PADAWAN\SP\RB3LYP TD-FC\SVP\C33H36N4O6\PADAWAN\29-Sep-2019\0\
 \# td=(NStates=1) B3LYP/SVP\\TD\\0,1\O,0,-5.4300092309,0.0968051201,-3
 .2414539351\O,0,2.9857885844,2.9150687616,3.1896450429\O,0,3.403488697
 5,0.6620916082,3.1064925344\O,0,1.6955571952,-7.1523315033,1.527461252
 4\O,0,0.9307979678,-7.1318096046,-0.6087788608\O,0,1.7671837665,4.0271
 558384,-0.0211326059\N,0,-2.4280124123,-0.9474231725,0.6873757542\N,0,
 -4.4270075822,0.6246401305,-1.2419325481\N,0,1.7505354451,-0.666628235
 8,-0.4886073383\N,0,2.4902945714,1.9303987854,-0.5896257093\C,0,-4.871
 3835296,1.1627177688,0.0041562154\C,0,-4.4621836112,0.3206222275,1.298
 6872264\C,0,-2.9685719528,0.0800182585,1.3378257956\C,0,-1.8603651332,
 0.6737123284,2.0220053701\C,0,-0.6743440447,0.0480693714,1.7050211797\
 C,0,-1.0347276606,-0.9906921281,0.7930111205\C,0,-6.3438067368,1.33195
 09844,-0.0744226577\C,0,0.6090095076,0.2570563821,2.4476537855\C,0,-6.
 6717576903,0.9428435328,-1.3823739661\C,0,-0.1997962357,-2.0153002669,
 0.1415862401\C,0,1.0853154277,-1.8780173483,-0.36807839\C,0,-5.5020708
 074,0.550643279,-2.1174190534\C,0,1.8783619214,-2.856806219,-0.8544824
 575\C,0,-2.0314588468,1.7681225692,3.0633607263\C,0,-7.2325707503,1.92
 59007193,0.9461385998\C,0,3.1226986036,-2.2947494261,-1.1867099161\C,0
 ,1.2231683441,1.6811266061,2.5467183077\C,0,3.0738354588,-0.9233009557
 ,-0.9710810963\C,0,1.4647702472,-4.3486408285,-0.9761693338\C,0,-8.007
 2566317,0.8369553331,-2.0173401218\C,0,1.7894265083,-5.1201329479,0.36
 79527908\C,0,4.2834839574,-2.930551524,-2.0043296643\C,0,3.9851193825,
 0.1493543389,-1.2270773901\C,0,2.6013807593,1.6642940176,2.9157974796\
 C,0,3.6873031081,1.4770931208,-1.0322897963\C,0,-9.2198169651,0.752787
 439,-1.421776993\C,0,1.4495900237,-6.5857252227,0.3206607251\C,0,4.510
 3298676,2.539820737,-1.3932864117\C,0,3.9554848169,3.6668972134,-1.037
 4650408\C,0,2.6140129721,3.2652443755,-0.4847772404\C,0,5.8416877741,2
 .3986047011,-1.9864305982\C,0,4.2758332031,5.1607509509,-1.1885708705\
 C,0,6.7532553831,3.3914148263,-2.3900134782\H,0,-4.3043049166,2.096870
 7672,-0.0157185316\H,0,-4.76723138,-0.5335348296,1.4094656908\H,0,-4.8
 175385938,1.0539093906,2.158852795\H,0,-2.722611301,-1.8182392194,0.04
 8347913\H,0,-3.561277125,0.6386357807,-1.6559631472\H,0,0.4792523599,-
 0.2631760056,3.3737669248\H,0,1.4017441838,-0.4367983472,2.0555906919\
 H,0,-0.7299216531,-2.8496024252,-0.278142812\H,0,-3.0135014954,2.12407
 36715,3.4138413738\H,0,-1.5261538305,1.4742367876,4.0506134492\H,0,-1.
 1447508562,2.5411379336,2.9765950813\H,0,-6.7934627972,2.7811669202,1.
 4684890819\H,0,-7.4590456716,1.1702168309,1.7005770684\H,0,-8.13457939
 51,2.1208081639,0.4608345637\H,0,1.2823809465,2.1735893955,1.559924059
 7\H,0,0.7865917717,2.2827250945,3.519217746\H,0,1.21543587,0.225173162
 3,-0.3691422795\H,0,1.8896067529,-4.8096647969,-1.782142824\H,0,0.4153
 033278,-4.5192417717,-1.0231207955\H,0,-7.905031565,1.1324734779,-3.18
 62845667\H,0,1.3508672756,-4.6408752672,1.36273385\H,0,2.8794442145,-5
 .1321904235,0.6503528502\H,0,4.3365287152,-3.9880762598,-2.3170151626\
 H,0,5.2164427427,-2.7175206023,-1.4493985575\H,0,4.4149229254,-2.17972
 02046,-2.9294920228\H,0,4.8647160911,-0.2059626908,-1.6178079565\H,0,-
 9.2618097815,0.880385494,-0.0982325131\H,0,-10.0200401376,0.618113227,
 -2.0754636464\H,0,3.9695316397,3.0492083045,3.2532900947\H,0,6.1438578
 54,1.4945916084,-2.0692457396\H,0,5.1784885487,5.6464374079,-0.7492735
 473\H,0,4.1148035029,5.2283095967,-2.3126038053\H,0,3.5354212117,5.618
 1114175,-0.5545771993\H,0,1.1266299711,-7.9148726444,1.3947255275\H,0,
 7.6690793523,3.0311386538,-2.9319904723\H,0,6.5586577533,4.4629518074,
 -2.1905614086\\Version=ES64L-G16RevA.03\State=1-A\HF=-1947.8196327\RMS
 D=3.574e-09\PG=C01 [X(C33H36N4O6)]\\@


 JUST WHEN YOU THINK YOU'VE GOT THE WORLD ON A STRING,
 YOU FIND OUT IT'S YOUR LEASH.
 Job cpu time:       0 days 12 hours  3 minutes  6.3 seconds.
 Elapsed time:       0 days  3 hours  1 minutes 29.0 seconds.
 File lengths (MBytes):  RWF=   2533 Int=      0 D2E=      0 Chk=     63 Scr=      1
 Normal termination of Gaussian 16 at Sun Sep 29 06:08:21 2019.
