 Entering Gaussian System, Link 0=g16
 Input=Geometria-159-.com
 Output=Geometria-159-.log
 Initial command:
 /usr/local/g16/l1.exe "/home/padawan/israel-mol/dihydrobiliverdin/spectra/emi/Gau-17612.inp" -scrdir="/home/padawan/israel-mol/dihydrobiliverdin/spectra/emi/"
 Entering Link 1 = /usr/local/g16/l1.exe PID=     17614.
  
 Copyright (c) 1988,1990,1992,1993,1995,1998,2003,2009,2016,
            Gaussian, Inc.  All Rights Reserved.
  
 This is part of the Gaussian(R) 16 program.  It is based on
 the Gaussian(R) 09 system (copyright 2009, Gaussian, Inc.),
 the Gaussian(R) 03 system (copyright 2003, Gaussian, Inc.),
 the Gaussian(R) 98 system (copyright 1998, Gaussian, Inc.),
 the Gaussian(R) 94 system (copyright 1995, Gaussian, Inc.),
 the Gaussian 92(TM) system (copyright 1992, Gaussian, Inc.),
 the Gaussian 90(TM) system (copyright 1990, Gaussian, Inc.),
 the Gaussian 88(TM) system (copyright 1988, Gaussian, Inc.),
 the Gaussian 86(TM) system (copyright 1986, Carnegie Mellon
 University), and the Gaussian 82(TM) system (copyright 1983,
 Carnegie Mellon University). Gaussian is a federally registered
 trademark of Gaussian, Inc.
  
 This software contains proprietary and confidential information,
 including trade secrets, belonging to Gaussian, Inc.
  
 This software is provided under written license and may be
 used, copied, transmitted, or stored only in accord with that
 written license.
  
 The following legend is applicable only to US Government
 contracts under FAR:
  
                    RESTRICTED RIGHTS LEGEND
  
 Use, reproduction and disclosure by the US Government is
 subject to restrictions as set forth in subparagraphs (a)
 and (c) of the Commercial Computer Software - Restricted
 Rights clause in FAR 52.227-19.
  
 Gaussian, Inc.
 340 Quinnipiac St., Bldg. 40, Wallingford CT 06492
  
  
 ---------------------------------------------------------------
 Warning -- This program may not be used in any manner that
 competes with the business of Gaussian, Inc. or will provide
 assistance to any competitor of Gaussian, Inc.  The licensee
 of this program is prohibited from giving any competitor of
 Gaussian, Inc. access to this program.  By using this program,
 the user acknowledges that Gaussian, Inc. is engaged in the
 business of creating and licensing software in the field of
 computational chemistry and represents and warrants to the
 licensee that it is not a competitor of Gaussian, Inc. and that
 it will not use this program in any manner prohibited above.
 ---------------------------------------------------------------
  

 Cite this work as:
 Gaussian 16, Revision A.03,
 M. J. Frisch, G. W. Trucks, H. B. Schlegel, G. E. Scuseria, 
 M. A. Robb, J. R. Cheeseman, G. Scalmani, V. Barone, 
 G. A. Petersson, H. Nakatsuji, X. Li, M. Caricato, A. V. Marenich, 
 J. Bloino, B. G. Janesko, R. Gomperts, B. Mennucci, H. P. Hratchian, 
 J. V. Ortiz, A. F. Izmaylov, J. L. Sonnenberg, D. Williams-Young, 
 F. Ding, F. Lipparini, F. Egidi, J. Goings, B. Peng, A. Petrone, 
 T. Henderson, D. Ranasinghe, V. G. Zakrzewski, J. Gao, N. Rega, 
 G. Zheng, W. Liang, M. Hada, M. Ehara, K. Toyota, R. Fukuda, 
 J. Hasegawa, M. Ishida, T. Nakajima, Y. Honda, O. Kitao, H. Nakai, 
 T. Vreven, K. Throssell, J. A. Montgomery, Jr., J. E. Peralta, 
 F. Ogliaro, M. J. Bearpark, J. J. Heyd, E. N. Brothers, K. N. Kudin, 
 V. N. Staroverov, T. A. Keith, R. Kobayashi, J. Normand, 
 K. Raghavachari, A. P. Rendell, J. C. Burant, S. S. Iyengar, 
 J. Tomasi, M. Cossi, J. M. Millam, M. Klene, C. Adamo, R. Cammi, 
 J. W. Ochterski, R. L. Martin, K. Morokuma, O. Farkas, 
 J. B. Foresman, and D. J. Fox, Gaussian, Inc., Wallingford CT, 2016.
 
 ******************************************
 Gaussian 16:  ES64L-G16RevA.03 25-Dec-2016
                21-Sep-2019 
 ******************************************
 %nproc=4
 Will use up to    4 processors via shared memory.
 %Mem=4GB
 --------------------------
 # td=(NStates=1) B3LYP/SVP
 --------------------------
 1/38=1,172=1/1;
 2/12=2,17=6,18=5,40=1/2;
 3/5=18,7=101,11=9,25=1,30=1,74=-5/1,2,3,8;
 4//1;
 5/5=2,38=5/2;
 8/6=1,10=1,108=1/1;
 9/41=1,42=1,70=2/14;
 6/7=2,8=2,9=2,10=2/1;
 99/5=1,9=1/99;
 --
 TD
 --
 Symbolic Z-matrix:
 Charge =  0 Multiplicity = 1
 8                    -5.28543  -0.25884  -3.23641 
 8                     2.97846   3.04913   2.9815 
 8                     3.36943   0.84264   3.2087 
 8                     1.31565  -7.34227   1.31106 
 8                     0.84673  -7.08347  -0.92488 
 8                     1.79724   4.01468   0.2851 
 7                    -2.40703  -0.89705   0.69914 
 7                    -4.33605   0.30227  -1.15949 
 7                     1.75774  -0.66751  -0.35455 
 7                     2.47128   1.98344  -0.64035 
 6                    -4.69383   1.1351    0.03861 
 6                    -4.3603    0.46099   1.2958 
 6                    -2.92875   0.11208   1.52766 
 6                    -1.92629   0.7291    2.24005 
 6                    -0.69406   0.06023   1.90395 
 6                    -1.03628  -0.97091   0.89452 
 6                    -6.18174   1.30632  -0.26432 
 6                     0.63115   0.34274   2.5012 
 6                    -6.5677    0.70831  -1.40456 
 6                    -0.15924  -1.93043   0.28769 
 6                     1.04803  -1.82011  -0.29108 
 6                    -5.40415   0.14408  -2.1224 
 6                     1.92133  -2.86806  -0.86781 
 6                    -2.1188    1.83242   3.25651 
 6                    -7.03819   2.01759   0.8719 
 6                     3.06684  -2.34517  -1.37449 
 6                     1.25324   1.77501   2.56788 
 6                     3.02417  -0.89817  -0.94473 
 6                     1.4238   -4.27592  -0.98398 
 6                    -7.93573   0.60324  -2.00702 
 6                     1.61173  -5.01305   0.37871 
 6                     4.30875  -2.98275  -1.94157 
 6                     3.88464   0.06559  -1.30685 
 6                     2.63037   1.77547   2.89373 
 6                     3.65033   1.52954  -1.09446 
 6                    -9.14132   0.89105  -1.53233 
 6                     1.23463  -6.58126   0.1436 
 6                     4.60064   2.64879  -1.4446 
 6                     3.88857   3.76066  -1.06958 
 6                     2.65664   3.42959  -0.37707 
 6                     5.92343   2.38795  -2.06409 
 6                     4.23273   5.24309  -1.08192 
 6                     6.74818   3.31625  -2.63985 
 1                    -4.03186   2.14478  -0.00111 
 1                    -4.85791  -0.57682   1.37765 
 1                    -4.68004   0.90404   2.36189 
 1                    -2.99506  -1.62241  -0.01654 
 1                    -3.52023   0.33989  -1.58729 
 1                     0.52503   0.21363   3.69863 
 1                     1.28065  -0.3874    2.12097 
 1                    -0.63583  -2.91857   0.24542 
 1                    -3.24662   1.77228   3.69949 
 1                    -1.35465   1.73327   4.13296 
 1                    -2.10686   2.84456   2.77801 
 1                    -6.32278   2.64973   1.37454 
 1                    -7.50449   1.33263   1.51729 
 1                    -7.83157   2.56287   0.58587 
 1                     0.85105   2.3685    1.67211 
 1                     0.81372   2.30351   3.54822 
 1                     1.55796   0.30899  -0.19112 
 1                     2.04692  -4.84623  -1.59495 
 1                     0.37035  -4.49181  -1.32366 
 1                    -7.92012   0.12498  -2.93886 
 1                     0.94815  -4.69224   1.231 
 1                     2.72733  -5.10187   0.81428 
 1                     3.82776  -4.0084   -2.26341 
 1                     5.09747  -3.31059  -1.08388 
 1                     4.97593  -2.40219  -2.60993 
 1                     4.63948  -0.31767  -1.91086 
 1                    -9.35719   1.45671  -0.45639 
 1                    -9.90147   0.9456   -2.34131 
 1                     3.96529   3.19227   3.15555 
 1                     6.1912    1.34423  -2.09078 
 1                     5.2402    5.45368  -0.47694 
 1                     4.54329   5.81004  -2.12415 
 1                     3.58419   5.69675  -0.40856 
 1                     0.90688  -8.19035   1.06515 
 1                     7.63344   3.02568  -3.00339 
 1                     6.41083   4.42256  -2.74251 
 
 Stoichiometry    C33H36N4O6
 Framework group  C1[X(C33H36N4O6)]
 Deg. of freedom   231
 Full point group                 C1      NOp   1
 Largest Abelian subgroup         C1      NOp   1
 Largest concise Abelian subgroup C1      NOp   1
                         Standard orientation:                         
 ---------------------------------------------------------------------
 Center     Atomic      Atomic             Coordinates (Angstroms)
 Number     Number       Type             X           Y           Z
 ---------------------------------------------------------------------
      1          8           0        5.284291    0.262695   -3.239952
      2          8           0       -3.061631   -3.100097    2.837409
      3          8           0       -3.387629   -0.896720    3.171985
      4          8           0       -1.099192    7.307124    1.664737
      5          8           0       -0.641977    7.143092   -0.582559
      6          8           0       -1.913861   -3.968228    0.093844
      7          7           0        2.432698    0.793492    0.730911
      8          7           0        4.322603   -0.370228   -1.189504
      9          7           0       -1.738849    0.736264   -0.319400
     10          7           0       -2.529968   -1.875930   -0.730433
     11          6           0        4.658037   -1.269992   -0.034097
     12          6           0        4.346554   -0.647976    1.255187
     13          6           0        2.926204   -0.269212    1.508152
     14          6           0        1.907426   -0.890512    2.193130
     15          6           0        0.694645   -0.170659    1.893592
     16          6           0        1.065033    0.897645    0.933979
     17          6           0        6.139783   -1.469564   -0.349653
     18          6           0       -0.637186   -0.443047    2.480724
     19          6           0        6.541014   -0.828658   -1.460943
     20          6           0        0.215306    1.910441    0.376912
     21          6           0       -0.995695    1.863340   -0.202672
     22          6           0        5.393165   -0.196839   -2.147046
     23          6           0       -1.839048    2.962857   -0.725426
     24          6           0        2.069443   -2.046764    3.154590
     25          6           0        6.977115   -2.259472    0.748225
     26          6           0       -3.000232    2.498572   -1.253088
     27          6           0       -1.300695   -1.858168    2.480235
     28          6           0       -2.999052    1.031872   -0.893743
     29          6           0       -1.300845    4.359633   -0.775145
     30          6           0        7.910463   -0.734427   -2.061977
     31          6           0       -1.464775    5.035242    0.622100
     32          6           0       -4.223998    3.198617   -1.784823
     33          6           0       -3.887922    0.112149   -1.299180
     34          6           0       -2.676676   -1.834333    2.810047
     35          6           0       -3.696065   -1.366544   -1.158378
     36          6           0        9.107976   -1.079747   -1.605545
     37          6           0       -1.042480    6.601354    0.461690
     38          6           0       -4.679254   -2.439484   -1.559071
     39          6           0       -3.999277   -3.588391   -1.240363
     40          6           0       -2.756987   -3.327105   -0.536605
     41          6           0       -5.994957   -2.110693   -2.161058
     42          6           0       -4.386580   -5.057867   -1.323084
     43          6           0       -6.847475   -2.985731   -2.778292
     44          1           0        3.966812   -2.256908   -0.120355
     45          1           0        4.874383    0.369762    1.385413
     46          1           0        4.655111   -1.151110    2.297658
     47          1           0        3.040382    1.535171    0.049184
     48          1           0        3.505283   -0.363413   -1.616022
     49          1           0       -0.525222   -0.375053    3.682645
     50          1           0       -1.265770    0.323183    2.138207
     51          1           0        0.720458    2.885195    0.380827
     52          1           0        3.199326   -2.040896    3.596373
     53          1           0        1.310061   -1.967891    4.037223
     54          1           0        2.027121   -3.033838    2.627874
     55          1           0        6.244443   -2.894090    1.222063
     56          1           0        7.464347   -1.620327    1.424409
     57          1           0        7.753733   -2.813136    0.433712
     58          1           0       -0.917579   -2.419148    1.555610
     59          1           0       -0.875059   -2.445950    3.432549
     60          1           0       -1.567370   -0.252383   -0.203885
     61          1           0       -1.908139    4.976651   -1.355926
     62          1           0       -0.242147    4.560959   -1.107361
     63          1           0        7.907176   -0.211472   -2.969617
     64          1           0       -0.809335    4.654491    1.455814
     65          1           0       -2.576536    5.135309    1.064980
     66          1           0       -3.713848    4.224200   -2.058351
     67          1           0       -5.001301    3.507444   -0.909821
     68          1           0       -4.909020    2.670657   -2.478277
     69          1           0       -4.632324    0.545912   -1.881609
     70          1           0        9.309145   -1.702746   -0.558826
     71          1           0        9.864779   -1.117232   -2.418625
     72          1           0       -4.051913   -3.222730    3.007482
     73          1           0       -6.232203   -1.059553   -2.136535
     74          1           0       -5.398703   -5.268053   -0.725765
     75          1           0       -4.715394   -5.564553   -2.390455
     76          1           0       -3.750366   -5.562176   -0.674448
     77          1           0       -0.666277    8.153849    1.458716
     78          1           0       -7.724509   -2.652335   -3.124585
     79          1           0       -6.542738   -4.095131   -2.935250
 ---------------------------------------------------------------------
 Rotational constants (GHZ):           0.0733156           0.0458050           0.0349826
 Standard basis: SVP (5D, 7F)
 There are   825 symmetry adapted cartesian basis functions of A   symmetry.
 There are   782 symmetry adapted basis functions of A   symmetry.
   782 basis functions,  1327 primitive gaussians,   825 cartesian basis functions
   155 alpha electrons      155 beta electrons
       nuclear repulsion energy      4924.8329776451 Hartrees.
 NAtoms=   79 NActive=   79 NUniq=   79 SFac= 1.00D+00 NAtFMM=   60 NAOKFM=T Big=T
 Integral buffers will be    131072 words long.
 Regular integral format.
 Two-electron integral symmetry is turned on.
 One-electron integrals computed using PRISM.
 NBasis=   782 RedAO= T EigKep=  4.00D-04  NBF=   782
 NBsUse=   782 1.00D-06 EigRej= -1.00D+00 NBFU=   782
 ExpMin= 1.22D-01 ExpMax= 2.27D+03 ExpMxC= 3.41D+02 IAcc=3 IRadAn=         5 AccDes= 0.00D+00
 Harris functional with IExCor=  402 and IRadAn=       5 diagonalized for initial guess.
 HarFok:  IExCor=  402 AccDes= 0.00D+00 IRadAn=         5 IDoV= 1 UseB2=F ITyADJ=14
 ICtDFT=  3500011 ScaDFX=  1.000000  1.000000  1.000000  1.000000
 FoFCou: FMM=F IPFlag=           0 FMFlag=      100000 FMFlg1=        2001
         NFxFlg=           0 DoJE=T BraDBF=F KetDBF=T FulRan=T
         wScrn=  0.000000 ICntrl=       500 IOpCl=  0 I1Cent=   200000004 NGrid=           0
         NMat0=    1 NMatS0=      1 NMatT0=    0 NMatD0=    1 NMtDS0=    0 NMtDT0=    0
 Petite list used in FoFCou.
 Requested convergence on RMS density matrix=1.00D-08 within 128 cycles.
 Requested convergence on MAX density matrix=1.00D-06.
 Requested convergence on             energy=1.00D-06.
 No special actions if energy rises.
 Integral accuracy reduced to 1.0D-05 until final iterations.
 Initial convergence to 1.0D-05 achieved.  Increase integral accuracy.
 SCF Done:  E(RB3LYP) =  -1947.86303237     A.U. after   16 cycles
            NFock= 16  Conv=0.50D-08     -V/T= 2.0111
 DoSCS=F DFT=T ScalE2(SS,OS)=  1.000000  1.000000
 ExpMin= 1.22D-01 ExpMax= 2.27D+03 ExpMxC= 3.41D+02 IAcc=3 IRadAn=         5 AccDes= 0.00D+00
 HarFok:  IExCor=  205 AccDes= 0.00D+00 IRadAn=         5 IDoV=-2 UseB2=F ITyADJ=14
 ICtDFT= 12500011 ScaDFX=  1.000000  1.000000  1.000000  1.000000
 GSVD:  LWork=       -2193 too small for GESVD, short by        9890 words or        9890 for optimal perf.
 Range of M.O.s used for correlation:    44   782
 NBasis=   782 NAE=   155 NBE=   155 NFC=    43 NFV=     0
 NROrb=    739 NOA=   112 NOB=   112 NVA=   627 NVB=   627

 **** Warning!!: The smallest alpha delta epsilon is  0.68848407D-01

 Orbital symmetries:
       Occupied  (A) (A) (A) (A) (A) (A) (A) (A) (A) (A) (A) (A)
                 (A) (A) (A) (A) (A) (A) (A) (A) (A) (A) (A) (A)
                 (A) (A) (A) (A) (A) (A) (A) (A) (A) (A) (A) (A)
                 (A) (A) (A) (A) (A) (A) (A) (A) (A) (A) (A) (A)
                 (A) (A) (A) (A) (A) (A) (A) (A) (A) (A) (A) (A)
                 (A) (A) (A) (A) (A) (A) (A) (A) (A) (A) (A) (A)
                 (A) (A) (A) (A) (A) (A) (A) (A) (A) (A) (A) (A)
                 (A) (A) (A) (A) (A) (A) (A) (A) (A) (A) (A) (A)
                 (A) (A) (A) (A) (A) (A) (A) (A) (A) (A) (A) (A)
                 (A) (A) (A) (A) (A) (A) (A) (A) (A) (A) (A) (A)
                 (A) (A) (A) (A) (A) (A) (A) (A) (A) (A) (A) (A)
                 (A) (A) (A) (A) (A) (A) (A) (A) (A) (A) (A) (A)
                 (A) (A) (A) (A) (A) (A) (A) (A) (A) (A) (A)
       Virtual   (A) (A) (A) (A) (A) (A) (A) (A) (A) (A) (A) (A)
                 (A) (A) (A) (A) (A) (A) (A) (A) (A) (A) (A) (A)
                 (A) (A) (A) (A) (A) (A) (A) (A) (A) (A) (A) (A)
                 (A) (A) (A) (A) (A) (A) (A) (A) (A) (A) (A) (A)
                 (A) (A) (A) (A) (A) (A) (A) (A) (A) (A) (A) (A)
                 (A) (A) (A) (A) (A) (A) (A) (A) (A) (A) (A) (A)
                 (A) (A) (A) (A) (A) (A) (A) (A) (A) (A) (A) (A)
                 (A) (A) (A) (A) (A) (A) (A) (A) (A) (A) (A) (A)
                 (A) (A) (A) (A) (A) (A) (A) (A) (A) (A) (A) (A)
                 (A) (A) (A) (A) (A) (A) (A) (A) (A) (A) (A) (A)
                 (A) (A) (A) (A) (A) (A) (A) (A) (A) (A) (A) (A)
                 (A) (A) (A) (A) (A) (A) (A) (A) (A) (A) (A) (A)
                 (A) (A) (A) (A) (A) (A) (A) (A) (A) (A) (A) (A)
                 (A) (A) (A) (A) (A) (A) (A) (A) (A) (A) (A) (A)
                 (A) (A) (A) (A) (A) (A) (A) (A) (A) (A) (A) (A)
                 (A) (A) (A) (A) (A) (A) (A) (A) (A) (A) (A) (A)
                 (A) (A) (A) (A) (A) (A) (A) (A) (A) (A) (A) (A)
                 (A) (A) (A) (A) (A) (A) (A) (A) (A) (A) (A) (A)
                 (A) (A) (A) (A) (A) (A) (A) (A) (A) (A) (A) (A)
                 (A) (A) (A) (A) (A) (A) (A) (A) (A) (A) (A) (A)
                 (A) (A) (A) (A) (A) (A) (A) (A) (A) (A) (A) (A)
                 (A) (A) (A) (A) (A) (A) (A) (A) (A) (A) (A) (A)
                 (A) (A) (A) (A) (A) (A) (A) (A) (A) (A) (A) (A)
                 (A) (A) (A) (A) (A) (A) (A) (A) (A) (A) (A) (A)
                 (A) (A) (A) (A) (A) (A) (A) (A) (A) (A) (A) (A)
                 (A) (A) (A) (A) (A) (A) (A) (A) (A) (A) (A) (A)
                 (A) (A) (A) (A) (A) (A) (A) (A) (A) (A) (A) (A)
                 (A) (A) (A) (A) (A) (A) (A) (A) (A) (A) (A) (A)
                 (A) (A) (A) (A) (A) (A) (A) (A) (A) (A) (A) (A)
                 (A) (A) (A) (A) (A) (A) (A) (A) (A) (A) (A) (A)
                 (A) (A) (A) (A) (A) (A) (A) (A) (A) (A) (A) (A)
                 (A) (A) (A) (A) (A) (A) (A) (A) (A) (A) (A) (A)
                 (A) (A) (A) (A) (A) (A) (A) (A) (A) (A) (A) (A)
                 (A) (A) (A) (A) (A) (A) (A) (A) (A) (A) (A) (A)
                 (A) (A) (A) (A) (A) (A) (A) (A) (A) (A) (A) (A)
                 (A) (A) (A) (A) (A) (A) (A) (A) (A) (A) (A) (A)
                 (A) (A) (A) (A) (A) (A) (A) (A) (A) (A) (A) (A)
                 (A) (A) (A) (A) (A) (A) (A) (A) (A) (A) (A) (A)
                 (A) (A) (A) (A) (A) (A) (A) (A) (A) (A) (A) (A)
                 (A) (A) (A) (A) (A) (A) (A) (A) (A) (A) (A) (A)
                 (A) (A) (A) (A) (A) (A) (A) (A) (A) (A) (A) (A)
                 (A) (A) (A) (A) (A) (A) (A) (A) (A) (A) (A) (A)
                 (A) (A) (A) (A) (A) (A) (A) (A) (A) (A) (A) (A)
                 (A) (A) (A) (A) (A) (A) (A) (A) (A) (A) (A) (A)
                 (A) (A) (A) (A) (A) (A) (A) (A) (A) (A) (A) (A)
                 (A) (A) (A) (A) (A) (A) (A) (A) (A) (A) (A) (A)
                 (A) (A) (A) (A) (A) (A) (A) (A) (A) (A) (A) (A)
                 (A) (A) (A) (A) (A) (A) (A) (A) (A) (A) (A) (A)
                 (A) (A) (A) (A) (A) (A) (A) (A) (A) (A) (A) (A)
                 (A) (A) (A) (A) (A) (A) (A) (A) (A) (A) (A) (A)
                 (A) (A) (A) (A) (A) (A) (A) (A) (A) (A) (A) (A)
                 (A) (A) (A) (A) (A) (A) (A) (A) (A) (A) (A) (A)
                 (A) (A) (A)
     4 initial guesses have been made.
 Convergence on wavefunction:    0.001000000000000
 Iteration     1 Dimension     4 NMult     0 NNew      4
 CISAX will form     4 AO SS matrices at one time.
 Iteration     2 Dimension     6 NMult     4 NNew      2
 Iteration     3 Dimension     8 NMult     6 NNew      2
 Iteration     4 Dimension    10 NMult     8 NNew      2
 Iteration     5 Dimension    12 NMult    10 NNew      2
 Iteration     6 Dimension    14 NMult    12 NNew      2
 ***********************************************************************
 Excited states from <AA,BB:AA,BB> singles matrix:
 ***********************************************************************
 
 Ground to excited state transition densities written to RWF  633
 Ground to excited state transition electric dipole moments (Au):
       state          X           Y           Z        Dip. S.      Osc.
         1        -2.1169     -1.1790     -0.9189      6.7158      0.2784
 Ground to excited state transition velocity dipole moments (Au):
       state          X           Y           Z        Dip. S.      Osc.
         1         0.1278      0.0651      0.0540      0.0235      0.2518
 Ground to excited state transition magnetic dipole moments (Au):
       state          X           Y           Z
         1         0.5381      0.0242     -1.0704
 Ground to excited state transition velocity quadrupole moments (Au):
       state          XX          YY          ZZ          XY          XZ          YZ
         1        -0.4520     -0.3194      0.0536     -0.5875     -0.2931     -0.2164
 <0|del|b> * <b|rxdel|0> + <0|del|b> * <b|delr+rdel|0>
 Rotatory Strengths (R) in cgs (10**-40 erg-esu-cm/Gauss)
       state          XX          YY          ZZ    R(velocity)    E-M Angle
         1      -391.9373     85.4297    448.8008     47.4311       86.09
 1/2[<0|r|b>*<b|rxdel|0> + (<0|rxdel|b>*<b|r|0>)*]
 Rotatory Strengths (R) in cgs (10**-40 erg-esu-cm/Gauss)
       state          XX          YY          ZZ     R(length)
         1       805.5861     20.1555   -695.5855     43.3854
  1/2[<0|del|b>*<b|r|0> + (<0|r|b>*<b|del|0>)*] (Au)
       state          X           Y           Z        Dip. S.   Osc.(frdel)
         1        -0.2705     -0.0767     -0.0496      0.3969      0.2646

 Excitation energies and oscillator strengths:
 
 Excited State   1:      Singlet-A      1.6920 eV  732.77 nm  f=0.2784  <S**2>=0.000
     155 ->156         0.70393
     155 <-156        -0.10562
 This state for optimization and/or second-order correction.
 Total Energy, E(TD-HF/TD-DFT) =  -1947.80085316    
 Copying the excited state density for this state as the 1-particle RhoCI density.
 SavETr:  write IOETrn=   770 NScale= 10 NData=  16 NLR=1 NState=    1 LETran=      28.

 **********************************************************************

            Population analysis using the SCF density.

 **********************************************************************

 Orbital symmetries:
       Occupied  (A) (A) (A) (A) (A) (A) (A) (A) (A) (A) (A) (A)
                 (A) (A) (A) (A) (A) (A) (A) (A) (A) (A) (A) (A)
                 (A) (A) (A) (A) (A) (A) (A) (A) (A) (A) (A) (A)
                 (A) (A) (A) (A) (A) (A) (A) (A) (A) (A) (A) (A)
                 (A) (A) (A) (A) (A) (A) (A) (A) (A) (A) (A) (A)
                 (A) (A) (A) (A) (A) (A) (A) (A) (A) (A) (A) (A)
                 (A) (A) (A) (A) (A) (A) (A) (A) (A) (A) (A) (A)
                 (A) (A) (A) (A) (A) (A) (A) (A) (A) (A) (A) (A)
                 (A) (A) (A) (A) (A) (A) (A) (A) (A) (A) (A) (A)
                 (A) (A) (A) (A) (A) (A) (A) (A) (A) (A) (A) (A)
                 (A) (A) (A) (A) (A) (A) (A) (A) (A) (A) (A) (A)
                 (A) (A) (A) (A) (A) (A) (A) (A) (A) (A) (A) (A)
                 (A) (A) (A) (A) (A) (A) (A) (A) (A) (A) (A)
       Virtual   (A) (A) (A) (A) (A) (A) (A) (A) (A) (A) (A) (A)
                 (A) (A) (A) (A) (A) (A) (A) (A) (A) (A) (A) (A)
                 (A) (A) (A) (A) (A) (A) (A) (A) (A) (A) (A) (A)
                 (A) (A) (A) (A) (A) (A) (A) (A) (A) (A) (A) (A)
                 (A) (A) (A) (A) (A) (A) (A) (A) (A) (A) (A) (A)
                 (A) (A) (A) (A) (A) (A) (A) (A) (A) (A) (A) (A)
                 (A) (A) (A) (A) (A) (A) (A) (A) (A) (A) (A) (A)
                 (A) (A) (A) (A) (A) (A) (A) (A) (A) (A) (A) (A)
                 (A) (A) (A) (A) (A) (A) (A) (A) (A) (A) (A) (A)
                 (A) (A) (A) (A) (A) (A) (A) (A) (A) (A) (A) (A)
                 (A) (A) (A) (A) (A) (A) (A) (A) (A) (A) (A) (A)
                 (A) (A) (A) (A) (A) (A) (A) (A) (A) (A) (A) (A)
                 (A) (A) (A) (A) (A) (A) (A) (A) (A) (A) (A) (A)
                 (A) (A) (A) (A) (A) (A) (A) (A) (A) (A) (A) (A)
                 (A) (A) (A) (A) (A) (A) (A) (A) (A) (A) (A) (A)
                 (A) (A) (A) (A) (A) (A) (A) (A) (A) (A) (A) (A)
                 (A) (A) (A) (A) (A) (A) (A) (A) (A) (A) (A) (A)
                 (A) (A) (A) (A) (A) (A) (A) (A) (A) (A) (A) (A)
                 (A) (A) (A) (A) (A) (A) (A) (A) (A) (A) (A) (A)
                 (A) (A) (A) (A) (A) (A) (A) (A) (A) (A) (A) (A)
                 (A) (A) (A) (A) (A) (A) (A) (A) (A) (A) (A) (A)
                 (A) (A) (A) (A) (A) (A) (A) (A) (A) (A) (A) (A)
                 (A) (A) (A) (A) (A) (A) (A) (A) (A) (A) (A) (A)
                 (A) (A) (A) (A) (A) (A) (A) (A) (A) (A) (A) (A)
                 (A) (A) (A) (A) (A) (A) (A) (A) (A) (A) (A) (A)
                 (A) (A) (A) (A) (A) (A) (A) (A) (A) (A) (A) (A)
                 (A) (A) (A) (A) (A) (A) (A) (A) (A) (A) (A) (A)
                 (A) (A) (A) (A) (A) (A) (A) (A) (A) (A) (A) (A)
                 (A) (A) (A) (A) (A) (A) (A) (A) (A) (A) (A) (A)
                 (A) (A) (A) (A) (A) (A) (A) (A) (A) (A) (A) (A)
                 (A) (A) (A) (A) (A) (A) (A) (A) (A) (A) (A) (A)
                 (A) (A) (A) (A) (A) (A) (A) (A) (A) (A) (A) (A)
                 (A) (A) (A) (A) (A) (A) (A) (A) (A) (A) (A) (A)
                 (A) (A) (A) (A) (A) (A) (A) (A) (A) (A) (A) (A)
                 (A) (A) (A) (A) (A) (A) (A) (A) (A) (A) (A) (A)
                 (A) (A) (A) (A) (A) (A) (A) (A) (A) (A) (A) (A)
                 (A) (A) (A) (A) (A) (A) (A) (A) (A) (A) (A) (A)
                 (A) (A) (A) (A) (A) (A) (A) (A) (A) (A) (A) (A)
                 (A) (A) (A) (A) (A) (A) (A) (A) (A) (A) (A) (A)
                 (A) (A) (A) (A) (A) (A) (A) (A) (A) (A) (A) (A)
                 (A) (A) (A) (A) (A) (A) (A) (A) (A) (A) (A) (A)
                 (A) (A) (A) (A) (A) (A) (A) (A) (A) (A) (A) (A)
                 (A) (A) (A) (A) (A) (A) (A) (A) (A) (A) (A) (A)
                 (A) (A) (A) (A) (A) (A) (A) (A) (A) (A) (A) (A)
                 (A) (A) (A) (A) (A) (A) (A) (A) (A) (A) (A) (A)
                 (A) (A) (A) (A) (A) (A) (A) (A) (A) (A) (A) (A)
                 (A) (A) (A) (A) (A) (A) (A) (A) (A) (A) (A) (A)
                 (A) (A) (A) (A) (A) (A) (A) (A) (A) (A) (A) (A)
                 (A) (A) (A) (A) (A) (A) (A) (A) (A) (A) (A) (A)
                 (A) (A) (A) (A) (A) (A) (A) (A) (A) (A) (A) (A)
                 (A) (A) (A) (A) (A) (A) (A) (A) (A) (A) (A) (A)
                 (A) (A) (A) (A) (A) (A) (A) (A) (A) (A) (A) (A)
                 (A) (A) (A)
 The electronic state is 1-A.
 Alpha  occ. eigenvalues --  -19.18829 -19.16568 -19.14138 -19.12457 -19.11771
 Alpha  occ. eigenvalues --  -19.10438 -14.38478 -14.35466 -14.33819 -14.29505
 Alpha  occ. eigenvalues --  -10.33550 -10.29935 -10.29125 -10.27887 -10.26171
 Alpha  occ. eigenvalues --  -10.24345 -10.23963 -10.23677 -10.23624 -10.22920
 Alpha  occ. eigenvalues --  -10.22650 -10.22617 -10.22019 -10.21916 -10.21813
 Alpha  occ. eigenvalues --  -10.21726 -10.21534 -10.21430 -10.21105 -10.20973
 Alpha  occ. eigenvalues --  -10.20936 -10.20758 -10.20717 -10.20611 -10.20527
 Alpha  occ. eigenvalues --  -10.20290 -10.19986 -10.19851 -10.19059 -10.18879
 Alpha  occ. eigenvalues --  -10.18874 -10.18505 -10.18429  -1.08548  -1.07914
 Alpha  occ. eigenvalues --   -1.04596  -1.01989  -1.00004  -0.97800  -0.97331
 Alpha  occ. eigenvalues --   -0.95970  -0.93435  -0.91373  -0.82687  -0.81881
 Alpha  occ. eigenvalues --   -0.81538  -0.80188  -0.79962  -0.79627  -0.77171
 Alpha  occ. eigenvalues --   -0.77159  -0.76274  -0.75812  -0.74766  -0.72698
 Alpha  occ. eigenvalues --   -0.71756  -0.70498  -0.69904  -0.68222  -0.67550
 Alpha  occ. eigenvalues --   -0.66519  -0.65609  -0.64083  -0.60633  -0.59967
 Alpha  occ. eigenvalues --   -0.59593  -0.58953  -0.58679  -0.57836  -0.56640
 Alpha  occ. eigenvalues --   -0.55998  -0.55021  -0.54158  -0.53440  -0.52964
 Alpha  occ. eigenvalues --   -0.51495  -0.51148  -0.50309  -0.49446  -0.48992
 Alpha  occ. eigenvalues --   -0.48677  -0.48435  -0.48117  -0.47936  -0.47651
 Alpha  occ. eigenvalues --   -0.47129  -0.46636  -0.46299  -0.45908  -0.45486
 Alpha  occ. eigenvalues --   -0.45253  -0.44354  -0.44106  -0.43853  -0.43704
 Alpha  occ. eigenvalues --   -0.43665  -0.43354  -0.42889  -0.42387  -0.42143
 Alpha  occ. eigenvalues --   -0.41967  -0.41907  -0.41737  -0.41062  -0.40863
 Alpha  occ. eigenvalues --   -0.40606  -0.40469  -0.40294  -0.39836  -0.39668
 Alpha  occ. eigenvalues --   -0.39345  -0.39029  -0.38895  -0.38184  -0.37951
 Alpha  occ. eigenvalues --   -0.37588  -0.37546  -0.37441  -0.36506  -0.36206
 Alpha  occ. eigenvalues --   -0.36086  -0.35869  -0.35745  -0.34854  -0.34721
 Alpha  occ. eigenvalues --   -0.34598  -0.32961  -0.32817  -0.32265  -0.31436
 Alpha  occ. eigenvalues --   -0.31145  -0.30262  -0.28957  -0.28720  -0.28249
 Alpha  occ. eigenvalues --   -0.27392  -0.26480  -0.26281  -0.26040  -0.25070
 Alpha  occ. eigenvalues --   -0.24996  -0.24008  -0.23232  -0.22280  -0.18289
 Alpha virt. eigenvalues --   -0.11404  -0.06532  -0.06208  -0.01527  -0.01457
 Alpha virt. eigenvalues --    0.00643   0.00924   0.01156   0.02500   0.02843
 Alpha virt. eigenvalues --    0.03150   0.03896   0.04154   0.04661   0.04897
 Alpha virt. eigenvalues --    0.05192   0.05466   0.06138   0.06360   0.06580
 Alpha virt. eigenvalues --    0.07319   0.07560   0.07654   0.08161   0.08754
 Alpha virt. eigenvalues --    0.09038   0.09379   0.10000   0.10146   0.10588
 Alpha virt. eigenvalues --    0.11170   0.11719   0.12148   0.12491   0.12561
 Alpha virt. eigenvalues --    0.12781   0.13130   0.13340   0.13792   0.14419
 Alpha virt. eigenvalues --    0.14437   0.14858   0.15135   0.15463   0.15549
 Alpha virt. eigenvalues --    0.16078   0.16290   0.16767   0.17518   0.17592
 Alpha virt. eigenvalues --    0.18055   0.18260   0.19004   0.19340   0.20090
 Alpha virt. eigenvalues --    0.20504   0.21098   0.21417   0.22035   0.22807
 Alpha virt. eigenvalues --    0.23169   0.23378   0.23642   0.23867   0.24548
 Alpha virt. eigenvalues --    0.25159   0.25344   0.25660   0.26239   0.26425
 Alpha virt. eigenvalues --    0.26977   0.27182   0.27574   0.28249   0.28868
 Alpha virt. eigenvalues --    0.29362   0.29690   0.29851   0.30504   0.31164
 Alpha virt. eigenvalues --    0.31673   0.32314   0.32726   0.33069   0.34156
 Alpha virt. eigenvalues --    0.34455   0.34975   0.35487   0.35840   0.36113
 Alpha virt. eigenvalues --    0.36761   0.37257   0.37457   0.38406   0.38752
 Alpha virt. eigenvalues --    0.39150   0.39596   0.40188   0.40638   0.41191
 Alpha virt. eigenvalues --    0.41396   0.41786   0.42239   0.42461   0.42825
 Alpha virt. eigenvalues --    0.43696   0.43814   0.44131   0.44599   0.44861
 Alpha virt. eigenvalues --    0.45316   0.45650   0.45769   0.46188   0.46760
 Alpha virt. eigenvalues --    0.47144   0.47238   0.47601   0.47834   0.48205
 Alpha virt. eigenvalues --    0.48516   0.48675   0.49007   0.49247   0.49844
 Alpha virt. eigenvalues --    0.50220   0.50264   0.50672   0.51256   0.51330
 Alpha virt. eigenvalues --    0.51668   0.52083   0.52567   0.53287   0.53517
 Alpha virt. eigenvalues --    0.53669   0.54129   0.54529   0.54680   0.54719
 Alpha virt. eigenvalues --    0.55217   0.55803   0.56049   0.56883   0.57353
 Alpha virt. eigenvalues --    0.57734   0.57844   0.58464   0.58626   0.58783
 Alpha virt. eigenvalues --    0.59013   0.59313   0.59596   0.59708   0.60251
 Alpha virt. eigenvalues --    0.60530   0.60637   0.61004   0.61412   0.61598
 Alpha virt. eigenvalues --    0.61829   0.62130   0.62236   0.62370   0.62711
 Alpha virt. eigenvalues --    0.63023   0.63270   0.63629   0.63876   0.64045
 Alpha virt. eigenvalues --    0.64606   0.65108   0.65208   0.65304   0.65462
 Alpha virt. eigenvalues --    0.65928   0.66063   0.66494   0.66808   0.66885
 Alpha virt. eigenvalues --    0.67075   0.67265   0.67635   0.68049   0.68309
 Alpha virt. eigenvalues --    0.68556   0.68696   0.69140   0.69292   0.69630
 Alpha virt. eigenvalues --    0.69768   0.69976   0.70600   0.70690   0.70834
 Alpha virt. eigenvalues --    0.70972   0.71487   0.71586   0.71934   0.72181
 Alpha virt. eigenvalues --    0.72332   0.72984   0.73147   0.73606   0.73982
 Alpha virt. eigenvalues --    0.74620   0.75247   0.75535   0.76040   0.76675
 Alpha virt. eigenvalues --    0.77283   0.77504   0.77794   0.78092   0.79000
 Alpha virt. eigenvalues --    0.79082   0.79446   0.80065   0.80475   0.80758
 Alpha virt. eigenvalues --    0.81186   0.81878   0.82539   0.82921   0.83281
 Alpha virt. eigenvalues --    0.83820   0.83899   0.84229   0.84972   0.85490
 Alpha virt. eigenvalues --    0.86862   0.87338   0.88041   0.88568   0.90007
 Alpha virt. eigenvalues --    0.90641   0.91179   0.91878   0.92496   0.93983
 Alpha virt. eigenvalues --    0.94618   0.94863   0.95309   0.95607   0.95831
 Alpha virt. eigenvalues --    0.96285   0.96355   0.97005   0.97654   0.98081
 Alpha virt. eigenvalues --    0.98599   0.98936   0.99481   1.00740   1.01059
 Alpha virt. eigenvalues --    1.02096   1.02531   1.03583   1.04624   1.05329
 Alpha virt. eigenvalues --    1.05453   1.06118   1.06466   1.07142   1.08152
 Alpha virt. eigenvalues --    1.08697   1.09633   1.10379   1.10768   1.11990
 Alpha virt. eigenvalues --    1.12129   1.13088   1.13689   1.14225   1.15445
 Alpha virt. eigenvalues --    1.15722   1.16417   1.16993   1.18116   1.19009
 Alpha virt. eigenvalues --    1.19461   1.19912   1.20512   1.20978   1.21490
 Alpha virt. eigenvalues --    1.22252   1.23228   1.24148   1.24424   1.24988
 Alpha virt. eigenvalues --    1.25259   1.26226   1.26813   1.27034   1.27325
 Alpha virt. eigenvalues --    1.28087   1.28297   1.28582   1.29274   1.30085
 Alpha virt. eigenvalues --    1.30736   1.31482   1.31690   1.32326   1.32895
 Alpha virt. eigenvalues --    1.33304   1.34439   1.35243   1.36059   1.36327
 Alpha virt. eigenvalues --    1.37228   1.38053   1.39070   1.40558   1.40890
 Alpha virt. eigenvalues --    1.42029   1.42263   1.43437   1.44248   1.44985
 Alpha virt. eigenvalues --    1.45770   1.46445   1.46633   1.47423   1.47678
 Alpha virt. eigenvalues --    1.48315   1.48660   1.49305   1.49540   1.50107
 Alpha virt. eigenvalues --    1.50391   1.50796   1.51687   1.51801   1.52141
 Alpha virt. eigenvalues --    1.52809   1.53772   1.54368   1.54840   1.55415
 Alpha virt. eigenvalues --    1.55644   1.55903   1.56272   1.57476   1.58298
 Alpha virt. eigenvalues --    1.58643   1.59322   1.60019   1.60597   1.61549
 Alpha virt. eigenvalues --    1.62085   1.62491   1.63060   1.63876   1.64761
 Alpha virt. eigenvalues --    1.65159   1.65357   1.65529   1.65839   1.66566
 Alpha virt. eigenvalues --    1.66925   1.67330   1.67926   1.68294   1.68639
 Alpha virt. eigenvalues --    1.68990   1.69440   1.69988   1.70405   1.70747
 Alpha virt. eigenvalues --    1.70920   1.71108   1.71749   1.72105   1.72167
 Alpha virt. eigenvalues --    1.72995   1.73136   1.73541   1.74082   1.74658
 Alpha virt. eigenvalues --    1.74851   1.74906   1.75243   1.75605   1.76007
 Alpha virt. eigenvalues --    1.76384   1.76751   1.77579   1.78080   1.78265
 Alpha virt. eigenvalues --    1.78665   1.79226   1.79459   1.79675   1.79975
 Alpha virt. eigenvalues --    1.80411   1.81490   1.81855   1.81907   1.82416
 Alpha virt. eigenvalues --    1.83130   1.83530   1.84079   1.84335   1.85024
 Alpha virt. eigenvalues --    1.85322   1.85374   1.86200   1.86850   1.87033
 Alpha virt. eigenvalues --    1.88101   1.88187   1.88840   1.89016   1.89624
 Alpha virt. eigenvalues --    1.90076   1.90390   1.90972   1.91218   1.91782
 Alpha virt. eigenvalues --    1.92425   1.93052   1.93284   1.94275   1.94350
 Alpha virt. eigenvalues --    1.95118   1.95868   1.96288   1.96654   1.97494
 Alpha virt. eigenvalues --    1.97777   1.97921   1.98385   1.98870   1.99175
 Alpha virt. eigenvalues --    2.00071   2.00168   2.00347   2.01715   2.02053
 Alpha virt. eigenvalues --    2.02417   2.03178   2.03271   2.04172   2.04860
 Alpha virt. eigenvalues --    2.05251   2.05336   2.06023   2.06760   2.07230
 Alpha virt. eigenvalues --    2.07461   2.08274   2.08758   2.09423   2.09857
 Alpha virt. eigenvalues --    2.10243   2.10700   2.11408   2.11840   2.12286
 Alpha virt. eigenvalues --    2.13174   2.13984   2.14552   2.14674   2.15531
 Alpha virt. eigenvalues --    2.15856   2.16341   2.16731   2.18066   2.18468
 Alpha virt. eigenvalues --    2.18687   2.19068   2.19570   2.20276   2.22027
 Alpha virt. eigenvalues --    2.22710   2.23013   2.23617   2.24701   2.24940
 Alpha virt. eigenvalues --    2.25130   2.25612   2.26445   2.27154   2.27763
 Alpha virt. eigenvalues --    2.29495   2.30008   2.30649   2.31092   2.31648
 Alpha virt. eigenvalues --    2.32419   2.32536   2.33307   2.33674   2.34194
 Alpha virt. eigenvalues --    2.35352   2.35637   2.36309   2.36543   2.37379
 Alpha virt. eigenvalues --    2.37778   2.38282   2.38848   2.40250   2.40961
 Alpha virt. eigenvalues --    2.41369   2.41726   2.42210   2.43107   2.43615
 Alpha virt. eigenvalues --    2.44498   2.44959   2.45387   2.46795   2.47523
 Alpha virt. eigenvalues --    2.48547   2.49159   2.49879   2.50808   2.51915
 Alpha virt. eigenvalues --    2.52068   2.52708   2.53124   2.55104   2.56519
 Alpha virt. eigenvalues --    2.56680   2.58282   2.58712   2.59487   2.59889
 Alpha virt. eigenvalues --    2.60261   2.61260   2.62562   2.62775   2.63519
 Alpha virt. eigenvalues --    2.64041   2.64640   2.65892   2.66399   2.67202
 Alpha virt. eigenvalues --    2.67456   2.68117   2.68624   2.69140   2.70342
 Alpha virt. eigenvalues --    2.70936   2.71189   2.71407   2.72322   2.72852
 Alpha virt. eigenvalues --    2.73514   2.74228   2.74548   2.74926   2.76044
 Alpha virt. eigenvalues --    2.76868   2.78637   2.80057   2.80893   2.81632
 Alpha virt. eigenvalues --    2.81727   2.82372   2.83210   2.83420   2.83801
 Alpha virt. eigenvalues --    2.84135   2.84847   2.85102   2.86009   2.86330
 Alpha virt. eigenvalues --    2.87424   2.88668   2.89081   2.89568   2.89910
 Alpha virt. eigenvalues --    2.90134   2.91141   2.91350   2.91861   2.92477
 Alpha virt. eigenvalues --    2.92853   2.96029   2.97510   2.98083   2.98764
 Alpha virt. eigenvalues --    2.99497   2.99846   3.00294   3.00698   3.03661
 Alpha virt. eigenvalues --    3.04113   3.04561   3.06640   3.08568   3.09166
 Alpha virt. eigenvalues --    3.10915   3.12159   3.12421   3.13143   3.13720
 Alpha virt. eigenvalues --    3.15079   3.16366   3.16792   3.18352   3.20789
 Alpha virt. eigenvalues --    3.21301   3.21461   3.24519   3.26995   3.28546
 Alpha virt. eigenvalues --    3.28978   3.34129   3.37039   3.37373   3.42014
 Alpha virt. eigenvalues --    3.45481   3.46546   3.50503   3.54813   3.55746
 Alpha virt. eigenvalues --    3.56252   3.64568   3.64765   3.66339   3.68135
 Alpha virt. eigenvalues --    3.73522   3.77493
          Condensed to atoms (all electrons):
 Mulliken charges:
               1
     1  O   -0.175386
     2  O   -0.192584
     3  O   -0.251141
     4  O   -0.208305
     5  O   -0.254191
     6  O   -0.185595
     7  N   -0.169365
     8  N   -0.227677
     9  N   -0.083789
    10  N   -0.316040
    11  C    0.114864
    12  C    0.128403
    13  C   -0.094799
    14  C   -0.098546
    15  C   -0.085784
    16  C    0.072109
    17  C   -0.180138
    18  C    0.054730
    19  C   -0.044749
    20  C   -0.139762
    21  C    0.135320
    22  C    0.149660
    23  C   -0.053895
    24  C    0.026196
    25  C    0.165873
    26  C   -0.096520
    27  C   -0.056748
    28  C    0.079128
    29  C    0.137819
    30  C    0.024723
    31  C   -0.100345
    32  C    0.008554
    33  C   -0.037961
    34  C    0.143137
    35  C    0.070974
    36  C   -0.066340
    37  C    0.164034
    38  C    0.078639
    39  C   -0.213744
    40  C    0.195844
    41  C   -0.025848
    42  C    0.046012
    43  C    0.031819
    44  H    0.053489
    45  H   -0.001648
    46  H    0.023036
    47  H    0.189347
    48  H    0.078077
    49  H    0.013574
    50  H   -0.000998
    51  H   -0.023579
    52  H    0.017379
    53  H    0.042057
    54  H    0.038865
    55  H    0.012008
    56  H    0.020820
    57  H   -0.007297
    58  H    0.096963
    59  H    0.049935
    60  H    0.132990
    61  H   -0.016526
    62  H    0.043106
    63  H   -0.009450
    64  H    0.062570
    65  H    0.069534
    66  H    0.043652
    67  H    0.052064
    68  H    0.047486
    69  H   -0.069211
    70  H    0.039489
    71  H    0.038305
    72  H    0.193826
    73  H   -0.006495
    74  H    0.019979
    75  H    0.061084
    76  H    0.006745
    77  H    0.182150
    78  H   -0.005642
    79  H    0.043728
 Sum of Mulliken charges =  -0.00000
 Mulliken charges with hydrogens summed into heavy atoms:
               1
     1  O   -0.175386
     2  O    0.001241
     3  O   -0.251141
     4  O   -0.026154
     5  O   -0.254191
     6  O   -0.185595
     7  N    0.019982
     8  N   -0.149600
     9  N    0.049200
    10  N   -0.316040
    11  C    0.168354
    12  C    0.149791
    13  C   -0.094799
    14  C   -0.098546
    15  C   -0.085784
    16  C    0.072109
    17  C   -0.180138
    18  C    0.067306
    19  C   -0.044749
    20  C   -0.163342
    21  C    0.135320
    22  C    0.149660
    23  C   -0.053895
    24  C    0.124497
    25  C    0.191405
    26  C   -0.096520
    27  C    0.090150
    28  C    0.079128
    29  C    0.164398
    30  C    0.015274
    31  C    0.031759
    32  C    0.151757
    33  C   -0.107172
    34  C    0.143137
    35  C    0.070974
    36  C    0.011454
    37  C    0.164034
    38  C    0.078639
    39  C   -0.213744
    40  C    0.195844
    41  C   -0.032343
    42  C    0.133820
    43  C    0.069905
 Electronic spatial extent (au):  <R**2>=          31880.6017
 Charge=             -0.0000 electrons
 Dipole moment (field-independent basis, Debye):
    X=             -0.3560    Y=              0.0707    Z=              1.5466  Tot=              1.5887
 Quadrupole moment (field-independent basis, Debye-Ang):
   XX=           -212.8373   YY=           -243.3334   ZZ=           -266.2238
   XY=             -5.0935   XZ=             32.5404   YZ=              5.5176
 Traceless Quadrupole moment (field-independent basis, Debye-Ang):
   XX=             27.9608   YY=             -2.5352   ZZ=            -25.4256
   XY=             -5.0935   XZ=             32.5404   YZ=              5.5176
 Octapole moment (field-independent basis, Debye-Ang**2):
  XXX=            -69.7563  YYY=             80.8565  ZZZ=             50.1113  XYY=            -46.3227
  XXY=           -126.4872  XXZ=              0.5032  XZZ=            -52.8109  YZZ=            -42.7440
  YYZ=             81.4511  XYZ=              4.0970
 Hexadecapole moment (field-independent basis, Debye-Ang**3):
 XXXX=         -23033.0538 YYYY=         -12375.9168 ZZZZ=          -4979.9414 XXXY=           -233.3244
 XXXZ=            645.8219 YYYX=            275.9425 YYYZ=            737.4046 ZZZX=             94.5791
 ZZZY=            -97.6355 XXYY=          -5795.4817 XXZZ=          -5028.0989 YYZZ=          -2956.7564
 XXYZ=            -20.0964 YYXZ=             60.7659 ZZXY=            115.2975
 N-N= 4.924832977645D+03 E-N=-1.437817406321D+04  KE= 1.926502708732D+03
 1\1\GINC-PADAWAN\SP\RB3LYP TD-FC\SVP\C33H36N4O6\PADAWAN\21-Sep-2019\0\
 \# td=(NStates=1) B3LYP/SVP\\TD\\0,1\O,0,-5.2854347735,-0.2588404444,-
 3.236413431\O,0,2.9784578513,3.0491321679,2.9815042288\O,0,3.369425291
 1,0.842639663,3.2087027554\O,0,1.3156492044,-7.3422704971,1.3110596123
 \O,0,0.846729561,-7.0834747711,-0.9248804709\O,0,1.7972367718,4.014684
 5913,0.2850980172\N,0,-2.4070303141,-0.897048135,0.6991369303\N,0,-4.3
 360484862,0.3022678933,-1.1594943042\N,0,1.7577361652,-0.6675083238,-0
 .354553933\N,0,2.4712826702,1.9834440899,-0.6403507818\C,0,-4.69382577
 38,1.1350950065,0.0386096608\C,0,-4.3603034231,0.4609862639,1.29579693
 74\C,0,-2.9287479704,0.1120814648,1.5276647795\C,0,-1.9262917259,0.729
 097867,2.2400471743\C,0,-0.6940560159,0.0602305876,1.9039510727\C,0,-1
 .0362778156,-0.9709101499,0.8945212715\C,0,-6.1817405302,1.3063184211,
 -0.2643216476\C,0,0.6311517218,0.342744951,2.50119914\C,0,-6.567697284
 2,0.7083100794,-1.4045561843\C,0,-0.1592421803,-1.9304317801,0.2876908
 506\C,0,1.0480316994,-1.8201115578,-0.2910806903\C,0,-5.4041510154,0.1
 44082623,-2.1223995515\C,0,1.9213262178,-2.8680573441,-0.8678137907\C,
 0,-2.1187975807,1.8324189988,3.2565100412\C,0,-7.0381913123,2.01758988
 82,0.871901176\C,0,3.066843018,-2.3451744686,-1.374488694\C,0,1.253241
 3514,1.775005994,2.5678804239\C,0,3.0241704923,-0.8981684424,-0.944728
 461\C,0,1.4237961498,-4.2759235568,-0.9839801149\C,0,-7.9357294789,0.6
 032419618,-2.0070190897\C,0,1.6117287385,-5.0130522398,0.3787138669\C,
 0,4.3087464836,-2.9827467435,-1.9415733886\C,0,3.8846393345,0.06558596
 21,-1.3068453669\C,0,2.6303736586,1.7754651347,2.8937252724\C,0,3.6503
 294107,1.5295383653,-1.0944560129\C,0,-9.1413191153,0.8910512654,-1.53
 23280481\C,0,1.2346285276,-6.5812647767,0.1436030193\C,0,4.6006388985,
 2.6487916341,-1.4446015433\C,0,3.8885681252,3.7606565894,-1.0695782521
 \C,0,2.6566372345,3.4295908102,-0.3770664693\C,0,5.9234259479,2.387953
 636,-2.0640883639\C,0,4.2327288927,5.2430891847,-1.0819202054\C,0,6.74
 81848761,3.3162473095,-2.6398484617\H,0,-4.0318576719,2.1447755577,-0.
 0011070704\H,0,-4.8579104479,-0.576819158,1.3776525095\H,0,-4.68004484
 44,0.9040444041,2.361893099\H,0,-2.9950585458,-1.6224096365,-0.0165385
 757\H,0,-3.5202330206,0.3398859057,-1.5872862795\H,0,0.5250269374,0.21
 36316752,3.698629411\H,0,1.2806520746,-0.3874034077,2.1209672295\H,0,-
 0.6358322441,-2.9185693219,0.2454195443\H,0,-3.2466248078,1.7722784919
 ,3.6994899387\H,0,-1.3546466798,1.7332726912,4.1329616841\H,0,-2.10685
 70668,2.8445582756,2.7780052223\H,0,-6.3227757285,2.6497337769,1.37453
 9687\H,0,-7.504490216,1.3326330725,1.5172887396\H,0,-7.8315690941,2.56
 28723703,0.5858670669\H,0,0.8510478132,2.3684988865,1.6721052778\H,0,0
 .8137244849,2.3035071727,3.5482206463\H,0,1.5579601224,0.3089915442,-0
 .1911244777\H,0,2.0469224844,-4.8462284532,-1.5949541051\H,0,0.3703488
 324,-4.4918090284,-1.3236608495\H,0,-7.9201230741,0.1249827289,-2.9388
 598242\H,0,0.9481470036,-4.6922404037,1.2310006767\H,0,2.727329003,-5.
 1018673912,0.8142792428\H,0,3.8277578381,-4.008398292,-2.2634098021\H,
 0,5.0974708455,-3.3105899092,-1.0838820058\H,0,4.975929026,-2.40219245
 18,-2.6099300666\H,0,4.6394835679,-0.3176738619,-1.9108572614\H,0,-9.3
 571893194,1.4567131268,-0.4563883286\H,0,-9.9014682804,0.9455959753,-2
 .341310231\H,0,3.9652912156,3.192272611,3.1555503207\H,0,6.1912025885,
 1.3442265719,-2.0907778928\H,0,5.2402047203,5.453678132,-0.4769363135\
 H,0,4.5432863511,5.8100377695,-2.1241549604\H,0,3.5841860882,5.6967492
 813,-0.4085625979\H,0,0.9068779959,-8.1903501921,1.0651525702\H,0,7.63
 3435788,3.0256781077,-3.0033876121\H,0,6.4108329708,4.422557768,-2.742
 5066032\\Version=ES64L-G16RevA.03\State=1-A\HF=-1947.8630324\RMSD=4.99
 4e-09\PG=C01 [X(C33H36N4O6)]\\@


 CURIOUSER AND CURIOUSER

                  -- ALICE, IN WONDERLAND
 Job cpu time:       0 days  9 hours  7 minutes  6.3 seconds.
 Elapsed time:       0 days  2 hours 17 minutes 10.8 seconds.
 File lengths (MBytes):  RWF=   2533 Int=      0 D2E=      0 Chk=     63 Scr=      1
 Normal termination of Gaussian 16 at Sat Sep 21 20:48:21 2019.
