 Entering Gaussian System, Link 0=g16
 Input=Geometria-316-.com
 Output=Geometria-316-.log
 Initial command:
 /usr/local/g16/l1.exe "/home/padawan/israel-mol/dihydrobiliverdin/spectra/emi/Gau-2334.inp" -scrdir="/home/padawan/israel-mol/dihydrobiliverdin/spectra/emi/"
 Entering Link 1 = /usr/local/g16/l1.exe PID=      2336.
  
 Copyright (c) 1988,1990,1992,1993,1995,1998,2003,2009,2016,
            Gaussian, Inc.  All Rights Reserved.
  
 This is part of the Gaussian(R) 16 program.  It is based on
 the Gaussian(R) 09 system (copyright 2009, Gaussian, Inc.),
 the Gaussian(R) 03 system (copyright 2003, Gaussian, Inc.),
 the Gaussian(R) 98 system (copyright 1998, Gaussian, Inc.),
 the Gaussian(R) 94 system (copyright 1995, Gaussian, Inc.),
 the Gaussian 92(TM) system (copyright 1992, Gaussian, Inc.),
 the Gaussian 90(TM) system (copyright 1990, Gaussian, Inc.),
 the Gaussian 88(TM) system (copyright 1988, Gaussian, Inc.),
 the Gaussian 86(TM) system (copyright 1986, Carnegie Mellon
 University), and the Gaussian 82(TM) system (copyright 1983,
 Carnegie Mellon University). Gaussian is a federally registered
 trademark of Gaussian, Inc.
  
 This software contains proprietary and confidential information,
 including trade secrets, belonging to Gaussian, Inc.
  
 This software is provided under written license and may be
 used, copied, transmitted, or stored only in accord with that
 written license.
  
 The following legend is applicable only to US Government
 contracts under FAR:
  
                    RESTRICTED RIGHTS LEGEND
  
 Use, reproduction and disclosure by the US Government is
 subject to restrictions as set forth in subparagraphs (a)
 and (c) of the Commercial Computer Software - Restricted
 Rights clause in FAR 52.227-19.
  
 Gaussian, Inc.
 340 Quinnipiac St., Bldg. 40, Wallingford CT 06492
  
  
 ---------------------------------------------------------------
 Warning -- This program may not be used in any manner that
 competes with the business of Gaussian, Inc. or will provide
 assistance to any competitor of Gaussian, Inc.  The licensee
 of this program is prohibited from giving any competitor of
 Gaussian, Inc. access to this program.  By using this program,
 the user acknowledges that Gaussian, Inc. is engaged in the
 business of creating and licensing software in the field of
 computational chemistry and represents and warrants to the
 licensee that it is not a competitor of Gaussian, Inc. and that
 it will not use this program in any manner prohibited above.
 ---------------------------------------------------------------
  

 Cite this work as:
 Gaussian 16, Revision A.03,
 M. J. Frisch, G. W. Trucks, H. B. Schlegel, G. E. Scuseria, 
 M. A. Robb, J. R. Cheeseman, G. Scalmani, V. Barone, 
 G. A. Petersson, H. Nakatsuji, X. Li, M. Caricato, A. V. Marenich, 
 J. Bloino, B. G. Janesko, R. Gomperts, B. Mennucci, H. P. Hratchian, 
 J. V. Ortiz, A. F. Izmaylov, J. L. Sonnenberg, D. Williams-Young, 
 F. Ding, F. Lipparini, F. Egidi, J. Goings, B. Peng, A. Petrone, 
 T. Henderson, D. Ranasinghe, V. G. Zakrzewski, J. Gao, N. Rega, 
 G. Zheng, W. Liang, M. Hada, M. Ehara, K. Toyota, R. Fukuda, 
 J. Hasegawa, M. Ishida, T. Nakajima, Y. Honda, O. Kitao, H. Nakai, 
 T. Vreven, K. Throssell, J. A. Montgomery, Jr., J. E. Peralta, 
 F. Ogliaro, M. J. Bearpark, J. J. Heyd, E. N. Brothers, K. N. Kudin, 
 V. N. Staroverov, T. A. Keith, R. Kobayashi, J. Normand, 
 K. Raghavachari, A. P. Rendell, J. C. Burant, S. S. Iyengar, 
 J. Tomasi, M. Cossi, J. M. Millam, M. Klene, C. Adamo, R. Cammi, 
 J. W. Ochterski, R. L. Martin, K. Morokuma, O. Farkas, 
 J. B. Foresman, and D. J. Fox, Gaussian, Inc., Wallingford CT, 2016.
 
 ******************************************
 Gaussian 16:  ES64L-G16RevA.03 25-Dec-2016
                 1-Oct-2019 
 ******************************************
 %nproc=4
 Will use up to    4 processors via shared memory.
 %Mem=4GB
 --------------------------
 # td=(NStates=1) B3LYP/SVP
 --------------------------
 1/38=1,172=1/1;
 2/12=2,17=6,18=5,40=1/2;
 3/5=18,7=101,11=9,25=1,30=1,74=-5/1,2,3,8;
 4//1;
 5/5=2,38=5/2;
 8/6=1,10=1,108=1/1;
 9/41=1,42=1,70=2/14;
 6/7=2,8=2,9=2,10=2/1;
 99/5=1,9=1/99;
 --
 TD
 --
 Symbolic Z-matrix:
 Charge =  0 Multiplicity = 1
 8                    -5.44216   0.23349  -3.30868 
 8                     3.05      2.94667   2.88807 
 8                     3.41982   0.75768   3.05648 
 8                     1.7563   -7.11792   1.44814 
 8                     0.606    -7.07923  -0.56583 
 8                     1.73142   3.98404   0.17844 
 7                    -2.33602  -1.02067   0.53717 
 7                    -4.3882    0.72836  -1.31436 
 7                     1.95447  -0.71966  -0.24875 
 7                     2.56347   1.81107  -0.52537 
 6                    -4.68792   1.24806  -0.01099 
 6                    -4.35237   0.28894   1.08748 
 6                    -2.86638   0.00796   1.23623 
 6                    -1.97935   0.58443   2.10869 
 6                    -0.75825  -0.07601   1.88534 
 6                    -0.93146  -1.05823   0.86683 
 6                    -6.26731   1.36894  -0.22422 
 6                     0.51551   0.08964   2.68854 
 6                    -6.65737   0.97648  -1.4068 
 6                    -0.0557   -2.0725    0.19262 
 6                     1.24663  -1.94692  -0.20617 
 6                    -5.46379   0.48511  -2.19682 
 6                     2.04573  -2.96666  -0.81791 
 6                    -2.2526    1.62818   3.09513 
 6                    -7.04124   2.05003   0.95908 
 6                     3.22479  -2.37302  -1.17145 
 6                     1.08732   1.49002   2.62286 
 6                     3.16076  -0.87157  -0.91466 
 6                     1.66627  -4.35703  -0.81045 
 6                    -8.04213   0.84889  -2.0027 
 6                     1.726    -5.09481   0.4802 
 6                     4.34098  -3.00165  -1.90586 
 6                     3.98029   0.10074  -1.4385 
 6                     2.6068    1.65753   2.80699 
 6                     3.62138   1.44489  -1.13855 
 6                    -9.19569   0.96468  -1.25173 
 6                     1.22989  -6.51408   0.30853 
 6                     4.44963   2.5848   -1.55077 
 6                     3.7747    3.78791  -1.10093 
 6                     2.55661   3.24495  -0.40449 
 6                     5.73261   2.61635  -2.11497 
 6                     4.04471   5.21555  -1.12189 
 6                     6.59761   3.51357  -2.50924 
 1                    -4.24988   2.24282   0.09851 
 1                    -4.87961  -0.70681   0.83411 
 1                    -4.50212   0.84089   2.14644 
 1                    -2.64369  -1.31849  -0.41553 
 1                    -3.3435    0.76165  -1.73541 
 1                     0.45383  -0.36451   3.8072 
 1                     1.3254   -0.70358   2.3188 
 1                    -0.53251  -3.00142   0.12196 
 1                    -3.19077   1.93345   3.36593 
 1                    -1.81129   1.41205   3.91505 
 1                    -1.76663   2.50419   2.95385 
 1                    -6.40804   2.68907   1.55681 
 1                    -7.67256   1.23043   1.49694 
 1                    -7.72894   2.70639   0.4819 
 1                     0.87029   1.97377   1.66695 
 1                     0.52763   2.10284   3.34387 
 1                     1.65908   0.17047  -0.17408 
 1                     2.23282  -4.75311  -1.85294 
 1                     0.60962  -4.22073  -1.12554 
 1                    -7.86106   0.60393  -3.0872 
 1                     1.09127  -4.71725   1.15357 
 1                     2.87172  -5.04154   0.90225 
 1                     4.09674  -4.19078  -2.04017 
 1                     5.32635  -3.06134  -1.20862 
 1                     4.55995  -2.37097  -2.83837 
 1                     5.02051  -0.10081  -1.92887 
 1                    -9.24113   0.97809  -0.11647 
 1                    -10.1431   0.81802  -1.77782 
 1                     4.06516   3.00756   3.12253 
 1                     6.1375    1.67577  -2.45427 
 1                     4.95456   5.48039  -0.55689 
 1                     4.12305   5.55761  -2.21326 
 1                     3.1377    5.62855  -0.51397 
 1                     1.33902  -8.06072   1.56354 
 1                     7.63814   3.30227  -2.9022 
 1                     6.47387   4.58879  -2.34215 
 
 Stoichiometry    C33H36N4O6
 Framework group  C1[X(C33H36N4O6)]
 Deg. of freedom   231
 Full point group                 C1      NOp   1
 Largest Abelian subgroup         C1      NOp   1
 Largest concise Abelian subgroup C1      NOp   1
                         Standard orientation:                         
 ---------------------------------------------------------------------
 Center     Atomic      Atomic             Coordinates (Angstroms)
 Number     Number       Type             X           Y           Z
 ---------------------------------------------------------------------
      1          8           0        5.457766   -0.131922   -3.292326
      2          8           0       -2.969531   -2.982418    2.931273
      3          8           0       -3.403892   -0.802580    3.059520
      4          8           0       -1.967289    7.088542    1.314397
      5          8           0       -0.810366    7.047744   -0.695747
      6          8           0       -1.613060   -4.028779    0.243890
      7          7           0        2.304778    1.098859    0.522831
      8          7           0        4.412858   -0.621885   -1.292040
      9          7           0       -1.972685    0.657975   -0.268060
     10          7           0       -2.506387   -1.894085   -0.500772
     11          6           0        4.723810   -1.109219    0.021166
     12          6           0        4.357024   -0.140929    1.101442
     13          6           0        2.862997    0.098885    1.241499
     14          6           0        1.990663   -0.487740    2.121986
     15          6           0        0.751393    0.132462    1.883849
     16          6           0        0.898742    1.101016    0.848328
     17          6           0        6.306697   -1.187445   -0.186004
     18          6           0       -0.519343   -0.056182    2.686770
     19          6           0        6.688586   -0.804847   -1.374469
     20          6           0       -0.004376    2.076931    0.153916
     21          6           0       -1.301277    1.906063   -0.245746
     22          6           0        5.483461   -0.362922   -2.176082
     23          6           0       -2.128116    2.890807   -0.877608
     24          6           0        2.291479   -1.505244    3.127635
     25          6           0        7.096753   -1.824287    1.011196
     26          6           0       -3.288204    2.256576   -1.223335
     27          6           0       -1.049645   -1.473701    2.644794
     28          6           0       -3.180937    0.762473   -0.939524
     29          6           0       -1.789620    4.291640   -0.894139
     30          6           0        8.070776   -0.647284   -1.969174
     31          6           0       -1.874793    5.050252    0.382941
     32          6           0       -4.420165    2.838946   -1.971619
     33          6           0       -3.970035   -0.242676   -1.447862
     34          6           0       -2.564096   -1.682469    2.828182
     35          6           0       -3.572750   -1.570139   -1.123000
     36          6           0        9.225005   -0.715725   -1.213434
     37          6           0       -1.420009    6.480193    0.187076
     38          6           0       -4.365993   -2.741055   -1.516754
     39          6           0       -3.657402   -3.915607   -1.043779
     40          6           0       -2.457833   -3.324765   -0.354202
     41          6           0       -5.645808   -2.820340   -2.083434
     42          6           0       -3.885367   -5.350706   -1.039817
     43          6           0       -6.482952   -3.749473   -2.463669
     44          1           0        4.314813   -2.114304    0.147400
     45          1           0        4.855585    0.865202    0.831562
     46          1           0        4.519746   -0.669263    2.170490
     47          1           0        2.606409    1.388544   -0.434297
     48          1           0        3.370831   -0.693353   -1.714980
     49          1           0       -0.474330    0.419463    3.797263
     50          1           0       -1.351042    0.706178    2.300897
     51          1           0        0.445194    3.018050    0.067784
     52          1           0        3.237388   -1.777951    3.406147
     53          1           0        1.841589   -1.287581    3.942466
     54          1           0        1.831832   -2.397538    3.000886
     55          1           0        6.480797   -2.470882    1.618729
     56          1           0        7.702161   -0.977031    1.535822
     57          1           0        7.804817   -2.468564    0.547533
     58          1           0       -0.815679   -1.967844    1.698248
     59          1           0       -0.474358   -2.056855    3.378040
     60          1           0       -1.651545   -0.221621   -0.176729
     61          1           0       -2.364444    4.652244   -1.944938
     62          1           0       -0.728498    4.180839   -1.204150
     63          1           0        7.885818   -0.427139   -3.058335
     64          1           0       -1.231267    4.703576    1.064517
     65          1           0       -3.019709    4.970888    0.803070
     66          1           0       -4.210511    4.032150   -2.126615
     67          1           0       -5.408932    2.882100   -1.277976
     68          1           0       -4.617772    2.185572   -2.893214
     69          1           0       -5.014261   -0.080548   -1.944307
     70          1           0        9.267440   -0.707537   -0.078012
     71          1           0       10.169262   -0.550711   -1.739753
     72          1           0       -3.983167   -3.068913    3.164296
     73          1           0       -6.077099   -1.898265   -2.440523
     74          1           0       -4.788729   -5.632042   -0.472388
     75          1           0       -3.950405   -5.714341   -2.125071
     76          1           0       -2.968446   -5.725980   -0.422378
     77          1           0       -1.578180    8.045101    1.413903
     78          1           0       -7.528056   -3.575873   -2.862897
     79          1           0       -6.328228   -4.817450   -2.277039
 ---------------------------------------------------------------------
 Rotational constants (GHZ):           0.0744810           0.0456960           0.0349034
 Standard basis: SVP (5D, 7F)
 There are   825 symmetry adapted cartesian basis functions of A   symmetry.
 There are   782 symmetry adapted basis functions of A   symmetry.
   782 basis functions,  1327 primitive gaussians,   825 cartesian basis functions
   155 alpha electrons      155 beta electrons
       nuclear repulsion energy      4945.1004037873 Hartrees.
 NAtoms=   79 NActive=   79 NUniq=   79 SFac= 1.00D+00 NAtFMM=   60 NAOKFM=T Big=T
 Integral buffers will be    131072 words long.
 Regular integral format.
 Two-electron integral symmetry is turned on.
 One-electron integrals computed using PRISM.
 NBasis=   782 RedAO= T EigKep=  3.23D-04  NBF=   782
 NBsUse=   782 1.00D-06 EigRej= -1.00D+00 NBFU=   782
 ExpMin= 1.22D-01 ExpMax= 2.27D+03 ExpMxC= 3.41D+02 IAcc=3 IRadAn=         5 AccDes= 0.00D+00
 Harris functional with IExCor=  402 and IRadAn=       5 diagonalized for initial guess.
 HarFok:  IExCor=  402 AccDes= 0.00D+00 IRadAn=         5 IDoV= 1 UseB2=F ITyADJ=14
 ICtDFT=  3500011 ScaDFX=  1.000000  1.000000  1.000000  1.000000
 FoFCou: FMM=F IPFlag=           0 FMFlag=      100000 FMFlg1=        2001
         NFxFlg=           0 DoJE=T BraDBF=F KetDBF=T FulRan=T
         wScrn=  0.000000 ICntrl=       500 IOpCl=  0 I1Cent=   200000004 NGrid=           0
         NMat0=    1 NMatS0=      1 NMatT0=    0 NMatD0=    1 NMtDS0=    0 NMtDT0=    0
 Petite list used in FoFCou.
 Requested convergence on RMS density matrix=1.00D-08 within 128 cycles.
 Requested convergence on MAX density matrix=1.00D-06.
 Requested convergence on             energy=1.00D-06.
 No special actions if energy rises.
 Integral accuracy reduced to 1.0D-05 until final iterations.
 Initial convergence to 1.0D-05 achieved.  Increase integral accuracy.
 SCF Done:  E(RB3LYP) =  -1947.86511949     A.U. after   16 cycles
            NFock= 16  Conv=0.80D-08     -V/T= 2.0106
 DoSCS=F DFT=T ScalE2(SS,OS)=  1.000000  1.000000
 ExpMin= 1.22D-01 ExpMax= 2.27D+03 ExpMxC= 3.41D+02 IAcc=3 IRadAn=         5 AccDes= 0.00D+00
 HarFok:  IExCor=  205 AccDes= 0.00D+00 IRadAn=         5 IDoV=-2 UseB2=F ITyADJ=14
 ICtDFT= 12500011 ScaDFX=  1.000000  1.000000  1.000000  1.000000
 GSVD:  LWork=       -2193 too small for GESVD, short by        9890 words or        9890 for optimal perf.
 Range of M.O.s used for correlation:    44   782
 NBasis=   782 NAE=   155 NBE=   155 NFC=    43 NFV=     0
 NROrb=    739 NOA=   112 NOB=   112 NVA=   627 NVB=   627

 **** Warning!!: The smallest alpha delta epsilon is  0.82638467D-01

 Orbital symmetries:
       Occupied  (A) (A) (A) (A) (A) (A) (A) (A) (A) (A) (A) (A)
                 (A) (A) (A) (A) (A) (A) (A) (A) (A) (A) (A) (A)
                 (A) (A) (A) (A) (A) (A) (A) (A) (A) (A) (A) (A)
                 (A) (A) (A) (A) (A) (A) (A) (A) (A) (A) (A) (A)
                 (A) (A) (A) (A) (A) (A) (A) (A) (A) (A) (A) (A)
                 (A) (A) (A) (A) (A) (A) (A) (A) (A) (A) (A) (A)
                 (A) (A) (A) (A) (A) (A) (A) (A) (A) (A) (A) (A)
                 (A) (A) (A) (A) (A) (A) (A) (A) (A) (A) (A) (A)
                 (A) (A) (A) (A) (A) (A) (A) (A) (A) (A) (A) (A)
                 (A) (A) (A) (A) (A) (A) (A) (A) (A) (A) (A) (A)
                 (A) (A) (A) (A) (A) (A) (A) (A) (A) (A) (A) (A)
                 (A) (A) (A) (A) (A) (A) (A) (A) (A) (A) (A) (A)
                 (A) (A) (A) (A) (A) (A) (A) (A) (A) (A) (A)
       Virtual   (A) (A) (A) (A) (A) (A) (A) (A) (A) (A) (A) (A)
                 (A) (A) (A) (A) (A) (A) (A) (A) (A) (A) (A) (A)
                 (A) (A) (A) (A) (A) (A) (A) (A) (A) (A) (A) (A)
                 (A) (A) (A) (A) (A) (A) (A) (A) (A) (A) (A) (A)
                 (A) (A) (A) (A) (A) (A) (A) (A) (A) (A) (A) (A)
                 (A) (A) (A) (A) (A) (A) (A) (A) (A) (A) (A) (A)
                 (A) (A) (A) (A) (A) (A) (A) (A) (A) (A) (A) (A)
                 (A) (A) (A) (A) (A) (A) (A) (A) (A) (A) (A) (A)
                 (A) (A) (A) (A) (A) (A) (A) (A) (A) (A) (A) (A)
                 (A) (A) (A) (A) (A) (A) (A) (A) (A) (A) (A) (A)
                 (A) (A) (A) (A) (A) (A) (A) (A) (A) (A) (A) (A)
                 (A) (A) (A) (A) (A) (A) (A) (A) (A) (A) (A) (A)
                 (A) (A) (A) (A) (A) (A) (A) (A) (A) (A) (A) (A)
                 (A) (A) (A) (A) (A) (A) (A) (A) (A) (A) (A) (A)
                 (A) (A) (A) (A) (A) (A) (A) (A) (A) (A) (A) (A)
                 (A) (A) (A) (A) (A) (A) (A) (A) (A) (A) (A) (A)
                 (A) (A) (A) (A) (A) (A) (A) (A) (A) (A) (A) (A)
                 (A) (A) (A) (A) (A) (A) (A) (A) (A) (A) (A) (A)
                 (A) (A) (A) (A) (A) (A) (A) (A) (A) (A) (A) (A)
                 (A) (A) (A) (A) (A) (A) (A) (A) (A) (A) (A) (A)
                 (A) (A) (A) (A) (A) (A) (A) (A) (A) (A) (A) (A)
                 (A) (A) (A) (A) (A) (A) (A) (A) (A) (A) (A) (A)
                 (A) (A) (A) (A) (A) (A) (A) (A) (A) (A) (A) (A)
                 (A) (A) (A) (A) (A) (A) (A) (A) (A) (A) (A) (A)
                 (A) (A) (A) (A) (A) (A) (A) (A) (A) (A) (A) (A)
                 (A) (A) (A) (A) (A) (A) (A) (A) (A) (A) (A) (A)
                 (A) (A) (A) (A) (A) (A) (A) (A) (A) (A) (A) (A)
                 (A) (A) (A) (A) (A) (A) (A) (A) (A) (A) (A) (A)
                 (A) (A) (A) (A) (A) (A) (A) (A) (A) (A) (A) (A)
                 (A) (A) (A) (A) (A) (A) (A) (A) (A) (A) (A) (A)
                 (A) (A) (A) (A) (A) (A) (A) (A) (A) (A) (A) (A)
                 (A) (A) (A) (A) (A) (A) (A) (A) (A) (A) (A) (A)
                 (A) (A) (A) (A) (A) (A) (A) (A) (A) (A) (A) (A)
                 (A) (A) (A) (A) (A) (A) (A) (A) (A) (A) (A) (A)
                 (A) (A) (A) (A) (A) (A) (A) (A) (A) (A) (A) (A)
                 (A) (A) (A) (A) (A) (A) (A) (A) (A) (A) (A) (A)
                 (A) (A) (A) (A) (A) (A) (A) (A) (A) (A) (A) (A)
                 (A) (A) (A) (A) (A) (A) (A) (A) (A) (A) (A) (A)
                 (A) (A) (A) (A) (A) (A) (A) (A) (A) (A) (A) (A)
                 (A) (A) (A) (A) (A) (A) (A) (A) (A) (A) (A) (A)
                 (A) (A) (A) (A) (A) (A) (A) (A) (A) (A) (A) (A)
                 (A) (A) (A) (A) (A) (A) (A) (A) (A) (A) (A) (A)
                 (A) (A) (A) (A) (A) (A) (A) (A) (A) (A) (A) (A)
                 (A) (A) (A) (A) (A) (A) (A) (A) (A) (A) (A) (A)
                 (A) (A) (A) (A) (A) (A) (A) (A) (A) (A) (A) (A)
                 (A) (A) (A) (A) (A) (A) (A) (A) (A) (A) (A) (A)
                 (A) (A) (A) (A) (A) (A) (A) (A) (A) (A) (A) (A)
                 (A) (A) (A) (A) (A) (A) (A) (A) (A) (A) (A) (A)
                 (A) (A) (A) (A) (A) (A) (A) (A) (A) (A) (A) (A)
                 (A) (A) (A) (A) (A) (A) (A) (A) (A) (A) (A) (A)
                 (A) (A) (A) (A) (A) (A) (A) (A) (A) (A) (A) (A)
                 (A) (A) (A) (A) (A) (A) (A) (A) (A) (A) (A) (A)
                 (A) (A) (A)
     4 initial guesses have been made.
 Convergence on wavefunction:    0.001000000000000
 Iteration     1 Dimension     4 NMult     0 NNew      4
 CISAX will form     4 AO SS matrices at one time.
 Iteration     2 Dimension     6 NMult     4 NNew      2
 Iteration     3 Dimension     8 NMult     6 NNew      2
 Iteration     4 Dimension    10 NMult     8 NNew      2
 Iteration     5 Dimension    12 NMult    10 NNew      2
 Iteration     6 Dimension    14 NMult    12 NNew      2
 Iteration     7 Dimension    16 NMult    14 NNew      2
 Iteration     8 Dimension    18 NMult    16 NNew      2
 ***********************************************************************
 Excited states from <AA,BB:AA,BB> singles matrix:
 ***********************************************************************
 
 Ground to excited state transition densities written to RWF  633
 Ground to excited state transition electric dipole moments (Au):
       state          X           Y           Z        Dip. S.      Osc.
         1         2.0864      1.2598      0.7876      6.5604      0.3244
 Ground to excited state transition velocity dipole moments (Au):
       state          X           Y           Z        Dip. S.      Osc.
         1        -0.1494     -0.0855     -0.0575      0.0329      0.2962
 Ground to excited state transition magnetic dipole moments (Au):
       state          X           Y           Z
         1        -0.6602     -0.0179      1.3313
 Ground to excited state transition velocity quadrupole moments (Au):
       state          XX          YY          ZZ          XY          XZ          YZ
         1         0.3378      0.4424     -0.0645      0.6752      0.2919      0.2199
 <0|del|b> * <b|rxdel|0> + <0|del|b> * <b|delr+rdel|0>
 Rotatory Strengths (R) in cgs (10**-40 erg-esu-cm/Gauss)
       state          XX          YY          ZZ    R(velocity)    E-M Angle
         1      -424.3104    133.6857    515.3872     74.9208       84.99
 1/2[<0|r|b>*<b|rxdel|0> + (<0|rxdel|b>*<b|r|0>)*]
 Rotatory Strengths (R) in cgs (10**-40 erg-esu-cm/Gauss)
       state          XX          YY          ZZ     R(length)
         1       974.0825     15.9375   -741.5018     82.8394
  1/2[<0|del|b>*<b|r|0> + (<0|r|b>*<b|del|0>)*] (Au)
       state          X           Y           Z        Dip. S.   Osc.(frdel)
         1        -0.3118     -0.1077     -0.0453      0.4648      0.3099

 Excitation energies and oscillator strengths:
 
 Excited State   1:      Singlet-A      2.0180 eV  614.38 nm  f=0.3244  <S**2>=0.000
     154 ->156         0.13590
     155 ->156         0.69002
 This state for optimization and/or second-order correction.
 Total Energy, E(TD-HF/TD-DFT) =  -1947.79095858    
 Copying the excited state density for this state as the 1-particle RhoCI density.
 SavETr:  write IOETrn=   770 NScale= 10 NData=  16 NLR=1 NState=    1 LETran=      28.

 **********************************************************************

            Population analysis using the SCF density.

 **********************************************************************

 Orbital symmetries:
       Occupied  (A) (A) (A) (A) (A) (A) (A) (A) (A) (A) (A) (A)
                 (A) (A) (A) (A) (A) (A) (A) (A) (A) (A) (A) (A)
                 (A) (A) (A) (A) (A) (A) (A) (A) (A) (A) (A) (A)
                 (A) (A) (A) (A) (A) (A) (A) (A) (A) (A) (A) (A)
                 (A) (A) (A) (A) (A) (A) (A) (A) (A) (A) (A) (A)
                 (A) (A) (A) (A) (A) (A) (A) (A) (A) (A) (A) (A)
                 (A) (A) (A) (A) (A) (A) (A) (A) (A) (A) (A) (A)
                 (A) (A) (A) (A) (A) (A) (A) (A) (A) (A) (A) (A)
                 (A) (A) (A) (A) (A) (A) (A) (A) (A) (A) (A) (A)
                 (A) (A) (A) (A) (A) (A) (A) (A) (A) (A) (A) (A)
                 (A) (A) (A) (A) (A) (A) (A) (A) (A) (A) (A) (A)
                 (A) (A) (A) (A) (A) (A) (A) (A) (A) (A) (A) (A)
                 (A) (A) (A) (A) (A) (A) (A) (A) (A) (A) (A)
       Virtual   (A) (A) (A) (A) (A) (A) (A) (A) (A) (A) (A) (A)
                 (A) (A) (A) (A) (A) (A) (A) (A) (A) (A) (A) (A)
                 (A) (A) (A) (A) (A) (A) (A) (A) (A) (A) (A) (A)
                 (A) (A) (A) (A) (A) (A) (A) (A) (A) (A) (A) (A)
                 (A) (A) (A) (A) (A) (A) (A) (A) (A) (A) (A) (A)
                 (A) (A) (A) (A) (A) (A) (A) (A) (A) (A) (A) (A)
                 (A) (A) (A) (A) (A) (A) (A) (A) (A) (A) (A) (A)
                 (A) (A) (A) (A) (A) (A) (A) (A) (A) (A) (A) (A)
                 (A) (A) (A) (A) (A) (A) (A) (A) (A) (A) (A) (A)
                 (A) (A) (A) (A) (A) (A) (A) (A) (A) (A) (A) (A)
                 (A) (A) (A) (A) (A) (A) (A) (A) (A) (A) (A) (A)
                 (A) (A) (A) (A) (A) (A) (A) (A) (A) (A) (A) (A)
                 (A) (A) (A) (A) (A) (A) (A) (A) (A) (A) (A) (A)
                 (A) (A) (A) (A) (A) (A) (A) (A) (A) (A) (A) (A)
                 (A) (A) (A) (A) (A) (A) (A) (A) (A) (A) (A) (A)
                 (A) (A) (A) (A) (A) (A) (A) (A) (A) (A) (A) (A)
                 (A) (A) (A) (A) (A) (A) (A) (A) (A) (A) (A) (A)
                 (A) (A) (A) (A) (A) (A) (A) (A) (A) (A) (A) (A)
                 (A) (A) (A) (A) (A) (A) (A) (A) (A) (A) (A) (A)
                 (A) (A) (A) (A) (A) (A) (A) (A) (A) (A) (A) (A)
                 (A) (A) (A) (A) (A) (A) (A) (A) (A) (A) (A) (A)
                 (A) (A) (A) (A) (A) (A) (A) (A) (A) (A) (A) (A)
                 (A) (A) (A) (A) (A) (A) (A) (A) (A) (A) (A) (A)
                 (A) (A) (A) (A) (A) (A) (A) (A) (A) (A) (A) (A)
                 (A) (A) (A) (A) (A) (A) (A) (A) (A) (A) (A) (A)
                 (A) (A) (A) (A) (A) (A) (A) (A) (A) (A) (A) (A)
                 (A) (A) (A) (A) (A) (A) (A) (A) (A) (A) (A) (A)
                 (A) (A) (A) (A) (A) (A) (A) (A) (A) (A) (A) (A)
                 (A) (A) (A) (A) (A) (A) (A) (A) (A) (A) (A) (A)
                 (A) (A) (A) (A) (A) (A) (A) (A) (A) (A) (A) (A)
                 (A) (A) (A) (A) (A) (A) (A) (A) (A) (A) (A) (A)
                 (A) (A) (A) (A) (A) (A) (A) (A) (A) (A) (A) (A)
                 (A) (A) (A) (A) (A) (A) (A) (A) (A) (A) (A) (A)
                 (A) (A) (A) (A) (A) (A) (A) (A) (A) (A) (A) (A)
                 (A) (A) (A) (A) (A) (A) (A) (A) (A) (A) (A) (A)
                 (A) (A) (A) (A) (A) (A) (A) (A) (A) (A) (A) (A)
                 (A) (A) (A) (A) (A) (A) (A) (A) (A) (A) (A) (A)
                 (A) (A) (A) (A) (A) (A) (A) (A) (A) (A) (A) (A)
                 (A) (A) (A) (A) (A) (A) (A) (A) (A) (A) (A) (A)
                 (A) (A) (A) (A) (A) (A) (A) (A) (A) (A) (A) (A)
                 (A) (A) (A) (A) (A) (A) (A) (A) (A) (A) (A) (A)
                 (A) (A) (A) (A) (A) (A) (A) (A) (A) (A) (A) (A)
                 (A) (A) (A) (A) (A) (A) (A) (A) (A) (A) (A) (A)
                 (A) (A) (A) (A) (A) (A) (A) (A) (A) (A) (A) (A)
                 (A) (A) (A) (A) (A) (A) (A) (A) (A) (A) (A) (A)
                 (A) (A) (A) (A) (A) (A) (A) (A) (A) (A) (A) (A)
                 (A) (A) (A) (A) (A) (A) (A) (A) (A) (A) (A) (A)
                 (A) (A) (A) (A) (A) (A) (A) (A) (A) (A) (A) (A)
                 (A) (A) (A) (A) (A) (A) (A) (A) (A) (A) (A) (A)
                 (A) (A) (A) (A) (A) (A) (A) (A) (A) (A) (A) (A)
                 (A) (A) (A) (A) (A) (A) (A) (A) (A) (A) (A) (A)
                 (A) (A) (A) (A) (A) (A) (A) (A) (A) (A) (A) (A)
                 (A) (A) (A)
 The electronic state is 1-A.
 Alpha  occ. eigenvalues --  -19.18689 -19.16543 -19.14833 -19.11896 -19.11452
 Alpha  occ. eigenvalues --  -19.10663 -14.37924 -14.36051 -14.35109 -14.29503
 Alpha  occ. eigenvalues --  -10.33394 -10.30977 -10.28561 -10.27587 -10.25278
 Alpha  occ. eigenvalues --  -10.24291 -10.24257 -10.23498 -10.23015 -10.22289
 Alpha  occ. eigenvalues --  -10.22145 -10.22095 -10.22067 -10.21694 -10.21675
 Alpha  occ. eigenvalues --  -10.21349 -10.21282 -10.20937 -10.20758 -10.20525
 Alpha  occ. eigenvalues --  -10.20508 -10.20505 -10.20268 -10.20223 -10.20027
 Alpha  occ. eigenvalues --  -10.19545 -10.19536 -10.19524 -10.19251 -10.19157
 Alpha  occ. eigenvalues --  -10.19127 -10.18549 -10.16656  -1.08596  -1.07256
 Alpha  occ. eigenvalues --   -1.06149  -1.00987  -1.00739  -0.97906  -0.97450
 Alpha  occ. eigenvalues --   -0.96558  -0.93627  -0.93318  -0.84652  -0.81899
 Alpha  occ. eigenvalues --   -0.81100  -0.80916  -0.80721  -0.79238  -0.78858
 Alpha  occ. eigenvalues --   -0.76814  -0.76632  -0.75304  -0.74298  -0.73351
 Alpha  occ. eigenvalues --   -0.72286  -0.70816  -0.70092  -0.69103  -0.68606
 Alpha  occ. eigenvalues --   -0.66013  -0.65361  -0.63258  -0.60536  -0.60332
 Alpha  occ. eigenvalues --   -0.60139  -0.58689  -0.57960  -0.57449  -0.56839
 Alpha  occ. eigenvalues --   -0.56523  -0.55660  -0.54412  -0.53795  -0.52811
 Alpha  occ. eigenvalues --   -0.52519  -0.51187  -0.50930  -0.50533  -0.49817
 Alpha  occ. eigenvalues --   -0.49214  -0.48597  -0.48336  -0.47573  -0.47105
 Alpha  occ. eigenvalues --   -0.46883  -0.46541  -0.45803  -0.45646  -0.45354
 Alpha  occ. eigenvalues --   -0.44701  -0.44563  -0.44508  -0.44293  -0.44086
 Alpha  occ. eigenvalues --   -0.43455  -0.43386  -0.43266  -0.43091  -0.42693
 Alpha  occ. eigenvalues --   -0.42212  -0.42109  -0.41961  -0.41723  -0.41195
 Alpha  occ. eigenvalues --   -0.40910  -0.40602  -0.40375  -0.40324  -0.39957
 Alpha  occ. eigenvalues --   -0.39850  -0.39541  -0.39401  -0.38670  -0.38658
 Alpha  occ. eigenvalues --   -0.38100  -0.37729  -0.37548  -0.37256  -0.37128
 Alpha  occ. eigenvalues --   -0.36519  -0.35558  -0.35035  -0.34662  -0.34451
 Alpha  occ. eigenvalues --   -0.33329  -0.32780  -0.32574  -0.31727  -0.31662
 Alpha  occ. eigenvalues --   -0.31487  -0.29886  -0.29796  -0.29100  -0.28141
 Alpha  occ. eigenvalues --   -0.27030  -0.26298  -0.26003  -0.25963  -0.25193
 Alpha  occ. eigenvalues --   -0.24499  -0.24281  -0.23719  -0.21986  -0.19396
 Alpha virt. eigenvalues --   -0.11133  -0.06712  -0.04825  -0.01465  -0.00443
 Alpha virt. eigenvalues --    0.00952   0.01079   0.01286   0.02694   0.02847
 Alpha virt. eigenvalues --    0.03269   0.03748   0.04436   0.04791   0.05184
 Alpha virt. eigenvalues --    0.05450   0.05895   0.06302   0.06729   0.07046
 Alpha virt. eigenvalues --    0.07241   0.07377   0.08155   0.08567   0.08718
 Alpha virt. eigenvalues --    0.09207   0.09601   0.10145   0.10276   0.10740
 Alpha virt. eigenvalues --    0.11071   0.11195   0.11830   0.11987   0.12607
 Alpha virt. eigenvalues --    0.12724   0.12912   0.13216   0.13784   0.14055
 Alpha virt. eigenvalues --    0.14173   0.14523   0.14736   0.15864   0.16237
 Alpha virt. eigenvalues --    0.16407   0.16762   0.17065   0.17359   0.17582
 Alpha virt. eigenvalues --    0.18432   0.18889   0.19347   0.19562   0.20044
 Alpha virt. eigenvalues --    0.20556   0.20944   0.21412   0.21967   0.22451
 Alpha virt. eigenvalues --    0.22989   0.23235   0.23421   0.23893   0.24801
 Alpha virt. eigenvalues --    0.25242   0.25607   0.25719   0.25929   0.26352
 Alpha virt. eigenvalues --    0.26722   0.27819   0.28192   0.28743   0.28899
 Alpha virt. eigenvalues --    0.29452   0.29593   0.30136   0.30545   0.30812
 Alpha virt. eigenvalues --    0.31266   0.31694   0.32403   0.32952   0.34231
 Alpha virt. eigenvalues --    0.34532   0.34958   0.35196   0.36032   0.36477
 Alpha virt. eigenvalues --    0.37156   0.37377   0.37830   0.38199   0.38879
 Alpha virt. eigenvalues --    0.39605   0.40118   0.40717   0.41174   0.41815
 Alpha virt. eigenvalues --    0.42073   0.42224   0.42806   0.42995   0.43765
 Alpha virt. eigenvalues --    0.44133   0.44433   0.44527   0.44820   0.45403
 Alpha virt. eigenvalues --    0.45565   0.45799   0.46396   0.46694   0.46754
 Alpha virt. eigenvalues --    0.47138   0.47573   0.48069   0.48124   0.48333
 Alpha virt. eigenvalues --    0.48647   0.48928   0.49388   0.49726   0.49845
 Alpha virt. eigenvalues --    0.50374   0.50825   0.51349   0.51456   0.51685
 Alpha virt. eigenvalues --    0.52057   0.52430   0.52541   0.52896   0.53296
 Alpha virt. eigenvalues --    0.54465   0.54601   0.55328   0.55468   0.55853
 Alpha virt. eigenvalues --    0.56081   0.56552   0.56957   0.57112   0.57324
 Alpha virt. eigenvalues --    0.57786   0.58043   0.58477   0.58788   0.59200
 Alpha virt. eigenvalues --    0.59535   0.59739   0.59817   0.60300   0.60913
 Alpha virt. eigenvalues --    0.61181   0.61508   0.61719   0.62006   0.62149
 Alpha virt. eigenvalues --    0.62537   0.62776   0.62849   0.63145   0.63455
 Alpha virt. eigenvalues --    0.63491   0.63946   0.64071   0.64215   0.64631
 Alpha virt. eigenvalues --    0.64807   0.64998   0.65118   0.65317   0.65624
 Alpha virt. eigenvalues --    0.65775   0.65937   0.66510   0.66579   0.66623
 Alpha virt. eigenvalues --    0.67300   0.67396   0.67656   0.68022   0.68287
 Alpha virt. eigenvalues --    0.68530   0.68699   0.69276   0.69687   0.69937
 Alpha virt. eigenvalues --    0.70047   0.70245   0.70887   0.71085   0.71584
 Alpha virt. eigenvalues --    0.71815   0.72123   0.72320   0.72668   0.73188
 Alpha virt. eigenvalues --    0.73394   0.73635   0.74042   0.74263   0.74605
 Alpha virt. eigenvalues --    0.74783   0.75282   0.75561   0.75722   0.76014
 Alpha virt. eigenvalues --    0.76638   0.77290   0.77405   0.77801   0.78192
 Alpha virt. eigenvalues --    0.78678   0.78858   0.79572   0.80336   0.80628
 Alpha virt. eigenvalues --    0.80820   0.81890   0.81955   0.82512   0.82918
 Alpha virt. eigenvalues --    0.83496   0.84390   0.85854   0.86119   0.86671
 Alpha virt. eigenvalues --    0.87384   0.88067   0.88626   0.88727   0.89373
 Alpha virt. eigenvalues --    0.90302   0.91137   0.92301   0.92954   0.93301
 Alpha virt. eigenvalues --    0.94211   0.94683   0.95178   0.95359   0.95970
 Alpha virt. eigenvalues --    0.96377   0.96895   0.97398   0.97550   0.98829
 Alpha virt. eigenvalues --    0.99083   0.99701   1.00052   1.01003   1.01504
 Alpha virt. eigenvalues --    1.02449   1.02963   1.03594   1.04876   1.05717
 Alpha virt. eigenvalues --    1.06047   1.06442   1.07093   1.07650   1.08766
 Alpha virt. eigenvalues --    1.10170   1.10328   1.11428   1.11502   1.11945
 Alpha virt. eigenvalues --    1.12094   1.13505   1.13926   1.14708   1.15217
 Alpha virt. eigenvalues --    1.15883   1.16130   1.16657   1.17234   1.18157
 Alpha virt. eigenvalues --    1.18469   1.18798   1.19498   1.20590   1.20702
 Alpha virt. eigenvalues --    1.21597   1.21925   1.23009   1.23395   1.24256
 Alpha virt. eigenvalues --    1.24449   1.24868   1.25768   1.25780   1.26617
 Alpha virt. eigenvalues --    1.27039   1.27281   1.28045   1.28876   1.29592
 Alpha virt. eigenvalues --    1.29722   1.31219   1.31711   1.33256   1.33380
 Alpha virt. eigenvalues --    1.34173   1.34524   1.35224   1.35665   1.36122
 Alpha virt. eigenvalues --    1.37084   1.38301   1.39137   1.39914   1.40253
 Alpha virt. eigenvalues --    1.41280   1.42052   1.43384   1.43978   1.45261
 Alpha virt. eigenvalues --    1.45648   1.45878   1.47204   1.47658   1.48212
 Alpha virt. eigenvalues --    1.48708   1.49361   1.49471   1.50015   1.51444
 Alpha virt. eigenvalues --    1.52519   1.52822   1.52915   1.53461   1.53883
 Alpha virt. eigenvalues --    1.55038   1.56015   1.56830   1.57164   1.57559
 Alpha virt. eigenvalues --    1.58044   1.58295   1.58634   1.59523   1.59840
 Alpha virt. eigenvalues --    1.60156   1.60901   1.61079   1.61465   1.61912
 Alpha virt. eigenvalues --    1.62146   1.63146   1.64033   1.64754   1.65078
 Alpha virt. eigenvalues --    1.65190   1.65731   1.65795   1.65938   1.66423
 Alpha virt. eigenvalues --    1.67066   1.67698   1.67809   1.68104   1.68645
 Alpha virt. eigenvalues --    1.69132   1.69762   1.69840   1.70318   1.70561
 Alpha virt. eigenvalues --    1.71049   1.71731   1.72017   1.72267   1.72366
 Alpha virt. eigenvalues --    1.72927   1.74310   1.74625   1.74776   1.75210
 Alpha virt. eigenvalues --    1.75636   1.76217   1.76335   1.76514   1.76698
 Alpha virt. eigenvalues --    1.77501   1.78070   1.78541   1.78602   1.79212
 Alpha virt. eigenvalues --    1.79257   1.79592   1.79802   1.80365   1.80970
 Alpha virt. eigenvalues --    1.81404   1.82011   1.82308   1.82695   1.83035
 Alpha virt. eigenvalues --    1.83096   1.83555   1.84095   1.84590   1.84677
 Alpha virt. eigenvalues --    1.85099   1.85619   1.86136   1.86450   1.86815
 Alpha virt. eigenvalues --    1.87702   1.88395   1.88986   1.89215   1.90233
 Alpha virt. eigenvalues --    1.90874   1.91251   1.91843   1.92743   1.93256
 Alpha virt. eigenvalues --    1.93440   1.93831   1.94064   1.94749   1.95067
 Alpha virt. eigenvalues --    1.95578   1.96112   1.96369   1.96729   1.97259
 Alpha virt. eigenvalues --    1.97439   1.97667   1.98224   1.98822   1.99407
 Alpha virt. eigenvalues --    1.99819   2.00067   2.00563   2.00737   2.01212
 Alpha virt. eigenvalues --    2.01796   2.02228   2.03482   2.03827   2.04408
 Alpha virt. eigenvalues --    2.04656   2.05007   2.06093   2.06395   2.06946
 Alpha virt. eigenvalues --    2.07216   2.07565   2.07873   2.08924   2.09088
 Alpha virt. eigenvalues --    2.09657   2.10000   2.10916   2.11157   2.11570
 Alpha virt. eigenvalues --    2.12389   2.12555   2.12941   2.13566   2.14552
 Alpha virt. eigenvalues --    2.15888   2.16805   2.17212   2.17956   2.18552
 Alpha virt. eigenvalues --    2.18701   2.19555   2.20188   2.21736   2.22405
 Alpha virt. eigenvalues --    2.23528   2.23631   2.24225   2.24657   2.25383
 Alpha virt. eigenvalues --    2.26338   2.26953   2.27622   2.28262   2.29116
 Alpha virt. eigenvalues --    2.29506   2.30628   2.31241   2.31822   2.32665
 Alpha virt. eigenvalues --    2.33446   2.34332   2.34805   2.35063   2.36325
 Alpha virt. eigenvalues --    2.36715   2.37257   2.37546   2.38160   2.39111
 Alpha virt. eigenvalues --    2.39775   2.40321   2.41043   2.41358   2.42319
 Alpha virt. eigenvalues --    2.43073   2.43668   2.44141   2.44971   2.45545
 Alpha virt. eigenvalues --    2.45935   2.47565   2.47947   2.48273   2.48772
 Alpha virt. eigenvalues --    2.50124   2.50313   2.51450   2.52258   2.52852
 Alpha virt. eigenvalues --    2.54075   2.54218   2.54549   2.55697   2.56976
 Alpha virt. eigenvalues --    2.58990   2.59558   2.61929   2.62440   2.62659
 Alpha virt. eigenvalues --    2.63124   2.64140   2.65108   2.65204   2.65434
 Alpha virt. eigenvalues --    2.66143   2.66457   2.67709   2.67740   2.68216
 Alpha virt. eigenvalues --    2.68801   2.69278   2.69773   2.70713   2.71934
 Alpha virt. eigenvalues --    2.72142   2.72401   2.72963   2.73102   2.73705
 Alpha virt. eigenvalues --    2.74228   2.74818   2.76094   2.76459   2.78711
 Alpha virt. eigenvalues --    2.79209   2.80177   2.80705   2.81159   2.81257
 Alpha virt. eigenvalues --    2.82115   2.82745   2.83761   2.83901   2.84237
 Alpha virt. eigenvalues --    2.84571   2.85121   2.85269   2.85925   2.86284
 Alpha virt. eigenvalues --    2.87165   2.87399   2.87816   2.88466   2.88960
 Alpha virt. eigenvalues --    2.89654   2.91226   2.91532   2.92528   2.93035
 Alpha virt. eigenvalues --    2.93887   2.95182   2.96021   2.98236   2.99992
 Alpha virt. eigenvalues --    3.00299   3.01154   3.02052   3.03046   3.03208
 Alpha virt. eigenvalues --    3.04441   3.05543   3.08105   3.08511   3.11723
 Alpha virt. eigenvalues --    3.12306   3.12821   3.13869   3.15301   3.16717
 Alpha virt. eigenvalues --    3.17119   3.18766   3.19277   3.22502   3.24032
 Alpha virt. eigenvalues --    3.24879   3.26741   3.27173   3.27378   3.28461
 Alpha virt. eigenvalues --    3.30435   3.34864   3.39476   3.40077   3.42517
 Alpha virt. eigenvalues --    3.46081   3.47449   3.52496   3.55752   3.57805
 Alpha virt. eigenvalues --    3.57868   3.61188   3.61706   3.64627   3.69313
 Alpha virt. eigenvalues --    3.69759   3.73628
          Condensed to atoms (all electrons):
 Mulliken charges:
               1
     1  O   -0.130362
     2  O   -0.239878
     3  O   -0.260476
     4  O   -0.256492
     5  O   -0.198820
     6  O   -0.228696
     7  N   -0.100819
     8  N   -0.303783
     9  N   -0.039233
    10  N   -0.267064
    11  C    0.102863
    12  C    0.169574
    13  C   -0.131355
    14  C   -0.112528
    15  C   -0.082731
    16  C    0.031046
    17  C   -0.231647
    18  C   -0.011445
    19  C   -0.080629
    20  C   -0.089422
    21  C    0.132844
    22  C    0.151034
    23  C   -0.065205
    24  C    0.309471
    25  C    0.090140
    26  C   -0.131487
    27  C    0.023549
    28  C    0.148686
    29  C    0.028024
    30  C    0.017970
    31  C    0.070765
    32  C   -0.012270
    33  C   -0.161890
    34  C    0.159189
    35  C    0.094166
    36  C   -0.045172
    37  C    0.162085
    38  C    0.068280
    39  C   -0.204799
    40  C    0.191711
    41  C   -0.008619
    42  C    0.049927
    43  C   -0.088877
    44  H    0.013812
    45  H    0.007995
    46  H    0.024334
    47  H    0.135444
    48  H    0.154080
    49  H    0.032214
    50  H    0.034053
    51  H   -0.020106
    52  H   -0.035868
    53  H   -0.065372
    54  H   -0.024282
    55  H    0.014566
    56  H    0.057128
    57  H    0.022384
    58  H    0.055980
    59  H    0.025721
    60  H    0.082784
    61  H    0.048719
    62  H    0.013455
    63  H    0.026314
    64  H   -0.001447
    65  H    0.079709
    66  H    0.037356
    67  H    0.046033
    68  H    0.058413
    69  H    0.027949
    70  H    0.038830
    71  H    0.031376
    72  H    0.217617
    73  H   -0.030937
    74  H    0.035341
    75  H    0.051236
    76  H    0.052988
    77  H    0.204665
    78  H    0.032623
    79  H   -0.002729
 Sum of Mulliken charges =  -0.00000
 Mulliken charges with hydrogens summed into heavy atoms:
               1
     1  O   -0.130362
     2  O   -0.022261
     3  O   -0.260476
     4  O   -0.051827
     5  O   -0.198820
     6  O   -0.228696
     7  N    0.034625
     8  N   -0.149702
     9  N    0.043550
    10  N   -0.267064
    11  C    0.116675
    12  C    0.201904
    13  C   -0.131355
    14  C   -0.112528
    15  C   -0.082731
    16  C    0.031046
    17  C   -0.231647
    18  C    0.054822
    19  C   -0.080629
    20  C   -0.109528
    21  C    0.132844
    22  C    0.151034
    23  C   -0.065205
    24  C    0.183948
    25  C    0.184218
    26  C   -0.131487
    27  C    0.105250
    28  C    0.148686
    29  C    0.090197
    30  C    0.044285
    31  C    0.149026
    32  C    0.129532
    33  C   -0.133941
    34  C    0.159189
    35  C    0.094166
    36  C    0.025034
    37  C    0.162085
    38  C    0.068280
    39  C   -0.204799
    40  C    0.191711
    41  C   -0.039556
    42  C    0.189491
    43  C   -0.058983
 Electronic spatial extent (au):  <R**2>=          31821.1796
 Charge=             -0.0000 electrons
 Dipole moment (field-independent basis, Debye):
    X=             -0.0819    Y=              1.6719    Z=              2.4715  Tot=              2.9850
 Quadrupole moment (field-independent basis, Debye-Ang):
   XX=           -229.7272   YY=           -245.6978   ZZ=           -261.4825
   XY=             -4.0753   XZ=             29.1334   YZ=              4.9436
 Traceless Quadrupole moment (field-independent basis, Debye-Ang):
   XX=             15.9087   YY=             -0.0620   ZZ=            -15.8467
   XY=             -4.0753   XZ=             29.1334   YZ=              4.9436
 Octapole moment (field-independent basis, Debye-Ang**2):
  XXX=            -40.5331  YYY=            115.2901  ZZZ=             81.7604  XYY=            -80.6810
  XXY=            -62.8199  XXZ=             60.9301  XZZ=            -50.8818  YZZ=            -20.1191
  YYZ=            104.2975  XYZ=             -5.1323
 Hexadecapole moment (field-independent basis, Debye-Ang**3):
 XXXX=         -23811.8851 YYYY=         -12022.2797 ZZZZ=          -4749.4761 XXXY=            202.0037
 XXXZ=            644.4654 YYYX=            -97.2429 YYYZ=            858.8164 ZZZX=             65.4766
 ZZZY=           -141.6629 XXYY=          -6041.2423 XXZZ=          -5219.2531 YYZZ=          -2854.8389
 XXYZ=           -184.0687 YYXZ=            -52.2565 ZZXY=             49.7863
 N-N= 4.945100403787D+03 E-N=-1.441927891912D+04  KE= 1.927464141379D+03
 1\1\GINC-PADAWAN\SP\RB3LYP TD-FC\SVP\C33H36N4O6\PADAWAN\01-Oct-2019\0\
 \# td=(NStates=1) B3LYP/SVP\\TD\\0,1\O,0,-5.442160446,0.2334887885,-3.
 3086806578\O,0,3.049995005,2.9466719219,2.8880748859\O,0,3.4198203306,
 0.7576811671,3.0564775329\O,0,1.7563032698,-7.1179180619,1.4481433206\
 O,0,0.6059954875,-7.079234347,-0.5658345664\O,0,1.7314201901,3.9840415
 27,0.1784373511\N,0,-2.3360232134,-1.0206704972,0.5371707337\N,0,-4.38
 82037018,0.7283605026,-1.3143597908\N,0,1.9544658382,-0.7196635394,-0.
 2487533529\N,0,2.5634718891,1.8110668522,-0.5253692836\C,0,-4.68791518
 27,1.2480563026,-0.0109852987\C,0,-4.3523726301,0.2889390592,1.0874761
 053\C,0,-2.8663817338,0.0079610528,1.2362256356\C,0,-1.9793470314,0.58
 44334005,2.108694039\C,0,-0.7582524355,-0.0760130368,1.8853392115\C,0,
 -0.9314573335,-1.0582288818,0.8668285023\C,0,-6.267309087,1.3689446838
 ,-0.2242176372\C,0,0.5155101576,0.0896396405,2.6885378739\C,0,-6.65736
 62511,0.9764768961,-1.4067964083\C,0,-0.0557018263,-2.0724959865,0.192
 6213436\C,0,1.2466315594,-1.946924239,-0.2061721994\C,0,-5.463786979,0
 .4851067254,-2.1968169932\C,0,2.0457286581,-2.9666572041,-0.8179088002
 \C,0,-2.252600961,1.6281785748,3.0951339036\C,0,-7.0412416174,2.050033
 1325,0.9590798939\C,0,3.2247888126,-2.3730172529,-1.1714483899\C,0,1.0
 873247598,1.4900174951,2.6228559215\C,0,3.1607641517,-0.8715657822,-0.
 9146554537\C,0,1.6662703972,-4.3570316676,-0.8104527622\C,0,-8.0421301
 19,0.8488865263,-2.0026986577\C,0,1.7260001656,-5.0948104156,0.4802040
 159\C,0,4.340979707,-3.0016486337,-1.9058598173\C,0,3.9802888995,0.100
 7394774,-1.4384985323\C,0,2.6068013013,1.6575333415,2.8069865986\C,0,3
 .6213765155,1.4448899005,-1.1385504223\C,0,-9.1956945529,0.9646786282,
 -1.2517299883\C,0,1.2298880535,-6.514078058,0.308529512\C,0,4.44963379
 8,2.5847952344,-1.5507721603\C,0,3.7746967381,3.7879093146,-1.10093138
 74\C,0,2.5566072315,3.2449523463,-0.4044892116\C,0,5.732606866,2.61634
 64752,-2.1149734524\C,0,4.0447100908,5.2155464304,-1.1218942028\C,0,6.
 5976098186,3.5135670415,-2.5092354004\H,0,-4.249879474,2.2428153616,0.
 0985128916\H,0,-4.8796126182,-0.7068121573,0.834108155\H,0,-4.50211705
 16,0.8408880885,2.1464415539\H,0,-2.6436934092,-1.3184892444,-0.415528
 4746\H,0,-3.3434953468,0.7616480819,-1.735411092\H,0,0.4538298177,-0.3
 645061386,3.8072002681\H,0,1.3253965491,-0.7035750249,2.3187970125\H,0
 ,-0.5325119121,-3.0014176068,0.121957198\H,0,-3.1907692222,1.933454609
 6,3.3659265824\H,0,-1.8112923443,1.412050569,3.9150498929\H,0,-1.76663
 30444,2.5041942392,2.9538528071\H,0,-6.4080442553,2.6890677103,1.55680
 79138\H,0,-7.6725570227,1.2304328525,1.4969367044\H,0,-7.7289388311,2.
 7063867218,0.4818966699\H,0,0.8702897374,1.9737694135,1.6669547628\H,0
 ,0.5276258751,2.1028371057,3.3438702112\H,0,1.6590802344,0.1704676918,
 -0.1740827736\H,0,2.2328210743,-4.7531091413,-1.8529399037\H,0,0.60962
 27598,-4.2207319207,-1.1255410375\H,0,-7.8610571675,0.6039306237,-3.08
 72046587\H,0,1.091271316,-4.717252905,1.1535729339\H,0,2.8717234424,-5
 .0415413586,0.9022480397\H,0,4.0967447368,-4.1907765299,-2.0401674778\
 H,0,5.3263537338,-3.0613449847,-1.20862448\H,0,4.5599474278,-2.3709693
 295,-2.8383729109\H,0,5.0205116707,-0.1008121757,-1.9288690626\H,0,-9.
 2411277133,0.978085264,-0.1164743372\H,0,-10.1431024438,0.818023218,-1
 .7778238824\H,0,4.0651612026,3.0075641401,3.1225270184\H,0,6.137497217
 9,1.6757697262,-2.4542742424\H,0,4.9545561554,5.4803908033,-0.55689430
 93\H,0,4.1230543279,5.557612527,-2.2132638713\H,0,3.1377014397,5.62855
 24616,-0.5139731389\H,0,1.3390212102,-8.0607172288,1.5635424091\H,0,7.
 638136258,3.3022657665,-2.902197493\H,0,6.4738692744,4.5887943916,-2.3
 421465672\\Version=ES64L-G16RevA.03\State=1-A\HF=-1947.8651195\RMSD=7.
 963e-09\PG=C01 [X(C33H36N4O6)]\\@


 SCIENCE AT ITS BEST PROVIDES US WITH BETTER QUESTIONS, 
 NOT ABSOLUTE ANSWERS

                                    -- NORMAN COUSINS, 1976
 Job cpu time:       0 days 11 hours 59 minutes  6.7 seconds.
 Elapsed time:       0 days  3 hours  0 minutes 26.8 seconds.
 File lengths (MBytes):  RWF=   2533 Int=      0 D2E=      0 Chk=     63 Scr=      1
 Normal termination of Gaussian 16 at Tue Oct  1 04:36:53 2019.
