 Entering Gaussian System, Link 0=g16
 Input=Geometria-319-.com
 Output=Geometria-319-.log
 Initial command:
 /usr/local/g16/l1.exe "/home/padawan/israel-mol/dihydrobiliverdin/spectra/emi/Gau-4385.inp" -scrdir="/home/padawan/israel-mol/dihydrobiliverdin/spectra/emi/"
 Entering Link 1 = /usr/local/g16/l1.exe PID=      4387.
  
 Copyright (c) 1988,1990,1992,1993,1995,1998,2003,2009,2016,
            Gaussian, Inc.  All Rights Reserved.
  
 This is part of the Gaussian(R) 16 program.  It is based on
 the Gaussian(R) 09 system (copyright 2009, Gaussian, Inc.),
 the Gaussian(R) 03 system (copyright 2003, Gaussian, Inc.),
 the Gaussian(R) 98 system (copyright 1998, Gaussian, Inc.),
 the Gaussian(R) 94 system (copyright 1995, Gaussian, Inc.),
 the Gaussian 92(TM) system (copyright 1992, Gaussian, Inc.),
 the Gaussian 90(TM) system (copyright 1990, Gaussian, Inc.),
 the Gaussian 88(TM) system (copyright 1988, Gaussian, Inc.),
 the Gaussian 86(TM) system (copyright 1986, Carnegie Mellon
 University), and the Gaussian 82(TM) system (copyright 1983,
 Carnegie Mellon University). Gaussian is a federally registered
 trademark of Gaussian, Inc.
  
 This software contains proprietary and confidential information,
 including trade secrets, belonging to Gaussian, Inc.
  
 This software is provided under written license and may be
 used, copied, transmitted, or stored only in accord with that
 written license.
  
 The following legend is applicable only to US Government
 contracts under FAR:
  
                    RESTRICTED RIGHTS LEGEND
  
 Use, reproduction and disclosure by the US Government is
 subject to restrictions as set forth in subparagraphs (a)
 and (c) of the Commercial Computer Software - Restricted
 Rights clause in FAR 52.227-19.
  
 Gaussian, Inc.
 340 Quinnipiac St., Bldg. 40, Wallingford CT 06492
  
  
 ---------------------------------------------------------------
 Warning -- This program may not be used in any manner that
 competes with the business of Gaussian, Inc. or will provide
 assistance to any competitor of Gaussian, Inc.  The licensee
 of this program is prohibited from giving any competitor of
 Gaussian, Inc. access to this program.  By using this program,
 the user acknowledges that Gaussian, Inc. is engaged in the
 business of creating and licensing software in the field of
 computational chemistry and represents and warrants to the
 licensee that it is not a competitor of Gaussian, Inc. and that
 it will not use this program in any manner prohibited above.
 ---------------------------------------------------------------
  

 Cite this work as:
 Gaussian 16, Revision A.03,
 M. J. Frisch, G. W. Trucks, H. B. Schlegel, G. E. Scuseria, 
 M. A. Robb, J. R. Cheeseman, G. Scalmani, V. Barone, 
 G. A. Petersson, H. Nakatsuji, X. Li, M. Caricato, A. V. Marenich, 
 J. Bloino, B. G. Janesko, R. Gomperts, B. Mennucci, H. P. Hratchian, 
 J. V. Ortiz, A. F. Izmaylov, J. L. Sonnenberg, D. Williams-Young, 
 F. Ding, F. Lipparini, F. Egidi, J. Goings, B. Peng, A. Petrone, 
 T. Henderson, D. Ranasinghe, V. G. Zakrzewski, J. Gao, N. Rega, 
 G. Zheng, W. Liang, M. Hada, M. Ehara, K. Toyota, R. Fukuda, 
 J. Hasegawa, M. Ishida, T. Nakajima, Y. Honda, O. Kitao, H. Nakai, 
 T. Vreven, K. Throssell, J. A. Montgomery, Jr., J. E. Peralta, 
 F. Ogliaro, M. J. Bearpark, J. J. Heyd, E. N. Brothers, K. N. Kudin, 
 V. N. Staroverov, T. A. Keith, R. Kobayashi, J. Normand, 
 K. Raghavachari, A. P. Rendell, J. C. Burant, S. S. Iyengar, 
 J. Tomasi, M. Cossi, J. M. Millam, M. Klene, C. Adamo, R. Cammi, 
 J. W. Ochterski, R. L. Martin, K. Morokuma, O. Farkas, 
 J. B. Foresman, and D. J. Fox, Gaussian, Inc., Wallingford CT, 2016.
 
 ******************************************
 Gaussian 16:  ES64L-G16RevA.03 25-Dec-2016
                 1-Oct-2019 
 ******************************************
 %nproc=4
 Will use up to    4 processors via shared memory.
 %Mem=4GB
 --------------------------
 # td=(NStates=1) B3LYP/SVP
 --------------------------
 1/38=1,172=1/1;
 2/12=2,17=6,18=5,40=1/2;
 3/5=18,7=101,11=9,25=1,30=1,74=-5/1,2,3,8;
 4//1;
 5/5=2,38=5/2;
 8/6=1,10=1,108=1/1;
 9/41=1,42=1,70=2/14;
 6/7=2,8=2,9=2,10=2/1;
 99/5=1,9=1/99;
 --
 TD
 --
 Symbolic Z-matrix:
 Charge =  0 Multiplicity = 1
 8                    -5.39993   0.14723  -3.23821 
 8                     3.05515   2.94684   3.16073 
 8                     3.23557   0.70194   3.03348 
 8                     1.43817  -7.2176    1.36699 
 8                     0.72188  -6.94871  -0.64289 
 8                     1.79806   3.89621   0.04024 
 7                    -2.32353  -0.85899   0.57976 
 7                    -4.39201   0.5194   -1.20304 
 7                     1.83225  -0.62767  -0.4449 
 7                     2.66437   1.86942  -0.4441 
 6                    -4.74391   1.17645   0.0556 
 6                    -4.46479   0.33556   1.28239 
 6                    -2.96042   0.05449   1.35926 
 6                    -1.99463   0.5105    2.23373 
 6                    -0.725    -0.02384   1.93562 
 6                    -0.97624  -0.99977   0.95293 
 6                    -6.29422   1.22802  -0.11836 
 6                     0.59271   0.20266   2.53722 
 6                    -6.67345   0.81639  -1.38414 
 6                    -0.14901  -1.90646   0.13228 
 6                     1.20946  -1.79967  -0.26125 
 6                    -5.40303   0.46823  -2.12472 
 6                     2.03126  -2.84699  -0.80001 
 6                    -2.15137   1.66546   3.26851 
 6                    -7.15172   1.94033   0.90282 
 6                     3.15819  -2.32088  -1.22859 
 6                     1.09383   1.6786    2.54981 
 6                     2.9993   -0.795    -0.98457 
 6                     1.57687  -4.25774  -0.96829 
 6                    -7.98608   0.70433  -2.08619 
 6                     1.69436  -5.04177   0.35765 
 6                     4.27815  -3.01339  -1.93619 
 6                     4.02067   0.0611   -1.31679 
 6                     2.54508   1.67246   2.9696 
 6                     3.80381   1.4467   -1.05653 
 6                    -9.14204   0.73769  -1.47908 
 6                     1.15169  -6.4788    0.34902 
 6                     4.64537   2.60841  -1.47281 
 6                     3.87446   3.74149  -1.15517 
 6                     2.63567   3.27909  -0.39656 
 6                     5.8763    2.4683   -2.10212 
 6                     4.2994    5.27677  -1.33236 
 6                     6.68149   3.48028  -2.58806 
 1                    -4.23155   2.14399   0.16477 
 1                    -4.80788  -0.64885   1.21165 
 1                    -4.80478   0.70987   2.24072 
 1                    -3.01346  -1.38041   0.00594 
 1                    -3.3688    0.43932  -1.52651 
 1                     0.52262  -0.06381   3.68032 
 1                     1.46023  -0.40931   2.08916 
 1                    -0.52085  -2.93669  -0.12339 
 1                    -3.1071    1.60167   4.24111 
 1                    -1.27502   1.53906   4.02158 
 1                    -2.1752    2.57244   2.33012 
 1                    -6.74164   2.85553   1.20225 
 1                    -7.45414   1.0527    1.93306 
 1                    -8.26962   1.97315   0.54485 
 1                     1.03483   2.17545   1.54026 
 1                     0.60922   2.29957   3.20763 
 1                     1.56858   0.34286  -0.44538 
 1                     2.05328  -4.97463  -1.82122 
 1                     0.5376   -4.0225   -1.10426 
 1                    -7.87354   0.48078  -3.14591 
 1                     1.36149  -4.58101   1.19609 
 1                     2.83204  -5.33679   0.77764 
 1                     4.15091  -4.00554  -1.99861 
 1                     5.22391  -3.04002  -1.33534 
 1                     4.62452  -2.59997  -2.91926 
 1                     4.96213  -0.29599  -1.72747 
 1                    -9.41173   0.83224  -0.41755 
 1                    -10.13052   0.64935  -2.05551 
 1                     4.02695   3.06523   3.15016 
 1                     6.17947   1.43226  -2.12892 
 1                     5.30048   5.70776  -1.08489 
 1                     4.17626   5.2973   -2.32905 
 1                     3.48976   5.8525   -0.89463 
 1                     1.03445  -8.01907   1.27054 
 1                     7.68562   3.18614  -3.08156 
 1                     6.69868   4.60243  -2.32162 
 
 Stoichiometry    C33H36N4O6
 Framework group  C1[X(C33H36N4O6)]
 Deg. of freedom   231
 Full point group                 C1      NOp   1
 Largest Abelian subgroup         C1      NOp   1
 Largest concise Abelian subgroup C1      NOp   1
                         Standard orientation:                         
 ---------------------------------------------------------------------
 Center     Atomic      Atomic             Coordinates (Angstroms)
 Number     Number       Type             X           Y           Z
 ---------------------------------------------------------------------
      1          8           0        5.375243   -0.235425   -3.272750
      2          8           0       -3.081258   -2.898417    3.182374
      3          8           0       -3.227577   -0.651073    3.054360
      4          8           0       -1.317981    7.238300    1.369697
      5          8           0       -0.618812    6.956796   -0.644478
      6          8           0       -1.859045   -3.869566    0.054741
      7          7           0        2.339323    0.821384    0.563914
      8          7           0        4.374695   -0.590346   -1.230872
      9          7           0       -1.826019    0.653940   -0.434029
     10          7           0       -2.696829   -1.829916   -0.425794
     11          6           0        4.724372   -1.251841    0.026057
     12          6           0        4.466205   -0.405795    1.253880
     13          6           0        2.966905   -0.101302    1.340107
     14          6           0        1.999749   -0.541582    2.221105
     15          6           0        0.736700    0.012204    1.930652
     16          6           0        0.996796    0.983375    0.945542
     17          6           0        6.272551   -1.327643   -0.157742
     18          6           0       -0.580497   -0.193326    2.540836
     19          6           0        6.650032   -0.922912   -1.426272
     20          6           0        0.178532    1.902197    0.129412
     21          6           0       -1.183920    1.816247   -0.255348
     22          6           0        5.380474   -0.555592   -2.159026
     23          6           0       -1.992767    2.875809   -0.789746
     24          6           0        2.145130   -1.698067    3.255852
     25          6           0        7.125384   -2.052433    0.858555
     26          6           0       -3.130460    2.366970   -1.210689
     27          6           0       -1.104405   -1.661281    2.557874
     28          6           0       -2.993747    0.838984   -0.966386
     29          6           0       -1.517593    4.279203   -0.962123
     30          6           0        7.959739   -0.831805   -2.136768
     31          6           0       -1.614401    5.065955    0.363871
     32          6           0       -4.244021    3.076276   -1.911719
     33          6           0       -4.030407   -0.001375   -1.291350
     34          6           0       -2.552672   -1.632269    2.986911
     35          6           0       -3.833454   -1.389988   -1.031305
     36          6           0        9.118892   -0.882672   -1.537021
     37          6           0       -1.049529    6.494376    0.350558
     38          6           0       -4.695612   -2.538782   -1.441222
     39          6           0       -3.940386   -3.683480   -1.127533
     40          6           0       -2.689734   -3.239819   -0.377235
     41          6           0       -5.928210   -2.380027   -2.062785
     42          6           0       -4.390262   -5.212098   -1.300700
     43          6           0       -6.752118   -3.379732   -2.542718
     44          1           0        4.197740   -2.211212    0.139315
     45          1           0        4.824088    0.573108    1.180116
     46          1           0        4.806447   -0.784627    2.210346
     47          1           0        3.033592    1.331573   -0.014739
     48          1           0        3.350801   -0.494606   -1.547879
     49          1           0       -0.498969    0.072879    3.683233
     50          1           0       -1.441248    0.431719    2.097798
     51          1           0        0.564699    2.926330   -0.129495
     52          1           0        3.107932   -1.648413    4.222285
     53          1           0        1.275679   -1.557491    4.014388
     54          1           0        2.148864   -2.606013    2.318101
     55          1           0        6.703045   -2.960923    1.161372
     56          1           0        7.448135   -1.168831    1.886086
     57          1           0        8.240329   -2.102902    0.493489
     58          1           0       -1.059589   -2.159751    1.548395
     59          1           0       -0.625321   -2.289216    3.213116
     60          1           0       -1.577473   -0.320582   -0.435362
     61          1           0       -1.988245    5.002771   -1.812606
     62          1           0       -0.482989    4.027729   -1.104519
     63          1           0        7.843911   -0.607325   -3.195942
     64          1           0       -1.283383    4.600710    1.200558
     65          1           0       -2.744653    5.378951    0.790851
     66          1           0       -4.101772    4.066278   -1.975795
     67          1           0       -5.185393    3.118063   -1.304866
     68          1           0       -4.603051    2.667554   -2.892206
     69          1           0       -4.968801    0.369999   -1.696323
     70          1           0        9.393863   -0.980610   -0.477154
     71          1           0       10.104924   -0.810146   -2.119818
     72          1           0       -4.054830   -3.001688    3.178101
     73          1           0       -6.215404   -1.339412   -2.088532
     74          1           0       -5.396323   -5.627285   -1.046485
     75          1           0       -4.273832   -5.235284   -2.298138
     76          1           0       -3.586889   -5.800020   -0.867659
     77          1           0       -0.902475    8.033328    1.270000
     78          1           0       -7.754691   -3.070386   -3.030046
     79          1           0       -6.785049   -4.501270   -2.275220
 ---------------------------------------------------------------------
 Rotational constants (GHZ):           0.0748337           0.0450969           0.0349356
 Standard basis: SVP (5D, 7F)
 There are   825 symmetry adapted cartesian basis functions of A   symmetry.
 There are   782 symmetry adapted basis functions of A   symmetry.
   782 basis functions,  1327 primitive gaussians,   825 cartesian basis functions
   155 alpha electrons      155 beta electrons
       nuclear repulsion energy      4945.6096611556 Hartrees.
 NAtoms=   79 NActive=   79 NUniq=   79 SFac= 1.00D+00 NAtFMM=   60 NAOKFM=T Big=T
 Integral buffers will be    131072 words long.
 Regular integral format.
 Two-electron integral symmetry is turned on.
 One-electron integrals computed using PRISM.
 NBasis=   782 RedAO= T EigKep=  3.20D-04  NBF=   782
 NBsUse=   782 1.00D-06 EigRej= -1.00D+00 NBFU=   782
 ExpMin= 1.22D-01 ExpMax= 2.27D+03 ExpMxC= 3.41D+02 IAcc=3 IRadAn=         5 AccDes= 0.00D+00
 Harris functional with IExCor=  402 and IRadAn=       5 diagonalized for initial guess.
 HarFok:  IExCor=  402 AccDes= 0.00D+00 IRadAn=         5 IDoV= 1 UseB2=F ITyADJ=14
 ICtDFT=  3500011 ScaDFX=  1.000000  1.000000  1.000000  1.000000
 FoFCou: FMM=F IPFlag=           0 FMFlag=      100000 FMFlg1=        2001
         NFxFlg=           0 DoJE=T BraDBF=F KetDBF=T FulRan=T
         wScrn=  0.000000 ICntrl=       500 IOpCl=  0 I1Cent=   200000004 NGrid=           0
         NMat0=    1 NMatS0=      1 NMatT0=    0 NMatD0=    1 NMtDS0=    0 NMtDT0=    0
 Petite list used in FoFCou.
 Requested convergence on RMS density matrix=1.00D-08 within 128 cycles.
 Requested convergence on MAX density matrix=1.00D-06.
 Requested convergence on             energy=1.00D-06.
 No special actions if energy rises.
 Integral accuracy reduced to 1.0D-05 until final iterations.
 Initial convergence to 1.0D-05 achieved.  Increase integral accuracy.
 SCF Done:  E(RB3LYP) =  -1947.80649716     A.U. after   16 cycles
            NFock= 16  Conv=0.67D-08     -V/T= 2.0102
 DoSCS=F DFT=T ScalE2(SS,OS)=  1.000000  1.000000
 ExpMin= 1.22D-01 ExpMax= 2.27D+03 ExpMxC= 3.41D+02 IAcc=3 IRadAn=         5 AccDes= 0.00D+00
 HarFok:  IExCor=  205 AccDes= 0.00D+00 IRadAn=         5 IDoV=-2 UseB2=F ITyADJ=14
 ICtDFT= 12500011 ScaDFX=  1.000000  1.000000  1.000000  1.000000
 GSVD:  LWork=       -2193 too small for GESVD, short by        9890 words or        9890 for optimal perf.
 Range of M.O.s used for correlation:    44   782
 NBasis=   782 NAE=   155 NBE=   155 NFC=    43 NFV=     0
 NROrb=    739 NOA=   112 NOB=   112 NVA=   627 NVB=   627

 **** Warning!!: The smallest alpha delta epsilon is  0.84293978D-01

 Orbital symmetries:
       Occupied  (A) (A) (A) (A) (A) (A) (A) (A) (A) (A) (A) (A)
                 (A) (A) (A) (A) (A) (A) (A) (A) (A) (A) (A) (A)
                 (A) (A) (A) (A) (A) (A) (A) (A) (A) (A) (A) (A)
                 (A) (A) (A) (A) (A) (A) (A) (A) (A) (A) (A) (A)
                 (A) (A) (A) (A) (A) (A) (A) (A) (A) (A) (A) (A)
                 (A) (A) (A) (A) (A) (A) (A) (A) (A) (A) (A) (A)
                 (A) (A) (A) (A) (A) (A) (A) (A) (A) (A) (A) (A)
                 (A) (A) (A) (A) (A) (A) (A) (A) (A) (A) (A) (A)
                 (A) (A) (A) (A) (A) (A) (A) (A) (A) (A) (A) (A)
                 (A) (A) (A) (A) (A) (A) (A) (A) (A) (A) (A) (A)
                 (A) (A) (A) (A) (A) (A) (A) (A) (A) (A) (A) (A)
                 (A) (A) (A) (A) (A) (A) (A) (A) (A) (A) (A) (A)
                 (A) (A) (A) (A) (A) (A) (A) (A) (A) (A) (A)
       Virtual   (A) (A) (A) (A) (A) (A) (A) (A) (A) (A) (A) (A)
                 (A) (A) (A) (A) (A) (A) (A) (A) (A) (A) (A) (A)
                 (A) (A) (A) (A) (A) (A) (A) (A) (A) (A) (A) (A)
                 (A) (A) (A) (A) (A) (A) (A) (A) (A) (A) (A) (A)
                 (A) (A) (A) (A) (A) (A) (A) (A) (A) (A) (A) (A)
                 (A) (A) (A) (A) (A) (A) (A) (A) (A) (A) (A) (A)
                 (A) (A) (A) (A) (A) (A) (A) (A) (A) (A) (A) (A)
                 (A) (A) (A) (A) (A) (A) (A) (A) (A) (A) (A) (A)
                 (A) (A) (A) (A) (A) (A) (A) (A) (A) (A) (A) (A)
                 (A) (A) (A) (A) (A) (A) (A) (A) (A) (A) (A) (A)
                 (A) (A) (A) (A) (A) (A) (A) (A) (A) (A) (A) (A)
                 (A) (A) (A) (A) (A) (A) (A) (A) (A) (A) (A) (A)
                 (A) (A) (A) (A) (A) (A) (A) (A) (A) (A) (A) (A)
                 (A) (A) (A) (A) (A) (A) (A) (A) (A) (A) (A) (A)
                 (A) (A) (A) (A) (A) (A) (A) (A) (A) (A) (A) (A)
                 (A) (A) (A) (A) (A) (A) (A) (A) (A) (A) (A) (A)
                 (A) (A) (A) (A) (A) (A) (A) (A) (A) (A) (A) (A)
                 (A) (A) (A) (A) (A) (A) (A) (A) (A) (A) (A) (A)
                 (A) (A) (A) (A) (A) (A) (A) (A) (A) (A) (A) (A)
                 (A) (A) (A) (A) (A) (A) (A) (A) (A) (A) (A) (A)
                 (A) (A) (A) (A) (A) (A) (A) (A) (A) (A) (A) (A)
                 (A) (A) (A) (A) (A) (A) (A) (A) (A) (A) (A) (A)
                 (A) (A) (A) (A) (A) (A) (A) (A) (A) (A) (A) (A)
                 (A) (A) (A) (A) (A) (A) (A) (A) (A) (A) (A) (A)
                 (A) (A) (A) (A) (A) (A) (A) (A) (A) (A) (A) (A)
                 (A) (A) (A) (A) (A) (A) (A) (A) (A) (A) (A) (A)
                 (A) (A) (A) (A) (A) (A) (A) (A) (A) (A) (A) (A)
                 (A) (A) (A) (A) (A) (A) (A) (A) (A) (A) (A) (A)
                 (A) (A) (A) (A) (A) (A) (A) (A) (A) (A) (A) (A)
                 (A) (A) (A) (A) (A) (A) (A) (A) (A) (A) (A) (A)
                 (A) (A) (A) (A) (A) (A) (A) (A) (A) (A) (A) (A)
                 (A) (A) (A) (A) (A) (A) (A) (A) (A) (A) (A) (A)
                 (A) (A) (A) (A) (A) (A) (A) (A) (A) (A) (A) (A)
                 (A) (A) (A) (A) (A) (A) (A) (A) (A) (A) (A) (A)
                 (A) (A) (A) (A) (A) (A) (A) (A) (A) (A) (A) (A)
                 (A) (A) (A) (A) (A) (A) (A) (A) (A) (A) (A) (A)
                 (A) (A) (A) (A) (A) (A) (A) (A) (A) (A) (A) (A)
                 (A) (A) (A) (A) (A) (A) (A) (A) (A) (A) (A) (A)
                 (A) (A) (A) (A) (A) (A) (A) (A) (A) (A) (A) (A)
                 (A) (A) (A) (A) (A) (A) (A) (A) (A) (A) (A) (A)
                 (A) (A) (A) (A) (A) (A) (A) (A) (A) (A) (A) (A)
                 (A) (A) (A) (A) (A) (A) (A) (A) (A) (A) (A) (A)
                 (A) (A) (A) (A) (A) (A) (A) (A) (A) (A) (A) (A)
                 (A) (A) (A) (A) (A) (A) (A) (A) (A) (A) (A) (A)
                 (A) (A) (A) (A) (A) (A) (A) (A) (A) (A) (A) (A)
                 (A) (A) (A) (A) (A) (A) (A) (A) (A) (A) (A) (A)
                 (A) (A) (A) (A) (A) (A) (A) (A) (A) (A) (A) (A)
                 (A) (A) (A) (A) (A) (A) (A) (A) (A) (A) (A) (A)
                 (A) (A) (A) (A) (A) (A) (A) (A) (A) (A) (A) (A)
                 (A) (A) (A) (A) (A) (A) (A) (A) (A) (A) (A) (A)
                 (A) (A) (A) (A) (A) (A) (A) (A) (A) (A) (A) (A)
                 (A) (A) (A) (A) (A) (A) (A) (A) (A) (A) (A) (A)
                 (A) (A) (A)
     4 initial guesses have been made.
 Convergence on wavefunction:    0.001000000000000
 Iteration     1 Dimension     4 NMult     0 NNew      4
 CISAX will form     4 AO SS matrices at one time.
 Iteration     2 Dimension     6 NMult     4 NNew      2
 Iteration     3 Dimension     8 NMult     6 NNew      2
 Iteration     4 Dimension    10 NMult     8 NNew      2
 Iteration     5 Dimension    12 NMult    10 NNew      2
 Iteration     6 Dimension    14 NMult    12 NNew      2
 Iteration     7 Dimension    16 NMult    14 NNew      2
 ***********************************************************************
 Excited states from <AA,BB:AA,BB> singles matrix:
 ***********************************************************************
 
 Ground to excited state transition densities written to RWF  633
 Ground to excited state transition electric dipole moments (Au):
       state          X           Y           Z        Dip. S.      Osc.
         1        -2.3557     -1.2091     -0.8664      7.7619      0.3961
 Ground to excited state transition velocity dipole moments (Au):
       state          X           Y           Z        Dip. S.      Osc.
         1         0.1744      0.0834      0.0642      0.0415      0.3616
 Ground to excited state transition magnetic dipole moments (Au):
       state          X           Y           Z
         1         0.6287     -0.0705     -1.3320
 Ground to excited state transition velocity quadrupole moments (Au):
       state          XX          YY          ZZ          XY          XZ          YZ
         1        -0.5872     -0.3662      0.0717     -0.7533     -0.3769     -0.2468
 <0|del|b> * <b|rxdel|0> + <0|del|b> * <b|delr+rdel|0>
 Rotatory Strengths (R) in cgs (10**-40 erg-esu-cm/Gauss)
       state          XX          YY          ZZ    R(velocity)    E-M Angle
         1      -500.4198    136.1352    532.9641     56.2265       86.52
 1/2[<0|r|b>*<b|rxdel|0> + (<0|rxdel|b>*<b|r|0>)*]
 Rotatory Strengths (R) in cgs (10**-40 erg-esu-cm/Gauss)
       state          XX          YY          ZZ     R(length)
         1      1047.3660    -60.3126   -816.0829     56.9901
  1/2[<0|del|b>*<b|r|0> + (<0|r|b>*<b|del|0>)*] (Au)
       state          X           Y           Z        Dip. S.   Osc.(frdel)
         1        -0.4109     -0.1009     -0.0556      0.5674      0.3783

 Excitation energies and oscillator strengths:
 
 Excited State   1:      Singlet-A      2.0828 eV  595.26 nm  f=0.3961  <S**2>=0.000
     154 ->156         0.15548
     155 ->156         0.68540
 This state for optimization and/or second-order correction.
 Total Energy, E(TD-HF/TD-DFT) =  -1947.72995411    
 Copying the excited state density for this state as the 1-particle RhoCI density.
 SavETr:  write IOETrn=   770 NScale= 10 NData=  16 NLR=1 NState=    1 LETran=      28.

 **********************************************************************

            Population analysis using the SCF density.

 **********************************************************************

 Orbital symmetries:
       Occupied  (A) (A) (A) (A) (A) (A) (A) (A) (A) (A) (A) (A)
                 (A) (A) (A) (A) (A) (A) (A) (A) (A) (A) (A) (A)
                 (A) (A) (A) (A) (A) (A) (A) (A) (A) (A) (A) (A)
                 (A) (A) (A) (A) (A) (A) (A) (A) (A) (A) (A) (A)
                 (A) (A) (A) (A) (A) (A) (A) (A) (A) (A) (A) (A)
                 (A) (A) (A) (A) (A) (A) (A) (A) (A) (A) (A) (A)
                 (A) (A) (A) (A) (A) (A) (A) (A) (A) (A) (A) (A)
                 (A) (A) (A) (A) (A) (A) (A) (A) (A) (A) (A) (A)
                 (A) (A) (A) (A) (A) (A) (A) (A) (A) (A) (A) (A)
                 (A) (A) (A) (A) (A) (A) (A) (A) (A) (A) (A) (A)
                 (A) (A) (A) (A) (A) (A) (A) (A) (A) (A) (A) (A)
                 (A) (A) (A) (A) (A) (A) (A) (A) (A) (A) (A) (A)
                 (A) (A) (A) (A) (A) (A) (A) (A) (A) (A) (A)
       Virtual   (A) (A) (A) (A) (A) (A) (A) (A) (A) (A) (A) (A)
                 (A) (A) (A) (A) (A) (A) (A) (A) (A) (A) (A) (A)
                 (A) (A) (A) (A) (A) (A) (A) (A) (A) (A) (A) (A)
                 (A) (A) (A) (A) (A) (A) (A) (A) (A) (A) (A) (A)
                 (A) (A) (A) (A) (A) (A) (A) (A) (A) (A) (A) (A)
                 (A) (A) (A) (A) (A) (A) (A) (A) (A) (A) (A) (A)
                 (A) (A) (A) (A) (A) (A) (A) (A) (A) (A) (A) (A)
                 (A) (A) (A) (A) (A) (A) (A) (A) (A) (A) (A) (A)
                 (A) (A) (A) (A) (A) (A) (A) (A) (A) (A) (A) (A)
                 (A) (A) (A) (A) (A) (A) (A) (A) (A) (A) (A) (A)
                 (A) (A) (A) (A) (A) (A) (A) (A) (A) (A) (A) (A)
                 (A) (A) (A) (A) (A) (A) (A) (A) (A) (A) (A) (A)
                 (A) (A) (A) (A) (A) (A) (A) (A) (A) (A) (A) (A)
                 (A) (A) (A) (A) (A) (A) (A) (A) (A) (A) (A) (A)
                 (A) (A) (A) (A) (A) (A) (A) (A) (A) (A) (A) (A)
                 (A) (A) (A) (A) (A) (A) (A) (A) (A) (A) (A) (A)
                 (A) (A) (A) (A) (A) (A) (A) (A) (A) (A) (A) (A)
                 (A) (A) (A) (A) (A) (A) (A) (A) (A) (A) (A) (A)
                 (A) (A) (A) (A) (A) (A) (A) (A) (A) (A) (A) (A)
                 (A) (A) (A) (A) (A) (A) (A) (A) (A) (A) (A) (A)
                 (A) (A) (A) (A) (A) (A) (A) (A) (A) (A) (A) (A)
                 (A) (A) (A) (A) (A) (A) (A) (A) (A) (A) (A) (A)
                 (A) (A) (A) (A) (A) (A) (A) (A) (A) (A) (A) (A)
                 (A) (A) (A) (A) (A) (A) (A) (A) (A) (A) (A) (A)
                 (A) (A) (A) (A) (A) (A) (A) (A) (A) (A) (A) (A)
                 (A) (A) (A) (A) (A) (A) (A) (A) (A) (A) (A) (A)
                 (A) (A) (A) (A) (A) (A) (A) (A) (A) (A) (A) (A)
                 (A) (A) (A) (A) (A) (A) (A) (A) (A) (A) (A) (A)
                 (A) (A) (A) (A) (A) (A) (A) (A) (A) (A) (A) (A)
                 (A) (A) (A) (A) (A) (A) (A) (A) (A) (A) (A) (A)
                 (A) (A) (A) (A) (A) (A) (A) (A) (A) (A) (A) (A)
                 (A) (A) (A) (A) (A) (A) (A) (A) (A) (A) (A) (A)
                 (A) (A) (A) (A) (A) (A) (A) (A) (A) (A) (A) (A)
                 (A) (A) (A) (A) (A) (A) (A) (A) (A) (A) (A) (A)
                 (A) (A) (A) (A) (A) (A) (A) (A) (A) (A) (A) (A)
                 (A) (A) (A) (A) (A) (A) (A) (A) (A) (A) (A) (A)
                 (A) (A) (A) (A) (A) (A) (A) (A) (A) (A) (A) (A)
                 (A) (A) (A) (A) (A) (A) (A) (A) (A) (A) (A) (A)
                 (A) (A) (A) (A) (A) (A) (A) (A) (A) (A) (A) (A)
                 (A) (A) (A) (A) (A) (A) (A) (A) (A) (A) (A) (A)
                 (A) (A) (A) (A) (A) (A) (A) (A) (A) (A) (A) (A)
                 (A) (A) (A) (A) (A) (A) (A) (A) (A) (A) (A) (A)
                 (A) (A) (A) (A) (A) (A) (A) (A) (A) (A) (A) (A)
                 (A) (A) (A) (A) (A) (A) (A) (A) (A) (A) (A) (A)
                 (A) (A) (A) (A) (A) (A) (A) (A) (A) (A) (A) (A)
                 (A) (A) (A) (A) (A) (A) (A) (A) (A) (A) (A) (A)
                 (A) (A) (A) (A) (A) (A) (A) (A) (A) (A) (A) (A)
                 (A) (A) (A) (A) (A) (A) (A) (A) (A) (A) (A) (A)
                 (A) (A) (A) (A) (A) (A) (A) (A) (A) (A) (A) (A)
                 (A) (A) (A) (A) (A) (A) (A) (A) (A) (A) (A) (A)
                 (A) (A) (A) (A) (A) (A) (A) (A) (A) (A) (A) (A)
                 (A) (A) (A) (A) (A) (A) (A) (A) (A) (A) (A) (A)
                 (A) (A) (A)
 The electronic state is 1-A.
 Alpha  occ. eigenvalues --  -19.18657 -19.15382 -19.11808 -19.11078 -19.11056
 Alpha  occ. eigenvalues --  -19.10547 -14.38169 -14.36812 -14.36040 -14.28190
 Alpha  occ. eigenvalues --  -10.31593 -10.30229 -10.28245 -10.26312 -10.25600
 Alpha  occ. eigenvalues --  -10.24305 -10.24283 -10.23581 -10.23302 -10.23276
 Alpha  occ. eigenvalues --  -10.23103 -10.22443 -10.22245 -10.22066 -10.21826
 Alpha  occ. eigenvalues --  -10.21520 -10.21324 -10.20844 -10.20311 -10.20305
 Alpha  occ. eigenvalues --  -10.20289 -10.20282 -10.20257 -10.20013 -10.19944
 Alpha  occ. eigenvalues --  -10.19654 -10.19623 -10.19588 -10.18995 -10.18908
 Alpha  occ. eigenvalues --  -10.18591 -10.18529 -10.18016  -1.13818  -1.06876
 Alpha  occ. eigenvalues --   -1.06674  -1.05870  -1.02399  -1.01466  -0.98617
 Alpha  occ. eigenvalues --   -0.98432  -0.94550  -0.91070  -0.84000  -0.81677
 Alpha  occ. eigenvalues --   -0.81464  -0.80540  -0.80096  -0.79788  -0.77943
 Alpha  occ. eigenvalues --   -0.76756  -0.75957  -0.75418  -0.73855  -0.72913
 Alpha  occ. eigenvalues --   -0.71035  -0.70303  -0.70011  -0.69129  -0.67457
 Alpha  occ. eigenvalues --   -0.66659  -0.66103  -0.63979  -0.63001  -0.60972
 Alpha  occ. eigenvalues --   -0.60823  -0.59441  -0.58957  -0.58064  -0.56978
 Alpha  occ. eigenvalues --   -0.56327  -0.55063  -0.54200  -0.53912  -0.52933
 Alpha  occ. eigenvalues --   -0.51968  -0.51833  -0.51373  -0.50884  -0.49451
 Alpha  occ. eigenvalues --   -0.49169  -0.48874  -0.48325  -0.48187  -0.47705
 Alpha  occ. eigenvalues --   -0.46829  -0.46652  -0.46405  -0.45992  -0.45471
 Alpha  occ. eigenvalues --   -0.45035  -0.44856  -0.44682  -0.44439  -0.44239
 Alpha  occ. eigenvalues --   -0.43898  -0.43599  -0.43503  -0.43146  -0.42865
 Alpha  occ. eigenvalues --   -0.42748  -0.41791  -0.41455  -0.41354  -0.41189
 Alpha  occ. eigenvalues --   -0.41025  -0.40924  -0.40481  -0.40157  -0.40074
 Alpha  occ. eigenvalues --   -0.40012  -0.39554  -0.39295  -0.38595  -0.38060
 Alpha  occ. eigenvalues --   -0.37282  -0.36913  -0.36899  -0.36528  -0.36131
 Alpha  occ. eigenvalues --   -0.35804  -0.35462  -0.34826  -0.34662  -0.34152
 Alpha  occ. eigenvalues --   -0.33776  -0.33412  -0.33145  -0.32624  -0.31528
 Alpha  occ. eigenvalues --   -0.31041  -0.30636  -0.28337  -0.27917  -0.27811
 Alpha  occ. eigenvalues --   -0.27548  -0.26647  -0.26493  -0.26159  -0.24332
 Alpha  occ. eigenvalues --   -0.24253  -0.23847  -0.23558  -0.21504  -0.18809
 Alpha virt. eigenvalues --   -0.10380  -0.06442  -0.05840  -0.00987   0.00732
 Alpha virt. eigenvalues --    0.00903   0.01786   0.01830   0.02129   0.03095
 Alpha virt. eigenvalues --    0.03804   0.04287   0.04469   0.05290   0.05850
 Alpha virt. eigenvalues --    0.05998   0.06571   0.06655   0.07017   0.07092
 Alpha virt. eigenvalues --    0.07304   0.07311   0.08159   0.08444   0.08602
 Alpha virt. eigenvalues --    0.08951   0.09420   0.10021   0.10731   0.10838
 Alpha virt. eigenvalues --    0.11255   0.11408   0.11645   0.11983   0.12428
 Alpha virt. eigenvalues --    0.13013   0.13440   0.13627   0.14044   0.14104
 Alpha virt. eigenvalues --    0.14372   0.14488   0.14893   0.15597   0.15809
 Alpha virt. eigenvalues --    0.16021   0.16685   0.17021   0.17226   0.17913
 Alpha virt. eigenvalues --    0.18559   0.18923   0.19406   0.19912   0.20321
 Alpha virt. eigenvalues --    0.20789   0.20965   0.21602   0.22048   0.22351
 Alpha virt. eigenvalues --    0.23013   0.23447   0.24387   0.24690   0.24788
 Alpha virt. eigenvalues --    0.24981   0.25700   0.25827   0.26277   0.26519
 Alpha virt. eigenvalues --    0.27066   0.27932   0.28117   0.28568   0.29046
 Alpha virt. eigenvalues --    0.29281   0.30085   0.30314   0.30609   0.31316
 Alpha virt. eigenvalues --    0.32399   0.32489   0.32573   0.33363   0.34164
 Alpha virt. eigenvalues --    0.34497   0.35152   0.35261   0.35660   0.36680
 Alpha virt. eigenvalues --    0.37078   0.37519   0.38267   0.38598   0.39524
 Alpha virt. eigenvalues --    0.39816   0.40116   0.40399   0.41175   0.41419
 Alpha virt. eigenvalues --    0.41734   0.42276   0.42769   0.43179   0.43894
 Alpha virt. eigenvalues --    0.44172   0.44396   0.44752   0.45077   0.45291
 Alpha virt. eigenvalues --    0.45642   0.46160   0.46783   0.46923   0.47344
 Alpha virt. eigenvalues --    0.47614   0.48028   0.48356   0.48698   0.48914
 Alpha virt. eigenvalues --    0.49151   0.49392   0.49788   0.50140   0.50406
 Alpha virt. eigenvalues --    0.51106   0.51251   0.51673   0.51788   0.52485
 Alpha virt. eigenvalues --    0.52540   0.52581   0.52823   0.53156   0.53449
 Alpha virt. eigenvalues --    0.53733   0.53938   0.54511   0.54908   0.55520
 Alpha virt. eigenvalues --    0.55657   0.56093   0.56460   0.56957   0.57426
 Alpha virt. eigenvalues --    0.57634   0.58172   0.58289   0.58752   0.59002
 Alpha virt. eigenvalues --    0.59127   0.59327   0.60087   0.60193   0.60902
 Alpha virt. eigenvalues --    0.61183   0.61553   0.61884   0.61996   0.62205
 Alpha virt. eigenvalues --    0.62382   0.62665   0.62922   0.63061   0.63501
 Alpha virt. eigenvalues --    0.63662   0.63894   0.64136   0.64427   0.65004
 Alpha virt. eigenvalues --    0.65256   0.65417   0.65538   0.65812   0.65888
 Alpha virt. eigenvalues --    0.66449   0.66798   0.66887   0.67042   0.67279
 Alpha virt. eigenvalues --    0.67917   0.68010   0.68554   0.68648   0.69004
 Alpha virt. eigenvalues --    0.69273   0.69502   0.69604   0.69843   0.70282
 Alpha virt. eigenvalues --    0.70769   0.70904   0.71260   0.71314   0.71782
 Alpha virt. eigenvalues --    0.71983   0.72062   0.72410   0.73059   0.73330
 Alpha virt. eigenvalues --    0.73579   0.73718   0.73939   0.74141   0.74525
 Alpha virt. eigenvalues --    0.74717   0.75074   0.75583   0.76032   0.76201
 Alpha virt. eigenvalues --    0.76507   0.77634   0.77882   0.78215   0.78563
 Alpha virt. eigenvalues --    0.78885   0.79565   0.79982   0.80210   0.80958
 Alpha virt. eigenvalues --    0.82209   0.82270   0.82719   0.83586   0.83826
 Alpha virt. eigenvalues --    0.84542   0.84987   0.85930   0.86356   0.87145
 Alpha virt. eigenvalues --    0.87503   0.87950   0.88220   0.89373   0.90270
 Alpha virt. eigenvalues --    0.90573   0.91273   0.91604   0.93086   0.93699
 Alpha virt. eigenvalues --    0.94269   0.94789   0.95203   0.95679   0.95874
 Alpha virt. eigenvalues --    0.96545   0.97445   0.97681   0.97952   0.98616
 Alpha virt. eigenvalues --    0.99092   0.99599   1.00572   1.00967   1.01739
 Alpha virt. eigenvalues --    1.02153   1.02925   1.03777   1.04059   1.04483
 Alpha virt. eigenvalues --    1.05379   1.06298   1.06708   1.07484   1.08115
 Alpha virt. eigenvalues --    1.08465   1.09679   1.10843   1.11285   1.11810
 Alpha virt. eigenvalues --    1.12784   1.13899   1.14617   1.15055   1.15584
 Alpha virt. eigenvalues --    1.15945   1.16860   1.17705   1.18366   1.18594
 Alpha virt. eigenvalues --    1.19648   1.19998   1.20134   1.20405   1.21547
 Alpha virt. eigenvalues --    1.22282   1.23424   1.23957   1.24026   1.24485
 Alpha virt. eigenvalues --    1.25150   1.25575   1.25813   1.26765   1.27013
 Alpha virt. eigenvalues --    1.27360   1.28775   1.29541   1.29978   1.30512
 Alpha virt. eigenvalues --    1.31520   1.31868   1.32952   1.33546   1.33895
 Alpha virt. eigenvalues --    1.34647   1.35352   1.35494   1.35840   1.36561
 Alpha virt. eigenvalues --    1.37122   1.38568   1.39078   1.39670   1.40427
 Alpha virt. eigenvalues --    1.41743   1.42272   1.42886   1.43288   1.43593
 Alpha virt. eigenvalues --    1.43775   1.44291   1.45398   1.45998   1.47222
 Alpha virt. eigenvalues --    1.48304   1.49216   1.49486   1.50063   1.50478
 Alpha virt. eigenvalues --    1.51637   1.52131   1.52654   1.53180   1.53471
 Alpha virt. eigenvalues --    1.53625   1.53878   1.55261   1.55504   1.56484
 Alpha virt. eigenvalues --    1.57086   1.57205   1.58323   1.58568   1.59336
 Alpha virt. eigenvalues --    1.60043   1.60170   1.60916   1.61414   1.62226
 Alpha virt. eigenvalues --    1.62354   1.62616   1.63072   1.63532   1.64291
 Alpha virt. eigenvalues --    1.64667   1.65303   1.65921   1.66101   1.66282
 Alpha virt. eigenvalues --    1.66487   1.67618   1.67641   1.68138   1.68290
 Alpha virt. eigenvalues --    1.69131   1.69642   1.70289   1.70818   1.71140
 Alpha virt. eigenvalues --    1.71230   1.71746   1.71916   1.72077   1.72549
 Alpha virt. eigenvalues --    1.73563   1.73814   1.74161   1.74709   1.74732
 Alpha virt. eigenvalues --    1.75279   1.75729   1.75980   1.76395   1.76779
 Alpha virt. eigenvalues --    1.77166   1.77858   1.78243   1.78919   1.79330
 Alpha virt. eigenvalues --    1.79580   1.80251   1.80573   1.80778   1.81218
 Alpha virt. eigenvalues --    1.81730   1.81882   1.82385   1.82586   1.82801
 Alpha virt. eigenvalues --    1.83211   1.83845   1.84102   1.84265   1.84974
 Alpha virt. eigenvalues --    1.85276   1.86221   1.86369   1.86652   1.87549
 Alpha virt. eigenvalues --    1.87768   1.88134   1.88800   1.89352   1.89527
 Alpha virt. eigenvalues --    1.89747   1.90225   1.90294   1.91293   1.92180
 Alpha virt. eigenvalues --    1.92666   1.92991   1.93598   1.94572   1.95026
 Alpha virt. eigenvalues --    1.95259   1.95668   1.96042   1.96320   1.96652
 Alpha virt. eigenvalues --    1.96826   1.97148   1.98236   1.98444   1.99073
 Alpha virt. eigenvalues --    2.00082   2.00438   2.00802   2.01564   2.01703
 Alpha virt. eigenvalues --    2.02210   2.03013   2.04068   2.04268   2.04528
 Alpha virt. eigenvalues --    2.04880   2.05229   2.05837   2.06332   2.07534
 Alpha virt. eigenvalues --    2.07872   2.08732   2.09116   2.10064   2.10618
 Alpha virt. eigenvalues --    2.10692   2.11142   2.11837   2.12130   2.12452
 Alpha virt. eigenvalues --    2.12882   2.13587   2.13972   2.14681   2.15658
 Alpha virt. eigenvalues --    2.15837   2.16537   2.16928   2.17816   2.18610
 Alpha virt. eigenvalues --    2.18910   2.20303   2.20738   2.20901   2.21585
 Alpha virt. eigenvalues --    2.22517   2.22912   2.23766   2.24156   2.24582
 Alpha virt. eigenvalues --    2.25896   2.26306   2.26750   2.28337   2.28935
 Alpha virt. eigenvalues --    2.29323   2.29633   2.30615   2.30627   2.32986
 Alpha virt. eigenvalues --    2.34508   2.35021   2.35374   2.35585   2.36410
 Alpha virt. eigenvalues --    2.36647   2.37435   2.37494   2.38856   2.39153
 Alpha virt. eigenvalues --    2.39754   2.40011   2.40639   2.41086   2.43574
 Alpha virt. eigenvalues --    2.43797   2.44337   2.44693   2.45122   2.46683
 Alpha virt. eigenvalues --    2.46871   2.46978   2.47614   2.49081   2.50104
 Alpha virt. eigenvalues --    2.50984   2.51273   2.51718   2.52514   2.53570
 Alpha virt. eigenvalues --    2.54054   2.54860   2.55094   2.55894   2.57565
 Alpha virt. eigenvalues --    2.57799   2.59158   2.59402   2.60043   2.60665
 Alpha virt. eigenvalues --    2.61170   2.61991   2.63136   2.63733   2.64461
 Alpha virt. eigenvalues --    2.64999   2.65908   2.66147   2.66390   2.66852
 Alpha virt. eigenvalues --    2.67011   2.67271   2.67491   2.68756   2.70070
 Alpha virt. eigenvalues --    2.70385   2.71396   2.72074   2.73665   2.73766
 Alpha virt. eigenvalues --    2.74442   2.75475   2.76388   2.76691   2.77760
 Alpha virt. eigenvalues --    2.78463   2.78787   2.80488   2.81019   2.82360
 Alpha virt. eigenvalues --    2.82906   2.83388   2.83767   2.84108   2.84615
 Alpha virt. eigenvalues --    2.85288   2.86362   2.86855   2.87175   2.88306
 Alpha virt. eigenvalues --    2.89027   2.89389   2.89723   2.90831   2.92172
 Alpha virt. eigenvalues --    2.93025   2.93705   2.93921   2.94392   2.95448
 Alpha virt. eigenvalues --    2.95960   2.96710   2.98210   2.98842   2.99881
 Alpha virt. eigenvalues --    3.01702   3.02330   3.02953   3.04315   3.05504
 Alpha virt. eigenvalues --    3.05712   3.07476   3.08573   3.09880   3.10245
 Alpha virt. eigenvalues --    3.13186   3.14214   3.15519   3.16214   3.19194
 Alpha virt. eigenvalues --    3.21402   3.22486   3.23151   3.23475   3.24316
 Alpha virt. eigenvalues --    3.25348   3.27192   3.28490   3.29307   3.30578
 Alpha virt. eigenvalues --    3.32113   3.34373   3.37781   3.39873   3.50093
 Alpha virt. eigenvalues --    3.53756   3.58827   3.59139   3.60479   3.63264
 Alpha virt. eigenvalues --    3.63739   3.65048   3.69693   3.73495   3.75481
 Alpha virt. eigenvalues --    3.76143   3.83369
          Condensed to atoms (all electrons):
 Mulliken charges:
               1
     1  O   -0.152950
     2  O   -0.240677
     3  O   -0.207596
     4  O   -0.082917
     5  O   -0.210894
     6  O   -0.099437
     7  N   -0.091570
     8  N   -0.249025
     9  N    0.085041
    10  N   -0.354187
    11  C    0.095247
    12  C    0.299728
    13  C   -0.175874
    14  C   -0.128403
    15  C   -0.021142
    16  C    0.067933
    17  C   -0.167415
    18  C   -0.005811
    19  C   -0.061170
    20  C   -0.072354
    21  C    0.023553
    22  C    0.117972
    23  C   -0.056428
    24  C   -0.084021
    25  C    0.006899
    26  C   -0.151641
    27  C    0.024568
    28  C    0.053193
    29  C    0.125770
    30  C    0.058624
    31  C   -0.041343
    32  C    0.161729
    33  C   -0.134725
    34  C    0.138796
    35  C    0.103709
    36  C   -0.063494
    37  C    0.070998
    38  C    0.058683
    39  C   -0.250550
    40  C    0.131745
    41  C   -0.012645
    42  C    0.124655
    43  C   -0.078624
    44  H    0.028946
    45  H   -0.032223
    46  H    0.006110
    47  H    0.125908
    48  H    0.148233
    49  H    0.020086
    50  H    0.054833
    51  H    0.001833
    52  H    0.037568
    53  H    0.050757
    54  H    0.086791
    55  H    0.037588
    56  H    0.036594
    57  H    0.039964
    58  H    0.071023
    59  H   -0.007076
    60  H    0.127420
    61  H    0.063042
    62  H    0.006283
    63  H    0.014091
    64  H   -0.002405
    65  H    0.049501
    66  H   -0.040140
    67  H    0.011061
    68  H    0.033305
    69  H   -0.023413
    70  H    0.024605
    71  H    0.031819
    72  H    0.187730
    73  H   -0.017871
    74  H    0.045993
    75  H   -0.003051
    76  H    0.013083
    77  H    0.141362
    78  H    0.030965
    79  H    0.045733
 Sum of Mulliken charges =  -0.00000
 Mulliken charges with hydrogens summed into heavy atoms:
               1
     1  O   -0.152950
     2  O   -0.052947
     3  O   -0.207596
     4  O    0.058444
     5  O   -0.210894
     6  O   -0.099437
     7  N    0.034338
     8  N   -0.100793
     9  N    0.212461
    10  N   -0.354187
    11  C    0.124193
    12  C    0.273615
    13  C   -0.175874
    14  C   -0.128403
    15  C   -0.021142
    16  C    0.067933
    17  C   -0.167415
    18  C    0.069108
    19  C   -0.061170
    20  C   -0.070521
    21  C    0.023553
    22  C    0.117972
    23  C   -0.056428
    24  C    0.091095
    25  C    0.121046
    26  C   -0.151641
    27  C    0.088515
    28  C    0.053193
    29  C    0.195096
    30  C    0.072714
    31  C    0.005753
    32  C    0.165955
    33  C   -0.158138
    34  C    0.138796
    35  C    0.103709
    36  C   -0.007070
    37  C    0.070998
    38  C    0.058683
    39  C   -0.250550
    40  C    0.131745
    41  C   -0.030516
    42  C    0.180680
    43  C   -0.001926
 Electronic spatial extent (au):  <R**2>=          31955.9247
 Charge=              0.0000 electrons
 Dipole moment (field-independent basis, Debye):
    X=              0.5292    Y=              1.7491    Z=              2.2773  Tot=              2.9198
 Quadrupole moment (field-independent basis, Debye-Ang):
   XX=           -219.3504   YY=           -243.3157   ZZ=           -266.9021
   XY=             -4.8863   XZ=             28.7603   YZ=              7.1241
 Traceless Quadrupole moment (field-independent basis, Debye-Ang):
   XX=             23.8390   YY=             -0.1263   ZZ=            -23.7127
   XY=             -4.8863   XZ=             28.7603   YZ=              7.1241
 Octapole moment (field-independent basis, Debye-Ang**2):
  XXX=             -1.1213  YYY=            125.0271  ZZZ=             70.9648  XYY=            -77.8764
  XXY=            -68.3917  XXZ=             54.3599  XZZ=            -55.8319  YZZ=             -0.9579
  YYZ=             76.7397  XYZ=             12.2036
 Hexadecapole moment (field-independent basis, Debye-Ang**3):
 XXXX=         -23263.7635 YYYY=         -11505.6366 ZZZZ=          -4970.5588 XXXY=             39.8464
 XXXZ=            496.6504 YYYX=            107.8547 YYYZ=            827.4839 ZZZX=             32.3986
 ZZZY=           -103.2595 XXYY=          -5907.3131 XXZZ=          -5331.2083 YYZZ=          -2941.6714
 XXYZ=           -144.5119 YYXZ=             35.5343 ZZXY=             48.4057
 N-N= 4.945609661156D+03 E-N=-1.442063537042D+04  KE= 1.928208568413D+03
 1\1\GINC-PADAWAN\SP\RB3LYP TD-FC\SVP\C33H36N4O6\PADAWAN\01-Oct-2019\0\
 \# td=(NStates=1) B3LYP/SVP\\TD\\0,1\O,0,-5.3999262226,0.1472301626,-3
 .2382136111\O,0,3.0551455201,2.9468419389,3.1607321516\O,0,3.235571905
 8,0.7019355926,3.0334752326\O,0,1.4381714566,-7.2175980299,1.366985204
 8\O,0,0.7218770757,-6.9487112947,-0.6428922721\O,0,1.7980568538,3.8962
 127441,0.0402435318\N,0,-2.3235319643,-0.8589943296,0.5797649931\N,0,-
 4.3920140828,0.5193996065,-1.2030386587\N,0,1.832253617,-0.6276743404,
 -0.4449029679\N,0,2.6643719791,1.8694226878,-0.4441011568\C,0,-4.74391
 07823,1.1764491419,0.0556013599\C,0,-4.4647938722,0.3355637217,1.28238
 55963\C,0,-2.9604211377,0.0544857053,1.3592579388\C,0,-1.9946285596,0.
 5104960068,2.2337265423\C,0,-0.7249991102,-0.0238378193,1.93562424\C,0
 ,-0.976241812,-0.9997730362,0.9529271121\C,0,-6.2942217783,1.228020591
 4,-0.1183570511\C,0,0.5927078774,0.2026609426,2.5372227424\C,0,-6.6734
 478593,0.8163908875,-1.3841441431\C,0,-0.1490111572,-1.9064593828,0.13
 2275309\C,0,1.209457842,-1.7996695136,-0.261247707\C,0,-5.4030309034,0
 .4682250372,-2.1247197835\C,0,2.0312572109,-2.8469852369,-0.80000701\C
 ,0,-2.151370838,1.6654623031,3.2685112413\C,0,-7.1517226655,1.94033216
 24,0.9028242683\C,0,3.1581921529,-2.3208820394,-1.2285941045\C,0,1.093
 8254098,1.678596353,2.5498086168\C,0,2.9992980051,-0.7949981254,-0.984
 5724454\C,0,1.5768714573,-4.2577417386,-0.9682885458\C,0,-7.9860845145
 ,0.7043320708,-2.0861870065\C,0,1.6943570013,-5.0417651111,0.357651760
 7\C,0,4.2781534243,-3.0133898078,-1.9361928506\C,0,4.0206729379,0.0610
 955131,-1.316786361\C,0,2.5450751287,1.6724648347,2.9696028602\C,0,3.8
 038147593,1.4467000815,-1.0565322205\C,0,-9.1420391873,0.7376859289,-1
 .4790827236\C,0,1.1516902337,-6.4788045307,0.3490235614\C,0,4.64537337
 19,2.6084075957,-1.4728143645\C,0,3.8744567141,3.7414946732,-1.1551668
 11\C,0,2.6356651373,3.2790857597,-0.3965584185\C,0,5.8763012354,2.4683
 016708,-2.1021221673\C,0,4.2993955594,5.2767725531,-1.3323552489\C,0,6
 .6814882064,3.4802837132,-2.5880632832\H,0,-4.2315476409,2.1439854786,
 0.1647695173\H,0,-4.8078754444,-0.6488463607,1.2116459088\H,0,-4.80477
 73176,0.7098749872,2.2407209818\H,0,-3.0134603859,-1.380405436,0.00594
 36726\H,0,-3.3687978771,0.4393158487,-1.5265102019\H,0,0.5226166964,-0
 .0638060686,3.6803175799\H,0,1.4602300324,-0.409305598,2.0891640492\H,
 0,-0.520850746,-2.9366911341,-0.1233873364\H,0,-3.1071008554,1.6016714
 312,4.2411141011\H,0,-1.275018717,1.5390632702,4.021580546\H,0,-2.1752
 039015,2.5724410639,2.3301204338\H,0,-6.7416376147,2.8555343569,1.2022
 524582\H,0,-7.4541351805,1.0526950787,1.9330603167\H,0,-8.2696228995,1
 .9731533984,0.5448529655\H,0,1.034826191,2.1754495816,1.5402620935\H,0
 ,0.6092240349,2.2995667787,3.2076265869\H,0,1.5685811845,0.3428649315,
 -0.4453799033\H,0,2.0532831205,-4.9746312935,-1.8212167314\H,0,0.53759
 55571,-4.0225020977,-1.1042589093\H,0,-7.8735384156,0.4807783084,-3.14
 59105293\H,0,1.3614883377,-4.5810092806,1.1960871853\H,0,2.832039474,-
 5.3367908836,0.7776355785\H,0,4.1509101533,-4.005538006,-1.9986133224\
 H,0,5.2239134897,-3.0400228525,-1.3353371513\H,0,4.6245238855,-2.59997
 22298,-2.9192609997\H,0,4.9621258321,-0.2959916937,-1.7274689226\H,0,-
 9.411734774,0.8322406796,-0.4175544452\H,0,-10.1305211857,0.6493463503
 ,-2.0555116512\H,0,4.0269473812,3.0652299067,3.1501597817\H,0,6.179471
 4153,1.4322553747,-2.1289217072\H,0,5.3004807479,5.7077635406,-1.08488
 71086\H,0,4.1762596485,5.2972964953,-2.3290454494\H,0,3.4897566453,5.8
 525048569,-0.8946312047\H,0,1.0344507532,-8.0190730644,1.2705431092\H,
 0,7.6856210065,3.1861441543,-3.0815554288\H,0,6.6986817557,4.602425754
 8,-2.321624515\\Version=ES64L-G16RevA.03\State=1-A\HF=-1947.8064972\RM
 SD=6.689e-09\PG=C01 [X(C33H36N4O6)]\\@


 K N O W I N G  IS A BARRIER WHICH PREVENTS LEARNING

                     -- TEACHING OF THE BENE GESSERIT
 Job cpu time:       0 days 10 hours 33 minutes 50.8 seconds.
 Elapsed time:       0 days  2 hours 39 minutes 33.5 seconds.
 File lengths (MBytes):  RWF=   2533 Int=      0 D2E=      0 Chk=     63 Scr=      1
 Normal termination of Gaussian 16 at Tue Oct  1 07:43:49 2019.
