 Entering Gaussian System, Link 0=g16
 Input=Geometria-110-.com
 Output=Geometria-110-.log
 Initial command:
 /usr/local/g16/l1.exe "/home/padawan/israel-mol/dihydrobiliverdin/spectra/emi/Gau-23577.inp" -scrdir="/home/padawan/israel-mol/dihydrobiliverdin/spectra/emi/"
 Entering Link 1 = /usr/local/g16/l1.exe PID=     23579.
  
 Copyright (c) 1988,1990,1992,1993,1995,1998,2003,2009,2016,
            Gaussian, Inc.  All Rights Reserved.
  
 This is part of the Gaussian(R) 16 program.  It is based on
 the Gaussian(R) 09 system (copyright 2009, Gaussian, Inc.),
 the Gaussian(R) 03 system (copyright 2003, Gaussian, Inc.),
 the Gaussian(R) 98 system (copyright 1998, Gaussian, Inc.),
 the Gaussian(R) 94 system (copyright 1995, Gaussian, Inc.),
 the Gaussian 92(TM) system (copyright 1992, Gaussian, Inc.),
 the Gaussian 90(TM) system (copyright 1990, Gaussian, Inc.),
 the Gaussian 88(TM) system (copyright 1988, Gaussian, Inc.),
 the Gaussian 86(TM) system (copyright 1986, Carnegie Mellon
 University), and the Gaussian 82(TM) system (copyright 1983,
 Carnegie Mellon University). Gaussian is a federally registered
 trademark of Gaussian, Inc.
  
 This software contains proprietary and confidential information,
 including trade secrets, belonging to Gaussian, Inc.
  
 This software is provided under written license and may be
 used, copied, transmitted, or stored only in accord with that
 written license.
  
 The following legend is applicable only to US Government
 contracts under FAR:
  
                    RESTRICTED RIGHTS LEGEND
  
 Use, reproduction and disclosure by the US Government is
 subject to restrictions as set forth in subparagraphs (a)
 and (c) of the Commercial Computer Software - Restricted
 Rights clause in FAR 52.227-19.
  
 Gaussian, Inc.
 340 Quinnipiac St., Bldg. 40, Wallingford CT 06492
  
  
 ---------------------------------------------------------------
 Warning -- This program may not be used in any manner that
 competes with the business of Gaussian, Inc. or will provide
 assistance to any competitor of Gaussian, Inc.  The licensee
 of this program is prohibited from giving any competitor of
 Gaussian, Inc. access to this program.  By using this program,
 the user acknowledges that Gaussian, Inc. is engaged in the
 business of creating and licensing software in the field of
 computational chemistry and represents and warrants to the
 licensee that it is not a competitor of Gaussian, Inc. and that
 it will not use this program in any manner prohibited above.
 ---------------------------------------------------------------
  

 Cite this work as:
 Gaussian 16, Revision A.03,
 M. J. Frisch, G. W. Trucks, H. B. Schlegel, G. E. Scuseria, 
 M. A. Robb, J. R. Cheeseman, G. Scalmani, V. Barone, 
 G. A. Petersson, H. Nakatsuji, X. Li, M. Caricato, A. V. Marenich, 
 J. Bloino, B. G. Janesko, R. Gomperts, B. Mennucci, H. P. Hratchian, 
 J. V. Ortiz, A. F. Izmaylov, J. L. Sonnenberg, D. Williams-Young, 
 F. Ding, F. Lipparini, F. Egidi, J. Goings, B. Peng, A. Petrone, 
 T. Henderson, D. Ranasinghe, V. G. Zakrzewski, J. Gao, N. Rega, 
 G. Zheng, W. Liang, M. Hada, M. Ehara, K. Toyota, R. Fukuda, 
 J. Hasegawa, M. Ishida, T. Nakajima, Y. Honda, O. Kitao, H. Nakai, 
 T. Vreven, K. Throssell, J. A. Montgomery, Jr., J. E. Peralta, 
 F. Ogliaro, M. J. Bearpark, J. J. Heyd, E. N. Brothers, K. N. Kudin, 
 V. N. Staroverov, T. A. Keith, R. Kobayashi, J. Normand, 
 K. Raghavachari, A. P. Rendell, J. C. Burant, S. S. Iyengar, 
 J. Tomasi, M. Cossi, J. M. Millam, M. Klene, C. Adamo, R. Cammi, 
 J. W. Ochterski, R. L. Martin, K. Morokuma, O. Farkas, 
 J. B. Foresman, and D. J. Fox, Gaussian, Inc., Wallingford CT, 2016.
 
 ******************************************
 Gaussian 16:  ES64L-G16RevA.03 25-Dec-2016
                25-Jul-2019 
 ******************************************
 %nproc=4
 Will use up to    4 processors via shared memory.
 %Mem=3GB
 --------------------------
 # td=(NStates=1) B3LYP/SVP
 --------------------------
 1/38=1,172=1/1;
 2/12=2,17=6,18=5,40=1/2;
 3/5=18,7=101,11=9,25=1,30=1,74=-5/1,2,3,8;
 4//1;
 5/5=2,38=5/2;
 8/6=1,10=1,108=1/1;
 9/41=1,42=1,70=2/14;
 6/7=2,8=2,9=2,10=2/1;
 99/5=1,9=1/99;
 --
 TD
 --
 Symbolic Z-matrix:
 Charge =  0 Multiplicity = 1
 8                    -3.27311  -1.36527  -2.87816 
 8                     3.08017   3.12687   3.00597 
 8                     3.58787   1.47571   4.4715 
 8                     7.64974  -1.71958  -0.62719 
 8                     6.64138  -2.9574   -2.15102 
 8                    -2.60627   1.58935   1.41649 
 7                    -0.319    -2.42415   0.92378 
 7                    -2.66019  -1.1486   -0.65406 
 7                     1.11283   0.04567  -0.74781 
 7                    -0.97341   1.49765  -0.19959 
 6                    -3.39901  -1.35622   0.64425 
 6                    -2.59092  -2.30887   1.5891 
 6                    -1.1817   -1.99881   1.7793 
 6                    -0.5387   -1.19013   2.71757 
 6                     0.81735  -1.18972   2.4252 
 6                     0.95857  -1.87329   1.22146 
 6                    -4.68095  -1.89667   0.25594 
 6                     1.85754  -0.35148   3.1969 
 6                    -4.72812  -2.00642  -1.07039 
 6                     2.08605  -1.94348   0.3056 
 6                     2.12553  -0.94558  -0.66907 
 6                    -3.58186  -1.53596  -1.70496 
 6                     3.00062  -0.75874  -1.76339 
 6                    -1.28191  -0.42083   3.84248 
 6                    -5.67769  -2.30158   1.29516 
 6                     2.50071   0.43628  -2.46609 
 6                     1.88301   1.12216   2.75269 
 6                     1.3555    0.92635  -1.81008 
 6                     4.31962  -1.40305  -2.04972 
 6                    -5.83666  -2.4731   -2.04125 
 6                     5.39239  -1.11364  -1.07375 
 6                     3.12049   1.12253  -3.65137 
 6                     0.50812   2.03294  -1.92625 
 6                     2.89526   1.9627    3.52156 
 6                    -0.57058   2.33195  -1.2604 
 6                    -6.9702   -3.15724  -1.60875 
 6                     6.58896  -2.07209  -1.38307 
 6                    -1.47063   3.48345  -1.30646 
 6                    -2.28689   3.34445  -0.11658 
 6                    -1.95741   2.01567   0.52645 
 6                    -1.20972   4.64916  -2.10872 
 6                    -3.45878   4.27966   0.42039 
 6                    -2.01989   5.69628  -2.39234 
 1                    -3.44879  -0.38738   0.99648 
 1                    -2.62428  -3.23535   1.24647 
 1                    -2.99227  -2.33346   2.57139 
 1                    -0.534    -2.96429  -0.00042 
 1                    -1.72393  -0.4942   -0.95924 
 1                     1.77746  -0.20135   4.42214 
 1                     2.77186  -0.78632   3.08875 
 1                     2.83355  -2.80512   0.57809 
 1                    -2.03885  -0.98065   4.38684 
 1                    -0.51515   0.18938   4.4271 
 1                    -1.7887    0.43045   3.19899 
 1                    -5.45381  -1.37372   2.00723 
 1                    -5.52344  -3.35232   1.68988 
 1                    -6.60515  -2.14809   0.91298 
 1                     2.18855   1.06414   1.63401 
 1                     0.69459   1.58536   2.74127 
 1                     0.50535   0.26953   0.14686 
 1                     4.58126  -1.16328  -3.18943 
 1                     4.05891  -2.48324  -2.21014 
 1                    -5.54052  -2.27903  -3.24443 
 1                     4.97292  -1.3982   -0.07612 
 1                     5.70176  -0.17195  -1.10762 
 1                     3.82063   0.39422  -4.2166 
 1                     3.76437   1.89905  -3.22373 
 1                     2.23801   1.77637  -4.26938 
 1                     0.78388   2.53762  -2.81467 
 1                    -7.11757  -3.19478  -0.53584 
 1                    -7.69385  -3.47981  -2.4699 
 1                     3.71535   3.64116   3.50185 
 1                     0.09251   4.76461  -2.49785 
 1                    -4.04709   4.43122  -0.50299 
 1                    -3.8306    3.79929   1.21827 
 1                    -2.96754   5.33927   0.66506 
 1                     8.40286  -2.43046  -0.85378 
 1                    -1.66465   6.53128  -3.02198 
 1                    -3.32079   5.77987  -2.06855 
 
 Stoichiometry    C33H36N4O6
 Framework group  C1[X(C33H36N4O6)]
 Deg. of freedom   231
 Full point group                 C1      NOp   1
 Largest Abelian subgroup         C1      NOp   1
 Largest concise Abelian subgroup C1      NOp   1
                         Standard orientation:                         
 ---------------------------------------------------------------------
 Center     Atomic      Atomic             Coordinates (Angstroms)
 Number     Number       Type             X           Y           Z
 ---------------------------------------------------------------------
      1          8           0       -3.272925   -1.513394   -2.803705
      2          8           0        3.070396    3.275371    2.852851
      3          8           0        3.590824    1.695224    4.390431
      4          8           0        7.657330   -1.706522   -0.569108
      5          8           0        6.651942   -3.017663   -2.032375
      6          8           0       -2.611505    1.636775    1.350507
      7          7           0       -0.303508   -2.382642    1.034226
      8          7           0       -2.655611   -1.192646   -0.593435
      9          7           0        1.110559    0.016344   -0.751721
     10          7           0       -0.982225    1.480517   -0.264242
     11          6           0       -3.390016   -1.345046    0.714995
     12          6           0       -2.574348   -2.249443    1.699896
     13          6           0       -1.166381   -1.923516    1.871926
     14          6           0       -0.525469   -1.069621    2.770737
     15          6           0        0.829826   -1.075223    2.474915
     16          6           0        0.971763   -1.811993    1.303062
     17          6           0       -4.669953   -1.909433    0.355162
     18          6           0        1.867337   -0.197224    3.204886
     19          6           0       -4.719848   -2.079565   -0.964681
     20          6           0        2.097305   -1.917660    0.388234
     21          6           0        2.128868   -0.964855   -0.630850
     22          6           0       -3.577785   -1.632269   -1.623117
     23          6           0        3.000172   -0.823221   -1.734933
     24          6           0       -1.270051   -0.254015    3.861603
     25          6           0       -5.661845   -2.272065    1.414438
     26          6           0        2.491953    0.335950   -2.489787
     27          6           0        1.883610    1.254829    2.694155
     28          6           0        1.345725    0.849160   -1.853545
     29          6           0        4.321957   -1.472792   -1.995354
     30          6           0       -5.828247   -2.595797   -1.910290
     31          6           0        5.395579   -1.133608   -1.036490
     32          6           0        3.104986    0.970971   -3.706709
     33          6           0        0.492006    1.944771   -2.017509
     34          6           0        2.893166    2.134836    3.421269
     35          6           0       -0.586645    2.267926   -1.362947
     36          6           0       -6.956932   -3.265656   -1.444050
     37          6           0        6.596599   -2.098680   -1.305270
     38          6           0       -1.493102    3.411305   -1.458758
     39          6           0       -2.305603    3.322121   -0.261548
     40          6           0       -1.967225    2.025702    0.440242
     41          6           0       -1.240607    4.540757   -2.313840
     42          6           0       -3.481244    4.274451    0.235631
     43          6           0       -2.057210    5.569549   -2.642476
     44          1           0       -3.444230   -0.361489    1.023010
     45          1           0       -2.603495   -3.190698    1.399780
     46          1           0       -2.973090   -2.231547    2.683385
     47          1           0       -0.517865   -2.965343    0.136100
     48          1           0       -1.723725   -0.547767   -0.930596
     49          1           0        1.789509    0.007963    4.422264
     50          1           0        2.783757   -0.631623    3.114072
     51          1           0        2.850205   -2.762013    0.697501
     52          1           0       -2.022541   -0.792585    4.432901
     53          1           0       -0.505186    0.386222    4.415796
     54          1           0       -1.783116    0.564422    3.181524
     55          1           0       -5.441260   -1.311633    2.083019
     56          1           0       -5.500845   -3.302953    1.856034
     57          1           0       -6.591084   -2.141071    1.028240
     58          1           0        2.186660    1.147697    1.578424
     59          1           0        0.692646    1.710656    2.664993
     60          1           0        0.504106    0.277353    0.133536
     61          1           0        4.579422   -1.283634   -3.145492
     62          1           0        4.066769   -2.560536   -2.105837
     63          1           0       -5.536196   -2.454989   -3.121853
     64          1           0        4.980173   -1.374806   -0.025819
     65          1           0        5.699693   -0.192784   -1.113929
     66          1           0        3.807686    0.221500   -4.240214
     67          1           0        3.745671    1.769554   -3.316548
     68          1           0        2.217383    1.591327   -4.351331
     69          1           0        0.762762    2.410047   -2.928683
     70          1           0       -7.101399   -3.255219   -0.370143
     71          1           0       -7.680961   -3.630881   -2.287667
     72          1           0        3.703987    3.815050    3.323113
     73          1           0        0.059985    4.645392   -2.711395
     74          1           0       -4.072700    4.380760   -0.692050
     75          1           0       -3.848425    3.828835    1.055528
     76          1           0       -2.995206    5.346705    0.430588
     77          1           0        8.413757   -2.422909   -0.765256
     78          1           0       -1.708139    6.376992   -3.310351
     79          1           0       -3.357740    5.660787   -2.319228
 ---------------------------------------------------------------------
 Rotational constants (GHZ):           0.0913111           0.0510306           0.0485345
 Standard basis: SVP (5D, 7F)
 There are   825 symmetry adapted cartesian basis functions of A   symmetry.
 There are   782 symmetry adapted basis functions of A   symmetry.
   782 basis functions,  1327 primitive gaussians,   825 cartesian basis functions
   155 alpha electrons      155 beta electrons
       nuclear repulsion energy      5214.6675813585 Hartrees.
 NAtoms=   79 NActive=   79 NUniq=   79 SFac= 1.00D+00 NAtFMM=   60 NAOKFM=T Big=T
 Integral buffers will be    131072 words long.
 Regular integral format.
 Two-electron integral symmetry is turned on.
 One-electron integrals computed using PRISM.
 NBasis=   782 RedAO= T EigKep=  3.35D-04  NBF=   782
 NBsUse=   782 1.00D-06 EigRej= -1.00D+00 NBFU=   782
 ExpMin= 1.22D-01 ExpMax= 2.27D+03 ExpMxC= 3.41D+02 IAcc=3 IRadAn=         5 AccDes= 0.00D+00
 Harris functional with IExCor=  402 and IRadAn=       5 diagonalized for initial guess.
 HarFok:  IExCor=  402 AccDes= 0.00D+00 IRadAn=         5 IDoV= 1 UseB2=F ITyADJ=14
 ICtDFT=  3500011 ScaDFX=  1.000000  1.000000  1.000000  1.000000
 FoFCou: FMM=F IPFlag=           0 FMFlag=      100000 FMFlg1=        2001
         NFxFlg=           0 DoJE=T BraDBF=F KetDBF=T FulRan=T
         wScrn=  0.000000 ICntrl=       500 IOpCl=  0 I1Cent=   200000004 NGrid=           0
         NMat0=    1 NMatS0=      1 NMatT0=    0 NMatD0=    1 NMtDS0=    0 NMtDT0=    0
 Petite list used in FoFCou.
 Requested convergence on RMS density matrix=1.00D-08 within 128 cycles.
 Requested convergence on MAX density matrix=1.00D-06.
 Requested convergence on             energy=1.00D-06.
 No special actions if energy rises.
 Integral accuracy reduced to 1.0D-05 until final iterations.
 Initial convergence to 1.0D-05 achieved.  Increase integral accuracy.
 SCF Done:  E(RB3LYP) =  -1947.75067946     A.U. after   22 cycles
            NFock= 22  Conv=0.44D-08     -V/T= 2.0107
 DoSCS=F DFT=T ScalE2(SS,OS)=  1.000000  1.000000
 ExpMin= 1.22D-01 ExpMax= 2.27D+03 ExpMxC= 3.41D+02 IAcc=3 IRadAn=         5 AccDes= 0.00D+00
 HarFok:  IExCor=  205 AccDes= 0.00D+00 IRadAn=         5 IDoV=-2 UseB2=F ITyADJ=14
 ICtDFT= 12500011 ScaDFX=  1.000000  1.000000  1.000000  1.000000
 GSVD:  LWork=       -2193 too small for GESVD, short by        9890 words or        9890 for optimal perf.
 Range of M.O.s used for correlation:    44   782
 NBasis=   782 NAE=   155 NBE=   155 NFC=    43 NFV=     0
 NROrb=    739 NOA=   112 NOB=   112 NVA=   627 NVB=   627

 **** Warning!!: The smallest alpha delta epsilon is  0.53124099D-01

 Orbital symmetries:
       Occupied  (A) (A) (A) (A) (A) (A) (A) (A) (A) (A) (A) (A)
                 (A) (A) (A) (A) (A) (A) (A) (A) (A) (A) (A) (A)
                 (A) (A) (A) (A) (A) (A) (A) (A) (A) (A) (A) (A)
                 (A) (A) (A) (A) (A) (A) (A) (A) (A) (A) (A) (A)
                 (A) (A) (A) (A) (A) (A) (A) (A) (A) (A) (A) (A)
                 (A) (A) (A) (A) (A) (A) (A) (A) (A) (A) (A) (A)
                 (A) (A) (A) (A) (A) (A) (A) (A) (A) (A) (A) (A)
                 (A) (A) (A) (A) (A) (A) (A) (A) (A) (A) (A) (A)
                 (A) (A) (A) (A) (A) (A) (A) (A) (A) (A) (A) (A)
                 (A) (A) (A) (A) (A) (A) (A) (A) (A) (A) (A) (A)
                 (A) (A) (A) (A) (A) (A) (A) (A) (A) (A) (A) (A)
                 (A) (A) (A) (A) (A) (A) (A) (A) (A) (A) (A) (A)
                 (A) (A) (A) (A) (A) (A) (A) (A) (A) (A) (A)
       Virtual   (A) (A) (A) (A) (A) (A) (A) (A) (A) (A) (A) (A)
                 (A) (A) (A) (A) (A) (A) (A) (A) (A) (A) (A) (A)
                 (A) (A) (A) (A) (A) (A) (A) (A) (A) (A) (A) (A)
                 (A) (A) (A) (A) (A) (A) (A) (A) (A) (A) (A) (A)
                 (A) (A) (A) (A) (A) (A) (A) (A) (A) (A) (A) (A)
                 (A) (A) (A) (A) (A) (A) (A) (A) (A) (A) (A) (A)
                 (A) (A) (A) (A) (A) (A) (A) (A) (A) (A) (A) (A)
                 (A) (A) (A) (A) (A) (A) (A) (A) (A) (A) (A) (A)
                 (A) (A) (A) (A) (A) (A) (A) (A) (A) (A) (A) (A)
                 (A) (A) (A) (A) (A) (A) (A) (A) (A) (A) (A) (A)
                 (A) (A) (A) (A) (A) (A) (A) (A) (A) (A) (A) (A)
                 (A) (A) (A) (A) (A) (A) (A) (A) (A) (A) (A) (A)
                 (A) (A) (A) (A) (A) (A) (A) (A) (A) (A) (A) (A)
                 (A) (A) (A) (A) (A) (A) (A) (A) (A) (A) (A) (A)
                 (A) (A) (A) (A) (A) (A) (A) (A) (A) (A) (A) (A)
                 (A) (A) (A) (A) (A) (A) (A) (A) (A) (A) (A) (A)
                 (A) (A) (A) (A) (A) (A) (A) (A) (A) (A) (A) (A)
                 (A) (A) (A) (A) (A) (A) (A) (A) (A) (A) (A) (A)
                 (A) (A) (A) (A) (A) (A) (A) (A) (A) (A) (A) (A)
                 (A) (A) (A) (A) (A) (A) (A) (A) (A) (A) (A) (A)
                 (A) (A) (A) (A) (A) (A) (A) (A) (A) (A) (A) (A)
                 (A) (A) (A) (A) (A) (A) (A) (A) (A) (A) (A) (A)
                 (A) (A) (A) (A) (A) (A) (A) (A) (A) (A) (A) (A)
                 (A) (A) (A) (A) (A) (A) (A) (A) (A) (A) (A) (A)
                 (A) (A) (A) (A) (A) (A) (A) (A) (A) (A) (A) (A)
                 (A) (A) (A) (A) (A) (A) (A) (A) (A) (A) (A) (A)
                 (A) (A) (A) (A) (A) (A) (A) (A) (A) (A) (A) (A)
                 (A) (A) (A) (A) (A) (A) (A) (A) (A) (A) (A) (A)
                 (A) (A) (A) (A) (A) (A) (A) (A) (A) (A) (A) (A)
                 (A) (A) (A) (A) (A) (A) (A) (A) (A) (A) (A) (A)
                 (A) (A) (A) (A) (A) (A) (A) (A) (A) (A) (A) (A)
                 (A) (A) (A) (A) (A) (A) (A) (A) (A) (A) (A) (A)
                 (A) (A) (A) (A) (A) (A) (A) (A) (A) (A) (A) (A)
                 (A) (A) (A) (A) (A) (A) (A) (A) (A) (A) (A) (A)
                 (A) (A) (A) (A) (A) (A) (A) (A) (A) (A) (A) (A)
                 (A) (A) (A) (A) (A) (A) (A) (A) (A) (A) (A) (A)
                 (A) (A) (A) (A) (A) (A) (A) (A) (A) (A) (A) (A)
                 (A) (A) (A) (A) (A) (A) (A) (A) (A) (A) (A) (A)
                 (A) (A) (A) (A) (A) (A) (A) (A) (A) (A) (A) (A)
                 (A) (A) (A) (A) (A) (A) (A) (A) (A) (A) (A) (A)
                 (A) (A) (A) (A) (A) (A) (A) (A) (A) (A) (A) (A)
                 (A) (A) (A) (A) (A) (A) (A) (A) (A) (A) (A) (A)
                 (A) (A) (A) (A) (A) (A) (A) (A) (A) (A) (A) (A)
                 (A) (A) (A) (A) (A) (A) (A) (A) (A) (A) (A) (A)
                 (A) (A) (A) (A) (A) (A) (A) (A) (A) (A) (A) (A)
                 (A) (A) (A) (A) (A) (A) (A) (A) (A) (A) (A) (A)
                 (A) (A) (A) (A) (A) (A) (A) (A) (A) (A) (A) (A)
                 (A) (A) (A) (A) (A) (A) (A) (A) (A) (A) (A) (A)
                 (A) (A) (A) (A) (A) (A) (A) (A) (A) (A) (A) (A)
                 (A) (A) (A) (A) (A) (A) (A) (A) (A) (A) (A) (A)
                 (A) (A) (A) (A) (A) (A) (A) (A) (A) (A) (A) (A)
                 (A) (A) (A) (A) (A) (A) (A) (A) (A) (A) (A) (A)
                 (A) (A) (A)
     4 initial guesses have been made.
 Convergence on wavefunction:    0.001000000000000
 Iteration     1 Dimension     4 NMult     0 NNew      4
 CISAX will form     4 AO SS matrices at one time.
 Iteration     2 Dimension     6 NMult     4 NNew      2
 Iteration     3 Dimension     8 NMult     6 NNew      2
 Iteration     4 Dimension    10 NMult     8 NNew      2
 Iteration     5 Dimension    12 NMult    10 NNew      2
 Iteration     6 Dimension    14 NMult    12 NNew      2
 ***********************************************************************
 Excited states from <AA,BB:AA,BB> singles matrix:
 ***********************************************************************
 
 Ground to excited state transition densities written to RWF  633
 Ground to excited state transition electric dipole moments (Au):
       state          X           Y           Z        Dip. S.      Osc.
         1        -0.0644     -0.2223      0.2447      0.1135      0.0020
 Ground to excited state transition velocity dipole moments (Au):
       state          X           Y           Z        Dip. S.      Osc.
         1         0.0032      0.0053     -0.0062      0.0001      0.0020
 Ground to excited state transition magnetic dipole moments (Au):
       state          X           Y           Z
         1         0.1007      0.2262      0.2643
 Ground to excited state transition velocity quadrupole moments (Au):
       state          XX          YY          ZZ          XY          XZ          YZ
         1         0.0119      0.0236     -0.0170     -0.0213     -0.0151      0.0010
 <0|del|b> * <b|rxdel|0> + <0|del|b> * <b|delr+rdel|0>
 Rotatory Strengths (R) in cgs (10**-40 erg-esu-cm/Gauss)
       state          XX          YY          ZZ    R(velocity)    E-M Angle
         1        -3.1117    -19.5196     19.5124     -1.0396       92.08
 1/2[<0|r|b>*<b|rxdel|0> + (<0|rxdel|b>*<b|r|0>)*]
 Rotatory Strengths (R) in cgs (10**-40 erg-esu-cm/Gauss)
       state          XX          YY          ZZ     R(length)
         1         4.5853     35.5607    -45.7367     -1.8636
  1/2[<0|del|b>*<b|r|0> + (<0|r|b>*<b|del|0>)*] (Au)
       state          X           Y           Z        Dip. S.   Osc.(frdel)
         1        -0.0002     -0.0012     -0.0015      0.0029      0.0019

 Excitation energies and oscillator strengths:
 
 Excited State   1:      Singlet-A      0.7047 eV 1759.51 nm  f=0.0020  <S**2>=0.000
     155 ->156         0.70435
 This state for optimization and/or second-order correction.
 Total Energy, E(TD-HF/TD-DFT) =  -1947.72478402    
 Copying the excited state density for this state as the 1-particle RhoCI density.
 SavETr:  write IOETrn=   770 NScale= 10 NData=  16 NLR=1 NState=    1 LETran=      28.

 **********************************************************************

            Population analysis using the SCF density.

 **********************************************************************

 Orbital symmetries:
       Occupied  (A) (A) (A) (A) (A) (A) (A) (A) (A) (A) (A) (A)
                 (A) (A) (A) (A) (A) (A) (A) (A) (A) (A) (A) (A)
                 (A) (A) (A) (A) (A) (A) (A) (A) (A) (A) (A) (A)
                 (A) (A) (A) (A) (A) (A) (A) (A) (A) (A) (A) (A)
                 (A) (A) (A) (A) (A) (A) (A) (A) (A) (A) (A) (A)
                 (A) (A) (A) (A) (A) (A) (A) (A) (A) (A) (A) (A)
                 (A) (A) (A) (A) (A) (A) (A) (A) (A) (A) (A) (A)
                 (A) (A) (A) (A) (A) (A) (A) (A) (A) (A) (A) (A)
                 (A) (A) (A) (A) (A) (A) (A) (A) (A) (A) (A) (A)
                 (A) (A) (A) (A) (A) (A) (A) (A) (A) (A) (A) (A)
                 (A) (A) (A) (A) (A) (A) (A) (A) (A) (A) (A) (A)
                 (A) (A) (A) (A) (A) (A) (A) (A) (A) (A) (A) (A)
                 (A) (A) (A) (A) (A) (A) (A) (A) (A) (A) (A)
       Virtual   (A) (A) (A) (A) (A) (A) (A) (A) (A) (A) (A) (A)
                 (A) (A) (A) (A) (A) (A) (A) (A) (A) (A) (A) (A)
                 (A) (A) (A) (A) (A) (A) (A) (A) (A) (A) (A) (A)
                 (A) (A) (A) (A) (A) (A) (A) (A) (A) (A) (A) (A)
                 (A) (A) (A) (A) (A) (A) (A) (A) (A) (A) (A) (A)
                 (A) (A) (A) (A) (A) (A) (A) (A) (A) (A) (A) (A)
                 (A) (A) (A) (A) (A) (A) (A) (A) (A) (A) (A) (A)
                 (A) (A) (A) (A) (A) (A) (A) (A) (A) (A) (A) (A)
                 (A) (A) (A) (A) (A) (A) (A) (A) (A) (A) (A) (A)
                 (A) (A) (A) (A) (A) (A) (A) (A) (A) (A) (A) (A)
                 (A) (A) (A) (A) (A) (A) (A) (A) (A) (A) (A) (A)
                 (A) (A) (A) (A) (A) (A) (A) (A) (A) (A) (A) (A)
                 (A) (A) (A) (A) (A) (A) (A) (A) (A) (A) (A) (A)
                 (A) (A) (A) (A) (A) (A) (A) (A) (A) (A) (A) (A)
                 (A) (A) (A) (A) (A) (A) (A) (A) (A) (A) (A) (A)
                 (A) (A) (A) (A) (A) (A) (A) (A) (A) (A) (A) (A)
                 (A) (A) (A) (A) (A) (A) (A) (A) (A) (A) (A) (A)
                 (A) (A) (A) (A) (A) (A) (A) (A) (A) (A) (A) (A)
                 (A) (A) (A) (A) (A) (A) (A) (A) (A) (A) (A) (A)
                 (A) (A) (A) (A) (A) (A) (A) (A) (A) (A) (A) (A)
                 (A) (A) (A) (A) (A) (A) (A) (A) (A) (A) (A) (A)
                 (A) (A) (A) (A) (A) (A) (A) (A) (A) (A) (A) (A)
                 (A) (A) (A) (A) (A) (A) (A) (A) (A) (A) (A) (A)
                 (A) (A) (A) (A) (A) (A) (A) (A) (A) (A) (A) (A)
                 (A) (A) (A) (A) (A) (A) (A) (A) (A) (A) (A) (A)
                 (A) (A) (A) (A) (A) (A) (A) (A) (A) (A) (A) (A)
                 (A) (A) (A) (A) (A) (A) (A) (A) (A) (A) (A) (A)
                 (A) (A) (A) (A) (A) (A) (A) (A) (A) (A) (A) (A)
                 (A) (A) (A) (A) (A) (A) (A) (A) (A) (A) (A) (A)
                 (A) (A) (A) (A) (A) (A) (A) (A) (A) (A) (A) (A)
                 (A) (A) (A) (A) (A) (A) (A) (A) (A) (A) (A) (A)
                 (A) (A) (A) (A) (A) (A) (A) (A) (A) (A) (A) (A)
                 (A) (A) (A) (A) (A) (A) (A) (A) (A) (A) (A) (A)
                 (A) (A) (A) (A) (A) (A) (A) (A) (A) (A) (A) (A)
                 (A) (A) (A) (A) (A) (A) (A) (A) (A) (A) (A) (A)
                 (A) (A) (A) (A) (A) (A) (A) (A) (A) (A) (A) (A)
                 (A) (A) (A) (A) (A) (A) (A) (A) (A) (A) (A) (A)
                 (A) (A) (A) (A) (A) (A) (A) (A) (A) (A) (A) (A)
                 (A) (A) (A) (A) (A) (A) (A) (A) (A) (A) (A) (A)
                 (A) (A) (A) (A) (A) (A) (A) (A) (A) (A) (A) (A)
                 (A) (A) (A) (A) (A) (A) (A) (A) (A) (A) (A) (A)
                 (A) (A) (A) (A) (A) (A) (A) (A) (A) (A) (A) (A)
                 (A) (A) (A) (A) (A) (A) (A) (A) (A) (A) (A) (A)
                 (A) (A) (A) (A) (A) (A) (A) (A) (A) (A) (A) (A)
                 (A) (A) (A) (A) (A) (A) (A) (A) (A) (A) (A) (A)
                 (A) (A) (A) (A) (A) (A) (A) (A) (A) (A) (A) (A)
                 (A) (A) (A) (A) (A) (A) (A) (A) (A) (A) (A) (A)
                 (A) (A) (A) (A) (A) (A) (A) (A) (A) (A) (A) (A)
                 (A) (A) (A) (A) (A) (A) (A) (A) (A) (A) (A) (A)
                 (A) (A) (A) (A) (A) (A) (A) (A) (A) (A) (A) (A)
                 (A) (A) (A) (A) (A) (A) (A) (A) (A) (A) (A) (A)
                 (A) (A) (A) (A) (A) (A) (A) (A) (A) (A) (A) (A)
                 (A) (A) (A)
 The electronic state is 1-A.
 Alpha  occ. eigenvalues --  -19.20167 -19.19689 -19.14737 -19.11939 -19.11009
 Alpha  occ. eigenvalues --  -19.07210 -14.37421 -14.37388 -14.31657 -14.28641
 Alpha  occ. eigenvalues --  -10.33444 -10.32599 -10.26842 -10.26354 -10.26118
 Alpha  occ. eigenvalues --  -10.24993 -10.24791 -10.24088 -10.23777 -10.23570
 Alpha  occ. eigenvalues --  -10.23557 -10.22915 -10.22701 -10.22384 -10.21988
 Alpha  occ. eigenvalues --  -10.21657 -10.21346 -10.21027 -10.20870 -10.20740
 Alpha  occ. eigenvalues --  -10.20549 -10.20157 -10.19882 -10.19881 -10.19728
 Alpha  occ. eigenvalues --  -10.19365 -10.19237 -10.19131 -10.18002 -10.17845
 Alpha  occ. eigenvalues --  -10.17800 -10.17747 -10.16021  -1.12226  -1.11746
 Alpha  occ. eigenvalues --   -1.04298  -1.02481  -0.99097  -0.98661  -0.98296
 Alpha  occ. eigenvalues --   -0.97827  -0.92419  -0.89967  -0.84338  -0.83171
 Alpha  occ. eigenvalues --   -0.80358  -0.79671  -0.79501  -0.79166  -0.78657
 Alpha  occ. eigenvalues --   -0.76989  -0.75818  -0.74583  -0.73776  -0.73184
 Alpha  occ. eigenvalues --   -0.70459  -0.70081  -0.69540  -0.69043  -0.68078
 Alpha  occ. eigenvalues --   -0.66832  -0.66009  -0.63751  -0.61226  -0.60629
 Alpha  occ. eigenvalues --   -0.59985  -0.59180  -0.57499  -0.57242  -0.56111
 Alpha  occ. eigenvalues --   -0.55151  -0.54661  -0.54167  -0.53639  -0.52292
 Alpha  occ. eigenvalues --   -0.51863  -0.51737  -0.51050  -0.50104  -0.49744
 Alpha  occ. eigenvalues --   -0.49493  -0.49111  -0.48699  -0.48123  -0.48017
 Alpha  occ. eigenvalues --   -0.47849  -0.47179  -0.46116  -0.45905  -0.44942
 Alpha  occ. eigenvalues --   -0.44786  -0.44487  -0.44334  -0.44063  -0.43548
 Alpha  occ. eigenvalues --   -0.43522  -0.43227  -0.42988  -0.42644  -0.42471
 Alpha  occ. eigenvalues --   -0.42233  -0.41600  -0.41412  -0.41165  -0.40636
 Alpha  occ. eigenvalues --   -0.40528  -0.40367  -0.39960  -0.39468  -0.39292
 Alpha  occ. eigenvalues --   -0.39143  -0.38692  -0.38384  -0.38137  -0.37991
 Alpha  occ. eigenvalues --   -0.37339  -0.37017  -0.36920  -0.36783  -0.36400
 Alpha  occ. eigenvalues --   -0.35994  -0.35777  -0.35605  -0.34471  -0.34148
 Alpha  occ. eigenvalues --   -0.33740  -0.33359  -0.32521  -0.31915  -0.31568
 Alpha  occ. eigenvalues --   -0.31270  -0.30432  -0.29196  -0.28806  -0.27766
 Alpha  occ. eigenvalues --   -0.27510  -0.26439  -0.23984  -0.23935  -0.23263
 Alpha  occ. eigenvalues --   -0.22908  -0.22687  -0.22210  -0.21514  -0.18913
 Alpha virt. eigenvalues --   -0.13601  -0.07782  -0.04160  -0.01497  -0.01048
 Alpha virt. eigenvalues --   -0.00310   0.01117   0.01685   0.02103   0.02428
 Alpha virt. eigenvalues --    0.02592   0.03277   0.03714   0.04144   0.04786
 Alpha virt. eigenvalues --    0.05094   0.05442   0.05925   0.06017   0.06531
 Alpha virt. eigenvalues --    0.07484   0.07657   0.08030   0.08178   0.08765
 Alpha virt. eigenvalues --    0.09013   0.09513   0.09937   0.10068   0.10129
 Alpha virt. eigenvalues --    0.10696   0.11293   0.11437   0.11641   0.12711
 Alpha virt. eigenvalues --    0.13064   0.13392   0.13480   0.14148   0.14351
 Alpha virt. eigenvalues --    0.14672   0.15528   0.15686   0.15870   0.16355
 Alpha virt. eigenvalues --    0.16636   0.16932   0.17296   0.18283   0.18527
 Alpha virt. eigenvalues --    0.18735   0.19180   0.19285   0.19856   0.20423
 Alpha virt. eigenvalues --    0.20613   0.21359   0.21571   0.21749   0.22374
 Alpha virt. eigenvalues --    0.23093   0.23241   0.23647   0.24514   0.24885
 Alpha virt. eigenvalues --    0.26029   0.26245   0.26677   0.26811   0.27321
 Alpha virt. eigenvalues --    0.27633   0.28452   0.28738   0.29769   0.30032
 Alpha virt. eigenvalues --    0.30067   0.30288   0.30772   0.31275   0.31550
 Alpha virt. eigenvalues --    0.32000   0.32207   0.33077   0.33729   0.34287
 Alpha virt. eigenvalues --    0.34928   0.35645   0.35917   0.36170   0.36469
 Alpha virt. eigenvalues --    0.37009   0.37984   0.38464   0.38828   0.39384
 Alpha virt. eigenvalues --    0.39651   0.40214   0.40758   0.41142   0.41345
 Alpha virt. eigenvalues --    0.42118   0.42177   0.42572   0.42844   0.43274
 Alpha virt. eigenvalues --    0.43531   0.43677   0.44192   0.44527   0.44886
 Alpha virt. eigenvalues --    0.44997   0.45425   0.45938   0.46300   0.46501
 Alpha virt. eigenvalues --    0.47059   0.47379   0.47484   0.47936   0.48067
 Alpha virt. eigenvalues --    0.48402   0.48869   0.48945   0.49356   0.49638
 Alpha virt. eigenvalues --    0.50190   0.50531   0.50845   0.50982   0.51361
 Alpha virt. eigenvalues --    0.51605   0.52154   0.52451   0.52725   0.53263
 Alpha virt. eigenvalues --    0.53574   0.54457   0.54513   0.55029   0.55245
 Alpha virt. eigenvalues --    0.55494   0.56089   0.56381   0.56860   0.57410
 Alpha virt. eigenvalues --    0.58029   0.58327   0.58782   0.58853   0.59235
 Alpha virt. eigenvalues --    0.59779   0.59832   0.60100   0.60380   0.60902
 Alpha virt. eigenvalues --    0.61054   0.61231   0.61630   0.61708   0.61913
 Alpha virt. eigenvalues --    0.62321   0.62581   0.62796   0.62957   0.63311
 Alpha virt. eigenvalues --    0.63405   0.63878   0.63883   0.64352   0.64535
 Alpha virt. eigenvalues --    0.64724   0.64830   0.65217   0.65397   0.65719
 Alpha virt. eigenvalues --    0.65938   0.66493   0.66684   0.66916   0.67034
 Alpha virt. eigenvalues --    0.67519   0.67880   0.68109   0.68774   0.69184
 Alpha virt. eigenvalues --    0.69524   0.69634   0.70024   0.70381   0.70571
 Alpha virt. eigenvalues --    0.70802   0.71029   0.71309   0.71622   0.72019
 Alpha virt. eigenvalues --    0.72272   0.72918   0.73148   0.73690   0.73827
 Alpha virt. eigenvalues --    0.74312   0.74509   0.74747   0.75094   0.75355
 Alpha virt. eigenvalues --    0.75959   0.76108   0.76259   0.76830   0.77204
 Alpha virt. eigenvalues --    0.77798   0.78319   0.78745   0.79067   0.79537
 Alpha virt. eigenvalues --    0.80158   0.80250   0.80600   0.81357   0.81422
 Alpha virt. eigenvalues --    0.81776   0.82647   0.83281   0.83779   0.84586
 Alpha virt. eigenvalues --    0.85065   0.85271   0.86020   0.86704   0.87043
 Alpha virt. eigenvalues --    0.87924   0.88116   0.88634   0.90203   0.90556
 Alpha virt. eigenvalues --    0.91040   0.91317   0.91979   0.92618   0.93236
 Alpha virt. eigenvalues --    0.93583   0.94487   0.94861   0.95511   0.95806
 Alpha virt. eigenvalues --    0.96122   0.96532   0.97133   0.97853   0.98986
 Alpha virt. eigenvalues --    0.99391   0.99946   1.01174   1.01541   1.01773
 Alpha virt. eigenvalues --    1.02485   1.03126   1.03468   1.06187   1.06376
 Alpha virt. eigenvalues --    1.07402   1.08220   1.08798   1.09532   1.10133
 Alpha virt. eigenvalues --    1.10831   1.11152   1.12016   1.12370   1.13326
 Alpha virt. eigenvalues --    1.13816   1.14338   1.14643   1.15558   1.15891
 Alpha virt. eigenvalues --    1.16998   1.17870   1.18292   1.19344   1.19636
 Alpha virt. eigenvalues --    1.20216   1.20845   1.21450   1.22189   1.22348
 Alpha virt. eigenvalues --    1.23010   1.23102   1.23965   1.24542   1.24753
 Alpha virt. eigenvalues --    1.26225   1.27031   1.27194   1.27403   1.28140
 Alpha virt. eigenvalues --    1.28366   1.28805   1.30050   1.30568   1.31055
 Alpha virt. eigenvalues --    1.31536   1.32145   1.32579   1.33035   1.33620
 Alpha virt. eigenvalues --    1.33643   1.34935   1.36596   1.36808   1.37166
 Alpha virt. eigenvalues --    1.37583   1.38580   1.39003   1.39478   1.39879
 Alpha virt. eigenvalues --    1.41425   1.42366   1.43656   1.44548   1.44957
 Alpha virt. eigenvalues --    1.45554   1.46714   1.46942   1.47359   1.47785
 Alpha virt. eigenvalues --    1.47898   1.48363   1.49101   1.49115   1.49814
 Alpha virt. eigenvalues --    1.51215   1.51679   1.52784   1.52926   1.53091
 Alpha virt. eigenvalues --    1.53927   1.55027   1.55207   1.55548   1.56251
 Alpha virt. eigenvalues --    1.57280   1.57632   1.58070   1.58950   1.60085
 Alpha virt. eigenvalues --    1.60567   1.61000   1.61481   1.61655   1.62335
 Alpha virt. eigenvalues --    1.62791   1.63190   1.63555   1.63870   1.64359
 Alpha virt. eigenvalues --    1.64588   1.65359   1.65534   1.65783   1.66088
 Alpha virt. eigenvalues --    1.66408   1.67375   1.67863   1.68249   1.68742
 Alpha virt. eigenvalues --    1.69108   1.69542   1.69992   1.70456   1.70652
 Alpha virt. eigenvalues --    1.70927   1.71733   1.72319   1.72892   1.73461
 Alpha virt. eigenvalues --    1.73738   1.74161   1.74328   1.74603   1.74939
 Alpha virt. eigenvalues --    1.75122   1.75577   1.76032   1.76386   1.77130
 Alpha virt. eigenvalues --    1.77176   1.77671   1.77805   1.78235   1.78421
 Alpha virt. eigenvalues --    1.78642   1.79176   1.79510   1.79952   1.80567
 Alpha virt. eigenvalues --    1.80953   1.81041   1.81399   1.81584   1.82129
 Alpha virt. eigenvalues --    1.82741   1.83363   1.83679   1.84063   1.84213
 Alpha virt. eigenvalues --    1.84894   1.84997   1.85339   1.85505   1.86518
 Alpha virt. eigenvalues --    1.87146   1.87199   1.87715   1.88139   1.88901
 Alpha virt. eigenvalues --    1.89053   1.89569   1.90061   1.91047   1.91700
 Alpha virt. eigenvalues --    1.92198   1.92913   1.93559   1.93934   1.94121
 Alpha virt. eigenvalues --    1.94334   1.94690   1.95152   1.95632   1.96183
 Alpha virt. eigenvalues --    1.96929   1.97621   1.98373   1.98528   1.98820
 Alpha virt. eigenvalues --    1.99142   1.99456   1.99948   2.00684   2.00990
 Alpha virt. eigenvalues --    2.01862   2.02443   2.02814   2.03620   2.04168
 Alpha virt. eigenvalues --    2.04383   2.05089   2.06096   2.06922   2.07346
 Alpha virt. eigenvalues --    2.07837   2.08145   2.08442   2.09258   2.09545
 Alpha virt. eigenvalues --    2.09936   2.10469   2.10770   2.11200   2.11525
 Alpha virt. eigenvalues --    2.12645   2.13188   2.14122   2.14501   2.15267
 Alpha virt. eigenvalues --    2.15823   2.16615   2.17259   2.17992   2.18661
 Alpha virt. eigenvalues --    2.18805   2.19152   2.20101   2.21424   2.21631
 Alpha virt. eigenvalues --    2.23015   2.23238   2.23980   2.24665   2.24916
 Alpha virt. eigenvalues --    2.25466   2.26541   2.27385   2.27433   2.28414
 Alpha virt. eigenvalues --    2.29311   2.29711   2.30288   2.31302   2.31727
 Alpha virt. eigenvalues --    2.32712   2.33439   2.33825   2.34249   2.35148
 Alpha virt. eigenvalues --    2.35395   2.35964   2.36611   2.37309   2.38119
 Alpha virt. eigenvalues --    2.39070   2.39508   2.39908   2.40422   2.41707
 Alpha virt. eigenvalues --    2.42336   2.42829   2.43171   2.43707   2.44054
 Alpha virt. eigenvalues --    2.44211   2.45538   2.46352   2.46862   2.47407
 Alpha virt. eigenvalues --    2.48566   2.49610   2.49871   2.51252   2.51407
 Alpha virt. eigenvalues --    2.51478   2.52824   2.53937   2.53991   2.55999
 Alpha virt. eigenvalues --    2.56750   2.57899   2.58711   2.59002   2.60410
 Alpha virt. eigenvalues --    2.60970   2.61152   2.61738   2.62469   2.63311
 Alpha virt. eigenvalues --    2.63892   2.64852   2.65251   2.65670   2.67128
 Alpha virt. eigenvalues --    2.67832   2.69020   2.69478   2.69795   2.70686
 Alpha virt. eigenvalues --    2.70990   2.71771   2.72525   2.73311   2.74801
 Alpha virt. eigenvalues --    2.74896   2.75141   2.75589   2.75933   2.76142
 Alpha virt. eigenvalues --    2.76824   2.77151   2.78369   2.78781   2.79510
 Alpha virt. eigenvalues --    2.79843   2.80571   2.80787   2.81997   2.82803
 Alpha virt. eigenvalues --    2.83590   2.86778   2.86920   2.87406   2.88317
 Alpha virt. eigenvalues --    2.89014   2.89888   2.89987   2.90789   2.91683
 Alpha virt. eigenvalues --    2.91917   2.92621   2.93067   2.94505   2.95225
 Alpha virt. eigenvalues --    2.95424   2.96591   2.97804   2.99374   2.99787
 Alpha virt. eigenvalues --    3.00390   3.00626   3.02383   3.03620   3.06612
 Alpha virt. eigenvalues --    3.06760   3.07104   3.10328   3.10623   3.11046
 Alpha virt. eigenvalues --    3.13285   3.13844   3.14846   3.16751   3.16978
 Alpha virt. eigenvalues --    3.17333   3.20679   3.21052   3.21428   3.22126
 Alpha virt. eigenvalues --    3.22370   3.23217   3.24490   3.25843   3.27420
 Alpha virt. eigenvalues --    3.29252   3.30688   3.34183   3.41029   3.44613
 Alpha virt. eigenvalues --    3.46065   3.48263   3.49905   3.51125   3.53433
 Alpha virt. eigenvalues --    3.62529   3.62873   3.64900   3.69422   3.70165
 Alpha virt. eigenvalues --    3.76663   3.77024
          Condensed to atoms (all electrons):
 Mulliken charges:
               1
     1  O   -0.249537
     2  O   -0.099145
     3  O   -0.294144
     4  O   -0.228974
     5  O   -0.178599
     6  O   -0.191417
     7  N   -0.042095
     8  N   -0.381497
     9  N   -0.186349
    10  N   -0.342271
    11  C    0.173522
    12  C    0.346612
    13  C   -0.157806
    14  C   -0.145144
    15  C   -0.059529
    16  C   -0.100680
    17  C   -0.219763
    18  C    0.097110
    19  C   -0.035361
    20  C   -0.117705
    21  C    0.123805
    22  C    0.138129
    23  C   -0.061009
    24  C    0.059709
    25  C    0.111216
    26  C   -0.123809
    27  C   -0.129991
    28  C    0.112977
    29  C    0.044327
    30  C   -0.060236
    31  C    0.101035
    32  C    0.028882
    33  C   -0.064336
    34  C    0.160244
    35  C    0.166975
    36  C   -0.043256
    37  C    0.110867
    38  C    0.073307
    39  C   -0.246496
    40  C    0.169130
    41  C   -0.084178
    42  C    0.120620
    43  C   -0.108031
    44  H    0.008515
    45  H   -0.088878
    46  H   -0.033067
    47  H    0.150219
    48  H    0.200091
    49  H    0.046712
    50  H   -0.035898
    51  H    0.060378
    52  H    0.018140
    53  H    0.003740
    54  H    0.051726
    55  H    0.040266
    56  H    0.061294
    57  H    0.008663
    58  H    0.042849
    59  H    0.088108
    60  H    0.238335
    61  H    0.020325
    62  H    0.031503
    63  H    0.064820
    64  H    0.051188
    65  H   -0.002399
    66  H    0.050233
    67  H    0.035324
    68  H    0.071135
    69  H   -0.058628
    70  H    0.007213
    71  H    0.048597
    72  H    0.179663
    73  H    0.044012
    74  H    0.045309
    75  H    0.004846
    76  H    0.045613
    77  H    0.218633
    78  H    0.034050
    79  H    0.060260
 Sum of Mulliken charges =  -0.00000
 Mulliken charges with hydrogens summed into heavy atoms:
               1
     1  O   -0.249537
     2  O    0.080518
     3  O   -0.294144
     4  O   -0.010341
     5  O   -0.178599
     6  O   -0.191417
     7  N    0.108124
     8  N   -0.181407
     9  N    0.051987
    10  N   -0.342271
    11  C    0.182036
    12  C    0.224667
    13  C   -0.157806
    14  C   -0.145144
    15  C   -0.059529
    16  C   -0.100680
    17  C   -0.219763
    18  C    0.107924
    19  C   -0.035361
    20  C   -0.057327
    21  C    0.123805
    22  C    0.138129
    23  C   -0.061009
    24  C    0.133315
    25  C    0.221439
    26  C   -0.123809
    27  C    0.000966
    28  C    0.112977
    29  C    0.096155
    30  C    0.004585
    31  C    0.149824
    32  C    0.185574
    33  C   -0.122964
    34  C    0.160244
    35  C    0.166975
    36  C    0.012554
    37  C    0.110867
    38  C    0.073307
    39  C   -0.246496
    40  C    0.169130
    41  C   -0.040166
    42  C    0.216387
    43  C   -0.013721
 Electronic spatial extent (au):  <R**2>=          25563.9050
 Charge=             -0.0000 electrons
 Dipole moment (field-independent basis, Debye):
    X=              5.2282    Y=              1.7836    Z=             -0.7316  Tot=              5.5723
 Quadrupole moment (field-independent basis, Debye-Ang):
   XX=           -229.5851   YY=           -235.0362   ZZ=           -275.4333
   XY=              3.9715   XZ=            -24.2710   YZ=            -12.0346
 Traceless Quadrupole moment (field-independent basis, Debye-Ang):
   XX=             17.0998   YY=             11.6486   ZZ=            -28.7484
   XY=              3.9715   XZ=            -24.2710   YZ=            -12.0346
 Octapole moment (field-independent basis, Debye-Ang**2):
  XXX=            237.6858  YYY=             75.9006  ZZZ=            -45.5076  XYY=             34.5877
  XXY=            -19.8910  XXZ=             15.2151  XZZ=              7.3268  YZZ=             53.4626
  YYZ=             46.2782  XYZ=             14.9554
 Hexadecapole moment (field-independent basis, Debye-Ang**3):
 XXXX=         -16779.2751 YYYY=          -8002.4166 ZZZZ=          -7405.1409 XXXY=           -359.8127
 XXXZ=           -283.6697 YYYX=             51.4483 YYYZ=             82.8230 ZZZX=           -402.8050
 ZZZY=             49.0667 XXYY=          -4229.1652 XXZZ=          -4644.2906 YYZZ=          -2422.3271
 XXYZ=           -180.9115 YYXZ=            245.0518 ZZXY=            120.2364
 N-N= 5.214667581358D+03 E-N=-1.495844140922D+04  KE= 1.927058868307D+03
 1\1\GINC-PADAWAN\SP\RB3LYP TD-FC\SVP\C33H36N4O6\PADAWAN\25-Jul-2019\0\
 \# td=(NStates=1) B3LYP/SVP\\TD\\0,1\O,0,-3.2731142216,-1.3652715827,-
 2.8781584701\O,0,3.0801684716,3.1268743459,3.0059748684\O,0,3.58787309
 55,1.4757146998,4.4715015938\O,0,7.6497435773,-1.719578072,-0.62719348
 11\O,0,6.6413782942,-2.9573965346,-2.1510215503\O,0,-2.6062715337,1.58
 93544245,1.4164917097\N,0,-0.318997646,-2.4241487292,0.9237772185\N,0,
 -2.6601880568,-1.148599995,-0.6540575504\N,0,1.1128328327,0.0456654762
 ,-0.7478097182\N,0,-0.9734064861,1.4976451724,-0.199590857\C,0,-3.3990
 050502,-1.3562231847,0.644251399\C,0,-2.5909177179,-2.3088650327,1.589
 1042172\C,0,-1.1817038121,-1.9988076948,1.7792959182\C,0,-0.5387036727
 ,-1.1901302047,2.7175697775\C,0,0.8173528479,-1.1897239734,2.425203715
 \C,0,0.9585685431,-1.8732937641,1.2214569497\C,0,-4.6809530419,-1.8966
 653152,0.2559424815\C,0,1.8575403454,-0.3514754771,3.1969018447\C,0,-4
 .7281191733,-2.0064193503,-1.0703873792\C,0,2.0860465611,-1.9434825405
 ,0.305602839\C,0,2.1255285748,-0.9455764698,-0.6690708086\C,0,-3.58186
 28562,-1.5359555609,-1.7049577792\C,0,3.0006211253,-0.758736622,-1.763
 3902379\C,0,-1.2819067629,-0.4208259396,3.8424797563\C,0,-5.6776929934
 ,-2.301576638,1.2951605217\C,0,2.5007097279,0.4362809963,-2.4660912191
 \C,0,1.8830077332,1.1221579078,2.7526919108\C,0,1.3554989164,0.9263492
 835,-1.8100771137\C,0,4.3196173108,-1.4030497341,-2.0497246026\C,0,-5.
 8366580019,-2.4730994003,-2.041247573\C,0,5.3923947905,-1.1136431095,-
 1.073750792\C,0,3.1204921446,1.1225306557,-3.6513716464\C,0,0.50812323
 64,2.0329384407,-1.9262543705\C,0,2.8952581661,1.9626958551,3.52155750
 1\C,0,-0.5705808897,2.331947827,-1.260401328\C,0,-6.9702009466,-3.1572
 39488,-1.6087494336\C,0,6.5889584654,-2.0720854636,-1.3830689969\C,0,-
 1.4706257174,3.4834505783,-1.3064587206\C,0,-2.2868927787,3.3444549245
 ,-0.1165795642\C,0,-1.9574080132,2.0156725008,0.5264515772\C,0,-1.2097
 209505,4.6491611763,-2.1087226403\C,0,-3.4587765142,4.2796584487,0.420
 3862783\C,0,-2.0198858798,5.6962750457,-2.3923429671\H,0,-3.4487933725
 ,-0.3873842283,0.996483853\H,0,-2.6242840548,-3.2353486599,1.246474996
 6\H,0,-2.9922690467,-2.3334567901,2.5713865274\H,0,-0.5339987047,-2.96
 42851936,-0.0004230323\H,0,-1.7239307828,-0.4941957231,-0.9592400264\H
 ,0,1.777455707,-0.201351589,4.4221443135\H,0,2.7718645194,-0.786320523
 4,3.0887538048\H,0,2.8335521691,-2.8051220951,0.5780908623\H,0,-2.0388
 46514,-0.9806473387,4.3868357454\H,0,-0.5151512831,0.1893847349,4.4270
 990664\H,0,-1.7886981836,0.4304454912,3.1989886642\H,0,-5.4538061678,-
 1.3737155028,2.0072250155\H,0,-5.5234411048,-3.3523193365,1.6898818345
 \H,0,-6.6051478916,-2.1480904524,0.9129776595\H,0,2.1885549949,1.06413
 63555,1.6340110124\H,0,0.6945894104,1.5853607804,2.7412721009\H,0,0.50
 53487925,0.2695313229,0.146862654\H,0,4.5812638456,-1.1632793869,-3.18
 94345454\H,0,4.0589067205,-2.4832401032,-2.2101381218\H,0,-5.54051619,
 -2.2790288275,-3.2444279066\H,0,4.9729152128,-1.3982002999,-0.07612438
 87\H,0,5.7017616175,-0.1719541915,-1.107615244\H,0,3.8206319747,0.3942
 159137,-4.2165998895\H,0,3.7643721888,1.8990509838,-3.2237347089\H,0,2
 .2380095903,1.7763721351,-4.26938009\H,0,0.7838822982,2.537615258,-2.8
 146723592\H,0,-7.1175708432,-3.1947816621,-0.5358426055\H,0,-7.6938476
 497,-3.4798093114,-2.4699000435\H,0,3.715345262,3.6411634773,3.5018534
 395\H,0,0.0925053717,4.7646077403,-2.4978476802\H,0,-4.0470932989,4.43
 12197038,-0.5029914506\H,0,-3.8306018099,3.7992947231,1.2182726387\H,0
 ,-2.9675350697,5.3392742185,0.6650622761\H,0,8.4028559791,-2.430456199
 8,-0.8537760126\H,0,-1.6646493895,6.5312835855,-3.0219770499\H,0,-3.32
 07944323,5.7798693627,-2.0685527628\\Version=ES64L-G16RevA.03\State=1-
 A\HF=-1947.7506795\RMSD=4.386e-09\PG=C01 [X(C33H36N4O6)]\\@


 LENDING MONEY TO FRIENDS CAUSES THEM TO LOSE THEIR MEMORIES.

    --  PETER'S THEORY OF RECIPROCAL INHIBITION OF FISCAL RECALL
 Job cpu time:       0 days  4 hours 38 minutes 14.7 seconds.
 Elapsed time:       0 days  1 hours  9 minutes 39.8 seconds.
 File lengths (MBytes):  RWF=   2533 Int=      0 D2E=      0 Chk=     63 Scr=      1
 Normal termination of Gaussian 16 at Thu Jul 25 15:35:20 2019.
