 Entering Gaussian System, Link 0=g16
 Input=Geometria-95-.com
 Output=Geometria-95-.log
 Initial command:
 /usr/local/g16/l1.exe "/home/padawan/israel-mol/dihydrobiliverdin/spectra/emi/Gau-22986.inp" -scrdir="/home/padawan/israel-mol/dihydrobiliverdin/spectra/emi/"
 Entering Link 1 = /usr/local/g16/l1.exe PID=     22988.
  
 Copyright (c) 1988,1990,1992,1993,1995,1998,2003,2009,2016,
            Gaussian, Inc.  All Rights Reserved.
  
 This is part of the Gaussian(R) 16 program.  It is based on
 the Gaussian(R) 09 system (copyright 2009, Gaussian, Inc.),
 the Gaussian(R) 03 system (copyright 2003, Gaussian, Inc.),
 the Gaussian(R) 98 system (copyright 1998, Gaussian, Inc.),
 the Gaussian(R) 94 system (copyright 1995, Gaussian, Inc.),
 the Gaussian 92(TM) system (copyright 1992, Gaussian, Inc.),
 the Gaussian 90(TM) system (copyright 1990, Gaussian, Inc.),
 the Gaussian 88(TM) system (copyright 1988, Gaussian, Inc.),
 the Gaussian 86(TM) system (copyright 1986, Carnegie Mellon
 University), and the Gaussian 82(TM) system (copyright 1983,
 Carnegie Mellon University). Gaussian is a federally registered
 trademark of Gaussian, Inc.
  
 This software contains proprietary and confidential information,
 including trade secrets, belonging to Gaussian, Inc.
  
 This software is provided under written license and may be
 used, copied, transmitted, or stored only in accord with that
 written license.
  
 The following legend is applicable only to US Government
 contracts under FAR:
  
                    RESTRICTED RIGHTS LEGEND
  
 Use, reproduction and disclosure by the US Government is
 subject to restrictions as set forth in subparagraphs (a)
 and (c) of the Commercial Computer Software - Restricted
 Rights clause in FAR 52.227-19.
  
 Gaussian, Inc.
 340 Quinnipiac St., Bldg. 40, Wallingford CT 06492
  
  
 ---------------------------------------------------------------
 Warning -- This program may not be used in any manner that
 competes with the business of Gaussian, Inc. or will provide
 assistance to any competitor of Gaussian, Inc.  The licensee
 of this program is prohibited from giving any competitor of
 Gaussian, Inc. access to this program.  By using this program,
 the user acknowledges that Gaussian, Inc. is engaged in the
 business of creating and licensing software in the field of
 computational chemistry and represents and warrants to the
 licensee that it is not a competitor of Gaussian, Inc. and that
 it will not use this program in any manner prohibited above.
 ---------------------------------------------------------------
  

 Cite this work as:
 Gaussian 16, Revision A.03,
 M. J. Frisch, G. W. Trucks, H. B. Schlegel, G. E. Scuseria, 
 M. A. Robb, J. R. Cheeseman, G. Scalmani, V. Barone, 
 G. A. Petersson, H. Nakatsuji, X. Li, M. Caricato, A. V. Marenich, 
 J. Bloino, B. G. Janesko, R. Gomperts, B. Mennucci, H. P. Hratchian, 
 J. V. Ortiz, A. F. Izmaylov, J. L. Sonnenberg, D. Williams-Young, 
 F. Ding, F. Lipparini, F. Egidi, J. Goings, B. Peng, A. Petrone, 
 T. Henderson, D. Ranasinghe, V. G. Zakrzewski, J. Gao, N. Rega, 
 G. Zheng, W. Liang, M. Hada, M. Ehara, K. Toyota, R. Fukuda, 
 J. Hasegawa, M. Ishida, T. Nakajima, Y. Honda, O. Kitao, H. Nakai, 
 T. Vreven, K. Throssell, J. A. Montgomery, Jr., J. E. Peralta, 
 F. Ogliaro, M. J. Bearpark, J. J. Heyd, E. N. Brothers, K. N. Kudin, 
 V. N. Staroverov, T. A. Keith, R. Kobayashi, J. Normand, 
 K. Raghavachari, A. P. Rendell, J. C. Burant, S. S. Iyengar, 
 J. Tomasi, M. Cossi, J. M. Millam, M. Klene, C. Adamo, R. Cammi, 
 J. W. Ochterski, R. L. Martin, K. Morokuma, O. Farkas, 
 J. B. Foresman, and D. J. Fox, Gaussian, Inc., Wallingford CT, 2016.
 
 ******************************************
 Gaussian 16:  ES64L-G16RevA.03 25-Dec-2016
                17-Sep-2019 
 ******************************************
 %nproc=4
 Will use up to    4 processors via shared memory.
 %Mem=4GB
 --------------------------
 # td=(NStates=1) B3LYP/SVP
 --------------------------
 1/38=1,172=1/1;
 2/12=2,17=6,18=5,40=1/2;
 3/5=18,7=101,11=9,25=1,30=1,74=-5/1,2,3,8;
 4//1;
 5/5=2,38=5/2;
 8/6=1,10=1,108=1/1;
 9/41=1,42=1,70=2/14;
 6/7=2,8=2,9=2,10=2/1;
 99/5=1,9=1/99;
 --
 TD
 --
 Symbolic Z-matrix:
 Charge =  0 Multiplicity = 1
 8                    -5.34992   0.32     -3.32728 
 8                     3.05949   2.94123   2.94341 
 8                     3.34488   0.73923   3.18912 
 8                     1.39861  -7.10695   1.60643 
 8                     0.95713  -7.11948  -0.64773 
 8                     1.83266   3.95609   0.07868 
 7                    -2.36065  -0.98544   0.55356 
 7                    -4.36191   0.63101  -1.25037 
 7                     1.84189  -0.65847  -0.33617 
 7                     2.61671   1.86311  -0.5377 
 6                    -4.81869   1.16159   0.00946 
 6                    -4.47542   0.19327   1.28013 
 6                    -2.96818  -0.0709    1.40899 
 6                    -1.96645   0.62142   2.24308 
 6                    -0.70659   0.03064   1.83733 
 6                    -0.99756  -0.89437   0.78604 
 6                    -6.3283    1.33971  -0.032 
 6                     0.53379   0.23191   2.56783 
 6                    -6.65215   0.76323  -1.28178 
 6                    -0.20422  -1.84978   0.14314 
 6                     1.07967  -1.8422   -0.23563 
 6                    -5.38179   0.47337  -2.13408 
 6                     1.95744  -2.9144   -0.81519 
 6                    -2.24839   1.77658   3.12221 
 6                    -7.21704   1.78979   0.95676 
 6                     3.06428  -2.34415  -1.38898 
 6                     1.14813   1.68494   2.56282 
 6                     3.04263  -0.89977  -1.09568 
 6                     1.48964  -4.36182  -0.96432 
 6                    -7.9013    0.52708  -1.98867 
 6                     1.61122  -5.00178   0.38037 
 6                     4.26459  -2.98487  -2.13654 
 6                     3.88389   0.08661  -1.49141 
 6                     2.55337   1.69287   2.97486 
 6                     3.69976   1.48256  -1.17641 
 6                    -9.11878   0.70821  -1.48085 
 6                     1.26491  -6.44437   0.3395 
 6                     4.71041   2.63058  -1.41151 
 6                     3.9379    3.71237  -1.02689 
 6                     2.61639   3.31254  -0.3922 
 6                     5.92819   2.47629  -2.12601 
 6                     4.44641   5.26539  -1.02614 
 6                     6.80804   3.39034  -2.56053 
 1                    -4.32705   2.18016   0.38213 
 1                    -5.22556  -0.64624   0.98539 
 1                    -4.74662   0.52323   2.27326 
 1                    -2.83945  -1.61817   0.0803 
 1                    -3.45133   0.88297  -1.65321 
 1                     0.24658   0.09159   3.61738 
 1                     1.22049  -0.52725   2.30137 
 1                    -0.75352  -2.79197  -0.06259 
 1                    -3.25978   1.63611   3.68517 
 1                    -1.3622    1.56257   3.99608 
 1                    -1.97193   2.73158   2.75464 
 1                    -6.5591    2.53873   1.7027 
 1                    -7.63257   0.92034   1.39182 
 1                    -8.07452   2.40958   0.55178 
 1                     1.02413   2.33388   1.72767 
 1                     0.46433   2.3283    3.30241 
 1                     1.80292   0.42467  -0.07074 
 1                     2.09494  -4.90309  -1.69411 
 1                     0.41566  -4.56386  -1.11142 
 1                    -7.9094    0.20097  -3.13695 
 1                     0.87415  -4.5689    1.10246 
 1                     2.6103   -4.71223   0.91507 
 1                     4.02399  -4.0233   -2.39021 
 1                     5.19645  -2.93666  -1.50666 
 1                     4.63931  -2.29011  -3.01026 
 1                     4.56637  -0.14453  -2.07029 
 1                    -9.24365   0.77505  -0.28656 
 1                    -9.94178   0.63428  -2.1004 
 1                     4.09985   2.8358    3.09854 
 1                     6.25786   1.393    -2.236 
 1                     5.33024   5.50915  -0.4351 
 1                     4.55583   5.64785  -2.05564 
 1                     3.62784   5.89935  -0.89907 
 1                     1.12135  -8.00483   1.5104 
 1                     7.6383    3.22418  -3.1768 
 1                     6.36269   4.55334  -2.56248 
 
 Stoichiometry    C33H36N4O6
 Framework group  C1[X(C33H36N4O6)]
 Deg. of freedom   231
 Full point group                 C1      NOp   1
 Largest Abelian subgroup         C1      NOp   1
 Largest concise Abelian subgroup C1      NOp   1
                         Standard orientation:                         
 ---------------------------------------------------------------------
 Center     Atomic      Atomic             Coordinates (Angstroms)
 Number     Number       Type             X           Y           Z
 ---------------------------------------------------------------------
      1          8           0        5.306062   -0.430439   -3.380312
      2          8           0       -3.103484   -2.884310    2.957561
      3          8           0       -3.333157   -0.677525    3.218304
      4          8           0       -1.213013    7.128449    1.660375
      5          8           0       -0.793099    7.143401   -0.597888
      6          8           0       -1.929219   -3.911841    0.075372
      7          7           0        2.386761    0.924215    0.536764
      8          7           0        4.330873   -0.729563   -1.295612
      9          7           0       -1.830834    0.703923   -0.313671
     10          7           0       -2.668315   -1.797012   -0.521654
     11          6           0        4.786799   -1.278308   -0.043278
     12          6           0        4.479314   -0.309377    1.236055
     13          6           0        2.980213   -0.009667    1.381112
     14          6           0        1.970107   -0.682433    2.221078
     15          6           0        0.721055   -0.059079    1.830960
     16          6           0        1.024179    0.864724    0.782039
     17          6           0        6.291186   -1.492567   -0.100473
     18          6           0       -0.516734   -0.234598    2.572405
     19          6           0        6.616830   -0.916822   -1.350135
     20          6           0        0.248015    1.842716    0.152246
     21          6           0       -1.039273    1.868318   -0.213988
     22          6           0        5.345704   -0.591451   -2.188351
     23          6           0       -1.896391    2.964730   -0.778969
     24          6           0        2.232485   -1.849147    3.090966
     25          6           0        7.178269   -1.969687    0.877033
     26          6           0       -3.022179    2.424698   -1.345084
     27          6           0       -1.166057   -1.672320    2.565313
     28          6           0       -3.032646    0.978533   -1.060059
     29          6           0       -1.395180    4.401281   -0.924602
     30          6           0        7.864459   -0.706797   -2.067864
     31          6           0       -1.488282    5.036175    0.424755
     32          6           0       -4.213786    3.098515   -2.077304
     33          6           0       -3.901287    0.015057   -1.453035
     34          6           0       -2.567038   -1.648727    2.991017
     35          6           0       -3.747954   -1.386740   -1.147626
     36          6           0        9.082038   -0.920196   -1.572987
     37          6           0       -1.107594    6.470201    0.388534
     38          6           0       -4.788289   -2.508649   -1.379221
     39          6           0       -4.038504   -3.610982   -1.008202
     40          6           0       -2.701657   -3.246845   -0.384233
     41          6           0       -6.008805   -2.320877   -2.080924
     42          6           0       -4.584395   -5.151256   -1.011130
     43          6           0       -6.914655   -3.210894   -2.511904
     44          1           0        4.274278   -2.286864    0.328506
     45          1           0        5.246658    0.513478    0.938685
     46          1           0        4.752006   -0.651538    2.224644
     47          1           0        2.876151    1.547944    0.062376
     48          1           0        3.410621   -0.957134   -1.690931
     49          1           0       -0.216113   -0.107337    3.619868
     50          1           0       -1.187401    0.542446    2.316897
     51          1           0        0.817943    2.772546   -0.053591
     52          1           0        3.252349   -1.736395    3.644792
     53          1           0        1.360188   -1.618880    3.974633
     54          1           0        1.929482   -2.795043    2.720810
     55          1           0        6.509623   -2.706852    1.625188
     56          1           0        7.618882   -1.113061    1.312842
     57          1           0        8.016570   -2.607629    0.460253
     58          1           0       -1.065835   -2.319205    1.725392
     59          1           0       -0.490924   -2.336276    3.294589
     60          1           0       -1.815518   -0.381364   -0.054669
     61          1           0       -1.994209    4.961227   -1.645424
     62          1           0       -0.318096    4.578189   -1.081064
     63          1           0        7.869387   -0.374317   -3.214338
     64          1           0       -0.754976    4.581450    1.137182
     65          1           0       -2.488874    4.767720    0.967567
     66          1           0       -3.950591    4.132294   -2.327528
     67          1           0       -5.140427    3.069159   -1.438628
     68          1           0       -4.613594    2.418085   -2.951172
     69          1           0       -4.583519    0.265948   -2.023922
     70          1           0        9.216756   -0.996960   -0.380363
     71          1           0        9.900584   -0.862557   -2.200121
     72          1           0       -4.139455   -2.754702    3.123438
     73          1           0       -6.313224   -1.229326   -2.181653
     74          1           0       -5.468130   -5.377043   -0.412845
     75          1           0       -4.712943   -5.524985   -2.041618
     76          1           0       -3.780212   -5.805510   -0.895592
     77          1           0       -0.915057    8.019924    1.566639
     78          1           0       -7.746547   -3.021168   -3.119102
     79          1           0       -6.497601   -4.384268   -2.524678
 ---------------------------------------------------------------------
 Rotational constants (GHZ):           0.0744824           0.0449791           0.0348433
 Standard basis: SVP (5D, 7F)
 There are   825 symmetry adapted cartesian basis functions of A   symmetry.
 There are   782 symmetry adapted basis functions of A   symmetry.
   782 basis functions,  1327 primitive gaussians,   825 cartesian basis functions
   155 alpha electrons      155 beta electrons
       nuclear repulsion energy      4923.9105361034 Hartrees.
 NAtoms=   79 NActive=   79 NUniq=   79 SFac= 1.00D+00 NAtFMM=   60 NAOKFM=T Big=T
 Integral buffers will be    131072 words long.
 Regular integral format.
 Two-electron integral symmetry is turned on.
 One-electron integrals computed using PRISM.
 NBasis=   782 RedAO= T EigKep=  3.75D-04  NBF=   782
 NBsUse=   782 1.00D-06 EigRej= -1.00D+00 NBFU=   782
 ExpMin= 1.22D-01 ExpMax= 2.27D+03 ExpMxC= 3.41D+02 IAcc=3 IRadAn=         5 AccDes= 0.00D+00
 Harris functional with IExCor=  402 and IRadAn=       5 diagonalized for initial guess.
 HarFok:  IExCor=  402 AccDes= 0.00D+00 IRadAn=         5 IDoV= 1 UseB2=F ITyADJ=14
 ICtDFT=  3500011 ScaDFX=  1.000000  1.000000  1.000000  1.000000
 FoFCou: FMM=F IPFlag=           0 FMFlag=      100000 FMFlg1=        2001
         NFxFlg=           0 DoJE=T BraDBF=F KetDBF=T FulRan=T
         wScrn=  0.000000 ICntrl=       500 IOpCl=  0 I1Cent=   200000004 NGrid=           0
         NMat0=    1 NMatS0=      1 NMatT0=    0 NMatD0=    1 NMtDS0=    0 NMtDT0=    0
 Petite list used in FoFCou.
 Requested convergence on RMS density matrix=1.00D-08 within 128 cycles.
 Requested convergence on MAX density matrix=1.00D-06.
 Requested convergence on             energy=1.00D-06.
 No special actions if energy rises.
 Integral accuracy reduced to 1.0D-05 until final iterations.
 Initial convergence to 1.0D-05 achieved.  Increase integral accuracy.
 SCF Done:  E(RB3LYP) =  -1947.84883657     A.U. after   16 cycles
            NFock= 16  Conv=0.43D-08     -V/T= 2.0107
 DoSCS=F DFT=T ScalE2(SS,OS)=  1.000000  1.000000
 ExpMin= 1.22D-01 ExpMax= 2.27D+03 ExpMxC= 3.41D+02 IAcc=3 IRadAn=         5 AccDes= 0.00D+00
 HarFok:  IExCor=  205 AccDes= 0.00D+00 IRadAn=         5 IDoV=-2 UseB2=F ITyADJ=14
 ICtDFT= 12500011 ScaDFX=  1.000000  1.000000  1.000000  1.000000
 GSVD:  LWork=       -2193 too small for GESVD, short by        9890 words or        9890 for optimal perf.
 Range of M.O.s used for correlation:    44   782
 NBasis=   782 NAE=   155 NBE=   155 NFC=    43 NFV=     0
 NROrb=    739 NOA=   112 NOB=   112 NVA=   627 NVB=   627

 **** Warning!!: The smallest alpha delta epsilon is  0.79668070D-01

 Orbital symmetries:
       Occupied  (A) (A) (A) (A) (A) (A) (A) (A) (A) (A) (A) (A)
                 (A) (A) (A) (A) (A) (A) (A) (A) (A) (A) (A) (A)
                 (A) (A) (A) (A) (A) (A) (A) (A) (A) (A) (A) (A)
                 (A) (A) (A) (A) (A) (A) (A) (A) (A) (A) (A) (A)
                 (A) (A) (A) (A) (A) (A) (A) (A) (A) (A) (A) (A)
                 (A) (A) (A) (A) (A) (A) (A) (A) (A) (A) (A) (A)
                 (A) (A) (A) (A) (A) (A) (A) (A) (A) (A) (A) (A)
                 (A) (A) (A) (A) (A) (A) (A) (A) (A) (A) (A) (A)
                 (A) (A) (A) (A) (A) (A) (A) (A) (A) (A) (A) (A)
                 (A) (A) (A) (A) (A) (A) (A) (A) (A) (A) (A) (A)
                 (A) (A) (A) (A) (A) (A) (A) (A) (A) (A) (A) (A)
                 (A) (A) (A) (A) (A) (A) (A) (A) (A) (A) (A) (A)
                 (A) (A) (A) (A) (A) (A) (A) (A) (A) (A) (A)
       Virtual   (A) (A) (A) (A) (A) (A) (A) (A) (A) (A) (A) (A)
                 (A) (A) (A) (A) (A) (A) (A) (A) (A) (A) (A) (A)
                 (A) (A) (A) (A) (A) (A) (A) (A) (A) (A) (A) (A)
                 (A) (A) (A) (A) (A) (A) (A) (A) (A) (A) (A) (A)
                 (A) (A) (A) (A) (A) (A) (A) (A) (A) (A) (A) (A)
                 (A) (A) (A) (A) (A) (A) (A) (A) (A) (A) (A) (A)
                 (A) (A) (A) (A) (A) (A) (A) (A) (A) (A) (A) (A)
                 (A) (A) (A) (A) (A) (A) (A) (A) (A) (A) (A) (A)
                 (A) (A) (A) (A) (A) (A) (A) (A) (A) (A) (A) (A)
                 (A) (A) (A) (A) (A) (A) (A) (A) (A) (A) (A) (A)
                 (A) (A) (A) (A) (A) (A) (A) (A) (A) (A) (A) (A)
                 (A) (A) (A) (A) (A) (A) (A) (A) (A) (A) (A) (A)
                 (A) (A) (A) (A) (A) (A) (A) (A) (A) (A) (A) (A)
                 (A) (A) (A) (A) (A) (A) (A) (A) (A) (A) (A) (A)
                 (A) (A) (A) (A) (A) (A) (A) (A) (A) (A) (A) (A)
                 (A) (A) (A) (A) (A) (A) (A) (A) (A) (A) (A) (A)
                 (A) (A) (A) (A) (A) (A) (A) (A) (A) (A) (A) (A)
                 (A) (A) (A) (A) (A) (A) (A) (A) (A) (A) (A) (A)
                 (A) (A) (A) (A) (A) (A) (A) (A) (A) (A) (A) (A)
                 (A) (A) (A) (A) (A) (A) (A) (A) (A) (A) (A) (A)
                 (A) (A) (A) (A) (A) (A) (A) (A) (A) (A) (A) (A)
                 (A) (A) (A) (A) (A) (A) (A) (A) (A) (A) (A) (A)
                 (A) (A) (A) (A) (A) (A) (A) (A) (A) (A) (A) (A)
                 (A) (A) (A) (A) (A) (A) (A) (A) (A) (A) (A) (A)
                 (A) (A) (A) (A) (A) (A) (A) (A) (A) (A) (A) (A)
                 (A) (A) (A) (A) (A) (A) (A) (A) (A) (A) (A) (A)
                 (A) (A) (A) (A) (A) (A) (A) (A) (A) (A) (A) (A)
                 (A) (A) (A) (A) (A) (A) (A) (A) (A) (A) (A) (A)
                 (A) (A) (A) (A) (A) (A) (A) (A) (A) (A) (A) (A)
                 (A) (A) (A) (A) (A) (A) (A) (A) (A) (A) (A) (A)
                 (A) (A) (A) (A) (A) (A) (A) (A) (A) (A) (A) (A)
                 (A) (A) (A) (A) (A) (A) (A) (A) (A) (A) (A) (A)
                 (A) (A) (A) (A) (A) (A) (A) (A) (A) (A) (A) (A)
                 (A) (A) (A) (A) (A) (A) (A) (A) (A) (A) (A) (A)
                 (A) (A) (A) (A) (A) (A) (A) (A) (A) (A) (A) (A)
                 (A) (A) (A) (A) (A) (A) (A) (A) (A) (A) (A) (A)
                 (A) (A) (A) (A) (A) (A) (A) (A) (A) (A) (A) (A)
                 (A) (A) (A) (A) (A) (A) (A) (A) (A) (A) (A) (A)
                 (A) (A) (A) (A) (A) (A) (A) (A) (A) (A) (A) (A)
                 (A) (A) (A) (A) (A) (A) (A) (A) (A) (A) (A) (A)
                 (A) (A) (A) (A) (A) (A) (A) (A) (A) (A) (A) (A)
                 (A) (A) (A) (A) (A) (A) (A) (A) (A) (A) (A) (A)
                 (A) (A) (A) (A) (A) (A) (A) (A) (A) (A) (A) (A)
                 (A) (A) (A) (A) (A) (A) (A) (A) (A) (A) (A) (A)
                 (A) (A) (A) (A) (A) (A) (A) (A) (A) (A) (A) (A)
                 (A) (A) (A) (A) (A) (A) (A) (A) (A) (A) (A) (A)
                 (A) (A) (A) (A) (A) (A) (A) (A) (A) (A) (A) (A)
                 (A) (A) (A) (A) (A) (A) (A) (A) (A) (A) (A) (A)
                 (A) (A) (A) (A) (A) (A) (A) (A) (A) (A) (A) (A)
                 (A) (A) (A) (A) (A) (A) (A) (A) (A) (A) (A) (A)
                 (A) (A) (A) (A) (A) (A) (A) (A) (A) (A) (A) (A)
                 (A) (A) (A) (A) (A) (A) (A) (A) (A) (A) (A) (A)
                 (A) (A) (A)
     4 initial guesses have been made.
 Convergence on wavefunction:    0.001000000000000
 Iteration     1 Dimension     4 NMult     0 NNew      4
 CISAX will form     4 AO SS matrices at one time.
 Iteration     2 Dimension     6 NMult     4 NNew      2
 Iteration     3 Dimension     8 NMult     6 NNew      2
 Iteration     4 Dimension    10 NMult     8 NNew      2
 Iteration     5 Dimension    12 NMult    10 NNew      2
 Iteration     6 Dimension    14 NMult    12 NNew      2
 Iteration     7 Dimension    16 NMult    14 NNew      2
 ***********************************************************************
 Excited states from <AA,BB:AA,BB> singles matrix:
 ***********************************************************************
 
 Ground to excited state transition densities written to RWF  633
 Ground to excited state transition electric dipole moments (Au):
       state          X           Y           Z        Dip. S.      Osc.
         1        -2.5519     -1.1459     -0.8595      8.5638      0.4174
 Ground to excited state transition velocity dipole moments (Au):
       state          X           Y           Z        Dip. S.      Osc.
         1         0.1800      0.0761      0.0609      0.0419      0.3819
 Ground to excited state transition magnetic dipole moments (Au):
       state          X           Y           Z
         1         0.7382     -0.0183     -1.4473
 Ground to excited state transition velocity quadrupole moments (Au):
       state          XX          YY          ZZ          XY          XZ          YZ
         1        -0.3716     -0.4762      0.0999     -0.7309     -0.3565     -0.2307
 <0|del|b> * <b|rxdel|0> + <0|del|b> * <b|delr+rdel|0>
 Rotatory Strengths (R) in cgs (10**-40 erg-esu-cm/Gauss)
       state          XX          YY          ZZ    R(velocity)    E-M Angle
         1      -517.0367    230.6840    705.4611    139.7028       82.51
 1/2[<0|r|b>*<b|rxdel|0> + (<0|rxdel|b>*<b|r|0>)*]
 Rotatory Strengths (R) in cgs (10**-40 erg-esu-cm/Gauss)
       state          XX          YY          ZZ     R(length)
         1      1332.0776    -14.8121   -879.6776    145.8626
  1/2[<0|del|b>*<b|r|0> + (<0|r|b>*<b|del|0>)*] (Au)
       state          X           Y           Z        Dip. S.   Osc.(frdel)
         1        -0.4593     -0.0872     -0.0523      0.5988      0.3992

 Excitation energies and oscillator strengths:
 
 Excited State   1:      Singlet-A      1.9894 eV  623.23 nm  f=0.4174  <S**2>=0.000
     155 ->156         0.70444
 This state for optimization and/or second-order correction.
 Total Energy, E(TD-HF/TD-DFT) =  -1947.77572864    
 Copying the excited state density for this state as the 1-particle RhoCI density.
 SavETr:  write IOETrn=   770 NScale= 10 NData=  16 NLR=1 NState=    1 LETran=      28.

 **********************************************************************

            Population analysis using the SCF density.

 **********************************************************************

 Orbital symmetries:
       Occupied  (A) (A) (A) (A) (A) (A) (A) (A) (A) (A) (A) (A)
                 (A) (A) (A) (A) (A) (A) (A) (A) (A) (A) (A) (A)
                 (A) (A) (A) (A) (A) (A) (A) (A) (A) (A) (A) (A)
                 (A) (A) (A) (A) (A) (A) (A) (A) (A) (A) (A) (A)
                 (A) (A) (A) (A) (A) (A) (A) (A) (A) (A) (A) (A)
                 (A) (A) (A) (A) (A) (A) (A) (A) (A) (A) (A) (A)
                 (A) (A) (A) (A) (A) (A) (A) (A) (A) (A) (A) (A)
                 (A) (A) (A) (A) (A) (A) (A) (A) (A) (A) (A) (A)
                 (A) (A) (A) (A) (A) (A) (A) (A) (A) (A) (A) (A)
                 (A) (A) (A) (A) (A) (A) (A) (A) (A) (A) (A) (A)
                 (A) (A) (A) (A) (A) (A) (A) (A) (A) (A) (A) (A)
                 (A) (A) (A) (A) (A) (A) (A) (A) (A) (A) (A) (A)
                 (A) (A) (A) (A) (A) (A) (A) (A) (A) (A) (A)
       Virtual   (A) (A) (A) (A) (A) (A) (A) (A) (A) (A) (A) (A)
                 (A) (A) (A) (A) (A) (A) (A) (A) (A) (A) (A) (A)
                 (A) (A) (A) (A) (A) (A) (A) (A) (A) (A) (A) (A)
                 (A) (A) (A) (A) (A) (A) (A) (A) (A) (A) (A) (A)
                 (A) (A) (A) (A) (A) (A) (A) (A) (A) (A) (A) (A)
                 (A) (A) (A) (A) (A) (A) (A) (A) (A) (A) (A) (A)
                 (A) (A) (A) (A) (A) (A) (A) (A) (A) (A) (A) (A)
                 (A) (A) (A) (A) (A) (A) (A) (A) (A) (A) (A) (A)
                 (A) (A) (A) (A) (A) (A) (A) (A) (A) (A) (A) (A)
                 (A) (A) (A) (A) (A) (A) (A) (A) (A) (A) (A) (A)
                 (A) (A) (A) (A) (A) (A) (A) (A) (A) (A) (A) (A)
                 (A) (A) (A) (A) (A) (A) (A) (A) (A) (A) (A) (A)
                 (A) (A) (A) (A) (A) (A) (A) (A) (A) (A) (A) (A)
                 (A) (A) (A) (A) (A) (A) (A) (A) (A) (A) (A) (A)
                 (A) (A) (A) (A) (A) (A) (A) (A) (A) (A) (A) (A)
                 (A) (A) (A) (A) (A) (A) (A) (A) (A) (A) (A) (A)
                 (A) (A) (A) (A) (A) (A) (A) (A) (A) (A) (A) (A)
                 (A) (A) (A) (A) (A) (A) (A) (A) (A) (A) (A) (A)
                 (A) (A) (A) (A) (A) (A) (A) (A) (A) (A) (A) (A)
                 (A) (A) (A) (A) (A) (A) (A) (A) (A) (A) (A) (A)
                 (A) (A) (A) (A) (A) (A) (A) (A) (A) (A) (A) (A)
                 (A) (A) (A) (A) (A) (A) (A) (A) (A) (A) (A) (A)
                 (A) (A) (A) (A) (A) (A) (A) (A) (A) (A) (A) (A)
                 (A) (A) (A) (A) (A) (A) (A) (A) (A) (A) (A) (A)
                 (A) (A) (A) (A) (A) (A) (A) (A) (A) (A) (A) (A)
                 (A) (A) (A) (A) (A) (A) (A) (A) (A) (A) (A) (A)
                 (A) (A) (A) (A) (A) (A) (A) (A) (A) (A) (A) (A)
                 (A) (A) (A) (A) (A) (A) (A) (A) (A) (A) (A) (A)
                 (A) (A) (A) (A) (A) (A) (A) (A) (A) (A) (A) (A)
                 (A) (A) (A) (A) (A) (A) (A) (A) (A) (A) (A) (A)
                 (A) (A) (A) (A) (A) (A) (A) (A) (A) (A) (A) (A)
                 (A) (A) (A) (A) (A) (A) (A) (A) (A) (A) (A) (A)
                 (A) (A) (A) (A) (A) (A) (A) (A) (A) (A) (A) (A)
                 (A) (A) (A) (A) (A) (A) (A) (A) (A) (A) (A) (A)
                 (A) (A) (A) (A) (A) (A) (A) (A) (A) (A) (A) (A)
                 (A) (A) (A) (A) (A) (A) (A) (A) (A) (A) (A) (A)
                 (A) (A) (A) (A) (A) (A) (A) (A) (A) (A) (A) (A)
                 (A) (A) (A) (A) (A) (A) (A) (A) (A) (A) (A) (A)
                 (A) (A) (A) (A) (A) (A) (A) (A) (A) (A) (A) (A)
                 (A) (A) (A) (A) (A) (A) (A) (A) (A) (A) (A) (A)
                 (A) (A) (A) (A) (A) (A) (A) (A) (A) (A) (A) (A)
                 (A) (A) (A) (A) (A) (A) (A) (A) (A) (A) (A) (A)
                 (A) (A) (A) (A) (A) (A) (A) (A) (A) (A) (A) (A)
                 (A) (A) (A) (A) (A) (A) (A) (A) (A) (A) (A) (A)
                 (A) (A) (A) (A) (A) (A) (A) (A) (A) (A) (A) (A)
                 (A) (A) (A) (A) (A) (A) (A) (A) (A) (A) (A) (A)
                 (A) (A) (A) (A) (A) (A) (A) (A) (A) (A) (A) (A)
                 (A) (A) (A) (A) (A) (A) (A) (A) (A) (A) (A) (A)
                 (A) (A) (A) (A) (A) (A) (A) (A) (A) (A) (A) (A)
                 (A) (A) (A) (A) (A) (A) (A) (A) (A) (A) (A) (A)
                 (A) (A) (A) (A) (A) (A) (A) (A) (A) (A) (A) (A)
                 (A) (A) (A) (A) (A) (A) (A) (A) (A) (A) (A) (A)
                 (A) (A) (A)
 The electronic state is 1-A.
 Alpha  occ. eigenvalues --  -19.17329 -19.17016 -19.13981 -19.12719 -19.11131
 Alpha  occ. eigenvalues --  -19.10733 -14.37976 -14.36495 -14.34666 -14.29489
 Alpha  occ. eigenvalues --  -10.33191 -10.31062 -10.28671 -10.27765 -10.26488
 Alpha  occ. eigenvalues --  -10.23942 -10.23832 -10.23817 -10.23763 -10.22905
 Alpha  occ. eigenvalues --  -10.22519 -10.22368 -10.22117 -10.22107 -10.21938
 Alpha  occ. eigenvalues --  -10.21628 -10.21560 -10.21273 -10.21074 -10.21035
 Alpha  occ. eigenvalues --  -10.20959 -10.20897 -10.20595 -10.20581 -10.20378
 Alpha  occ. eigenvalues --  -10.20346 -10.20217 -10.20131 -10.19816 -10.19320
 Alpha  occ. eigenvalues --  -10.19203 -10.19080 -10.17151  -1.08719  -1.07442
 Alpha  occ. eigenvalues --   -1.07232  -1.03632  -0.99561  -0.98480  -0.96576
 Alpha  occ. eigenvalues --   -0.95057  -0.94696  -0.92038  -0.83038  -0.82824
 Alpha  occ. eigenvalues --   -0.82454  -0.81233  -0.80429  -0.78843  -0.77777
 Alpha  occ. eigenvalues --   -0.77404  -0.76952  -0.75213  -0.74225  -0.72582
 Alpha  occ. eigenvalues --   -0.71516  -0.71099  -0.69616  -0.69146  -0.68362
 Alpha  occ. eigenvalues --   -0.67553  -0.65863  -0.64333  -0.60680  -0.60517
 Alpha  occ. eigenvalues --   -0.59328  -0.58812  -0.58375  -0.57185  -0.56960
 Alpha  occ. eigenvalues --   -0.55812  -0.55651  -0.55072  -0.53569  -0.53402
 Alpha  occ. eigenvalues --   -0.52038  -0.51933  -0.50910  -0.50189  -0.49975
 Alpha  occ. eigenvalues --   -0.49355  -0.48391  -0.48057  -0.47694  -0.47452
 Alpha  occ. eigenvalues --   -0.47222  -0.46905  -0.46421  -0.45963  -0.45793
 Alpha  occ. eigenvalues --   -0.45358  -0.45124  -0.44994  -0.44722  -0.44367
 Alpha  occ. eigenvalues --   -0.44028  -0.43836  -0.43393  -0.43177  -0.42856
 Alpha  occ. eigenvalues --   -0.42468  -0.42454  -0.42275  -0.41766  -0.41539
 Alpha  occ. eigenvalues --   -0.40916  -0.40900  -0.40332  -0.39662  -0.39484
 Alpha  occ. eigenvalues --   -0.39234  -0.38922  -0.38809  -0.38523  -0.38084
 Alpha  occ. eigenvalues --   -0.37853  -0.37848  -0.37663  -0.37645  -0.36722
 Alpha  occ. eigenvalues --   -0.36433  -0.35984  -0.35458  -0.34915  -0.34839
 Alpha  occ. eigenvalues --   -0.33474  -0.33333  -0.32715  -0.32186  -0.31918
 Alpha  occ. eigenvalues --   -0.31572  -0.30158  -0.29830  -0.29180  -0.28969
 Alpha  occ. eigenvalues --   -0.27603  -0.26671  -0.25942  -0.25453  -0.24722
 Alpha  occ. eigenvalues --   -0.24594  -0.23851  -0.23210  -0.22666  -0.18396
 Alpha virt. eigenvalues --   -0.10429  -0.06566  -0.05862  -0.02146  -0.01061
 Alpha virt. eigenvalues --   -0.00245   0.00596   0.01524   0.02159   0.03075
 Alpha virt. eigenvalues --    0.03675   0.04269   0.04514   0.04937   0.05446
 Alpha virt. eigenvalues --    0.05714   0.06002   0.06456   0.06756   0.06855
 Alpha virt. eigenvalues --    0.07450   0.07762   0.07896   0.08228   0.08391
 Alpha virt. eigenvalues --    0.08915   0.09451   0.09914   0.10039   0.10297
 Alpha virt. eigenvalues --    0.10746   0.11290   0.11837   0.12397   0.12577
 Alpha virt. eigenvalues --    0.12759   0.13211   0.13879   0.14058   0.14182
 Alpha virt. eigenvalues --    0.14590   0.14782   0.14987   0.15741   0.16028
 Alpha virt. eigenvalues --    0.16079   0.16349   0.16807   0.17195   0.17431
 Alpha virt. eigenvalues --    0.18147   0.18558   0.19067   0.19231   0.19756
 Alpha virt. eigenvalues --    0.20004   0.20336   0.20913   0.21533   0.21647
 Alpha virt. eigenvalues --    0.21931   0.22401   0.23170   0.23782   0.24016
 Alpha virt. eigenvalues --    0.24190   0.25188   0.25256   0.25777   0.26041
 Alpha virt. eigenvalues --    0.26707   0.26797   0.28106   0.28400   0.28758
 Alpha virt. eigenvalues --    0.29837   0.29960   0.30190   0.30470   0.30907
 Alpha virt. eigenvalues --    0.31173   0.31721   0.32810   0.33272   0.33807
 Alpha virt. eigenvalues --    0.34192   0.34389   0.34939   0.35671   0.36092
 Alpha virt. eigenvalues --    0.36539   0.37186   0.37437   0.38250   0.38734
 Alpha virt. eigenvalues --    0.39170   0.40103   0.40330   0.40835   0.40918
 Alpha virt. eigenvalues --    0.41825   0.42179   0.42366   0.42858   0.43135
 Alpha virt. eigenvalues --    0.43659   0.43916   0.44215   0.44586   0.44785
 Alpha virt. eigenvalues --    0.45377   0.45486   0.45836   0.46244   0.46438
 Alpha virt. eigenvalues --    0.46542   0.47026   0.47221   0.47569   0.48060
 Alpha virt. eigenvalues --    0.48383   0.48918   0.49150   0.49490   0.49773
 Alpha virt. eigenvalues --    0.50140   0.50374   0.50771   0.51114   0.51321
 Alpha virt. eigenvalues --    0.51576   0.51721   0.52340   0.52645   0.53363
 Alpha virt. eigenvalues --    0.53748   0.53969   0.54721   0.55026   0.55262
 Alpha virt. eigenvalues --    0.55602   0.56290   0.56774   0.56888   0.57350
 Alpha virt. eigenvalues --    0.57633   0.57910   0.58635   0.58700   0.59118
 Alpha virt. eigenvalues --    0.59431   0.59822   0.59863   0.60375   0.60576
 Alpha virt. eigenvalues --    0.61077   0.61173   0.61434   0.61806   0.62009
 Alpha virt. eigenvalues --    0.62031   0.62310   0.62574   0.63029   0.63190
 Alpha virt. eigenvalues --    0.63451   0.63761   0.63984   0.64274   0.64540
 Alpha virt. eigenvalues --    0.64638   0.65045   0.65372   0.65532   0.65566
 Alpha virt. eigenvalues --    0.65707   0.66016   0.66851   0.67216   0.67408
 Alpha virt. eigenvalues --    0.67475   0.67784   0.67848   0.68051   0.68190
 Alpha virt. eigenvalues --    0.68429   0.68576   0.68932   0.69096   0.69250
 Alpha virt. eigenvalues --    0.69521   0.69739   0.70279   0.70321   0.70941
 Alpha virt. eigenvalues --    0.71362   0.71601   0.71788   0.72147   0.72341
 Alpha virt. eigenvalues --    0.72386   0.72695   0.73219   0.73622   0.74161
 Alpha virt. eigenvalues --    0.74270   0.75076   0.75512   0.75808   0.76102
 Alpha virt. eigenvalues --    0.76608   0.76846   0.77488   0.77765   0.78225
 Alpha virt. eigenvalues --    0.78427   0.78884   0.79204   0.80108   0.81274
 Alpha virt. eigenvalues --    0.82050   0.82407   0.82483   0.82840   0.83337
 Alpha virt. eigenvalues --    0.83516   0.84120   0.84635   0.85518   0.85604
 Alpha virt. eigenvalues --    0.86149   0.87537   0.87691   0.89649   0.89727
 Alpha virt. eigenvalues --    0.90161   0.90855   0.91031   0.91384   0.92558
 Alpha virt. eigenvalues --    0.93279   0.93854   0.94900   0.95495   0.95675
 Alpha virt. eigenvalues --    0.95957   0.96718   0.96921   0.97616   0.97888
 Alpha virt. eigenvalues --    0.98195   0.98303   0.99168   1.00048   1.01255
 Alpha virt. eigenvalues --    1.03087   1.03260   1.03740   1.03876   1.04252
 Alpha virt. eigenvalues --    1.05229   1.05853   1.06949   1.07197   1.08456
 Alpha virt. eigenvalues --    1.08774   1.09940   1.10576   1.10773   1.11662
 Alpha virt. eigenvalues --    1.12626   1.13472   1.13691   1.14068   1.14962
 Alpha virt. eigenvalues --    1.15275   1.15697   1.17022   1.17458   1.18224
 Alpha virt. eigenvalues --    1.18471   1.19360   1.20246   1.21067   1.21832
 Alpha virt. eigenvalues --    1.21981   1.22669   1.23556   1.24383   1.24598
 Alpha virt. eigenvalues --    1.25546   1.25942   1.26424   1.27807   1.28503
 Alpha virt. eigenvalues --    1.29489   1.29747   1.29937   1.30368   1.30632
 Alpha virt. eigenvalues --    1.31503   1.32357   1.32703   1.33117   1.33793
 Alpha virt. eigenvalues --    1.34297   1.34606   1.36824   1.37097   1.37580
 Alpha virt. eigenvalues --    1.38159   1.38470   1.38924   1.39916   1.41092
 Alpha virt. eigenvalues --    1.41474   1.42427   1.43395   1.44031   1.44093
 Alpha virt. eigenvalues --    1.44919   1.46397   1.46794   1.47132   1.47543
 Alpha virt. eigenvalues --    1.48285   1.48505   1.49167   1.50014   1.50728
 Alpha virt. eigenvalues --    1.50857   1.51407   1.51670   1.51971   1.52555
 Alpha virt. eigenvalues --    1.53081   1.54081   1.54401   1.55018   1.55619
 Alpha virt. eigenvalues --    1.55975   1.56769   1.57126   1.57936   1.58317
 Alpha virt. eigenvalues --    1.58593   1.59160   1.59881   1.61235   1.61499
 Alpha virt. eigenvalues --    1.61956   1.62713   1.63230   1.63876   1.64668
 Alpha virt. eigenvalues --    1.64991   1.65237   1.65743   1.66003   1.66804
 Alpha virt. eigenvalues --    1.67358   1.67862   1.68344   1.68669   1.69069
 Alpha virt. eigenvalues --    1.69303   1.69732   1.70221   1.70427   1.71079
 Alpha virt. eigenvalues --    1.71250   1.71629   1.72534   1.72769   1.72949
 Alpha virt. eigenvalues --    1.73332   1.73885   1.74034   1.74736   1.74820
 Alpha virt. eigenvalues --    1.75120   1.76022   1.76374   1.76831   1.76936
 Alpha virt. eigenvalues --    1.77415   1.78023   1.78157   1.78656   1.78900
 Alpha virt. eigenvalues --    1.79304   1.79744   1.80021   1.80349   1.80431
 Alpha virt. eigenvalues --    1.81138   1.81344   1.82018   1.82434   1.82784
 Alpha virt. eigenvalues --    1.83484   1.83923   1.84388   1.84629   1.85065
 Alpha virt. eigenvalues --    1.85977   1.86118   1.86634   1.87025   1.87364
 Alpha virt. eigenvalues --    1.87587   1.88007   1.88995   1.89311   1.90345
 Alpha virt. eigenvalues --    1.90582   1.90969   1.91643   1.91768   1.92071
 Alpha virt. eigenvalues --    1.92450   1.92803   1.93071   1.93384   1.93747
 Alpha virt. eigenvalues --    1.94616   1.94935   1.95102   1.96388   1.97551
 Alpha virt. eigenvalues --    1.98161   1.98518   1.99097   1.99873   2.00064
 Alpha virt. eigenvalues --    2.00169   2.00555   2.01119   2.01478   2.01807
 Alpha virt. eigenvalues --    2.02220   2.02294   2.02881   2.03998   2.04375
 Alpha virt. eigenvalues --    2.04753   2.05018   2.05402   2.05725   2.06311
 Alpha virt. eigenvalues --    2.06770   2.07575   2.08298   2.08597   2.09298
 Alpha virt. eigenvalues --    2.10309   2.10468   2.11376   2.12254   2.12539
 Alpha virt. eigenvalues --    2.12920   2.13004   2.14203   2.14989   2.15346
 Alpha virt. eigenvalues --    2.15517   2.16860   2.17494   2.17902   2.18589
 Alpha virt. eigenvalues --    2.19264   2.19907   2.20363   2.20461   2.21861
 Alpha virt. eigenvalues --    2.22374   2.23803   2.24547   2.24733   2.25245
 Alpha virt. eigenvalues --    2.25989   2.26849   2.27394   2.27887   2.29208
 Alpha virt. eigenvalues --    2.30041   2.31569   2.31887   2.32418   2.32867
 Alpha virt. eigenvalues --    2.33146   2.33460   2.34412   2.35685   2.35990
 Alpha virt. eigenvalues --    2.37159   2.37445   2.37805   2.38248   2.38644
 Alpha virt. eigenvalues --    2.39059   2.39799   2.39838   2.40649   2.42013
 Alpha virt. eigenvalues --    2.42573   2.43597   2.44205   2.44312   2.45450
 Alpha virt. eigenvalues --    2.46328   2.46787   2.47705   2.48103   2.48926
 Alpha virt. eigenvalues --    2.49130   2.50292   2.50715   2.50931   2.51955
 Alpha virt. eigenvalues --    2.52873   2.53909   2.54406   2.56183   2.57189
 Alpha virt. eigenvalues --    2.57932   2.58765   2.59231   2.60518   2.60863
 Alpha virt. eigenvalues --    2.60931   2.61553   2.62460   2.63145   2.63972
 Alpha virt. eigenvalues --    2.64759   2.66021   2.66109   2.66274   2.66855
 Alpha virt. eigenvalues --    2.67381   2.67891   2.68358   2.68913   2.70139
 Alpha virt. eigenvalues --    2.71334   2.71765   2.71973   2.72619   2.72849
 Alpha virt. eigenvalues --    2.73481   2.74558   2.75087   2.75807   2.76024
 Alpha virt. eigenvalues --    2.76956   2.77312   2.77872   2.80240   2.80622
 Alpha virt. eigenvalues --    2.81233   2.82939   2.83444   2.83740   2.84680
 Alpha virt. eigenvalues --    2.84848   2.85427   2.85772   2.86205   2.87447
 Alpha virt. eigenvalues --    2.88296   2.90189   2.90537   2.90763   2.91369
 Alpha virt. eigenvalues --    2.91865   2.92284   2.92616   2.93698   2.93778
 Alpha virt. eigenvalues --    2.94276   2.95556   2.97111   2.98191   3.00955
 Alpha virt. eigenvalues --    3.01262   3.01475   3.02006   3.02195   3.04103
 Alpha virt. eigenvalues --    3.04607   3.05977   3.06817   3.07489   3.08892
 Alpha virt. eigenvalues --    3.10253   3.10924   3.11369   3.13143   3.14509
 Alpha virt. eigenvalues --    3.15875   3.16096   3.16342   3.19205   3.21767
 Alpha virt. eigenvalues --    3.21826   3.23928   3.27927   3.28496   3.28640
 Alpha virt. eigenvalues --    3.29154   3.32843   3.35044   3.38959   3.47369
 Alpha virt. eigenvalues --    3.48173   3.53166   3.53781   3.56903   3.58028
 Alpha virt. eigenvalues --    3.59099   3.61542   3.63212   3.68230   3.71236
 Alpha virt. eigenvalues --    3.76000   3.76966
          Condensed to atoms (all electrons):
 Mulliken charges:
               1
     1  O   -0.201612
     2  O   -0.225158
     3  O   -0.280773
     4  O   -0.233873
     5  O   -0.235109
     6  O   -0.073143
     7  N   -0.013482
     8  N   -0.139077
     9  N   -0.216644
    10  N   -0.338575
    11  C    0.045499
    12  C    0.118877
    13  C   -0.077830
    14  C   -0.133655
    15  C   -0.083217
    16  C    0.112947
    17  C   -0.128206
    18  C    0.127321
    19  C   -0.097416
    20  C   -0.137241
    21  C    0.142600
    22  C    0.131587
    23  C   -0.089546
    24  C    0.034703
    25  C    0.042490
    26  C   -0.111888
    27  C   -0.016096
    28  C    0.133399
    29  C    0.147908
    30  C   -0.044888
    31  C   -0.076354
    32  C    0.069140
    33  C    0.021335
    34  C    0.159794
    35  C    0.077260
    36  C   -0.040210
    37  C    0.175918
    38  C    0.092685
    39  C   -0.250919
    40  C    0.168899
    41  C   -0.050583
    42  C    0.106711
    43  C   -0.039106
    44  H    0.032034
    45  H    0.006587
    46  H   -0.003396
    47  H    0.069064
    48  H    0.140030
    49  H    0.014179
    50  H    0.005227
    51  H   -0.023162
    52  H    0.040972
    53  H    0.023562
    54  H    0.047318
    55  H    0.038797
    56  H    0.044248
    57  H    0.059211
    58  H    0.041860
    59  H    0.035257
    60  H    0.197273
    61  H    0.018783
    62  H    0.016870
    63  H    0.047743
    64  H    0.048469
    65  H    0.069977
    66  H    0.026648
    67  H    0.035354
    68  H    0.041698
    69  H   -0.178237
    70  H    0.026808
    71  H    0.002697
    72  H    0.217972
    73  H    0.012249
    74  H    0.047359
    75  H    0.011419
    76  H   -0.015343
    77  H    0.168866
    78  H    0.016249
    79  H    0.040889
 Sum of Mulliken charges =  -0.00000
 Mulliken charges with hydrogens summed into heavy atoms:
               1
     1  O   -0.201612
     2  O   -0.007186
     3  O   -0.280773
     4  O   -0.065007
     5  O   -0.235109
     6  O   -0.073143
     7  N    0.055582
     8  N    0.000954
     9  N   -0.019371
    10  N   -0.338575
    11  C    0.077533
    12  C    0.122068
    13  C   -0.077830
    14  C   -0.133655
    15  C   -0.083217
    16  C    0.112947
    17  C   -0.128206
    18  C    0.146727
    19  C   -0.097416
    20  C   -0.160404
    21  C    0.142600
    22  C    0.131587
    23  C   -0.089546
    24  C    0.146555
    25  C    0.184746
    26  C   -0.111888
    27  C    0.061020
    28  C    0.133399
    29  C    0.183561
    30  C    0.002855
    31  C    0.042092
    32  C    0.172839
    33  C   -0.156902
    34  C    0.159794
    35  C    0.077260
    36  C   -0.010704
    37  C    0.175918
    38  C    0.092685
    39  C   -0.250919
    40  C    0.168899
    41  C   -0.038334
    42  C    0.150146
    43  C    0.018031
 Electronic spatial extent (au):  <R**2>=          32035.3857
 Charge=             -0.0000 electrons
 Dipole moment (field-independent basis, Debye):
    X=              0.8445    Y=             -0.1204    Z=              2.5832  Tot=              2.7204
 Quadrupole moment (field-independent basis, Debye-Ang):
   XX=           -223.2082   YY=           -250.8218   ZZ=           -266.5788
   XY=              0.0838   XZ=             35.6844   YZ=              2.1129
 Traceless Quadrupole moment (field-independent basis, Debye-Ang):
   XX=             23.6614   YY=             -3.9521   ZZ=            -19.7092
   XY=              0.0838   XZ=             35.6844   YZ=              2.1129
 Octapole moment (field-independent basis, Debye-Ang**2):
  XXX=            -28.2968  YYY=             17.6177  ZZZ=             61.6295  XYY=            -39.4117
  XXY=            -58.3180  XXZ=             42.2214  XZZ=            -68.0001  YZZ=            -22.6837
  YYZ=             64.2303  XYZ=            -11.1160
 Hexadecapole moment (field-independent basis, Debye-Ang**3):
 XXXX=         -23822.3505 YYYY=         -12403.1082 ZZZZ=          -5055.7187 XXXY=             38.4406
 XXXZ=            688.6913 YYYX=            208.2594 YYYZ=            779.1234 ZZZX=            160.4503
 ZZZY=           -106.5835 XXYY=          -6063.3601 XXZZ=          -5219.2059 YYZZ=          -2926.1476
 XXYZ=           -150.2189 YYXZ=             61.0875 ZZXY=            127.1041
 N-N= 4.923910536103D+03 E-N=-1.437621135400D+04  KE= 1.927143638445D+03
 1\1\GINC-PADAWAN\SP\RB3LYP TD-FC\SVP\C33H36N4O6\PADAWAN\18-Sep-2019\0\
 \# td=(NStates=1) B3LYP/SVP\\TD\\0,1\O,0,-5.3499212221,0.3199974393,-3
 .327282518\O,0,3.0594859541,2.9412313778,2.9434104194\O,0,3.3448828369
 ,0.7392293219,3.1891207972\O,0,1.3986075003,-7.1069469648,1.6064291492
 \O,0,0.9571306011,-7.1194783714,-0.6477327562\O,0,1.8326603141,3.95608
 87317,0.0786773751\N,0,-2.3606456757,-0.9854369739,0.5535623728\N,0,-4
 .3619110725,0.6310107676,-1.2503733921\N,0,1.8418945811,-0.6584674197,
 -0.3361720948\N,0,2.6167072126,1.8631120567,-0.5377005168\C,0,-4.81868
 826,1.1615876558,0.0094567455\C,0,-4.4754249353,0.1932694922,1.2801253
 702\C,0,-2.9681819138,-0.070896833,1.4089929123\C,0,-1.9664457413,0.62
 14170989,2.2430774773\C,0,-0.706587269,0.0306376283,1.837334411\C,0,-0
 .9975639442,-0.8943724961,0.7860404234\C,0,-6.3282951856,1.3397117605,
 -0.0319984152\C,0,0.5337919858,0.2319138679,2.5678258027\C,0,-6.652145
 7291,0.763225571,-1.2817839071\C,0,-0.2042166778,-1.8497837153,0.14313
 63951\C,0,1.0796748637,-1.842203767,-0.2356251447\C,0,-5.3817887792,0.
 4733655513,-2.1340807196\C,0,1.9574398292,-2.9144019786,-0.8151885282\
 C,0,-2.24839054,1.7765834152,3.1222066109\C,0,-7.2170391971,1.78978710
 79,0.9567596619\C,0,3.064282762,-2.3441543666,-1.3889801431\C,0,1.1481
 308404,1.6849369871,2.5628199179\C,0,3.0426323385,-0.8997686025,-1.095
 6835566\C,0,1.4896427345,-4.3618221466,-0.9643181487\C,0,-7.9012960356
 ,0.527084346,-1.9886672545\C,0,1.6112186875,-5.0017811127,0.3803740329
 \C,0,4.2645920682,-2.9848669555,-2.1365428856\C,0,3.8838892595,0.08660
 80643,-1.4914138238\C,0,2.5533659578,1.6928668749,2.9748633862\C,0,3.6
 997643542,1.4825636679,-1.1764142087\C,0,-9.1187768611,0.7082129816,-1
 .4808529006\C,0,1.2649115559,-6.4443710873,0.3395026093\C,0,4.71040987
 56,2.6305798129,-1.4115082339\C,0,3.9379030587,3.7123717609,-1.0268939
 837\C,0,2.6163932101,3.312539105,-0.3921979825\C,0,5.9281864239,2.4762
 924698,-2.1260145566\C,0,4.4464102608,5.2653914149,-1.0261446279\C,0,6
 .8080408617,3.3903447193,-2.56053053\H,0,-4.3270471908,2.180159096,0.3
 821312534\H,0,-5.2255572126,-0.6462360997,0.9853932835\H,0,-4.74662150
 21,0.5232263223,2.2732642361\H,0,-2.8394529852,-1.6181692124,0.0803011
 083\H,0,-3.4513261299,0.8829702141,-1.6532128722\H,0,0.2465790926,0.09
 15894709,3.6173812862\H,0,1.220486058,-0.5272473921,2.3013652693\H,0,-
 0.7535240133,-2.7919666617,-0.0625912568\H,0,-3.2597761229,1.636114875
 6,3.6851685066\H,0,-1.3621974348,1.5625656205,3.9960779957\H,0,-1.9719
 335745,2.7315769775,2.7546428861\H,0,-6.5590993608,2.5387326768,1.7027
 025033\H,0,-7.6325730243,0.9203418434,1.3918161923\H,0,-8.0745233895,2
 .4095770408,0.5517836586\H,0,1.0241251209,2.3338754241,1.7276708344\H,
 0,0.4643295455,2.328299652,3.3024060648\H,0,1.8029246189,0.4246731123,
 -0.0707424395\H,0,2.0949372859,-4.9030941398,-1.6941140211\H,0,0.41566
 33638,-4.5638562331,-1.1114196254\H,0,-7.909402002,0.2009703276,-3.136
 9496332\H,0,0.8741496039,-4.5688980695,1.1024578224\H,0,2.6102972998,-
 4.7122284273,0.9150693218\H,0,4.023987461,-4.0232997822,-2.3902124823\
 H,0,5.1964507435,-2.9366625165,-1.506664284\H,0,4.6393053636,-2.290111
 2437,-3.0102600996\H,0,4.5663662561,-0.1445265472,-2.070293205\H,0,-9.
 2436479653,0.775054961,-0.2865613459\H,0,-9.9417823118,0.6342848442,-2
 .1003961396\H,0,4.099854672,2.8357969634,3.0985446202\H,0,6.2578592541
 ,1.3930014493,-2.2360024152\H,0,5.3302437242,5.5091536796,-0.435102130
 1\H,0,4.5558276053,5.6478515509,-2.0556381087\H,0,3.6278404536,5.89934
 95414,-0.8990716488\H,0,1.121349443,-8.0048316403,1.5103970946\H,0,7.6
 38296274,3.2241779577,-3.1768049538\H,0,6.3626881563,4.5533408463,-2.5
 624786004\\Version=ES64L-G16RevA.03\State=1-A\HF=-1947.8488366\RMSD=4.
 303e-09\PG=C01 [X(C33H36N4O6)]\\@


 WHEN A MATHEMATICIAN ENGAGED IN INVESTIGATING
 PHYSICAL ACTIONS AND RESULTS HAS ARRIVED AT HIS
 CONCLUSIONS, MAY THEY NOT BE EXPRESSED IN COMMON
 LANGUAGE AS FULLY, CLEARLY, AND DEFINITELY AS IN
 MATHEMATICAL FORMULAE?
           - LETTER FROM M. FARADAY TO J.C. MAXWELL, 1857.
 Job cpu time:       0 days 10 hours 29 minutes 57.1 seconds.
 Elapsed time:       0 days  2 hours 37 minutes 59.3 seconds.
 File lengths (MBytes):  RWF=   2533 Int=      0 D2E=      0 Chk=     63 Scr=      1
 Normal termination of Gaussian 16 at Wed Sep 18 02:09:53 2019.
