 Entering Gaussian System, Link 0=g16
 Input=Geometria-326-.com
 Output=Geometria-326-.log
 Initial command:
 /usr/local/g16/l1.exe "/home/padawan/israel-mol/dihydrobiliverdin/spectra/emi/Gau-17700.inp" -scrdir="/home/padawan/israel-mol/dihydrobiliverdin/spectra/emi/"
 Entering Link 1 = /usr/local/g16/l1.exe PID=     17702.
  
 Copyright (c) 1988,1990,1992,1993,1995,1998,2003,2009,2016,
            Gaussian, Inc.  All Rights Reserved.
  
 This is part of the Gaussian(R) 16 program.  It is based on
 the Gaussian(R) 09 system (copyright 2009, Gaussian, Inc.),
 the Gaussian(R) 03 system (copyright 2003, Gaussian, Inc.),
 the Gaussian(R) 98 system (copyright 1998, Gaussian, Inc.),
 the Gaussian(R) 94 system (copyright 1995, Gaussian, Inc.),
 the Gaussian 92(TM) system (copyright 1992, Gaussian, Inc.),
 the Gaussian 90(TM) system (copyright 1990, Gaussian, Inc.),
 the Gaussian 88(TM) system (copyright 1988, Gaussian, Inc.),
 the Gaussian 86(TM) system (copyright 1986, Carnegie Mellon
 University), and the Gaussian 82(TM) system (copyright 1983,
 Carnegie Mellon University). Gaussian is a federally registered
 trademark of Gaussian, Inc.
  
 This software contains proprietary and confidential information,
 including trade secrets, belonging to Gaussian, Inc.
  
 This software is provided under written license and may be
 used, copied, transmitted, or stored only in accord with that
 written license.
  
 The following legend is applicable only to US Government
 contracts under FAR:
  
                    RESTRICTED RIGHTS LEGEND
  
 Use, reproduction and disclosure by the US Government is
 subject to restrictions as set forth in subparagraphs (a)
 and (c) of the Commercial Computer Software - Restricted
 Rights clause in FAR 52.227-19.
  
 Gaussian, Inc.
 340 Quinnipiac St., Bldg. 40, Wallingford CT 06492
  
  
 ---------------------------------------------------------------
 Warning -- This program may not be used in any manner that
 competes with the business of Gaussian, Inc. or will provide
 assistance to any competitor of Gaussian, Inc.  The licensee
 of this program is prohibited from giving any competitor of
 Gaussian, Inc. access to this program.  By using this program,
 the user acknowledges that Gaussian, Inc. is engaged in the
 business of creating and licensing software in the field of
 computational chemistry and represents and warrants to the
 licensee that it is not a competitor of Gaussian, Inc. and that
 it will not use this program in any manner prohibited above.
 ---------------------------------------------------------------
  

 Cite this work as:
 Gaussian 16, Revision A.03,
 M. J. Frisch, G. W. Trucks, H. B. Schlegel, G. E. Scuseria, 
 M. A. Robb, J. R. Cheeseman, G. Scalmani, V. Barone, 
 G. A. Petersson, H. Nakatsuji, X. Li, M. Caricato, A. V. Marenich, 
 J. Bloino, B. G. Janesko, R. Gomperts, B. Mennucci, H. P. Hratchian, 
 J. V. Ortiz, A. F. Izmaylov, J. L. Sonnenberg, D. Williams-Young, 
 F. Ding, F. Lipparini, F. Egidi, J. Goings, B. Peng, A. Petrone, 
 T. Henderson, D. Ranasinghe, V. G. Zakrzewski, J. Gao, N. Rega, 
 G. Zheng, W. Liang, M. Hada, M. Ehara, K. Toyota, R. Fukuda, 
 J. Hasegawa, M. Ishida, T. Nakajima, Y. Honda, O. Kitao, H. Nakai, 
 T. Vreven, K. Throssell, J. A. Montgomery, Jr., J. E. Peralta, 
 F. Ogliaro, M. J. Bearpark, J. J. Heyd, E. N. Brothers, K. N. Kudin, 
 V. N. Staroverov, T. A. Keith, R. Kobayashi, J. Normand, 
 K. Raghavachari, A. P. Rendell, J. C. Burant, S. S. Iyengar, 
 J. Tomasi, M. Cossi, J. M. Millam, M. Klene, C. Adamo, R. Cammi, 
 J. W. Ochterski, R. L. Martin, K. Morokuma, O. Farkas, 
 J. B. Foresman, and D. J. Fox, Gaussian, Inc., Wallingford CT, 2016.
 
 ******************************************
 Gaussian 16:  ES64L-G16RevA.03 25-Dec-2016
                 1-Oct-2019 
 ******************************************
 %nproc=4
 Will use up to    4 processors via shared memory.
 %Mem=4GB
 --------------------------
 # td=(NStates=1) B3LYP/SVP
 --------------------------
 1/38=1,172=1/1;
 2/12=2,17=6,18=5,40=1/2;
 3/5=18,7=101,11=9,25=1,30=1,74=-5/1,2,3,8;
 4//1;
 5/5=2,38=5/2;
 8/6=1,10=1,108=1/1;
 9/41=1,42=1,70=2/14;
 6/7=2,8=2,9=2,10=2/1;
 99/5=1,9=1/99;
 --
 TD
 --
 Symbolic Z-matrix:
 Charge =  0 Multiplicity = 1
 8                    -5.45763   0.18704  -3.32349 
 8                     2.99896   2.9565    3.01653 
 8                     3.19543   0.67958   3.13869 
 8                     1.56504  -7.18857   1.41145 
 8                     0.60758  -7.06639  -0.55548 
 8                     1.89114   4.10125   0.05998 
 7                    -2.33007  -1.00545   0.64145 
 7                    -4.45184   0.51894  -1.26943 
 7                     1.90209  -0.66763  -0.35047 
 7                     2.62053   1.94675  -0.44562 
 6                    -4.84741   1.14805   0.0643 
 6                    -4.41432   0.35663   1.30128 
 6                    -2.93384   0.02481   1.38012 
 6                    -1.89786   0.63836   2.08512 
 6                    -0.67939   0.10027   1.76973 
 6                    -0.96591  -0.96743   0.89441 
 6                    -6.30887   1.27918  -0.11666 
 6                     0.66256   0.25978   2.45848 
 6                    -6.6926    0.91552  -1.37422 
 6                    -0.18047  -1.94193   0.24931 
 6                     1.21321  -1.79587  -0.29687 
 6                    -5.50996   0.496    -2.09424 
 6                     1.96806  -2.87591  -0.81382 
 6                    -2.12955   1.76608   3.12645 
 6                    -7.13951   1.86079   0.96804 
 6                     3.08181  -2.31872  -1.26913 
 6                     1.08942   1.70357   2.63908 
 6                     3.08782  -1.00887  -1.06984 
 6                     1.56801  -4.40319  -0.97797 
 6                    -8.01856   0.70736  -1.98472 
 6                     1.84265  -5.16102   0.30166 
 6                     4.33964  -3.09015  -2.05131 
 6                     3.98927   0.12203  -1.32603 
 6                     2.64237   1.71806   2.93366 
 6                     3.73457   1.44753  -0.97123 
 6                    -9.22116   0.64713  -1.49056 
 6                     1.25314  -6.49614   0.27136 
 6                     4.56448   2.68112  -1.47552 
 6                     3.86162   3.78641  -1.15326 
 6                     2.67534   3.27204  -0.43743 
 6                     5.81946   2.4602   -2.15905 
 6                     4.2175    5.2199   -1.26487 
 6                     6.85398   3.3776   -2.25085 
 1                    -4.41818   2.25122   0.31731 
 1                    -4.96488  -0.55355   1.17478 
 1                    -4.73854   0.98555   2.09614 
 1                    -2.69173  -1.77925   0.13846 
 1                    -3.63114   0.61285  -1.63568 
 1                     0.47298  -0.27216   3.47533 
 1                     1.4746   -0.43043   1.95383 
 1                    -0.76699  -2.88643  -0.07757 
 1                    -3.18098   1.89254   3.47154 
 1                    -1.4516    1.76279   3.90266 
 1                    -1.79835   2.70958   2.80552 
 1                    -6.58211   2.79425   1.55547 
 1                    -7.37926   1.08091   1.55764 
 1                    -8.13891   2.13289   0.61074 
 1                     0.96321   2.13098   1.59483 
 1                     0.63565   2.54856   3.40997 
 1                     1.51642   0.29135  -0.27066 
 1                     2.14124  -4.68318  -1.76261 
 1                     0.42672  -4.44853  -1.24554 
 1                    -7.97147   0.67526  -3.07407 
 1                     1.19152  -4.50516   0.98494 
 1                     3.03326  -5.16358   0.47556 
 1                     4.07927  -4.10302  -2.29113 
 1                     5.20272  -3.15333  -1.44555 
 1                     4.60712  -2.63125  -2.84232 
 1                     4.87009   0.14256  -1.83449 
 1                    -9.45286   0.82034  -0.33643 
 1                    -10.01446   0.66023  -2.24093 
 1                     3.91111   3.08778   3.1546 
 1                     5.94044   1.26031  -2.35056 
 1                     5.01597   5.61562  -0.79574 
 1                     4.42844   5.43057  -2.30986 
 1                     3.4097    5.7425   -0.86443 
 1                     1.189    -8.14637   1.34176 
 1                     7.91801   3.19053  -2.41161 
 1                     6.64296   4.42265  -1.95256 
 
 Stoichiometry    C33H36N4O6
 Framework group  C1[X(C33H36N4O6)]
 Deg. of freedom   231
 Full point group                 C1      NOp   1
 Largest Abelian subgroup         C1      NOp   1
 Largest concise Abelian subgroup C1      NOp   1
                         Standard orientation:                         
 ---------------------------------------------------------------------
 Center     Atomic      Atomic             Coordinates (Angstroms)
 Number     Number       Type             X           Y           Z
 ---------------------------------------------------------------------
      1          8           0        5.455227   -0.176354   -3.324415
      2          8           0       -3.018371   -2.978170    2.978574
      3          8           0       -3.200792   -0.701920    3.131196
      4          8           0       -1.521880    7.178426    1.509265
      5          8           0       -0.565158    7.076676   -0.459193
      6          8           0       -1.917591   -4.090075    0.006894
      7          7           0        2.335031    0.982256    0.656344
      8          7           0        4.447380   -0.529490   -1.274902
      9          7           0       -1.899123    0.683848   -0.339717
     10          7           0       -2.633672   -1.924543   -0.469783
     11          6           0        4.839045   -1.178812    0.050262
     12          6           0        4.410827   -0.401355    1.297744
     13          6           0        2.932420   -0.061500    1.381122
     14          6           0        1.892666   -0.678022    2.077924
     15          6           0        0.677549   -0.128260    1.769842
     16          6           0        0.970657    0.949271    0.908868
     17          6           0        6.299673   -1.316521   -0.132537
     18          6           0       -0.665378   -0.288682    2.456497
     19          6           0        6.685652   -0.938448   -1.385152
     20          6           0        0.191256    1.937144    0.276913
     21          6           0       -1.203294    1.807000   -0.271073
     22          6           0        5.505633   -0.502042   -2.099407
     23          6           0       -1.951464    2.898494   -0.773473
     24          6           0        2.117382   -1.820983    3.104053
     25          6           0        7.126693   -1.917711    0.944225
     26          6           0       -3.068627    2.354329   -1.236119
     27          6           0       -1.101139   -1.732101    2.617787
     28          6           0       -3.082712    1.041990   -1.054373
     29          6           0       -1.541997    4.425335   -0.917204
     30          6           0        8.012876   -0.730323   -1.992898
     31          6           0       -1.811975    5.167658    0.372465
     32          6           0       -4.321659    3.143895   -2.007827
     33          6           0       -3.991121   -0.079801   -1.325603
     34          6           0       -2.654152   -1.740952    2.912256
     35          6           0       -3.744605   -1.411473   -0.988592
     36          6           0        9.215818   -0.684123   -1.498067
     37          6           0       -1.214239    6.499401    0.359988
     38          6           0       -4.582099   -2.633068   -1.509284
     39          6           0       -3.886075   -3.746879   -1.201881
     40          6           0       -2.696658   -3.249455   -0.479321
     41          6           0       -5.835684   -2.395282   -2.189703
     42          6           0       -4.250792   -5.176523   -1.332636
     43          6           0       -6.875842   -3.304976   -2.293698
     44          1           0        4.403010   -2.282599    0.288523
     45          1           0        4.966995    0.507015    1.183399
     46          1           0        4.731152   -1.042847    2.084096
     47          1           0        2.701460    1.760467    0.163722
     48          1           0        3.626125   -0.613431   -1.642325
     49          1           0       -0.472531    0.228420    3.480351
     50          1           0       -1.473135    0.413208    1.961178
     51          1           0        0.783586    2.882290   -0.037342
     52          1           0        3.168007   -1.958530    3.447347
     53          1           0        1.439452   -1.823890    3.880286
     54          1           0        1.780370   -2.758047    2.770553
     55          1           0        6.563538   -2.855485    1.519150
     56          1           0        7.371238   -1.147277    1.544191
     57          1           0        8.124399   -2.191161    0.583246
     58          1           0       -0.977548   -2.146269    1.567904
     59          1           0       -0.652592   -2.590114    3.377271
     60          1           0       -1.519372   -0.278473   -0.272770
     61          1           0       -2.113480    4.719334   -1.697990
     62          1           0       -0.400450    4.467218   -1.184226
     63          1           0        7.966000   -0.683357   -3.081725
     64          1           0       -1.164912    4.498716    1.046864
     65          1           0       -3.002547    5.175241    0.546465
     66          1           0       -4.055047    4.158257   -2.234091
     67          1           0       -5.184343    3.204294   -1.401210
     68          1           0       -4.591957    2.697275   -2.804886
     69          1           0       -4.872041   -0.088093   -1.834233
     70          1           0        9.446432   -0.874187   -0.346366
     71          1           0       10.009034   -0.692077   -2.248597
     72          1           0       -3.931311   -3.105656    3.114941
     73          1           0       -5.949259   -1.192211   -2.365141
     74          1           0       -5.051699   -5.573559   -0.868786
     75          1           0       -4.463021   -5.371891   -2.380341
     76          1           0       -3.446237   -5.709413   -0.939279
     77          1           0       -1.139930    8.134735    1.452370
     78          1           0       -7.938705   -3.109213   -2.451866
     79          1           0       -6.671277   -4.355199   -2.009429
 ---------------------------------------------------------------------
 Rotational constants (GHZ):           0.0741696           0.0450216           0.0345257
 Standard basis: SVP (5D, 7F)
 There are   825 symmetry adapted cartesian basis functions of A   symmetry.
 There are   782 symmetry adapted basis functions of A   symmetry.
   782 basis functions,  1327 primitive gaussians,   825 cartesian basis functions
   155 alpha electrons      155 beta electrons
       nuclear repulsion energy      4935.9862101090 Hartrees.
 NAtoms=   79 NActive=   79 NUniq=   79 SFac= 1.00D+00 NAtFMM=   60 NAOKFM=T Big=T
 Integral buffers will be    131072 words long.
 Regular integral format.
 Two-electron integral symmetry is turned on.
 One-electron integrals computed using PRISM.
 NBasis=   782 RedAO= T EigKep=  3.17D-04  NBF=   782
 NBsUse=   782 1.00D-06 EigRej= -1.00D+00 NBFU=   782
 ExpMin= 1.22D-01 ExpMax= 2.27D+03 ExpMxC= 3.41D+02 IAcc=3 IRadAn=         5 AccDes= 0.00D+00
 Harris functional with IExCor=  402 and IRadAn=       5 diagonalized for initial guess.
 HarFok:  IExCor=  402 AccDes= 0.00D+00 IRadAn=         5 IDoV= 1 UseB2=F ITyADJ=14
 ICtDFT=  3500011 ScaDFX=  1.000000  1.000000  1.000000  1.000000
 FoFCou: FMM=F IPFlag=           0 FMFlag=      100000 FMFlg1=        2001
         NFxFlg=           0 DoJE=T BraDBF=F KetDBF=T FulRan=T
         wScrn=  0.000000 ICntrl=       500 IOpCl=  0 I1Cent=   200000004 NGrid=           0
         NMat0=    1 NMatS0=      1 NMatT0=    0 NMatD0=    1 NMtDS0=    0 NMtDT0=    0
 Petite list used in FoFCou.
 Requested convergence on RMS density matrix=1.00D-08 within 128 cycles.
 Requested convergence on MAX density matrix=1.00D-06.
 Requested convergence on             energy=1.00D-06.
 No special actions if energy rises.
 Integral accuracy reduced to 1.0D-05 until final iterations.
 EnCoef did     2 forward-backward iterations
 EnCoef did     1 forward-backward iterations
 Initial convergence to 1.0D-05 achieved.  Increase integral accuracy.
 SCF Done:  E(RB3LYP) =  -1947.83604700     A.U. after   20 cycles
            NFock= 20  Conv=0.68D-08     -V/T= 2.0099
 DoSCS=F DFT=T ScalE2(SS,OS)=  1.000000  1.000000
 ExpMin= 1.22D-01 ExpMax= 2.27D+03 ExpMxC= 3.41D+02 IAcc=3 IRadAn=         5 AccDes= 0.00D+00
 HarFok:  IExCor=  205 AccDes= 0.00D+00 IRadAn=         5 IDoV=-2 UseB2=F ITyADJ=14
 ICtDFT= 12500011 ScaDFX=  1.000000  1.000000  1.000000  1.000000
 GSVD:  LWork=       -2193 too small for GESVD, short by        9890 words or        9890 for optimal perf.
 Range of M.O.s used for correlation:    44   782
 NBasis=   782 NAE=   155 NBE=   155 NFC=    43 NFV=     0
 NROrb=    739 NOA=   112 NOB=   112 NVA=   627 NVB=   627

 **** Warning!!: The smallest alpha delta epsilon is  0.69372048D-01

 Orbital symmetries:
       Occupied  (A) (A) (A) (A) (A) (A) (A) (A) (A) (A) (A) (A)
                 (A) (A) (A) (A) (A) (A) (A) (A) (A) (A) (A) (A)
                 (A) (A) (A) (A) (A) (A) (A) (A) (A) (A) (A) (A)
                 (A) (A) (A) (A) (A) (A) (A) (A) (A) (A) (A) (A)
                 (A) (A) (A) (A) (A) (A) (A) (A) (A) (A) (A) (A)
                 (A) (A) (A) (A) (A) (A) (A) (A) (A) (A) (A) (A)
                 (A) (A) (A) (A) (A) (A) (A) (A) (A) (A) (A) (A)
                 (A) (A) (A) (A) (A) (A) (A) (A) (A) (A) (A) (A)
                 (A) (A) (A) (A) (A) (A) (A) (A) (A) (A) (A) (A)
                 (A) (A) (A) (A) (A) (A) (A) (A) (A) (A) (A) (A)
                 (A) (A) (A) (A) (A) (A) (A) (A) (A) (A) (A) (A)
                 (A) (A) (A) (A) (A) (A) (A) (A) (A) (A) (A) (A)
                 (A) (A) (A) (A) (A) (A) (A) (A) (A) (A) (A)
       Virtual   (A) (A) (A) (A) (A) (A) (A) (A) (A) (A) (A) (A)
                 (A) (A) (A) (A) (A) (A) (A) (A) (A) (A) (A) (A)
                 (A) (A) (A) (A) (A) (A) (A) (A) (A) (A) (A) (A)
                 (A) (A) (A) (A) (A) (A) (A) (A) (A) (A) (A) (A)
                 (A) (A) (A) (A) (A) (A) (A) (A) (A) (A) (A) (A)
                 (A) (A) (A) (A) (A) (A) (A) (A) (A) (A) (A) (A)
                 (A) (A) (A) (A) (A) (A) (A) (A) (A) (A) (A) (A)
                 (A) (A) (A) (A) (A) (A) (A) (A) (A) (A) (A) (A)
                 (A) (A) (A) (A) (A) (A) (A) (A) (A) (A) (A) (A)
                 (A) (A) (A) (A) (A) (A) (A) (A) (A) (A) (A) (A)
                 (A) (A) (A) (A) (A) (A) (A) (A) (A) (A) (A) (A)
                 (A) (A) (A) (A) (A) (A) (A) (A) (A) (A) (A) (A)
                 (A) (A) (A) (A) (A) (A) (A) (A) (A) (A) (A) (A)
                 (A) (A) (A) (A) (A) (A) (A) (A) (A) (A) (A) (A)
                 (A) (A) (A) (A) (A) (A) (A) (A) (A) (A) (A) (A)
                 (A) (A) (A) (A) (A) (A) (A) (A) (A) (A) (A) (A)
                 (A) (A) (A) (A) (A) (A) (A) (A) (A) (A) (A) (A)
                 (A) (A) (A) (A) (A) (A) (A) (A) (A) (A) (A) (A)
                 (A) (A) (A) (A) (A) (A) (A) (A) (A) (A) (A) (A)
                 (A) (A) (A) (A) (A) (A) (A) (A) (A) (A) (A) (A)
                 (A) (A) (A) (A) (A) (A) (A) (A) (A) (A) (A) (A)
                 (A) (A) (A) (A) (A) (A) (A) (A) (A) (A) (A) (A)
                 (A) (A) (A) (A) (A) (A) (A) (A) (A) (A) (A) (A)
                 (A) (A) (A) (A) (A) (A) (A) (A) (A) (A) (A) (A)
                 (A) (A) (A) (A) (A) (A) (A) (A) (A) (A) (A) (A)
                 (A) (A) (A) (A) (A) (A) (A) (A) (A) (A) (A) (A)
                 (A) (A) (A) (A) (A) (A) (A) (A) (A) (A) (A) (A)
                 (A) (A) (A) (A) (A) (A) (A) (A) (A) (A) (A) (A)
                 (A) (A) (A) (A) (A) (A) (A) (A) (A) (A) (A) (A)
                 (A) (A) (A) (A) (A) (A) (A) (A) (A) (A) (A) (A)
                 (A) (A) (A) (A) (A) (A) (A) (A) (A) (A) (A) (A)
                 (A) (A) (A) (A) (A) (A) (A) (A) (A) (A) (A) (A)
                 (A) (A) (A) (A) (A) (A) (A) (A) (A) (A) (A) (A)
                 (A) (A) (A) (A) (A) (A) (A) (A) (A) (A) (A) (A)
                 (A) (A) (A) (A) (A) (A) (A) (A) (A) (A) (A) (A)
                 (A) (A) (A) (A) (A) (A) (A) (A) (A) (A) (A) (A)
                 (A) (A) (A) (A) (A) (A) (A) (A) (A) (A) (A) (A)
                 (A) (A) (A) (A) (A) (A) (A) (A) (A) (A) (A) (A)
                 (A) (A) (A) (A) (A) (A) (A) (A) (A) (A) (A) (A)
                 (A) (A) (A) (A) (A) (A) (A) (A) (A) (A) (A) (A)
                 (A) (A) (A) (A) (A) (A) (A) (A) (A) (A) (A) (A)
                 (A) (A) (A) (A) (A) (A) (A) (A) (A) (A) (A) (A)
                 (A) (A) (A) (A) (A) (A) (A) (A) (A) (A) (A) (A)
                 (A) (A) (A) (A) (A) (A) (A) (A) (A) (A) (A) (A)
                 (A) (A) (A) (A) (A) (A) (A) (A) (A) (A) (A) (A)
                 (A) (A) (A) (A) (A) (A) (A) (A) (A) (A) (A) (A)
                 (A) (A) (A) (A) (A) (A) (A) (A) (A) (A) (A) (A)
                 (A) (A) (A) (A) (A) (A) (A) (A) (A) (A) (A) (A)
                 (A) (A) (A) (A) (A) (A) (A) (A) (A) (A) (A) (A)
                 (A) (A) (A) (A) (A) (A) (A) (A) (A) (A) (A) (A)
                 (A) (A) (A) (A) (A) (A) (A) (A) (A) (A) (A) (A)
                 (A) (A) (A) (A) (A) (A) (A) (A) (A) (A) (A) (A)
                 (A) (A) (A)
     4 initial guesses have been made.
 Convergence on wavefunction:    0.001000000000000
 Iteration     1 Dimension     4 NMult     0 NNew      4
 CISAX will form     4 AO SS matrices at one time.
 New state      1 was old state      3
 Iteration     2 Dimension     6 NMult     4 NNew      2
 Iteration     3 Dimension     8 NMult     6 NNew      2
 Iteration     4 Dimension    10 NMult     8 NNew      2
 Iteration     5 Dimension    12 NMult    10 NNew      2
 Iteration     6 Dimension    14 NMult    12 NNew      2
 Iteration     7 Dimension    16 NMult    14 NNew      2
 Iteration     8 Dimension    18 NMult    16 NNew      2
 ***********************************************************************
 Excited states from <AA,BB:AA,BB> singles matrix:
 ***********************************************************************
 
 Ground to excited state transition densities written to RWF  633
 Ground to excited state transition electric dipole moments (Au):
       state          X           Y           Z        Dip. S.      Osc.
         1        -2.7016     -1.0370     -0.9691      9.3128      0.4415
 Ground to excited state transition velocity dipole moments (Au):
       state          X           Y           Z        Dip. S.      Osc.
         1         0.1847      0.0686      0.0658      0.0432      0.4046
 Ground to excited state transition magnetic dipole moments (Au):
       state          X           Y           Z
         1         0.7575     -0.0631     -1.5614
 Ground to excited state transition velocity quadrupole moments (Au):
       state          XX          YY          ZZ          XY          XZ          YZ
         1        -0.3690     -0.3957      0.1110     -0.6017     -0.3294     -0.1695
 <0|del|b> * <b|rxdel|0> + <0|del|b> * <b|delr+rdel|0>
 Rotatory Strengths (R) in cgs (10**-40 erg-esu-cm/Gauss)
       state          XX          YY          ZZ    R(velocity)    E-M Angle
         1      -616.3768    226.3157    717.5453    109.1614       84.76
 1/2[<0|r|b>*<b|rxdel|0> + (<0|rxdel|b>*<b|r|0>)*]
 Rotatory Strengths (R) in cgs (10**-40 erg-esu-cm/Gauss)
       state          XX          YY          ZZ     R(length)
         1      1447.2429    -46.2910  -1070.0210    110.3103
  1/2[<0|del|b>*<b|r|0> + (<0|r|b>*<b|del|0>)*] (Au)
       state          X           Y           Z        Dip. S.   Osc.(frdel)
         1        -0.4991     -0.0712     -0.0637      0.6340      0.4226

 Excitation energies and oscillator strengths:
 
 Excited State   1:      Singlet-A      1.9351 eV  640.73 nm  f=0.4415  <S**2>=0.000
     154 ->156         0.23556
     155 ->156         0.67657
     155 <-156        -0.15971
 This state for optimization and/or second-order correction.
 Total Energy, E(TD-HF/TD-DFT) =  -1947.76493513    
 Copying the excited state density for this state as the 1-particle RhoCI density.
 SavETr:  write IOETrn=   770 NScale= 10 NData=  16 NLR=1 NState=    1 LETran=      28.

 **********************************************************************

            Population analysis using the SCF density.

 **********************************************************************

 Orbital symmetries:
       Occupied  (A) (A) (A) (A) (A) (A) (A) (A) (A) (A) (A) (A)
                 (A) (A) (A) (A) (A) (A) (A) (A) (A) (A) (A) (A)
                 (A) (A) (A) (A) (A) (A) (A) (A) (A) (A) (A) (A)
                 (A) (A) (A) (A) (A) (A) (A) (A) (A) (A) (A) (A)
                 (A) (A) (A) (A) (A) (A) (A) (A) (A) (A) (A) (A)
                 (A) (A) (A) (A) (A) (A) (A) (A) (A) (A) (A) (A)
                 (A) (A) (A) (A) (A) (A) (A) (A) (A) (A) (A) (A)
                 (A) (A) (A) (A) (A) (A) (A) (A) (A) (A) (A) (A)
                 (A) (A) (A) (A) (A) (A) (A) (A) (A) (A) (A) (A)
                 (A) (A) (A) (A) (A) (A) (A) (A) (A) (A) (A) (A)
                 (A) (A) (A) (A) (A) (A) (A) (A) (A) (A) (A) (A)
                 (A) (A) (A) (A) (A) (A) (A) (A) (A) (A) (A) (A)
                 (A) (A) (A) (A) (A) (A) (A) (A) (A) (A) (A)
       Virtual   (A) (A) (A) (A) (A) (A) (A) (A) (A) (A) (A) (A)
                 (A) (A) (A) (A) (A) (A) (A) (A) (A) (A) (A) (A)
                 (A) (A) (A) (A) (A) (A) (A) (A) (A) (A) (A) (A)
                 (A) (A) (A) (A) (A) (A) (A) (A) (A) (A) (A) (A)
                 (A) (A) (A) (A) (A) (A) (A) (A) (A) (A) (A) (A)
                 (A) (A) (A) (A) (A) (A) (A) (A) (A) (A) (A) (A)
                 (A) (A) (A) (A) (A) (A) (A) (A) (A) (A) (A) (A)
                 (A) (A) (A) (A) (A) (A) (A) (A) (A) (A) (A) (A)
                 (A) (A) (A) (A) (A) (A) (A) (A) (A) (A) (A) (A)
                 (A) (A) (A) (A) (A) (A) (A) (A) (A) (A) (A) (A)
                 (A) (A) (A) (A) (A) (A) (A) (A) (A) (A) (A) (A)
                 (A) (A) (A) (A) (A) (A) (A) (A) (A) (A) (A) (A)
                 (A) (A) (A) (A) (A) (A) (A) (A) (A) (A) (A) (A)
                 (A) (A) (A) (A) (A) (A) (A) (A) (A) (A) (A) (A)
                 (A) (A) (A) (A) (A) (A) (A) (A) (A) (A) (A) (A)
                 (A) (A) (A) (A) (A) (A) (A) (A) (A) (A) (A) (A)
                 (A) (A) (A) (A) (A) (A) (A) (A) (A) (A) (A) (A)
                 (A) (A) (A) (A) (A) (A) (A) (A) (A) (A) (A) (A)
                 (A) (A) (A) (A) (A) (A) (A) (A) (A) (A) (A) (A)
                 (A) (A) (A) (A) (A) (A) (A) (A) (A) (A) (A) (A)
                 (A) (A) (A) (A) (A) (A) (A) (A) (A) (A) (A) (A)
                 (A) (A) (A) (A) (A) (A) (A) (A) (A) (A) (A) (A)
                 (A) (A) (A) (A) (A) (A) (A) (A) (A) (A) (A) (A)
                 (A) (A) (A) (A) (A) (A) (A) (A) (A) (A) (A) (A)
                 (A) (A) (A) (A) (A) (A) (A) (A) (A) (A) (A) (A)
                 (A) (A) (A) (A) (A) (A) (A) (A) (A) (A) (A) (A)
                 (A) (A) (A) (A) (A) (A) (A) (A) (A) (A) (A) (A)
                 (A) (A) (A) (A) (A) (A) (A) (A) (A) (A) (A) (A)
                 (A) (A) (A) (A) (A) (A) (A) (A) (A) (A) (A) (A)
                 (A) (A) (A) (A) (A) (A) (A) (A) (A) (A) (A) (A)
                 (A) (A) (A) (A) (A) (A) (A) (A) (A) (A) (A) (A)
                 (A) (A) (A) (A) (A) (A) (A) (A) (A) (A) (A) (A)
                 (A) (A) (A) (A) (A) (A) (A) (A) (A) (A) (A) (A)
                 (A) (A) (A) (A) (A) (A) (A) (A) (A) (A) (A) (A)
                 (A) (A) (A) (A) (A) (A) (A) (A) (A) (A) (A) (A)
                 (A) (A) (A) (A) (A) (A) (A) (A) (A) (A) (A) (A)
                 (A) (A) (A) (A) (A) (A) (A) (A) (A) (A) (A) (A)
                 (A) (A) (A) (A) (A) (A) (A) (A) (A) (A) (A) (A)
                 (A) (A) (A) (A) (A) (A) (A) (A) (A) (A) (A) (A)
                 (A) (A) (A) (A) (A) (A) (A) (A) (A) (A) (A) (A)
                 (A) (A) (A) (A) (A) (A) (A) (A) (A) (A) (A) (A)
                 (A) (A) (A) (A) (A) (A) (A) (A) (A) (A) (A) (A)
                 (A) (A) (A) (A) (A) (A) (A) (A) (A) (A) (A) (A)
                 (A) (A) (A) (A) (A) (A) (A) (A) (A) (A) (A) (A)
                 (A) (A) (A) (A) (A) (A) (A) (A) (A) (A) (A) (A)
                 (A) (A) (A) (A) (A) (A) (A) (A) (A) (A) (A) (A)
                 (A) (A) (A) (A) (A) (A) (A) (A) (A) (A) (A) (A)
                 (A) (A) (A) (A) (A) (A) (A) (A) (A) (A) (A) (A)
                 (A) (A) (A) (A) (A) (A) (A) (A) (A) (A) (A) (A)
                 (A) (A) (A) (A) (A) (A) (A) (A) (A) (A) (A) (A)
                 (A) (A) (A) (A) (A) (A) (A) (A) (A) (A) (A) (A)
                 (A) (A) (A) (A) (A) (A) (A) (A) (A) (A) (A) (A)
                 (A) (A) (A)
 The electronic state is 1-A.
 Alpha  occ. eigenvalues --  -19.18282 -19.17590 -19.13425 -19.11240 -19.09408
 Alpha  occ. eigenvalues --  -19.08145 -14.39480 -14.36842 -14.35446 -14.28095
 Alpha  occ. eigenvalues --  -10.32430 -10.30596 -10.28114 -10.26865 -10.25241
 Alpha  occ. eigenvalues --  -10.24881 -10.24738 -10.24369 -10.24199 -10.23776
 Alpha  occ. eigenvalues --  -10.23095 -10.22885 -10.22833 -10.22567 -10.21816
 Alpha  occ. eigenvalues --  -10.21757 -10.21100 -10.21052 -10.20687 -10.20373
 Alpha  occ. eigenvalues --  -10.20338 -10.20243 -10.20152 -10.20083 -10.19781
 Alpha  occ. eigenvalues --  -10.19626 -10.19288 -10.19269 -10.19142 -10.18856
 Alpha  occ. eigenvalues --  -10.18759 -10.17446 -10.15993  -1.10908  -1.09760
 Alpha  occ. eigenvalues --   -1.01488  -1.01325  -1.00167  -1.00057  -0.99514
 Alpha  occ. eigenvalues --   -0.99012  -0.93832  -0.91662  -0.84226  -0.83630
 Alpha  occ. eigenvalues --   -0.82666  -0.82107  -0.80600  -0.79475  -0.78962
 Alpha  occ. eigenvalues --   -0.77961  -0.76337  -0.75587  -0.74235  -0.73754
 Alpha  occ. eigenvalues --   -0.72812  -0.72366  -0.71006  -0.69315  -0.68780
 Alpha  occ. eigenvalues --   -0.67979  -0.67073  -0.64002  -0.61895  -0.61575
 Alpha  occ. eigenvalues --   -0.60331  -0.59791  -0.59242  -0.58596  -0.58219
 Alpha  occ. eigenvalues --   -0.57351  -0.56319  -0.55942  -0.54794  -0.52890
 Alpha  occ. eigenvalues --   -0.52362  -0.51641  -0.51236  -0.51147  -0.50914
 Alpha  occ. eigenvalues --   -0.49538  -0.49170  -0.48456  -0.48019  -0.47827
 Alpha  occ. eigenvalues --   -0.47116  -0.47077  -0.46749  -0.46179  -0.46055
 Alpha  occ. eigenvalues --   -0.45408  -0.45107  -0.44492  -0.44258  -0.43905
 Alpha  occ. eigenvalues --   -0.43550  -0.43211  -0.43046  -0.42907  -0.42798
 Alpha  occ. eigenvalues --   -0.42619  -0.42375  -0.42235  -0.41475  -0.41226
 Alpha  occ. eigenvalues --   -0.41012  -0.40634  -0.40474  -0.40311  -0.40080
 Alpha  occ. eigenvalues --   -0.39784  -0.39525  -0.39224  -0.39201  -0.38900
 Alpha  occ. eigenvalues --   -0.38608  -0.38023  -0.37580  -0.37327  -0.36932
 Alpha  occ. eigenvalues --   -0.36316  -0.35974  -0.35527  -0.35017  -0.34418
 Alpha  occ. eigenvalues --   -0.33810  -0.32948  -0.32644  -0.32494  -0.32098
 Alpha  occ. eigenvalues --   -0.31949  -0.30460  -0.29071  -0.28756  -0.27500
 Alpha  occ. eigenvalues --   -0.26990  -0.26519  -0.25931  -0.25718  -0.25375
 Alpha  occ. eigenvalues --   -0.24793  -0.24304  -0.22568  -0.21489  -0.18753
 Alpha virt. eigenvalues --   -0.11816  -0.06695  -0.05867  -0.01215  -0.00706
 Alpha virt. eigenvalues --    0.00651   0.00805   0.02442   0.02685   0.03042
 Alpha virt. eigenvalues --    0.03725   0.03959   0.04195   0.05253   0.05672
 Alpha virt. eigenvalues --    0.06223   0.06297   0.06636   0.07343   0.07782
 Alpha virt. eigenvalues --    0.08035   0.08212   0.08306   0.08474   0.08880
 Alpha virt. eigenvalues --    0.09274   0.09559   0.09744   0.10017   0.10978
 Alpha virt. eigenvalues --    0.11123   0.11282   0.11530   0.12108   0.12273
 Alpha virt. eigenvalues --    0.12631   0.13259   0.13469   0.13917   0.14602
 Alpha virt. eigenvalues --    0.14883   0.15446   0.15637   0.16109   0.16349
 Alpha virt. eigenvalues --    0.16549   0.16858   0.17121   0.17418   0.18095
 Alpha virt. eigenvalues --    0.18650   0.19057   0.19552   0.19849   0.19900
 Alpha virt. eigenvalues --    0.20139   0.20527   0.21318   0.21870   0.22379
 Alpha virt. eigenvalues --    0.22655   0.23385   0.23576   0.23817   0.24504
 Alpha virt. eigenvalues --    0.24852   0.25173   0.25436   0.25790   0.26873
 Alpha virt. eigenvalues --    0.27439   0.27622   0.27912   0.29008   0.29274
 Alpha virt. eigenvalues --    0.29768   0.30312   0.30669   0.31068   0.31735
 Alpha virt. eigenvalues --    0.31851   0.32617   0.33263   0.34122   0.34501
 Alpha virt. eigenvalues --    0.34894   0.35182   0.35924   0.36401   0.36863
 Alpha virt. eigenvalues --    0.37196   0.37905   0.38380   0.38722   0.39092
 Alpha virt. eigenvalues --    0.39499   0.40087   0.40462   0.40530   0.41207
 Alpha virt. eigenvalues --    0.41890   0.42071   0.42617   0.42633   0.43602
 Alpha virt. eigenvalues --    0.43672   0.43885   0.44442   0.44748   0.45127
 Alpha virt. eigenvalues --    0.45410   0.45667   0.46156   0.46332   0.46448
 Alpha virt. eigenvalues --    0.46692   0.47227   0.48288   0.48328   0.48350
 Alpha virt. eigenvalues --    0.48788   0.49034   0.49286   0.50004   0.50175
 Alpha virt. eigenvalues --    0.50385   0.51120   0.51463   0.51588   0.52126
 Alpha virt. eigenvalues --    0.52619   0.52779   0.52980   0.53595   0.53634
 Alpha virt. eigenvalues --    0.53793   0.54063   0.54712   0.54818   0.55213
 Alpha virt. eigenvalues --    0.55433   0.55825   0.56548   0.57289   0.57875
 Alpha virt. eigenvalues --    0.58166   0.58474   0.58600   0.58747   0.59068
 Alpha virt. eigenvalues --    0.59392   0.59645   0.60188   0.60332   0.60691
 Alpha virt. eigenvalues --    0.61057   0.61439   0.61715   0.61850   0.62065
 Alpha virt. eigenvalues --    0.62304   0.62427   0.62672   0.62974   0.63266
 Alpha virt. eigenvalues --    0.63649   0.64076   0.64794   0.64893   0.65144
 Alpha virt. eigenvalues --    0.65707   0.66036   0.66222   0.66351   0.66632
 Alpha virt. eigenvalues --    0.66886   0.67095   0.67324   0.67628   0.67738
 Alpha virt. eigenvalues --    0.67977   0.68149   0.68374   0.68712   0.68843
 Alpha virt. eigenvalues --    0.69043   0.69189   0.69475   0.69680   0.69998
 Alpha virt. eigenvalues --    0.70180   0.70556   0.70824   0.71488   0.71825
 Alpha virt. eigenvalues --    0.71920   0.72642   0.73040   0.73061   0.73445
 Alpha virt. eigenvalues --    0.73761   0.74129   0.74556   0.74656   0.74895
 Alpha virt. eigenvalues --    0.75404   0.76195   0.76401   0.76827   0.77198
 Alpha virt. eigenvalues --    0.77664   0.77897   0.78074   0.78108   0.79087
 Alpha virt. eigenvalues --    0.79354   0.79831   0.80082   0.80415   0.81738
 Alpha virt. eigenvalues --    0.82216   0.82385   0.84122   0.84290   0.84628
 Alpha virt. eigenvalues --    0.85031   0.85167   0.85608   0.86044   0.86537
 Alpha virt. eigenvalues --    0.86826   0.87722   0.88481   0.89102   0.89603
 Alpha virt. eigenvalues --    0.90428   0.91588   0.91613   0.92543   0.93230
 Alpha virt. eigenvalues --    0.93473   0.94121   0.94942   0.95642   0.95952
 Alpha virt. eigenvalues --    0.96516   0.97048   0.97291   0.97546   0.98278
 Alpha virt. eigenvalues --    0.98651   0.99009   1.00587   1.01309   1.01607
 Alpha virt. eigenvalues --    1.02393   1.03313   1.03983   1.04641   1.05127
 Alpha virt. eigenvalues --    1.05735   1.06672   1.07224   1.08344   1.08929
 Alpha virt. eigenvalues --    1.09463   1.09719   1.10586   1.10646   1.11279
 Alpha virt. eigenvalues --    1.12212   1.12886   1.13436   1.13617   1.14472
 Alpha virt. eigenvalues --    1.16426   1.16555   1.17008   1.17310   1.17791
 Alpha virt. eigenvalues --    1.18835   1.19128   1.19812   1.20461   1.21071
 Alpha virt. eigenvalues --    1.21183   1.22363   1.22858   1.23759   1.24847
 Alpha virt. eigenvalues --    1.25118   1.25398   1.25741   1.26865   1.27200
 Alpha virt. eigenvalues --    1.27919   1.28489   1.29125   1.29594   1.29925
 Alpha virt. eigenvalues --    1.31001   1.31349   1.31627   1.32509   1.33381
 Alpha virt. eigenvalues --    1.34832   1.35205   1.35281   1.35759   1.37184
 Alpha virt. eigenvalues --    1.37573   1.38109   1.38804   1.40133   1.40704
 Alpha virt. eigenvalues --    1.41912   1.42208   1.42744   1.43239   1.44686
 Alpha virt. eigenvalues --    1.44874   1.46334   1.46577   1.47374   1.48173
 Alpha virt. eigenvalues --    1.48778   1.49277   1.50268   1.50718   1.51575
 Alpha virt. eigenvalues --    1.51952   1.52027   1.52255   1.53450   1.53812
 Alpha virt. eigenvalues --    1.54054   1.54560   1.54698   1.55329   1.56178
 Alpha virt. eigenvalues --    1.56640   1.57082   1.57819   1.58398   1.58797
 Alpha virt. eigenvalues --    1.59229   1.59870   1.60424   1.60826   1.62236
 Alpha virt. eigenvalues --    1.62379   1.62886   1.63082   1.64400   1.64669
 Alpha virt. eigenvalues --    1.65075   1.65270   1.65777   1.66133   1.66362
 Alpha virt. eigenvalues --    1.66435   1.66769   1.68011   1.68211   1.68700
 Alpha virt. eigenvalues --    1.69212   1.69307   1.69899   1.70281   1.71128
 Alpha virt. eigenvalues --    1.71296   1.71850   1.72660   1.72839   1.73141
 Alpha virt. eigenvalues --    1.73658   1.73745   1.74129   1.74691   1.75147
 Alpha virt. eigenvalues --    1.75945   1.76817   1.77066   1.77530   1.77845
 Alpha virt. eigenvalues --    1.78410   1.78515   1.79170   1.79589   1.79774
 Alpha virt. eigenvalues --    1.80506   1.80808   1.80970   1.81399   1.82237
 Alpha virt. eigenvalues --    1.82664   1.83066   1.83495   1.84103   1.84531
 Alpha virt. eigenvalues --    1.84794   1.85098   1.85661   1.86037   1.86506
 Alpha virt. eigenvalues --    1.86722   1.86899   1.87180   1.87368   1.87830
 Alpha virt. eigenvalues --    1.88791   1.89897   1.90171   1.90504   1.90802
 Alpha virt. eigenvalues --    1.92029   1.92483   1.92989   1.93323   1.94268
 Alpha virt. eigenvalues --    1.94584   1.95184   1.95628   1.95867   1.96034
 Alpha virt. eigenvalues --    1.96789   1.97596   1.97999   1.98748   1.99169
 Alpha virt. eigenvalues --    1.99820   2.00053   2.00617   2.00930   2.01619
 Alpha virt. eigenvalues --    2.02340   2.02618   2.03653   2.03739   2.04275
 Alpha virt. eigenvalues --    2.04554   2.05077   2.05803   2.05832   2.06011
 Alpha virt. eigenvalues --    2.06739   2.07980   2.08140   2.08277   2.09030
 Alpha virt. eigenvalues --    2.09420   2.09685   2.10048   2.10621   2.11524
 Alpha virt. eigenvalues --    2.11884   2.12211   2.12834   2.12946   2.13454
 Alpha virt. eigenvalues --    2.13654   2.14603   2.14711   2.16427   2.17042
 Alpha virt. eigenvalues --    2.17562   2.17902   2.18061   2.18909   2.19776
 Alpha virt. eigenvalues --    2.19986   2.20877   2.21420   2.22258   2.22471
 Alpha virt. eigenvalues --    2.23508   2.24100   2.24865   2.25084   2.26158
 Alpha virt. eigenvalues --    2.27077   2.27723   2.28488   2.28855   2.29720
 Alpha virt. eigenvalues --    2.30754   2.31097   2.32368   2.32650   2.32959
 Alpha virt. eigenvalues --    2.33361   2.35179   2.36194   2.36367   2.36721
 Alpha virt. eigenvalues --    2.38086   2.38175   2.38995   2.39582   2.40021
 Alpha virt. eigenvalues --    2.41101   2.42097   2.42479   2.43020   2.43479
 Alpha virt. eigenvalues --    2.44401   2.45183   2.46112   2.46499   2.47235
 Alpha virt. eigenvalues --    2.49317   2.49753   2.50191   2.50580   2.51781
 Alpha virt. eigenvalues --    2.52801   2.53315   2.53644   2.54318   2.55275
 Alpha virt. eigenvalues --    2.55908   2.56890   2.57651   2.58886   2.59640
 Alpha virt. eigenvalues --    2.60564   2.60809   2.61408   2.62405   2.62854
 Alpha virt. eigenvalues --    2.63409   2.63973   2.64300   2.65318   2.65505
 Alpha virt. eigenvalues --    2.65950   2.66311   2.67706   2.68932   2.69544
 Alpha virt. eigenvalues --    2.70055   2.70868   2.71122   2.71896   2.72908
 Alpha virt. eigenvalues --    2.73015   2.73282   2.73836   2.74788   2.74932
 Alpha virt. eigenvalues --    2.75677   2.76507   2.77135   2.78462   2.79263
 Alpha virt. eigenvalues --    2.79525   2.80256   2.80759   2.80962   2.81942
 Alpha virt. eigenvalues --    2.82402   2.83384   2.83946   2.84261   2.85184
 Alpha virt. eigenvalues --    2.86388   2.87120   2.88135   2.89013   2.89385
 Alpha virt. eigenvalues --    2.90006   2.90680   2.91832   2.92312   2.93483
 Alpha virt. eigenvalues --    2.93972   2.94458   2.95173   2.95805   2.96373
 Alpha virt. eigenvalues --    2.96679   2.99034   2.99389   3.00116   3.01415
 Alpha virt. eigenvalues --    3.04015   3.04198   3.05002   3.05292   3.06546
 Alpha virt. eigenvalues --    3.07926   3.09174   3.09789   3.11467   3.13414
 Alpha virt. eigenvalues --    3.13820   3.14314   3.15529   3.15812   3.17953
 Alpha virt. eigenvalues --    3.19259   3.19969   3.20658   3.21912   3.23397
 Alpha virt. eigenvalues --    3.23901   3.24750   3.26542   3.29871   3.30491
 Alpha virt. eigenvalues --    3.33245   3.36581   3.38718   3.47134   3.48961
 Alpha virt. eigenvalues --    3.50750   3.51620   3.53089   3.53384   3.54873
 Alpha virt. eigenvalues --    3.58741   3.61281   3.67810   3.68772   3.71670
 Alpha virt. eigenvalues --    3.76297   3.83373
          Condensed to atoms (all electrons):
 Mulliken charges:
               1
     1  O   -0.278144
     2  O   -0.095802
     3  O   -0.214779
     4  O   -0.243032
     5  O   -0.202384
     6  O   -0.256664
     7  N   -0.073396
     8  N   -0.091342
     9  N   -0.064270
    10  N   -0.221749
    11  C    0.008397
    12  C    0.282573
    13  C   -0.066955
    14  C   -0.137060
    15  C   -0.068763
    16  C    0.047140
    17  C   -0.199275
    18  C    0.043233
    19  C   -0.004658
    20  C   -0.089255
    21  C   -0.002953
    22  C    0.114656
    23  C   -0.130231
    24  C    0.182234
    25  C    0.125889
    26  C   -0.125857
    27  C   -0.122674
    28  C    0.150946
    29  C    0.128791
    30  C    0.001534
    31  C   -0.014959
    32  C    0.211855
    33  C   -0.015979
    34  C    0.135177
    35  C    0.026309
    36  C   -0.050283
    37  C    0.127496
    38  C    0.013137
    39  C   -0.198403
    40  C    0.104963
    41  C   -0.043805
    42  C    0.177961
    43  C   -0.054405
    44  H    0.050156
    45  H   -0.025753
    46  H   -0.014525
    47  H    0.109738
    48  H    0.071656
    49  H    0.027693
    50  H    0.066161
    51  H    0.010400
    52  H    0.008335
    53  H   -0.022541
    54  H   -0.000736
    55  H    0.057222
    56  H   -0.000349
    57  H    0.022345
    58  H    0.070510
    59  H    0.056574
    60  H    0.163347
    61  H   -0.020840
    62  H    0.039727
    63  H    0.015380
    64  H    0.061338
    65  H    0.084292
    66  H   -0.005341
    67  H    0.008248
    68  H   -0.029009
    69  H   -0.113723
    70  H    0.025826
    71  H    0.031288
    72  H    0.155769
    73  H    0.028243
    74  H   -0.010833
    75  H    0.008211
    76  H   -0.005207
    77  H    0.207955
    78  H    0.031294
    79  H    0.021933
 Sum of Mulliken charges =  -0.00000
 Mulliken charges with hydrogens summed into heavy atoms:
               1
     1  O   -0.278144
     2  O    0.059967
     3  O   -0.214779
     4  O   -0.035078
     5  O   -0.202384
     6  O   -0.256664
     7  N    0.036342
     8  N   -0.019686
     9  N    0.099077
    10  N   -0.221749
    11  C    0.058553
    12  C    0.242295
    13  C   -0.066955
    14  C   -0.137060
    15  C   -0.068763
    16  C    0.047140
    17  C   -0.199275
    18  C    0.137088
    19  C   -0.004658
    20  C   -0.078854
    21  C   -0.002953
    22  C    0.114656
    23  C   -0.130231
    24  C    0.167292
    25  C    0.205107
    26  C   -0.125857
    27  C    0.004410
    28  C    0.150946
    29  C    0.147679
    30  C    0.016914
    31  C    0.130672
    32  C    0.185754
    33  C   -0.129703
    34  C    0.135177
    35  C    0.026309
    36  C    0.006832
    37  C    0.127496
    38  C    0.013137
    39  C   -0.198403
    40  C    0.104963
    41  C   -0.015562
    42  C    0.170132
    43  C   -0.001178
 Electronic spatial extent (au):  <R**2>=          32165.7316
 Charge=             -0.0000 electrons
 Dipole moment (field-independent basis, Debye):
    X=              1.4728    Y=              2.4483    Z=              4.5297  Tot=              5.3555
 Quadrupole moment (field-independent basis, Debye-Ang):
   XX=           -218.8691   YY=           -248.5209   ZZ=           -267.2191
   XY=            -11.9066   XZ=             32.1838   YZ=             -4.4628
 Traceless Quadrupole moment (field-independent basis, Debye-Ang):
   XX=             26.0006   YY=             -3.6512   ZZ=            -22.3494
   XY=            -11.9066   XZ=             32.1838   YZ=             -4.4628
 Octapole moment (field-independent basis, Debye-Ang**2):
  XXX=             15.1150  YYY=            128.2661  ZZZ=             90.0822  XYY=            -73.8423
  XXY=            -88.8823  XXZ=            108.8530  XZZ=            -63.5082  YZZ=            -27.0956
  YYZ=             87.7867  XYZ=             34.4235
 Hexadecapole moment (field-independent basis, Debye-Ang**3):
 XXXX=         -23489.9532 YYYY=         -12110.8545 ZZZZ=          -4879.2560 XXXY=           -180.3869
 XXXZ=            527.2249 YYYX=           -128.0582 YYYZ=            573.5647 ZZZX=             52.6511
 ZZZY=           -206.0578 XXYY=          -5930.0796 XXZZ=          -5353.3365 YYZZ=          -2861.6572
 XXYZ=           -224.7886 YYXZ=              2.4774 ZZXY=             28.9950
 N-N= 4.935986210109D+03 E-N=-1.440131657494D+04  KE= 1.928750186687D+03
 1\1\GINC-PADAWAN\SP\RB3LYP TD-FC\SVP\C33H36N4O6\PADAWAN\01-Oct-2019\0\
 \# td=(NStates=1) B3LYP/SVP\\TD\\0,1\O,0,-5.4576319932,0.187044144,-3.
 3234921389\O,0,2.9989599015,2.956502905,3.0165277312\O,0,3.1954278914,
 0.6795833573,3.1386857537\O,0,1.5650441439,-7.1885651266,1.4114496513\
 O,0,0.6075756456,-7.0663930629,-0.5554835313\O,0,1.8911361617,4.101253
 2481,0.059975505\N,0,-2.3300726184,-1.0054489751,0.6414511617\N,0,-4.4
 518400654,0.5189395605,-1.2694252973\N,0,1.9020906007,-0.6676283358,-0
 .350473525\N,0,2.6205275947,1.9467504205,-0.4456213088\C,0,-4.84741113
 23,1.1480463016,0.06430223\C,0,-4.4143188247,0.3566258279,1.3012774854
 \C,0,-2.9338384794,0.024812738,1.380120025\C,0,-1.8978588826,0.6383587
 931,2.0851216818\C,0,-0.6793945498,0.100274592,1.7697276504\C,0,-0.965
 9107789,-0.9674298019,0.8944112605\C,0,-6.3088732434,1.2791757069,-0.1
 166568811\C,0,0.6625648631,0.2597766542,2.4584848686\C,0,-6.6925997745
 ,0.9155208005,-1.374223151\C,0,-0.1804743035,-1.9419329302,0.249307012
 2\C,0,1.213208217,-1.7958691335,-0.2968712693\C,0,-5.5099615965,0.4959
 978145,-2.0942367352\C,0,1.9680608913,-2.8759081292,-0.8138183911\C,0,
 -2.1295486558,1.7660823651,3.1264470349\C,0,-7.1395114443,1.8607942086
 ,0.96804079\C,0,3.0818145152,-2.3187218234,-1.2691281579\C,0,1.0894249
 698,1.7035688503,2.6390775437\C,0,3.087816857,-1.0088695126,-1.0698409
 723\C,0,1.5680105713,-4.403186283,-0.9779695139\C,0,-8.0185577618,0.70
 73623738,-1.9847168595\C,0,1.8426518308,-5.1610170363,0.3016561611\C,0
 ,4.339639573,-3.0901474835,-2.0513143627\C,0,3.9892697976,0.1220316067
 ,-1.3260272851\C,0,2.6423748587,1.7180593941,2.9336592658\C,0,3.734567
 8346,1.4475301645,-0.9712336907\C,0,-9.2211570991,0.647126873,-1.49056
 38717\C,0,1.2531403787,-6.4961362638,0.2713557946\C,0,4.5644752821,2.6
 811248674,-1.4755246356\C,0,3.8616154299,3.7864091646,-1.15325662\C,0,
 2.6753391047,3.2720350546,-0.437432506\C,0,5.8194555509,2.4602008607,-
 2.1590478599\C,0,4.2174973695,5.2198968655,-1.2648685003\C,0,6.8539754
 551,3.3776034451,-2.2508495619\H,0,-4.4181763037,2.2512162017,0.317314
 7718\H,0,-4.964881145,-0.5535468308,1.1747822224\H,0,-4.738540694,0.98
 5552555,2.0961365234\H,0,-2.6917282127,-1.77924532,0.1384569239\H,0,-3
 .6311441117,0.6128532024,-1.635681119\H,0,0.4729817329,-0.2721569037,3
 .4753270808\H,0,1.4746014695,-0.4304277102,1.9538305159\H,0,-0.7669853
 594,-2.8864261076,-0.077572755\H,0,-3.1809782431,1.8925405182,3.471537
 1434\H,0,-1.4515963747,1.7627856425,3.9026586538\H,0,-1.7983462157,2.7
 095847783,2.8055179736\H,0,-6.5821116621,2.7942482283,1.5554677798\H,0
 ,-7.3792576928,1.0809079,1.557642775\H,0,-8.1389098282,2.132889372,0.6
 107395542\H,0,0.9632090293,2.1309751341,1.5948275501\H,0,0.6356466772,
 2.5485616782,3.4099668209\H,0,1.516415968,0.29134978,-0.2706624315\H,0
 ,2.1412419164,-4.6831821486,-1.7626108708\H,0,0.4267244699,-4.44853470
 1,-1.2455430377\H,0,-7.9714682086,0.6752577564,-3.0740733455\H,0,1.191
 521341,-4.5051616959,0.9849360702\H,0,3.0332595961,-5.1635835629,0.475
 5553704\H,0,4.0792729896,-4.103017754,-2.2911325744\H,0,5.2027213705,-
 3.1533341836,-1.4455481724\H,0,4.6071221453,-2.6312453571,-2.842323305
 9\H,0,4.8700866282,0.1425621617,-1.8344896247\H,0,-9.4528588864,0.8203
 394894,-0.3364263324\H,0,-10.0144595796,0.6602274384,-2.240930193\H,0,
 3.9111057971,3.0877821619,3.1546002257\H,0,5.940437512,1.26030818,-2.3
 505638714\H,0,5.015972297,5.6156243266,-0.7957381937\H,0,4.428444867,5
 .4305698227,-2.3098635313\H,0,3.4096986395,5.7425038568,-0.8644281844\
 H,0,1.1889962077,-8.1463657937,1.3417602309\H,0,7.9180142458,3.1905345
 934,-2.4116084341\H,0,6.6429561831,4.422647777,-1.9525576083\\Version=
 ES64L-G16RevA.03\State=1-A\HF=-1947.836047\RMSD=6.807e-09\PG=C01 [X(C3
 3H36N4O6)]\\@


 THE WISE MAN HAS THE POWER TO REASON AWAY
 WHAT A FOOL BELIEVES.
                     - DOOBIE BROTHERS
 Job cpu time:       0 days 12 hours 21 minutes 12.8 seconds.
 Elapsed time:       0 days  3 hours  5 minutes 58.3 seconds.
 File lengths (MBytes):  RWF=   2533 Int=      0 D2E=      0 Chk=     63 Scr=      1
 Normal termination of Gaussian 16 at Tue Oct  1 18:26:26 2019.
