 Entering Gaussian System, Link 0=g16
 Input=Geometria-108-.com
 Output=Geometria-108-.log
 Initial command:
 /usr/local/g16/l1.exe "/home/padawan/israel-mol/dihydrobiliverdin/spectra/emi/Gau-23416.inp" -scrdir="/home/padawan/israel-mol/dihydrobiliverdin/spectra/emi/"
 Entering Link 1 = /usr/local/g16/l1.exe PID=     23418.
  
 Copyright (c) 1988,1990,1992,1993,1995,1998,2003,2009,2016,
            Gaussian, Inc.  All Rights Reserved.
  
 This is part of the Gaussian(R) 16 program.  It is based on
 the Gaussian(R) 09 system (copyright 2009, Gaussian, Inc.),
 the Gaussian(R) 03 system (copyright 2003, Gaussian, Inc.),
 the Gaussian(R) 98 system (copyright 1998, Gaussian, Inc.),
 the Gaussian(R) 94 system (copyright 1995, Gaussian, Inc.),
 the Gaussian 92(TM) system (copyright 1992, Gaussian, Inc.),
 the Gaussian 90(TM) system (copyright 1990, Gaussian, Inc.),
 the Gaussian 88(TM) system (copyright 1988, Gaussian, Inc.),
 the Gaussian 86(TM) system (copyright 1986, Carnegie Mellon
 University), and the Gaussian 82(TM) system (copyright 1983,
 Carnegie Mellon University). Gaussian is a federally registered
 trademark of Gaussian, Inc.
  
 This software contains proprietary and confidential information,
 including trade secrets, belonging to Gaussian, Inc.
  
 This software is provided under written license and may be
 used, copied, transmitted, or stored only in accord with that
 written license.
  
 The following legend is applicable only to US Government
 contracts under FAR:
  
                    RESTRICTED RIGHTS LEGEND
  
 Use, reproduction and disclosure by the US Government is
 subject to restrictions as set forth in subparagraphs (a)
 and (c) of the Commercial Computer Software - Restricted
 Rights clause in FAR 52.227-19.
  
 Gaussian, Inc.
 340 Quinnipiac St., Bldg. 40, Wallingford CT 06492
  
  
 ---------------------------------------------------------------
 Warning -- This program may not be used in any manner that
 competes with the business of Gaussian, Inc. or will provide
 assistance to any competitor of Gaussian, Inc.  The licensee
 of this program is prohibited from giving any competitor of
 Gaussian, Inc. access to this program.  By using this program,
 the user acknowledges that Gaussian, Inc. is engaged in the
 business of creating and licensing software in the field of
 computational chemistry and represents and warrants to the
 licensee that it is not a competitor of Gaussian, Inc. and that
 it will not use this program in any manner prohibited above.
 ---------------------------------------------------------------
  

 Cite this work as:
 Gaussian 16, Revision A.03,
 M. J. Frisch, G. W. Trucks, H. B. Schlegel, G. E. Scuseria, 
 M. A. Robb, J. R. Cheeseman, G. Scalmani, V. Barone, 
 G. A. Petersson, H. Nakatsuji, X. Li, M. Caricato, A. V. Marenich, 
 J. Bloino, B. G. Janesko, R. Gomperts, B. Mennucci, H. P. Hratchian, 
 J. V. Ortiz, A. F. Izmaylov, J. L. Sonnenberg, D. Williams-Young, 
 F. Ding, F. Lipparini, F. Egidi, J. Goings, B. Peng, A. Petrone, 
 T. Henderson, D. Ranasinghe, V. G. Zakrzewski, J. Gao, N. Rega, 
 G. Zheng, W. Liang, M. Hada, M. Ehara, K. Toyota, R. Fukuda, 
 J. Hasegawa, M. Ishida, T. Nakajima, Y. Honda, O. Kitao, H. Nakai, 
 T. Vreven, K. Throssell, J. A. Montgomery, Jr., J. E. Peralta, 
 F. Ogliaro, M. J. Bearpark, J. J. Heyd, E. N. Brothers, K. N. Kudin, 
 V. N. Staroverov, T. A. Keith, R. Kobayashi, J. Normand, 
 K. Raghavachari, A. P. Rendell, J. C. Burant, S. S. Iyengar, 
 J. Tomasi, M. Cossi, J. M. Millam, M. Klene, C. Adamo, R. Cammi, 
 J. W. Ochterski, R. L. Martin, K. Morokuma, O. Farkas, 
 J. B. Foresman, and D. J. Fox, Gaussian, Inc., Wallingford CT, 2016.
 
 ******************************************
 Gaussian 16:  ES64L-G16RevA.03 25-Dec-2016
                25-Jul-2019 
 ******************************************
 %nproc=4
 Will use up to    4 processors via shared memory.
 %Mem=3GB
 --------------------------
 # td=(NStates=1) B3LYP/SVP
 --------------------------
 1/38=1,172=1/1;
 2/12=2,17=6,18=5,40=1/2;
 3/5=18,7=101,11=9,25=1,30=1,74=-5/1,2,3,8;
 4//1;
 5/5=2,38=5/2;
 8/6=1,10=1,108=1/1;
 9/41=1,42=1,70=2/14;
 6/7=2,8=2,9=2,10=2/1;
 99/5=1,9=1/99;
 --
 TD
 --
 Symbolic Z-matrix:
 Charge =  0 Multiplicity = 1
 8                    -3.26041  -1.27318  -2.90888 
 8                     3.23885   3.13819   3.18772 
 8                     3.83796   1.28798   4.3976 
 8                     7.64631  -1.72824  -0.56594 
 8                     6.6133   -2.90477  -2.33059 
 8                    -2.69817   1.53388   1.26538 
 7                    -0.24579  -2.40119   0.88652 
 7                    -2.66157  -1.16627  -0.59957 
 7                     1.09251   0.09956  -0.66194 
 7                    -1.06206   1.54077  -0.2629 
 6                    -3.33449  -1.40526   0.64195 
 6                    -2.55524  -2.45966   1.61494 
 6                    -1.21845  -2.1004    1.84287 
 6                    -0.60967  -1.12701   2.79303 
 6                     0.75758  -1.04765   2.48301 
 6                     0.99939  -1.8385    1.37051 
 6                    -4.68162  -1.97364   0.23492 
 6                     1.82238  -0.3933    3.29079 
 6                    -4.8225   -2.1377   -1.05928 
 6                     2.1037   -1.80987   0.43524 
 6                     2.1287   -0.84753  -0.57763 
 6                    -3.54955  -1.47136  -1.73338 
 6                     3.12843  -0.60039  -1.64988 
 6                    -1.37094  -0.66465   3.94742 
 6                    -5.8387   -2.12033   1.26872 
 6                     2.5117    0.49439  -2.41052 
 6                     2.14179   1.03926   2.67093 
 6                     1.33403   0.96957  -1.76585 
 6                     4.19558  -1.37999  -1.95344 
 6                    -5.88678  -2.46932  -1.95643 
 6                     5.50884  -1.11863  -1.10873 
 6                     3.15058   1.00468  -3.57123 
 6                     0.52794   2.02122  -2.10003 
 6                     3.10904   1.86326   3.52247 
 6                    -0.63317   2.28587  -1.318 
 6                    -6.98674  -3.26015  -1.64168 
 6                     6.64617  -2.06126  -1.36813 
 6                    -1.54637   3.55233  -1.32436 
 6                    -2.31761   3.38381  -0.22556 
 6                    -2.10817   2.09707   0.39288 
 6                    -1.35889   4.6359   -2.28088 
 6                    -3.54769   4.31733   0.09843 
 6                    -1.94246   5.86603  -2.3796 
 1                    -3.26248  -0.47758   1.19987 
 1                    -2.77198  -3.56774   1.20185 
 1                    -2.89728  -2.38455   2.66796 
 1                    -0.51639  -2.95549   0.09208 
 1                    -1.76839  -0.58939  -0.69824 
 1                     1.67692  -0.47172   4.39355 
 1                     2.83908  -0.86512   3.12758 
 1                     2.99599  -2.6166    0.64098 
 1                    -2.02997  -1.58346   4.35979 
 1                    -0.7452   -0.28324   4.79943 
 1                    -1.97278   0.20594   3.78465 
 1                    -5.40649  -1.53732   2.16506 
 1                    -5.98848  -3.24537   1.37767 
 1                    -6.64443  -1.652     0.83632 
 1                     2.59911   1.02017   1.60468 
 1                     1.13706   1.60924   2.60748 
 1                     0.20574   0.36861  -0.00252 
 1                     4.71353  -1.07236  -3.00662 
 1                     4.01969  -2.65057  -1.97815 
 1                    -5.92305  -2.17887  -3.01499 
 1                     5.28796  -1.31608  -0.13932 
 1                     5.88221   0.01867  -1.14086 
 1                     3.71583   0.1914   -4.14257 
 1                     4.1507    1.72014  -3.46957 
 1                     2.25359   1.50294  -4.28643 
 1                     0.6432    2.86852  -2.99413 
 1                    -6.96587  -3.5383   -0.40846 
 1                    -7.82442  -3.47553  -2.26366 
 1                     3.71726   3.52584   3.84249 
 1                    -0.69372   4.41639  -3.13638 
 1                    -4.13811   4.70883  -0.81017 
 1                    -4.27743   3.62389   0.87629 
 1                    -3.05823   5.1074    0.79903 
 1                     8.36189  -2.31339  -0.83513 
 1                    -1.73135   6.55713  -3.04746 
 1                    -2.46514   6.31913  -1.33942 
 
 Stoichiometry    C33H36N4O6
 Framework group  C1[X(C33H36N4O6)]
 Deg. of freedom   231
 Full point group                 C1      NOp   1
 Largest Abelian subgroup         C1      NOp   1
 Largest concise Abelian subgroup C1      NOp   1
                         Standard orientation:                         
 ---------------------------------------------------------------------
 Center     Atomic      Atomic             Coordinates (Angstroms)
 Number     Number       Type             X           Y           Z
 ---------------------------------------------------------------------
      1          8           0       -3.304275   -0.860611   -3.012122
      2          8           0        3.279429    2.671716    3.548880
      3          8           0        3.901283    0.671519    4.475445
      4          8           0        7.638526   -1.595263   -0.922016
      5          8           0        6.580746   -2.514682   -2.819678
      6          8           0       -2.683279    1.329832    1.508549
      7          7           0       -0.228561   -2.501305    0.539434
      8          7           0       -2.669826   -1.079009   -0.720238
      9          7           0        1.080076    0.199217   -0.659390
     10          7           0       -1.071144    1.560062   -0.027862
     11          6           0       -3.322840   -1.494225    0.484953
     12          6           0       -2.526277   -2.672322    1.286988
     13          6           0       -1.186879   -2.343127    1.543298
     14          6           0       -0.565513   -1.511379    2.612400
     15          6           0        0.796573   -1.382994    2.296151
     16          6           0        1.022775   -2.007374    1.079371
     17          6           0       -4.674906   -2.005133    0.021921
     18          6           0        1.872384   -0.844933    3.172281
     19          6           0       -4.835533   -1.984985   -1.280193
     20          6           0        2.112339   -1.841862    0.141017
     21          6           0        2.119500   -0.745756   -0.725660
     22          6           0       -3.574667   -1.224416   -1.872293
     23          6           0        3.101903   -0.345009   -1.767076
     24          6           0       -1.309736   -1.220364    3.831978
     25          6           0       -5.815446   -2.301683    1.041874
     26          6           0        2.471045    0.843709   -2.355661
     27          6           0        2.179018    0.662310    2.756741
     28          6           0        1.302510    1.217750   -1.632523
     29          6           0        4.165892   -1.069149   -2.194024
     30          6           0       -5.912918   -2.190913   -2.199099
     31          6           0        5.491551   -0.924270   -1.340729
     32          6           0        3.090686    1.515913   -3.441945
     33          6           0        0.489042    2.302589   -1.802245
     34          6           0        3.157599    1.361692    3.701669
     35          6           0       -0.660330    2.448850   -0.973191
     36          6           0       -7.006133   -3.023104   -1.982931
     37          6           0        6.626758   -1.815747   -1.748095
     38          6           0       -1.576268    3.699475   -0.786409
     39          6           0       -2.329955    3.373789    0.288973
     40          6           0       -2.108142    2.013399    0.715775
     41          6           0       -1.406027    4.908320   -1.582600
     42          6           0       -3.556868    4.246704    0.760391
     43          6           0       -1.993729    6.137494   -1.497351
     44          1           0       -3.244181   -0.654546    1.167445
     45          1           0       -2.747006   -3.711717    0.724499
     46          1           0       -2.852058   -2.748490    2.345073
     47          1           0       -0.510276   -2.938767   -0.321316
     48          1           0       -1.779538   -0.490087   -0.749704
     49          1           0        1.744259   -1.079267    4.254899
     50          1           0        2.887448   -1.284478    2.928593
     51          1           0        3.009467   -2.665707    0.216984
     52          1           0       -1.960280   -2.191142    4.120008
     53          1           0       -0.671660   -0.960663    4.719863
     54          1           0       -1.915921   -0.338121    3.803201
     55          1           0       -5.370618   -1.849530    2.005106
     56          1           0       -5.961073   -3.431459    0.992694
     57          1           0       -6.628818   -1.780380    0.692343
     58          1           0        2.619735    0.796309    1.691747
     59          1           0        1.172189    1.231163    2.789788
     60          1           0        0.203084    0.368374    0.044780
     61          1           0        4.666727   -0.613315   -3.200725
     62          1           0        3.992392   -2.324194   -2.395716
     63          1           0       -5.966275   -1.753729   -3.205211
     64          1           0        5.286200   -1.257890   -0.405814
     65          1           0        5.861913    0.207749   -1.217139
     66          1           0        3.648751    0.794142   -4.131135
     67          1           0        4.090718    2.214128   -3.255109
     68          1           0        2.181611    2.106480   -4.065780
     69          1           0        0.588551    3.268396   -2.569013
     70          1           0       -6.965479   -3.472894   -0.801967
     71          1           0       -7.852913   -3.151926   -2.616427
     72          1           0        3.767112    2.964878    4.244641
     73          1           0       -0.753773    4.814995   -2.470498
     74          1           0       -4.162200    4.760283   -0.074623
     75          1           0       -4.272921    3.446985    1.443152
     76          1           0       -3.058296    4.931786    1.558319
     77          1           0        8.351099   -2.133313   -1.282112
     78          1           0       -1.794526    6.917064   -2.063744
     79          1           0       -2.501153    6.436541   -0.395731
 ---------------------------------------------------------------------
 Rotational constants (GHZ):           0.0903436           0.0498951           0.0476420
 Standard basis: SVP (5D, 7F)
 There are   825 symmetry adapted cartesian basis functions of A   symmetry.
 There are   782 symmetry adapted basis functions of A   symmetry.
   782 basis functions,  1327 primitive gaussians,   825 cartesian basis functions
   155 alpha electrons      155 beta electrons
       nuclear repulsion energy      5171.5122372361 Hartrees.
 NAtoms=   79 NActive=   79 NUniq=   79 SFac= 1.00D+00 NAtFMM=   60 NAOKFM=T Big=T
 Integral buffers will be    131072 words long.
 Regular integral format.
 Two-electron integral symmetry is turned on.
 One-electron integrals computed using PRISM.
 NBasis=   782 RedAO= T EigKep=  3.55D-04  NBF=   782
 NBsUse=   782 1.00D-06 EigRej= -1.00D+00 NBFU=   782
 ExpMin= 1.22D-01 ExpMax= 2.27D+03 ExpMxC= 3.41D+02 IAcc=3 IRadAn=         5 AccDes= 0.00D+00
 Harris functional with IExCor=  402 and IRadAn=       5 diagonalized for initial guess.
 HarFok:  IExCor=  402 AccDes= 0.00D+00 IRadAn=         5 IDoV= 1 UseB2=F ITyADJ=14
 ICtDFT=  3500011 ScaDFX=  1.000000  1.000000  1.000000  1.000000
 FoFCou: FMM=F IPFlag=           0 FMFlag=      100000 FMFlg1=        2001
         NFxFlg=           0 DoJE=T BraDBF=F KetDBF=T FulRan=T
         wScrn=  0.000000 ICntrl=       500 IOpCl=  0 I1Cent=   200000004 NGrid=           0
         NMat0=    1 NMatS0=      1 NMatT0=    0 NMatD0=    1 NMtDS0=    0 NMtDT0=    0
 Petite list used in FoFCou.
 Requested convergence on RMS density matrix=1.00D-08 within 128 cycles.
 Requested convergence on MAX density matrix=1.00D-06.
 Requested convergence on             energy=1.00D-06.
 No special actions if energy rises.
 Integral accuracy reduced to 1.0D-05 until final iterations.
 Initial convergence to 1.0D-05 achieved.  Increase integral accuracy.
 SCF Done:  E(RB3LYP) =  -1947.78396101     A.U. after   17 cycles
            NFock= 17  Conv=0.72D-08     -V/T= 2.0114
 DoSCS=F DFT=T ScalE2(SS,OS)=  1.000000  1.000000
 ExpMin= 1.22D-01 ExpMax= 2.27D+03 ExpMxC= 3.41D+02 IAcc=3 IRadAn=         5 AccDes= 0.00D+00
 HarFok:  IExCor=  205 AccDes= 0.00D+00 IRadAn=         5 IDoV=-2 UseB2=F ITyADJ=14
 ICtDFT= 12500011 ScaDFX=  1.000000  1.000000  1.000000  1.000000
 GSVD:  LWork=       -2193 too small for GESVD, short by        9890 words or        9890 for optimal perf.
 Range of M.O.s used for correlation:    44   782
 NBasis=   782 NAE=   155 NBE=   155 NFC=    43 NFV=     0
 NROrb=    739 NOA=   112 NOB=   112 NVA=   627 NVB=   627

 **** Warning!!: The smallest alpha delta epsilon is  0.57650341D-01

 Orbital symmetries:
       Occupied  (A) (A) (A) (A) (A) (A) (A) (A) (A) (A) (A) (A)
                 (A) (A) (A) (A) (A) (A) (A) (A) (A) (A) (A) (A)
                 (A) (A) (A) (A) (A) (A) (A) (A) (A) (A) (A) (A)
                 (A) (A) (A) (A) (A) (A) (A) (A) (A) (A) (A) (A)
                 (A) (A) (A) (A) (A) (A) (A) (A) (A) (A) (A) (A)
                 (A) (A) (A) (A) (A) (A) (A) (A) (A) (A) (A) (A)
                 (A) (A) (A) (A) (A) (A) (A) (A) (A) (A) (A) (A)
                 (A) (A) (A) (A) (A) (A) (A) (A) (A) (A) (A) (A)
                 (A) (A) (A) (A) (A) (A) (A) (A) (A) (A) (A) (A)
                 (A) (A) (A) (A) (A) (A) (A) (A) (A) (A) (A) (A)
                 (A) (A) (A) (A) (A) (A) (A) (A) (A) (A) (A) (A)
                 (A) (A) (A) (A) (A) (A) (A) (A) (A) (A) (A) (A)
                 (A) (A) (A) (A) (A) (A) (A) (A) (A) (A) (A)
       Virtual   (A) (A) (A) (A) (A) (A) (A) (A) (A) (A) (A) (A)
                 (A) (A) (A) (A) (A) (A) (A) (A) (A) (A) (A) (A)
                 (A) (A) (A) (A) (A) (A) (A) (A) (A) (A) (A) (A)
                 (A) (A) (A) (A) (A) (A) (A) (A) (A) (A) (A) (A)
                 (A) (A) (A) (A) (A) (A) (A) (A) (A) (A) (A) (A)
                 (A) (A) (A) (A) (A) (A) (A) (A) (A) (A) (A) (A)
                 (A) (A) (A) (A) (A) (A) (A) (A) (A) (A) (A) (A)
                 (A) (A) (A) (A) (A) (A) (A) (A) (A) (A) (A) (A)
                 (A) (A) (A) (A) (A) (A) (A) (A) (A) (A) (A) (A)
                 (A) (A) (A) (A) (A) (A) (A) (A) (A) (A) (A) (A)
                 (A) (A) (A) (A) (A) (A) (A) (A) (A) (A) (A) (A)
                 (A) (A) (A) (A) (A) (A) (A) (A) (A) (A) (A) (A)
                 (A) (A) (A) (A) (A) (A) (A) (A) (A) (A) (A) (A)
                 (A) (A) (A) (A) (A) (A) (A) (A) (A) (A) (A) (A)
                 (A) (A) (A) (A) (A) (A) (A) (A) (A) (A) (A) (A)
                 (A) (A) (A) (A) (A) (A) (A) (A) (A) (A) (A) (A)
                 (A) (A) (A) (A) (A) (A) (A) (A) (A) (A) (A) (A)
                 (A) (A) (A) (A) (A) (A) (A) (A) (A) (A) (A) (A)
                 (A) (A) (A) (A) (A) (A) (A) (A) (A) (A) (A) (A)
                 (A) (A) (A) (A) (A) (A) (A) (A) (A) (A) (A) (A)
                 (A) (A) (A) (A) (A) (A) (A) (A) (A) (A) (A) (A)
                 (A) (A) (A) (A) (A) (A) (A) (A) (A) (A) (A) (A)
                 (A) (A) (A) (A) (A) (A) (A) (A) (A) (A) (A) (A)
                 (A) (A) (A) (A) (A) (A) (A) (A) (A) (A) (A) (A)
                 (A) (A) (A) (A) (A) (A) (A) (A) (A) (A) (A) (A)
                 (A) (A) (A) (A) (A) (A) (A) (A) (A) (A) (A) (A)
                 (A) (A) (A) (A) (A) (A) (A) (A) (A) (A) (A) (A)
                 (A) (A) (A) (A) (A) (A) (A) (A) (A) (A) (A) (A)
                 (A) (A) (A) (A) (A) (A) (A) (A) (A) (A) (A) (A)
                 (A) (A) (A) (A) (A) (A) (A) (A) (A) (A) (A) (A)
                 (A) (A) (A) (A) (A) (A) (A) (A) (A) (A) (A) (A)
                 (A) (A) (A) (A) (A) (A) (A) (A) (A) (A) (A) (A)
                 (A) (A) (A) (A) (A) (A) (A) (A) (A) (A) (A) (A)
                 (A) (A) (A) (A) (A) (A) (A) (A) (A) (A) (A) (A)
                 (A) (A) (A) (A) (A) (A) (A) (A) (A) (A) (A) (A)
                 (A) (A) (A) (A) (A) (A) (A) (A) (A) (A) (A) (A)
                 (A) (A) (A) (A) (A) (A) (A) (A) (A) (A) (A) (A)
                 (A) (A) (A) (A) (A) (A) (A) (A) (A) (A) (A) (A)
                 (A) (A) (A) (A) (A) (A) (A) (A) (A) (A) (A) (A)
                 (A) (A) (A) (A) (A) (A) (A) (A) (A) (A) (A) (A)
                 (A) (A) (A) (A) (A) (A) (A) (A) (A) (A) (A) (A)
                 (A) (A) (A) (A) (A) (A) (A) (A) (A) (A) (A) (A)
                 (A) (A) (A) (A) (A) (A) (A) (A) (A) (A) (A) (A)
                 (A) (A) (A) (A) (A) (A) (A) (A) (A) (A) (A) (A)
                 (A) (A) (A) (A) (A) (A) (A) (A) (A) (A) (A) (A)
                 (A) (A) (A) (A) (A) (A) (A) (A) (A) (A) (A) (A)
                 (A) (A) (A) (A) (A) (A) (A) (A) (A) (A) (A) (A)
                 (A) (A) (A) (A) (A) (A) (A) (A) (A) (A) (A) (A)
                 (A) (A) (A) (A) (A) (A) (A) (A) (A) (A) (A) (A)
                 (A) (A) (A) (A) (A) (A) (A) (A) (A) (A) (A) (A)
                 (A) (A) (A) (A) (A) (A) (A) (A) (A) (A) (A) (A)
                 (A) (A) (A) (A) (A) (A) (A) (A) (A) (A) (A) (A)
                 (A) (A) (A)
     4 initial guesses have been made.
 Convergence on wavefunction:    0.001000000000000
 Iteration     1 Dimension     4 NMult     0 NNew      4
 CISAX will form     4 AO SS matrices at one time.
 Iteration     2 Dimension     6 NMult     4 NNew      2
 Iteration     3 Dimension     8 NMult     6 NNew      2
 Iteration     4 Dimension    10 NMult     8 NNew      2
 Iteration     5 Dimension    12 NMult    10 NNew      2
 Iteration     6 Dimension    14 NMult    12 NNew      2
 ***********************************************************************
 Excited states from <AA,BB:AA,BB> singles matrix:
 ***********************************************************************
 
 Ground to excited state transition densities written to RWF  633
 Ground to excited state transition electric dipole moments (Au):
       state          X           Y           Z        Dip. S.      Osc.
         1        -0.0293     -0.3298      0.2215      0.1587      0.0035
 Ground to excited state transition velocity dipole moments (Au):
       state          X           Y           Z        Dip. S.      Osc.
         1         0.0027      0.0098     -0.0089      0.0002      0.0037
 Ground to excited state transition magnetic dipole moments (Au):
       state          X           Y           Z
         1         0.0750      0.1666      0.3015
 Ground to excited state transition velocity quadrupole moments (Au):
       state          XX          YY          ZZ          XY          XZ          YZ
         1         0.0119      0.0253     -0.0282     -0.0294     -0.0173      0.0093
 <0|del|b> * <b|rxdel|0> + <0|del|b> * <b|delr+rdel|0>
 Rotatory Strengths (R) in cgs (10**-40 erg-esu-cm/Gauss)
       state          XX          YY          ZZ    R(velocity)    E-M Angle
         1        -6.5770    -28.9717     17.5186     -6.0101      100.22
 1/2[<0|r|b>*<b|rxdel|0> + (<0|rxdel|b>*<b|r|0>)*]
 Rotatory Strengths (R) in cgs (10**-40 erg-esu-cm/Gauss)
       state          XX          YY          ZZ     R(length)
         1         1.5531     38.8548    -47.2359     -2.2760
  1/2[<0|del|b>*<b|r|0> + (<0|r|b>*<b|del|0>)*] (Au)
       state          X           Y           Z        Dip. S.   Osc.(frdel)
         1        -0.0001     -0.0032     -0.0020      0.0053      0.0035

 Excitation energies and oscillator strengths:
 
 Excited State   1:      Singlet-A      0.9047 eV 1370.39 nm  f=0.0035  <S**2>=0.000
     155 ->156         0.70400
 This state for optimization and/or second-order correction.
 Total Energy, E(TD-HF/TD-DFT) =  -1947.75071266    
 Copying the excited state density for this state as the 1-particle RhoCI density.
 SavETr:  write IOETrn=   770 NScale= 10 NData=  16 NLR=1 NState=    1 LETran=      28.

 **********************************************************************

            Population analysis using the SCF density.

 **********************************************************************

 Orbital symmetries:
       Occupied  (A) (A) (A) (A) (A) (A) (A) (A) (A) (A) (A) (A)
                 (A) (A) (A) (A) (A) (A) (A) (A) (A) (A) (A) (A)
                 (A) (A) (A) (A) (A) (A) (A) (A) (A) (A) (A) (A)
                 (A) (A) (A) (A) (A) (A) (A) (A) (A) (A) (A) (A)
                 (A) (A) (A) (A) (A) (A) (A) (A) (A) (A) (A) (A)
                 (A) (A) (A) (A) (A) (A) (A) (A) (A) (A) (A) (A)
                 (A) (A) (A) (A) (A) (A) (A) (A) (A) (A) (A) (A)
                 (A) (A) (A) (A) (A) (A) (A) (A) (A) (A) (A) (A)
                 (A) (A) (A) (A) (A) (A) (A) (A) (A) (A) (A) (A)
                 (A) (A) (A) (A) (A) (A) (A) (A) (A) (A) (A) (A)
                 (A) (A) (A) (A) (A) (A) (A) (A) (A) (A) (A) (A)
                 (A) (A) (A) (A) (A) (A) (A) (A) (A) (A) (A) (A)
                 (A) (A) (A) (A) (A) (A) (A) (A) (A) (A) (A)
       Virtual   (A) (A) (A) (A) (A) (A) (A) (A) (A) (A) (A) (A)
                 (A) (A) (A) (A) (A) (A) (A) (A) (A) (A) (A) (A)
                 (A) (A) (A) (A) (A) (A) (A) (A) (A) (A) (A) (A)
                 (A) (A) (A) (A) (A) (A) (A) (A) (A) (A) (A) (A)
                 (A) (A) (A) (A) (A) (A) (A) (A) (A) (A) (A) (A)
                 (A) (A) (A) (A) (A) (A) (A) (A) (A) (A) (A) (A)
                 (A) (A) (A) (A) (A) (A) (A) (A) (A) (A) (A) (A)
                 (A) (A) (A) (A) (A) (A) (A) (A) (A) (A) (A) (A)
                 (A) (A) (A) (A) (A) (A) (A) (A) (A) (A) (A) (A)
                 (A) (A) (A) (A) (A) (A) (A) (A) (A) (A) (A) (A)
                 (A) (A) (A) (A) (A) (A) (A) (A) (A) (A) (A) (A)
                 (A) (A) (A) (A) (A) (A) (A) (A) (A) (A) (A) (A)
                 (A) (A) (A) (A) (A) (A) (A) (A) (A) (A) (A) (A)
                 (A) (A) (A) (A) (A) (A) (A) (A) (A) (A) (A) (A)
                 (A) (A) (A) (A) (A) (A) (A) (A) (A) (A) (A) (A)
                 (A) (A) (A) (A) (A) (A) (A) (A) (A) (A) (A) (A)
                 (A) (A) (A) (A) (A) (A) (A) (A) (A) (A) (A) (A)
                 (A) (A) (A) (A) (A) (A) (A) (A) (A) (A) (A) (A)
                 (A) (A) (A) (A) (A) (A) (A) (A) (A) (A) (A) (A)
                 (A) (A) (A) (A) (A) (A) (A) (A) (A) (A) (A) (A)
                 (A) (A) (A) (A) (A) (A) (A) (A) (A) (A) (A) (A)
                 (A) (A) (A) (A) (A) (A) (A) (A) (A) (A) (A) (A)
                 (A) (A) (A) (A) (A) (A) (A) (A) (A) (A) (A) (A)
                 (A) (A) (A) (A) (A) (A) (A) (A) (A) (A) (A) (A)
                 (A) (A) (A) (A) (A) (A) (A) (A) (A) (A) (A) (A)
                 (A) (A) (A) (A) (A) (A) (A) (A) (A) (A) (A) (A)
                 (A) (A) (A) (A) (A) (A) (A) (A) (A) (A) (A) (A)
                 (A) (A) (A) (A) (A) (A) (A) (A) (A) (A) (A) (A)
                 (A) (A) (A) (A) (A) (A) (A) (A) (A) (A) (A) (A)
                 (A) (A) (A) (A) (A) (A) (A) (A) (A) (A) (A) (A)
                 (A) (A) (A) (A) (A) (A) (A) (A) (A) (A) (A) (A)
                 (A) (A) (A) (A) (A) (A) (A) (A) (A) (A) (A) (A)
                 (A) (A) (A) (A) (A) (A) (A) (A) (A) (A) (A) (A)
                 (A) (A) (A) (A) (A) (A) (A) (A) (A) (A) (A) (A)
                 (A) (A) (A) (A) (A) (A) (A) (A) (A) (A) (A) (A)
                 (A) (A) (A) (A) (A) (A) (A) (A) (A) (A) (A) (A)
                 (A) (A) (A) (A) (A) (A) (A) (A) (A) (A) (A) (A)
                 (A) (A) (A) (A) (A) (A) (A) (A) (A) (A) (A) (A)
                 (A) (A) (A) (A) (A) (A) (A) (A) (A) (A) (A) (A)
                 (A) (A) (A) (A) (A) (A) (A) (A) (A) (A) (A) (A)
                 (A) (A) (A) (A) (A) (A) (A) (A) (A) (A) (A) (A)
                 (A) (A) (A) (A) (A) (A) (A) (A) (A) (A) (A) (A)
                 (A) (A) (A) (A) (A) (A) (A) (A) (A) (A) (A) (A)
                 (A) (A) (A) (A) (A) (A) (A) (A) (A) (A) (A) (A)
                 (A) (A) (A) (A) (A) (A) (A) (A) (A) (A) (A) (A)
                 (A) (A) (A) (A) (A) (A) (A) (A) (A) (A) (A) (A)
                 (A) (A) (A) (A) (A) (A) (A) (A) (A) (A) (A) (A)
                 (A) (A) (A) (A) (A) (A) (A) (A) (A) (A) (A) (A)
                 (A) (A) (A) (A) (A) (A) (A) (A) (A) (A) (A) (A)
                 (A) (A) (A) (A) (A) (A) (A) (A) (A) (A) (A) (A)
                 (A) (A) (A) (A) (A) (A) (A) (A) (A) (A) (A) (A)
                 (A) (A) (A) (A) (A) (A) (A) (A) (A) (A) (A) (A)
                 (A) (A) (A)
 The electronic state is 1-A.
 Alpha  occ. eigenvalues --  -19.21869 -19.19321 -19.14263 -19.11968 -19.11947
 Alpha  occ. eigenvalues --  -19.09199 -14.36954 -14.36681 -14.32454 -14.30551
 Alpha  occ. eigenvalues --  -10.34292 -10.32431 -10.27582 -10.27531 -10.26457
 Alpha  occ. eigenvalues --  -10.25695 -10.25691 -10.23393 -10.23333 -10.22976
 Alpha  occ. eigenvalues --  -10.22859 -10.22502 -10.22477 -10.22252 -10.22048
 Alpha  occ. eigenvalues --  -10.21905 -10.21841 -10.21788 -10.21612 -10.21132
 Alpha  occ. eigenvalues --  -10.21078 -10.20599 -10.20540 -10.20012 -10.19900
 Alpha  occ. eigenvalues --  -10.19862 -10.19734 -10.19561 -10.19400 -10.18710
 Alpha  occ. eigenvalues --  -10.18449 -10.17959 -10.17615  -1.12620  -1.11664
 Alpha  occ. eigenvalues --   -1.04703  -1.00120  -0.99734  -0.98173  -0.97071
 Alpha  occ. eigenvalues --   -0.94785  -0.93604  -0.90228  -0.84175  -0.82404
 Alpha  occ. eigenvalues --   -0.80844  -0.80567  -0.80247  -0.78937  -0.78297
 Alpha  occ. eigenvalues --   -0.76148  -0.75664  -0.74948  -0.74191  -0.73287
 Alpha  occ. eigenvalues --   -0.70743  -0.69382  -0.69143  -0.68828  -0.67701
 Alpha  occ. eigenvalues --   -0.66507  -0.65180  -0.62992  -0.62369  -0.61195
 Alpha  occ. eigenvalues --   -0.60895  -0.58834  -0.58534  -0.55740  -0.55671
 Alpha  occ. eigenvalues --   -0.55280  -0.55083  -0.54024  -0.53341  -0.52864
 Alpha  occ. eigenvalues --   -0.51673  -0.50918  -0.50755  -0.50206  -0.49766
 Alpha  occ. eigenvalues --   -0.49154  -0.48742  -0.48364  -0.47872  -0.47779
 Alpha  occ. eigenvalues --   -0.47288  -0.46875  -0.46421  -0.46082  -0.45831
 Alpha  occ. eigenvalues --   -0.45520  -0.45019  -0.44840  -0.44312  -0.44237
 Alpha  occ. eigenvalues --   -0.43551  -0.43320  -0.42590  -0.42454  -0.42022
 Alpha  occ. eigenvalues --   -0.41549  -0.41113  -0.41085  -0.40600  -0.40574
 Alpha  occ. eigenvalues --   -0.40264  -0.40183  -0.39933  -0.39738  -0.39186
 Alpha  occ. eigenvalues --   -0.38835  -0.38579  -0.38234  -0.37729  -0.37483
 Alpha  occ. eigenvalues --   -0.37275  -0.37165  -0.36667  -0.36070  -0.35979
 Alpha  occ. eigenvalues --   -0.35795  -0.35162  -0.34530  -0.34204  -0.33909
 Alpha  occ. eigenvalues --   -0.33470  -0.33367  -0.32946  -0.32606  -0.31894
 Alpha  occ. eigenvalues --   -0.31529  -0.30573  -0.29261  -0.28962  -0.28427
 Alpha  occ. eigenvalues --   -0.27150  -0.26235  -0.25338  -0.24191  -0.24044
 Alpha  occ. eigenvalues --   -0.23738  -0.23251  -0.22510  -0.22016  -0.18561
 Alpha virt. eigenvalues --   -0.12796  -0.08197  -0.04193  -0.02911  -0.02355
 Alpha virt. eigenvalues --   -0.00973   0.00124   0.01196   0.02544   0.02651
 Alpha virt. eigenvalues --    0.03503   0.04018   0.04430   0.04518   0.04713
 Alpha virt. eigenvalues --    0.05127   0.05270   0.06164   0.06581   0.06988
 Alpha virt. eigenvalues --    0.07234   0.07628   0.08192   0.08610   0.08858
 Alpha virt. eigenvalues --    0.08992   0.09135   0.09509   0.09850   0.10051
 Alpha virt. eigenvalues --    0.10378   0.10665   0.10850   0.10982   0.11805
 Alpha virt. eigenvalues --    0.12277   0.12425   0.12938   0.13386   0.14138
 Alpha virt. eigenvalues --    0.14262   0.14706   0.14918   0.15051   0.15273
 Alpha virt. eigenvalues --    0.15388   0.16462   0.16504   0.17545   0.17950
 Alpha virt. eigenvalues --    0.18639   0.19213   0.19651   0.19949   0.20328
 Alpha virt. eigenvalues --    0.20686   0.21387   0.21679   0.22061   0.22581
 Alpha virt. eigenvalues --    0.22992   0.23500   0.23728   0.24221   0.24689
 Alpha virt. eigenvalues --    0.24859   0.24912   0.25789   0.26181   0.27140
 Alpha virt. eigenvalues --    0.27758   0.27895   0.28290   0.28841   0.29435
 Alpha virt. eigenvalues --    0.29664   0.29856   0.30655   0.31109   0.31574
 Alpha virt. eigenvalues --    0.31849   0.32181   0.32734   0.33077   0.33419
 Alpha virt. eigenvalues --    0.34700   0.35125   0.35873   0.35933   0.36724
 Alpha virt. eigenvalues --    0.36960   0.37628   0.37872   0.39123   0.39349
 Alpha virt. eigenvalues --    0.39890   0.40152   0.40718   0.41182   0.41959
 Alpha virt. eigenvalues --    0.41987   0.42326   0.42393   0.42701   0.42909
 Alpha virt. eigenvalues --    0.43305   0.43357   0.44020   0.44479   0.45004
 Alpha virt. eigenvalues --    0.45396   0.45563   0.45914   0.46024   0.46302
 Alpha virt. eigenvalues --    0.46551   0.47267   0.47658   0.48177   0.48306
 Alpha virt. eigenvalues --    0.48620   0.48743   0.49197   0.49476   0.49563
 Alpha virt. eigenvalues --    0.49840   0.50134   0.50584   0.50857   0.51148
 Alpha virt. eigenvalues --    0.51377   0.52248   0.52643   0.52872   0.53118
 Alpha virt. eigenvalues --    0.53309   0.53724   0.53928   0.54479   0.54753
 Alpha virt. eigenvalues --    0.55352   0.55705   0.56107   0.56368   0.57076
 Alpha virt. eigenvalues --    0.57306   0.57408   0.57530   0.57737   0.58039
 Alpha virt. eigenvalues --    0.58158   0.58495   0.58669   0.59164   0.59318
 Alpha virt. eigenvalues --    0.59556   0.60123   0.60479   0.60516   0.60872
 Alpha virt. eigenvalues --    0.61267   0.61483   0.61683   0.62348   0.62433
 Alpha virt. eigenvalues --    0.62918   0.63106   0.63329   0.63621   0.64021
 Alpha virt. eigenvalues --    0.64131   0.64340   0.64716   0.64988   0.65185
 Alpha virt. eigenvalues --    0.65360   0.65868   0.66125   0.66285   0.66665
 Alpha virt. eigenvalues --    0.66892   0.67406   0.67573   0.67806   0.67949
 Alpha virt. eigenvalues --    0.68170   0.68634   0.68872   0.69102   0.69525
 Alpha virt. eigenvalues --    0.69869   0.70337   0.70599   0.70790   0.71269
 Alpha virt. eigenvalues --    0.71641   0.71891   0.72269   0.72574   0.73068
 Alpha virt. eigenvalues --    0.73325   0.73537   0.73688   0.74135   0.74399
 Alpha virt. eigenvalues --    0.74797   0.75237   0.75416   0.75604   0.75983
 Alpha virt. eigenvalues --    0.76747   0.77203   0.77580   0.77867   0.78431
 Alpha virt. eigenvalues --    0.79131   0.79413   0.79618   0.80104   0.80737
 Alpha virt. eigenvalues --    0.81199   0.82167   0.82462   0.82923   0.83329
 Alpha virt. eigenvalues --    0.84522   0.85638   0.87233   0.87526   0.88268
 Alpha virt. eigenvalues --    0.88593   0.89443   0.89569   0.90458   0.90890
 Alpha virt. eigenvalues --    0.91688   0.92078   0.92778   0.93173   0.93315
 Alpha virt. eigenvalues --    0.93496   0.94346   0.94723   0.95179   0.95701
 Alpha virt. eigenvalues --    0.96003   0.96263   0.96676   0.97369   0.97953
 Alpha virt. eigenvalues --    0.98391   0.99261   0.99723   1.00499   1.00616
 Alpha virt. eigenvalues --    1.02436   1.03340   1.03685   1.05022   1.05308
 Alpha virt. eigenvalues --    1.06023   1.07524   1.07656   1.08355   1.08930
 Alpha virt. eigenvalues --    1.09405   1.10954   1.11326   1.11549   1.11866
 Alpha virt. eigenvalues --    1.12263   1.12965   1.13475   1.14606   1.15629
 Alpha virt. eigenvalues --    1.15848   1.16481   1.16986   1.17800   1.18940
 Alpha virt. eigenvalues --    1.19439   1.19962   1.20416   1.21540   1.21962
 Alpha virt. eigenvalues --    1.22978   1.23375   1.23980   1.25040   1.25332
 Alpha virt. eigenvalues --    1.26132   1.26700   1.27282   1.27673   1.28341
 Alpha virt. eigenvalues --    1.28638   1.29688   1.30211   1.30952   1.31316
 Alpha virt. eigenvalues --    1.32358   1.33027   1.33487   1.33988   1.34441
 Alpha virt. eigenvalues --    1.34963   1.35231   1.35311   1.35937   1.36960
 Alpha virt. eigenvalues --    1.37246   1.37837   1.38313   1.39018   1.41182
 Alpha virt. eigenvalues --    1.41482   1.42254   1.42862   1.43686   1.43808
 Alpha virt. eigenvalues --    1.44718   1.45067   1.45747   1.46265   1.47070
 Alpha virt. eigenvalues --    1.47390   1.49145   1.49622   1.50250   1.50414
 Alpha virt. eigenvalues --    1.51169   1.51718   1.52718   1.53102   1.53513
 Alpha virt. eigenvalues --    1.53700   1.54251   1.54633   1.54984   1.55290
 Alpha virt. eigenvalues --    1.55642   1.56441   1.56976   1.57314   1.57627
 Alpha virt. eigenvalues --    1.58553   1.59136   1.59724   1.60170   1.60985
 Alpha virt. eigenvalues --    1.61296   1.61739   1.62052   1.62384   1.63181
 Alpha virt. eigenvalues --    1.63792   1.64089   1.64463   1.65310   1.65348
 Alpha virt. eigenvalues --    1.65964   1.66198   1.67120   1.67321   1.67707
 Alpha virt. eigenvalues --    1.68012   1.68528   1.68918   1.69658   1.69936
 Alpha virt. eigenvalues --    1.70175   1.70316   1.71263   1.71415   1.71987
 Alpha virt. eigenvalues --    1.72288   1.73136   1.73587   1.73931   1.74284
 Alpha virt. eigenvalues --    1.74543   1.75045   1.75747   1.75997   1.76178
 Alpha virt. eigenvalues --    1.76866   1.77036   1.77347   1.77886   1.78386
 Alpha virt. eigenvalues --    1.78764   1.79057   1.79588   1.80095   1.80282
 Alpha virt. eigenvalues --    1.80677   1.81129   1.81297   1.81694   1.82369
 Alpha virt. eigenvalues --    1.82998   1.83263   1.83903   1.84189   1.85040
 Alpha virt. eigenvalues --    1.85148   1.85781   1.86069   1.86202   1.86939
 Alpha virt. eigenvalues --    1.87368   1.87560   1.87723   1.87864   1.88599
 Alpha virt. eigenvalues --    1.88857   1.90115   1.90373   1.91117   1.91274
 Alpha virt. eigenvalues --    1.92272   1.92442   1.92851   1.93017   1.94005
 Alpha virt. eigenvalues --    1.94454   1.94487   1.94856   1.95488   1.95912
 Alpha virt. eigenvalues --    1.96667   1.97143   1.97501   1.97878   1.98396
 Alpha virt. eigenvalues --    1.98910   1.99884   2.00903   2.01215   2.01346
 Alpha virt. eigenvalues --    2.01545   2.02416   2.02659   2.03202   2.03517
 Alpha virt. eigenvalues --    2.03753   2.04340   2.05234   2.06955   2.06973
 Alpha virt. eigenvalues --    2.07542   2.07746   2.08192   2.08745   2.09309
 Alpha virt. eigenvalues --    2.09603   2.10113   2.10818   2.11128   2.11676
 Alpha virt. eigenvalues --    2.12353   2.12730   2.13284   2.13454   2.14755
 Alpha virt. eigenvalues --    2.15719   2.16127   2.16259   2.17096   2.17752
 Alpha virt. eigenvalues --    2.17892   2.18541   2.19643   2.20324   2.20830
 Alpha virt. eigenvalues --    2.21583   2.21865   2.22451   2.22876   2.23303
 Alpha virt. eigenvalues --    2.23906   2.24497   2.24945   2.25660   2.26163
 Alpha virt. eigenvalues --    2.26830   2.27466   2.27958   2.28346   2.29411
 Alpha virt. eigenvalues --    2.29905   2.33089   2.33659   2.33783   2.34417
 Alpha virt. eigenvalues --    2.35966   2.36313   2.36790   2.37482   2.37726
 Alpha virt. eigenvalues --    2.38170   2.38452   2.38749   2.39001   2.39470
 Alpha virt. eigenvalues --    2.40073   2.40357   2.41205   2.41520   2.43269
 Alpha virt. eigenvalues --    2.44149   2.44744   2.45394   2.46316   2.47077
 Alpha virt. eigenvalues --    2.48855   2.49253   2.50589   2.51445   2.52033
 Alpha virt. eigenvalues --    2.52476   2.52769   2.53033   2.53987   2.54581
 Alpha virt. eigenvalues --    2.55091   2.56148   2.57270   2.57926   2.58387
 Alpha virt. eigenvalues --    2.58903   2.59183   2.61430   2.61641   2.62999
 Alpha virt. eigenvalues --    2.63552   2.63633   2.64202   2.64856   2.65196
 Alpha virt. eigenvalues --    2.65993   2.67290   2.67651   2.68922   2.69146
 Alpha virt. eigenvalues --    2.70017   2.70459   2.70892   2.71768   2.72024
 Alpha virt. eigenvalues --    2.72691   2.73016   2.73327   2.74227   2.75495
 Alpha virt. eigenvalues --    2.75905   2.76199   2.76742   2.77479   2.77904
 Alpha virt. eigenvalues --    2.78954   2.79710   2.80787   2.81408   2.81987
 Alpha virt. eigenvalues --    2.82299   2.83277   2.83495   2.83637   2.83696
 Alpha virt. eigenvalues --    2.84653   2.84840   2.85559   2.87200   2.87287
 Alpha virt. eigenvalues --    2.89490   2.89855   2.90193   2.90758   2.91376
 Alpha virt. eigenvalues --    2.91783   2.92726   2.93561   2.95824   2.96253
 Alpha virt. eigenvalues --    2.98323   3.01694   3.02972   3.03791   3.04147
 Alpha virt. eigenvalues --    3.05370   3.07339   3.08888   3.09555   3.10417
 Alpha virt. eigenvalues --    3.11341   3.11408   3.12385   3.15040   3.15626
 Alpha virt. eigenvalues --    3.16177   3.16458   3.16848   3.17529   3.18411
 Alpha virt. eigenvalues --    3.20496   3.21342   3.22497   3.23174   3.24971
 Alpha virt. eigenvalues --    3.26700   3.33731   3.34224   3.36415   3.37339
 Alpha virt. eigenvalues --    3.40527   3.44924   3.47081   3.49427   3.53481
 Alpha virt. eigenvalues --    3.59184   3.59984   3.60064   3.65093   3.72442
 Alpha virt. eigenvalues --    3.76192   3.82097
          Condensed to atoms (all electrons):
 Mulliken charges:
               1
     1  O   -0.230937
     2  O   -0.097057
     3  O   -0.297826
     4  O   -0.129833
     5  O   -0.284569
     6  O   -0.170160
     7  N   -0.123398
     8  N   -0.295225
     9  N   -0.212849
    10  N   -0.320106
    11  C    0.140146
    12  C    0.118746
    13  C   -0.094158
    14  C   -0.099660
    15  C   -0.065958
    16  C    0.035640
    17  C   -0.209657
    18  C    0.098128
    19  C    0.004636
    20  C   -0.155470
    21  C    0.144579
    22  C    0.175670
    23  C    0.079038
    24  C    0.051991
    25  C    0.100433
    26  C   -0.069728
    27  C   -0.078557
    28  C    0.223059
    29  C   -0.109143
    30  C   -0.040913
    31  C   -0.001372
    32  C   -0.059699
    33  C   -0.157172
    34  C    0.141512
    35  C    0.053426
    36  C   -0.071727
    37  C    0.156632
    38  C    0.088781
    39  C   -0.224658
    40  C    0.170161
    41  C   -0.041845
    42  C   -0.030707
    43  C   -0.006860
    44  H    0.031148
    45  H    0.008869
    46  H   -0.013196
    47  H    0.115430
    48  H    0.151335
    49  H    0.031339
    50  H    0.003984
    51  H    0.048292
    52  H    0.039166
    53  H   -0.008119
    54  H    0.019288
    55  H    0.036689
    56  H    0.058584
    57  H    0.021106
    58  H    0.072312
    59  H    0.050982
    60  H    0.246051
    61  H    0.038925
    62  H    0.084370
    63  H    0.013637
    64  H    0.001792
    65  H    0.069390
    66  H    0.040205
    67  H    0.054308
    68  H    0.055550
    69  H    0.047013
    70  H    0.022292
    71  H    0.022477
    72  H    0.142508
    73  H   -0.000664
    74  H    0.071086
    75  H    0.055183
    76  H    0.049415
    77  H    0.180353
    78  H   -0.013800
    79  H    0.049367
 Sum of Mulliken charges =  -0.00000
 Mulliken charges with hydrogens summed into heavy atoms:
               1
     1  O   -0.230937
     2  O    0.045452
     3  O   -0.297826
     4  O    0.050520
     5  O   -0.284569
     6  O   -0.170160
     7  N   -0.007967
     8  N   -0.143890
     9  N    0.033202
    10  N   -0.320106
    11  C    0.171293
    12  C    0.114419
    13  C   -0.094158
    14  C   -0.099660
    15  C   -0.065958
    16  C    0.035640
    17  C   -0.209657
    18  C    0.133451
    19  C    0.004636
    20  C   -0.107178
    21  C    0.144579
    22  C    0.175670
    23  C    0.079038
    24  C    0.102326
    25  C    0.216812
    26  C   -0.069728
    27  C    0.044737
    28  C    0.223059
    29  C    0.014152
    30  C   -0.027277
    31  C    0.069811
    32  C    0.090363
    33  C   -0.110159
    34  C    0.141512
    35  C    0.053426
    36  C   -0.026959
    37  C    0.156632
    38  C    0.088781
    39  C   -0.224658
    40  C    0.170161
    41  C   -0.042509
    42  C    0.144977
    43  C    0.028706
 Electronic spatial extent (au):  <R**2>=          26050.3061
 Charge=             -0.0000 electrons
 Dipole moment (field-independent basis, Debye):
    X=              4.2710    Y=              3.2734    Z=              0.3710  Tot=              5.3939
 Quadrupole moment (field-independent basis, Debye-Ang):
   XX=           -231.3697   YY=           -232.5496   ZZ=           -272.6473
   XY=              5.1557   XZ=            -15.5472   YZ=             -7.4166
 Traceless Quadrupole moment (field-independent basis, Debye-Ang):
   XX=             14.1525   YY=             12.9726   ZZ=            -27.1251
   XY=              5.1557   XZ=            -15.5472   YZ=             -7.4166
 Octapole moment (field-independent basis, Debye-Ang**2):
  XXX=            278.0731  YYY=            103.5527  ZZZ=             42.1377  XYY=             11.9440
  XXY=            -23.4563  XXZ=            -14.0177  XZZ=            -14.4051  YZZ=             92.6575
  YYZ=             19.4584  XYZ=              0.7892
 Hexadecapole moment (field-independent basis, Debye-Ang**3):
 XXXX=         -16696.0995 YYYY=          -7965.3843 ZZZZ=          -7161.6021 XXXY=           -259.8495
 XXXZ=           -105.3993 YYYX=           -188.7539 YYYZ=             -9.8072 ZZZX=            -95.8001
 ZZZY=            138.4995 XXYY=          -4475.0902 XXZZ=          -4887.8686 YYZZ=          -2432.0237
 XXYZ=            -42.8680 YYXZ=            215.7669 ZZXY=            317.5493
 N-N= 5.171512237236D+03 E-N=-1.487090924883D+04  KE= 1.925813155361D+03
 1\1\GINC-PADAWAN\SP\RB3LYP TD-FC\SVP\C33H36N4O6\PADAWAN\25-Jul-2019\0\
 \# td=(NStates=1) B3LYP/SVP\\TD\\0,1\O,0,-3.2604129515,-1.2731823737,-
 2.9088815425\O,0,3.2388543402,3.138185477,3.1877230432\O,0,3.837958104
 ,1.2879759259,4.397604204\O,0,7.6463132342,-1.7282389381,-0.5659373555
 \O,0,6.6132954859,-2.904771272,-2.3305895071\O,0,-2.6981707236,1.53387
 8877,1.2653765982\N,0,-0.2457903252,-2.4011864329,0.8865234931\N,0,-2.
 6615681948,-1.1662717622,-0.5995721018\N,0,1.0925108005,0.0995608658,-
 0.6619411313\N,0,-1.062055351,1.5407694848,-0.2628971876\C,0,-3.334488
 5986,-1.4052580882,0.641951169\C,0,-2.5552441505,-2.4596601122,1.61493
 68005\C,0,-1.2184474864,-2.1003978538,1.8428722758\C,0,-0.6096707694,-
 1.1270138931,2.7930273232\C,0,0.7575768703,-1.047649766,2.4830094955\C
 ,0,0.9993926255,-1.8385002847,1.3705118552\C,0,-4.6816231089,-1.973643
 013,0.2349203793\C,0,1.8223768291,-0.3932996596,3.2907912336\C,0,-4.82
 24986113,-2.1377024786,-1.0592762681\C,0,2.1036983262,-1.8098691791,0.
 4352358023\C,0,2.1286988918,-0.8475266649,-0.5776316647\C,0,-3.5495496
 249,-1.4713591012,-1.7333806215\C,0,3.1284339066,-0.6003907874,-1.6498
 788868\C,0,-1.3709356658,-0.664650322,3.9474202503\C,0,-5.838699094,-2
 .1203285132,1.2687178774\C,0,2.511700827,0.4943868069,-2.4105156616\C,
 0,2.1417936118,1.039259618,2.670933735\C,0,1.3340267692,0.969573606,-1
 .7658526913\C,0,4.1955849076,-1.3799874278,-1.9534449746\C,0,-5.886783
 0144,-2.4693190223,-1.9564290911\C,0,5.5088364346,-1.1186336086,-1.108
 7342903\C,0,3.1505751529,1.0046788705,-3.5712336326\C,0,0.5279352176,2
 .0212172686,-2.1000317483\C,0,3.1090395443,1.8632559111,3.522467592\C,
 0,-0.6331671483,2.2858732195,-1.3179970876\C,0,-6.9867426008,-3.260149
 7791,-1.641682727\C,0,6.646174187,-2.0612643815,-1.3681275028\C,0,-1.5
 463732921,3.5523274659,-1.3243605108\C,0,-2.31760585,3.3838088599,-0.2
 255604622\C,0,-2.1081730897,2.0970706406,0.3928782198\C,0,-1.358885867
 ,4.6358998502,-2.280879856\C,0,-3.547685405,4.3173322161,0.0984340831\
 C,0,-1.942458137,5.8660320214,-2.379601693\H,0,-3.2624847417,-0.477583
 2482,1.199874192\H,0,-2.7719788243,-3.5677418992,1.2018505342\H,0,-2.8
 972795478,-2.3845518996,2.6679561843\H,0,-0.5163869435,-2.9554943145,0
 .0920762176\H,0,-1.7683852282,-0.589385242,-0.6982439268\H,0,1.6769156
 53,-0.4717186257,4.3935514542\H,0,2.839081241,-0.8651184031,3.12757768
 72\H,0,2.9959884127,-2.6166032432,0.6409771509\H,0,-2.0299656259,-1.58
 34576198,4.3597930411\H,0,-0.7452042884,-0.2832425279,4.7994262991\H,0
 ,-1.9727765915,0.205943041,3.78464723\H,0,-5.4064914363,-1.5373218634,
 2.1650607991\H,0,-5.9884776085,-3.2453686415,1.3776706134\H,0,-6.64443
 182,-1.6520008435,0.8363199937\H,0,2.59910605,1.0201719591,1.604678079
 1\H,0,1.1370636579,1.6092431686,2.6074787216\H,0,0.2057388315,0.368611
 2309,-0.0025222845\H,0,4.7135270719,-1.072360295,-3.0066162635\H,0,4.0
 196927991,-2.6505668359,-1.9781549235\H,0,-5.9230544438,-2.1788688115,
 -3.0149949633\H,0,5.287956717,-1.3160820881,-0.1393207084\H,0,5.882209
 6623,0.0186748714,-1.1408585684\H,0,3.7158314946,0.1913956317,-4.14257
 24867\H,0,4.1507008217,1.720143093,-3.4695692923\H,0,2.2535911484,1.50
 29447924,-4.2864317952\H,0,0.6431982298,2.8685183483,-2.994130305\H,0,
 -6.9658656727,-3.5382960135,-0.4084598672\H,0,-7.824420707,-3.47552888
 34,-2.2636594194\H,0,3.717255453,3.5258419452,3.842487503\H,0,-0.69372
 32511,4.4163929188,-3.1363815336\H,0,-4.1381124008,4.7088274645,-0.810
 1721687\H,0,-4.2774264923,3.6238871823,0.8762884402\H,0,-3.0582341396,
 5.1074010312,0.7990256725\H,0,8.3618918827,-2.3133944936,-0.8351341484
 \H,0,-1.7313460592,6.5571261697,-3.0474595982\H,0,-2.4651388668,6.3191
 332891,-1.3394198495\\Version=ES64L-G16RevA.03\State=1-A\HF=-1947.7839
 61\RMSD=7.213e-09\PG=C01 [X(C33H36N4O6)]\\@


 The cat could very well be man's best friend
 but would never stoop to admitting it.
                               -- Doug Larson
 Job cpu time:       0 days  4 hours 15 minutes  2.7 seconds.
 Elapsed time:       0 days  1 hours  3 minutes 50.4 seconds.
 File lengths (MBytes):  RWF=   2533 Int=      0 D2E=      0 Chk=     63 Scr=      1
 Normal termination of Gaussian 16 at Thu Jul 25 14:38:53 2019.
