 Entering Gaussian System, Link 0=g16
 Input=Geometria-225-.com
 Output=Geometria-225-.log
 Initial command:
 /usr/local/g16/l1.exe "/home/padawan/israel-mol/dihydrobiliverdin/spectra/emi/Gau-12264.inp" -scrdir="/home/padawan/israel-mol/dihydrobiliverdin/spectra/emi/"
 Entering Link 1 = /usr/local/g16/l1.exe PID=     12266.
  
 Copyright (c) 1988,1990,1992,1993,1995,1998,2003,2009,2016,
            Gaussian, Inc.  All Rights Reserved.
  
 This is part of the Gaussian(R) 16 program.  It is based on
 the Gaussian(R) 09 system (copyright 2009, Gaussian, Inc.),
 the Gaussian(R) 03 system (copyright 2003, Gaussian, Inc.),
 the Gaussian(R) 98 system (copyright 1998, Gaussian, Inc.),
 the Gaussian(R) 94 system (copyright 1995, Gaussian, Inc.),
 the Gaussian 92(TM) system (copyright 1992, Gaussian, Inc.),
 the Gaussian 90(TM) system (copyright 1990, Gaussian, Inc.),
 the Gaussian 88(TM) system (copyright 1988, Gaussian, Inc.),
 the Gaussian 86(TM) system (copyright 1986, Carnegie Mellon
 University), and the Gaussian 82(TM) system (copyright 1983,
 Carnegie Mellon University). Gaussian is a federally registered
 trademark of Gaussian, Inc.
  
 This software contains proprietary and confidential information,
 including trade secrets, belonging to Gaussian, Inc.
  
 This software is provided under written license and may be
 used, copied, transmitted, or stored only in accord with that
 written license.
  
 The following legend is applicable only to US Government
 contracts under FAR:
  
                    RESTRICTED RIGHTS LEGEND
  
 Use, reproduction and disclosure by the US Government is
 subject to restrictions as set forth in subparagraphs (a)
 and (c) of the Commercial Computer Software - Restricted
 Rights clause in FAR 52.227-19.
  
 Gaussian, Inc.
 340 Quinnipiac St., Bldg. 40, Wallingford CT 06492
  
  
 ---------------------------------------------------------------
 Warning -- This program may not be used in any manner that
 competes with the business of Gaussian, Inc. or will provide
 assistance to any competitor of Gaussian, Inc.  The licensee
 of this program is prohibited from giving any competitor of
 Gaussian, Inc. access to this program.  By using this program,
 the user acknowledges that Gaussian, Inc. is engaged in the
 business of creating and licensing software in the field of
 computational chemistry and represents and warrants to the
 licensee that it is not a competitor of Gaussian, Inc. and that
 it will not use this program in any manner prohibited above.
 ---------------------------------------------------------------
  

 Cite this work as:
 Gaussian 16, Revision A.03,
 M. J. Frisch, G. W. Trucks, H. B. Schlegel, G. E. Scuseria, 
 M. A. Robb, J. R. Cheeseman, G. Scalmani, V. Barone, 
 G. A. Petersson, H. Nakatsuji, X. Li, M. Caricato, A. V. Marenich, 
 J. Bloino, B. G. Janesko, R. Gomperts, B. Mennucci, H. P. Hratchian, 
 J. V. Ortiz, A. F. Izmaylov, J. L. Sonnenberg, D. Williams-Young, 
 F. Ding, F. Lipparini, F. Egidi, J. Goings, B. Peng, A. Petrone, 
 T. Henderson, D. Ranasinghe, V. G. Zakrzewski, J. Gao, N. Rega, 
 G. Zheng, W. Liang, M. Hada, M. Ehara, K. Toyota, R. Fukuda, 
 J. Hasegawa, M. Ishida, T. Nakajima, Y. Honda, O. Kitao, H. Nakai, 
 T. Vreven, K. Throssell, J. A. Montgomery, Jr., J. E. Peralta, 
 F. Ogliaro, M. J. Bearpark, J. J. Heyd, E. N. Brothers, K. N. Kudin, 
 V. N. Staroverov, T. A. Keith, R. Kobayashi, J. Normand, 
 K. Raghavachari, A. P. Rendell, J. C. Burant, S. S. Iyengar, 
 J. Tomasi, M. Cossi, J. M. Millam, M. Klene, C. Adamo, R. Cammi, 
 J. W. Ochterski, R. L. Martin, K. Morokuma, O. Farkas, 
 J. B. Foresman, and D. J. Fox, Gaussian, Inc., Wallingford CT, 2016.
 
 ******************************************
 Gaussian 16:  ES64L-G16RevA.03 25-Dec-2016
                25-Sep-2019 
 ******************************************
 %nproc=4
 Will use up to    4 processors via shared memory.
 %Mem=4GB
 --------------------------
 # td=(NStates=1) B3LYP/SVP
 --------------------------
 1/38=1,172=1/1;
 2/12=2,17=6,18=5,40=1/2;
 3/5=18,7=101,11=9,25=1,30=1,74=-5/1,2,3,8;
 4//1;
 5/5=2,38=5/2;
 8/6=1,10=1,108=1/1;
 9/41=1,42=1,70=2/14;
 6/7=2,8=2,9=2,10=2/1;
 99/5=1,9=1/99;
 --
 TD
 --
 Symbolic Z-matrix:
 Charge =  0 Multiplicity = 1
 8                    -5.35539   0.08446  -3.28352 
 8                     3.11439   2.84473   3.14095 
 8                     3.32459   0.63069   3.09669 
 8                     1.35107  -6.992     1.63904 
 8                     0.34377  -6.94742  -0.33404 
 8                     1.90857   4.05169   0.30777 
 7                    -2.31721  -0.88864   0.52609 
 7                    -4.32037   0.59126  -1.23599 
 7                     1.86766  -0.65765  -0.42572 
 7                     2.6611    1.99473  -0.47982 
 6                    -4.79959   1.14912   0.00794 
 6                    -4.36732   0.35015   1.27615 
 6                    -2.98951   0.09598   1.32412 
 6                    -1.90631   0.62484   2.06377 
 6                    -0.71654  -0.08425   1.77126 
 6                    -0.97381  -0.92099   0.81231 
 6                    -6.24737   1.20237  -0.13841 
 6                     0.61986   0.16102   2.46137 
 6                    -6.61361   0.758    -1.39617 
 6                    -0.12218  -2.04828   0.23095 
 6                     1.12794  -1.89094  -0.33025 
 6                    -5.39761   0.43404  -2.02519 
 6                     1.97937  -2.90271  -0.99964 
 6                    -2.17407   1.64678   3.16549 
 6                    -7.27318   1.68277   0.8875 
 6                     3.10728  -2.29023  -1.44434 
 6                     1.1327    1.59712   2.63533 
 6                     3.03274  -0.82242  -1.03018 
 6                     1.60386  -4.31982  -1.05329 
 6                    -7.94299   0.56453  -2.00658 
 6                     1.62487  -5.00259   0.30891 
 6                     4.3152   -2.92946  -2.10639 
 6                     3.95113   0.14894  -1.42786 
 6                     2.60314   1.59199   2.93132 
 6                     3.82465   1.67329  -1.12617 
 6                    -9.12282   0.59746  -1.43647 
 6                     1.06987  -6.33407   0.45561 
 6                     4.59319   2.73348  -1.54227 
 6                     3.98917   3.72079  -1.05064 
 6                     2.74338   3.28998  -0.33266 
 6                     5.98187   2.50187  -2.17275 
 6                     4.26808   5.20596  -1.17442 
 6                     6.64581   3.5532   -2.59204 
 1                    -4.25607   2.31341   0.11544 
 1                    -4.91444  -0.56322   1.32134 
 1                    -4.54464   0.85915   2.28692 
 1                    -2.72686  -1.26228  -0.27537 
 1                    -3.41986   0.55067  -1.59586 
 1                     0.44706  -0.47978   3.3744 
 1                     1.33433  -0.46819   1.9139 
 1                    -0.58602  -2.85405   0.21455 
 1                    -3.36946   1.80161   3.361 
 1                    -1.70691   1.26047   4.19524 
 1                    -1.67246   2.4948    2.79874 
 1                    -6.62384   2.26197   1.72952 
 1                    -7.75923   0.87907   1.52664 
 1                    -7.98407   2.50684   0.54585 
 1                     0.86112   2.29283   1.73058 
 1                     0.49983   2.16991   3.45275 
 1                     1.75437   0.24572   0.0536 
 1                     2.09897  -4.89112  -1.81476 
 1                     0.46152  -4.24101  -1.34927 
 1                    -7.82225   0.53513  -3.0793 
 1                     0.98272  -4.45241   0.87789 
 1                     2.5802   -4.90714   0.71708 
 1                     4.48909  -3.92825  -2.32161 
 1                     5.25184  -2.55384  -1.42235 
 1                     4.69204  -2.41436  -3.10023 
 1                     4.82013  -0.24188  -1.74862 
 1                    -9.25366   0.85491  -0.36418 
 1                    -9.93002   0.53533  -2.09011 
 1                     4.13406   2.70093   3.0356 
 1                     6.2353    1.46582  -2.63571 
 1                     5.05195   5.54954  -0.64984 
 1                     4.3941    5.58153  -2.2194 
 1                     3.45362   5.76958  -0.59973 
 1                     0.68427  -7.74505   1.82717 
 1                     7.65822   3.29249  -3.18225 
 1                     6.53779   4.53953  -2.15337 
 
 Stoichiometry    C33H36N4O6
 Framework group  C1[X(C33H36N4O6)]
 Deg. of freedom   231
 Full point group                 C1      NOp   1
 Largest Abelian subgroup         C1      NOp   1
 Largest concise Abelian subgroup C1      NOp   1
                         Standard orientation:                         
 ---------------------------------------------------------------------
 Center     Atomic      Atomic             Coordinates (Angstroms)
 Number     Number       Type             X           Y           Z
 ---------------------------------------------------------------------
      1          8           0        5.318314   -0.393067   -3.319058
      2          8           0       -3.235514   -2.647698    3.190840
      3          8           0       -3.329285   -0.426123    3.128072
      4          8           0       -0.968725    7.069135    1.587390
      5          8           0        0.019704    6.954495   -0.392401
      6          8           0       -2.116577   -3.940962    0.360096
      7          7           0        2.364785    0.771636    0.503338
      8          7           0        4.273768   -0.826904   -1.259643
      9          7           0       -1.833605    0.753159   -0.416232
     10          7           0       -2.765870   -1.854109   -0.440640
     11          6           0        4.732487   -1.398445   -0.014198
     12          6           0        4.352575   -0.566871    1.249818
     13          6           0        2.990450   -0.240083    1.305391
     14          6           0        1.886620   -0.704733    2.057558
     15          6           0        0.733593    0.063482    1.767206
     16          6           0        1.027177    0.877172    0.798908
     17          6           0        6.174299   -1.529143   -0.170461
     18          6           0       -0.608536   -0.105078    2.469094
     19          6           0        6.553773   -1.115577   -1.434785
     20          6           0        0.231599    2.042689    0.213507
     21          6           0       -1.029325    1.946557   -0.337245
     22          6           0        5.351717   -0.733481   -2.057955
     23          6           0       -1.831454    2.995940   -1.009612
     24          6           0        2.108680   -1.729789    3.166523
     25          6           0        7.181249   -2.054010    0.852352
     26          6           0       -2.993388    2.439891   -1.440632
     27          6           0       -1.194864   -1.510615    2.659720
     28          6           0       -2.993001    0.973833   -1.013762
     29          6           0       -1.382341    4.390784   -1.078774
     30          6           0        7.886776   -0.997688   -2.056466
     31          6           0       -1.356971    5.085478    0.277305
     32          6           0       -4.171042    3.136105   -2.099739
     33          6           0       -3.964230    0.048783   -1.396028
     34          6           0       -2.660690   -1.425481    2.966217
     35          6           0       -3.915809   -1.477443   -1.081483
     36          6           0        9.067567   -1.087784   -1.494578
     37          6           0       -0.731592    6.387096    0.407970
     38          6           0       -4.742220   -2.499240   -1.482443
     39          6           0       -4.187228   -3.512705   -0.986254
     40          6           0       -2.915038   -3.141908   -0.281181
     41          6           0       -6.121583   -2.200268   -2.104989
     42          6           0       -4.544822   -4.982132   -1.094592
     43          6           0       -6.843102   -3.218763   -2.509974
     44          1           0        4.129314   -2.531524    0.107741
     45          1           0        4.947306    0.316764    1.282803
     46          1           0        4.510603   -1.075744    2.263840
     47          1           0        2.787376    1.116238   -0.304397
     48          1           0        3.373918   -0.742056   -1.613377
     49          1           0       -0.395280    0.533602    3.375027
     50          1           0       -1.293084    0.556127    1.921108
     51          1           0        0.737044    2.822737    0.186487
     52          1           0        3.295725   -1.945670    3.354821
     53          1           0        1.670384   -1.310509    4.196066
     54          1           0        1.560361   -2.553357    2.811070
     55          1           0        6.508795   -2.590895    1.704215
     56          1           0        7.713774   -1.271526    1.480683
     57          1           0        7.845167   -2.917305    0.513067
     58          1           0       -0.967192   -2.227470    1.759374
     59          1           0       -0.586766   -2.108855    3.477720
     60          1           0       -1.764329   -0.150735    0.070412
     61          1           0       -1.852520    4.980763   -1.841800
     62          1           0       -0.248021    4.249363   -1.382241
     63          1           0        7.759544   -0.971258   -3.128517
     64          1           0       -0.740316    4.507178    0.846604
     65          1           0       -2.312851    5.044011    0.693182
     66          1           0       -4.293799    4.140767   -2.322723
     67          1           0       -5.120879    2.816276   -1.405609
     68          1           0       -4.582058    2.632990   -3.086144
     69          1           0       -4.813904    0.482042   -1.714057
     70          1           0        9.192889   -1.342480   -0.420972
     71          1           0        9.871893   -1.073917   -2.154536
     72          1           0       -4.246980   -2.451310    3.091526
     73          1           0       -6.323693   -1.156357   -2.575470
     74          1           0       -5.341636   -5.279398   -0.561308
     75          1           0       -4.698421   -5.359580   -2.135204
     76          1           0       -3.756764   -5.582874   -0.520700
     77          1           0       -0.261807    7.787618    1.763899
     78          1           0       -7.844879   -2.910212   -3.095216
     79          1           0       -6.783754   -4.205580   -2.063183
 ---------------------------------------------------------------------
 Rotational constants (GHZ):           0.0757321           0.0450863           0.0351597
 Standard basis: SVP (5D, 7F)
 There are   825 symmetry adapted cartesian basis functions of A   symmetry.
 There are   782 symmetry adapted basis functions of A   symmetry.
   782 basis functions,  1327 primitive gaussians,   825 cartesian basis functions
   155 alpha electrons      155 beta electrons
       nuclear repulsion energy      4947.8691926406 Hartrees.
 NAtoms=   79 NActive=   79 NUniq=   79 SFac= 1.00D+00 NAtFMM=   60 NAOKFM=T Big=T
 Integral buffers will be    131072 words long.
 Regular integral format.
 Two-electron integral symmetry is turned on.
 One-electron integrals computed using PRISM.
 NBasis=   782 RedAO= T EigKep=  3.39D-04  NBF=   782
 NBsUse=   782 1.00D-06 EigRej= -1.00D+00 NBFU=   782
 ExpMin= 1.22D-01 ExpMax= 2.27D+03 ExpMxC= 3.41D+02 IAcc=3 IRadAn=         5 AccDes= 0.00D+00
 Harris functional with IExCor=  402 and IRadAn=       5 diagonalized for initial guess.
 HarFok:  IExCor=  402 AccDes= 0.00D+00 IRadAn=         5 IDoV= 1 UseB2=F ITyADJ=14
 ICtDFT=  3500011 ScaDFX=  1.000000  1.000000  1.000000  1.000000
 FoFCou: FMM=F IPFlag=           0 FMFlag=      100000 FMFlg1=        2001
         NFxFlg=           0 DoJE=T BraDBF=F KetDBF=T FulRan=T
         wScrn=  0.000000 ICntrl=       500 IOpCl=  0 I1Cent=   200000004 NGrid=           0
         NMat0=    1 NMatS0=      1 NMatT0=    0 NMatD0=    1 NMtDS0=    0 NMtDT0=    0
 Petite list used in FoFCou.
 Requested convergence on RMS density matrix=1.00D-08 within 128 cycles.
 Requested convergence on MAX density matrix=1.00D-06.
 Requested convergence on             energy=1.00D-06.
 No special actions if energy rises.
 Integral accuracy reduced to 1.0D-05 until final iterations.
 EnCoef did     2 forward-backward iterations
 Initial convergence to 1.0D-05 achieved.  Increase integral accuracy.
 SCF Done:  E(RB3LYP) =  -1947.81378595     A.U. after   19 cycles
            NFock= 19  Conv=0.66D-08     -V/T= 2.0102
 DoSCS=F DFT=T ScalE2(SS,OS)=  1.000000  1.000000
 ExpMin= 1.22D-01 ExpMax= 2.27D+03 ExpMxC= 3.41D+02 IAcc=3 IRadAn=         5 AccDes= 0.00D+00
 HarFok:  IExCor=  205 AccDes= 0.00D+00 IRadAn=         5 IDoV=-2 UseB2=F ITyADJ=14
 ICtDFT= 12500011 ScaDFX=  1.000000  1.000000  1.000000  1.000000
 GSVD:  LWork=       -2193 too small for GESVD, short by        9890 words or        9890 for optimal perf.
 Range of M.O.s used for correlation:    44   782
 NBasis=   782 NAE=   155 NBE=   155 NFC=    43 NFV=     0
 NROrb=    739 NOA=   112 NOB=   112 NVA=   627 NVB=   627

 **** Warning!!: The smallest alpha delta epsilon is  0.84091275D-01

 Orbital symmetries:
       Occupied  (A) (A) (A) (A) (A) (A) (A) (A) (A) (A) (A) (A)
                 (A) (A) (A) (A) (A) (A) (A) (A) (A) (A) (A) (A)
                 (A) (A) (A) (A) (A) (A) (A) (A) (A) (A) (A) (A)
                 (A) (A) (A) (A) (A) (A) (A) (A) (A) (A) (A) (A)
                 (A) (A) (A) (A) (A) (A) (A) (A) (A) (A) (A) (A)
                 (A) (A) (A) (A) (A) (A) (A) (A) (A) (A) (A) (A)
                 (A) (A) (A) (A) (A) (A) (A) (A) (A) (A) (A) (A)
                 (A) (A) (A) (A) (A) (A) (A) (A) (A) (A) (A) (A)
                 (A) (A) (A) (A) (A) (A) (A) (A) (A) (A) (A) (A)
                 (A) (A) (A) (A) (A) (A) (A) (A) (A) (A) (A) (A)
                 (A) (A) (A) (A) (A) (A) (A) (A) (A) (A) (A) (A)
                 (A) (A) (A) (A) (A) (A) (A) (A) (A) (A) (A) (A)
                 (A) (A) (A) (A) (A) (A) (A) (A) (A) (A) (A)
       Virtual   (A) (A) (A) (A) (A) (A) (A) (A) (A) (A) (A) (A)
                 (A) (A) (A) (A) (A) (A) (A) (A) (A) (A) (A) (A)
                 (A) (A) (A) (A) (A) (A) (A) (A) (A) (A) (A) (A)
                 (A) (A) (A) (A) (A) (A) (A) (A) (A) (A) (A) (A)
                 (A) (A) (A) (A) (A) (A) (A) (A) (A) (A) (A) (A)
                 (A) (A) (A) (A) (A) (A) (A) (A) (A) (A) (A) (A)
                 (A) (A) (A) (A) (A) (A) (A) (A) (A) (A) (A) (A)
                 (A) (A) (A) (A) (A) (A) (A) (A) (A) (A) (A) (A)
                 (A) (A) (A) (A) (A) (A) (A) (A) (A) (A) (A) (A)
                 (A) (A) (A) (A) (A) (A) (A) (A) (A) (A) (A) (A)
                 (A) (A) (A) (A) (A) (A) (A) (A) (A) (A) (A) (A)
                 (A) (A) (A) (A) (A) (A) (A) (A) (A) (A) (A) (A)
                 (A) (A) (A) (A) (A) (A) (A) (A) (A) (A) (A) (A)
                 (A) (A) (A) (A) (A) (A) (A) (A) (A) (A) (A) (A)
                 (A) (A) (A) (A) (A) (A) (A) (A) (A) (A) (A) (A)
                 (A) (A) (A) (A) (A) (A) (A) (A) (A) (A) (A) (A)
                 (A) (A) (A) (A) (A) (A) (A) (A) (A) (A) (A) (A)
                 (A) (A) (A) (A) (A) (A) (A) (A) (A) (A) (A) (A)
                 (A) (A) (A) (A) (A) (A) (A) (A) (A) (A) (A) (A)
                 (A) (A) (A) (A) (A) (A) (A) (A) (A) (A) (A) (A)
                 (A) (A) (A) (A) (A) (A) (A) (A) (A) (A) (A) (A)
                 (A) (A) (A) (A) (A) (A) (A) (A) (A) (A) (A) (A)
                 (A) (A) (A) (A) (A) (A) (A) (A) (A) (A) (A) (A)
                 (A) (A) (A) (A) (A) (A) (A) (A) (A) (A) (A) (A)
                 (A) (A) (A) (A) (A) (A) (A) (A) (A) (A) (A) (A)
                 (A) (A) (A) (A) (A) (A) (A) (A) (A) (A) (A) (A)
                 (A) (A) (A) (A) (A) (A) (A) (A) (A) (A) (A) (A)
                 (A) (A) (A) (A) (A) (A) (A) (A) (A) (A) (A) (A)
                 (A) (A) (A) (A) (A) (A) (A) (A) (A) (A) (A) (A)
                 (A) (A) (A) (A) (A) (A) (A) (A) (A) (A) (A) (A)
                 (A) (A) (A) (A) (A) (A) (A) (A) (A) (A) (A) (A)
                 (A) (A) (A) (A) (A) (A) (A) (A) (A) (A) (A) (A)
                 (A) (A) (A) (A) (A) (A) (A) (A) (A) (A) (A) (A)
                 (A) (A) (A) (A) (A) (A) (A) (A) (A) (A) (A) (A)
                 (A) (A) (A) (A) (A) (A) (A) (A) (A) (A) (A) (A)
                 (A) (A) (A) (A) (A) (A) (A) (A) (A) (A) (A) (A)
                 (A) (A) (A) (A) (A) (A) (A) (A) (A) (A) (A) (A)
                 (A) (A) (A) (A) (A) (A) (A) (A) (A) (A) (A) (A)
                 (A) (A) (A) (A) (A) (A) (A) (A) (A) (A) (A) (A)
                 (A) (A) (A) (A) (A) (A) (A) (A) (A) (A) (A) (A)
                 (A) (A) (A) (A) (A) (A) (A) (A) (A) (A) (A) (A)
                 (A) (A) (A) (A) (A) (A) (A) (A) (A) (A) (A) (A)
                 (A) (A) (A) (A) (A) (A) (A) (A) (A) (A) (A) (A)
                 (A) (A) (A) (A) (A) (A) (A) (A) (A) (A) (A) (A)
                 (A) (A) (A) (A) (A) (A) (A) (A) (A) (A) (A) (A)
                 (A) (A) (A) (A) (A) (A) (A) (A) (A) (A) (A) (A)
                 (A) (A) (A) (A) (A) (A) (A) (A) (A) (A) (A) (A)
                 (A) (A) (A) (A) (A) (A) (A) (A) (A) (A) (A) (A)
                 (A) (A) (A) (A) (A) (A) (A) (A) (A) (A) (A) (A)
                 (A) (A) (A) (A) (A) (A) (A) (A) (A) (A) (A) (A)
                 (A) (A) (A) (A) (A) (A) (A) (A) (A) (A) (A) (A)
                 (A) (A) (A) (A) (A) (A) (A) (A) (A) (A) (A) (A)
                 (A) (A) (A)
     4 initial guesses have been made.
 Convergence on wavefunction:    0.001000000000000
 Iteration     1 Dimension     4 NMult     0 NNew      4
 CISAX will form     4 AO SS matrices at one time.
 Iteration     2 Dimension     6 NMult     4 NNew      2
 Iteration     3 Dimension     8 NMult     6 NNew      2
 Iteration     4 Dimension    10 NMult     8 NNew      2
 Iteration     5 Dimension    12 NMult    10 NNew      2
 Iteration     6 Dimension    14 NMult    12 NNew      2
 Iteration     7 Dimension    16 NMult    14 NNew      2
 Iteration     8 Dimension    18 NMult    16 NNew      2
 Iteration     9 Dimension    20 NMult    18 NNew      2
 ***********************************************************************
 Excited states from <AA,BB:AA,BB> singles matrix:
 ***********************************************************************
 
 Ground to excited state transition densities written to RWF  633
 Ground to excited state transition electric dipole moments (Au):
       state          X           Y           Z        Dip. S.      Osc.
         1         1.9946      0.9572      0.5771      5.2277      0.2619
 Ground to excited state transition velocity dipole moments (Au):
       state          X           Y           Z        Dip. S.      Osc.
         1        -0.1449     -0.0655     -0.0438      0.0272      0.2414
 Ground to excited state transition magnetic dipole moments (Au):
       state          X           Y           Z
         1        -0.7024      0.0966      1.3042
 Ground to excited state transition velocity quadrupole moments (Au):
       state          XX          YY          ZZ          XY          XZ          YZ
         1         0.1818      0.3779     -0.0879      0.5893      0.2139      0.1305
 <0|del|b> * <b|rxdel|0> + <0|del|b> * <b|delr+rdel|0>
 Rotatory Strengths (R) in cgs (10**-40 erg-esu-cm/Gauss)
       state          XX          YY          ZZ    R(velocity)    E-M Angle
         1      -353.6025    242.7500    472.0944    120.4140       80.98
 1/2[<0|r|b>*<b|rxdel|0> + (<0|rxdel|b>*<b|r|0>)*]
 Rotatory Strengths (R) in cgs (10**-40 erg-esu-cm/Gauss)
       state          XX          YY          ZZ     R(length)
         1       990.7646    -65.4132   -532.2810    131.0235
  1/2[<0|del|b>*<b|r|0> + (<0|r|b>*<b|del|0>)*] (Au)
       state          X           Y           Z        Dip. S.   Osc.(frdel)
         1        -0.2890     -0.0627     -0.0253      0.3770      0.2514

 Excitation energies and oscillator strengths:
 
 Excited State   1:      Singlet-A      2.0452 eV  606.23 nm  f=0.2619  <S**2>=0.000
     154 ->156        -0.12117
     155 ->156         0.69044
 This state for optimization and/or second-order correction.
 Total Energy, E(TD-HF/TD-DFT) =  -1947.73862721    
 Copying the excited state density for this state as the 1-particle RhoCI density.
 SavETr:  write IOETrn=   770 NScale= 10 NData=  16 NLR=1 NState=    1 LETran=      28.

 **********************************************************************

            Population analysis using the SCF density.

 **********************************************************************

 Orbital symmetries:
       Occupied  (A) (A) (A) (A) (A) (A) (A) (A) (A) (A) (A) (A)
                 (A) (A) (A) (A) (A) (A) (A) (A) (A) (A) (A) (A)
                 (A) (A) (A) (A) (A) (A) (A) (A) (A) (A) (A) (A)
                 (A) (A) (A) (A) (A) (A) (A) (A) (A) (A) (A) (A)
                 (A) (A) (A) (A) (A) (A) (A) (A) (A) (A) (A) (A)
                 (A) (A) (A) (A) (A) (A) (A) (A) (A) (A) (A) (A)
                 (A) (A) (A) (A) (A) (A) (A) (A) (A) (A) (A) (A)
                 (A) (A) (A) (A) (A) (A) (A) (A) (A) (A) (A) (A)
                 (A) (A) (A) (A) (A) (A) (A) (A) (A) (A) (A) (A)
                 (A) (A) (A) (A) (A) (A) (A) (A) (A) (A) (A) (A)
                 (A) (A) (A) (A) (A) (A) (A) (A) (A) (A) (A) (A)
                 (A) (A) (A) (A) (A) (A) (A) (A) (A) (A) (A) (A)
                 (A) (A) (A) (A) (A) (A) (A) (A) (A) (A) (A)
       Virtual   (A) (A) (A) (A) (A) (A) (A) (A) (A) (A) (A) (A)
                 (A) (A) (A) (A) (A) (A) (A) (A) (A) (A) (A) (A)
                 (A) (A) (A) (A) (A) (A) (A) (A) (A) (A) (A) (A)
                 (A) (A) (A) (A) (A) (A) (A) (A) (A) (A) (A) (A)
                 (A) (A) (A) (A) (A) (A) (A) (A) (A) (A) (A) (A)
                 (A) (A) (A) (A) (A) (A) (A) (A) (A) (A) (A) (A)
                 (A) (A) (A) (A) (A) (A) (A) (A) (A) (A) (A) (A)
                 (A) (A) (A) (A) (A) (A) (A) (A) (A) (A) (A) (A)
                 (A) (A) (A) (A) (A) (A) (A) (A) (A) (A) (A) (A)
                 (A) (A) (A) (A) (A) (A) (A) (A) (A) (A) (A) (A)
                 (A) (A) (A) (A) (A) (A) (A) (A) (A) (A) (A) (A)
                 (A) (A) (A) (A) (A) (A) (A) (A) (A) (A) (A) (A)
                 (A) (A) (A) (A) (A) (A) (A) (A) (A) (A) (A) (A)
                 (A) (A) (A) (A) (A) (A) (A) (A) (A) (A) (A) (A)
                 (A) (A) (A) (A) (A) (A) (A) (A) (A) (A) (A) (A)
                 (A) (A) (A) (A) (A) (A) (A) (A) (A) (A) (A) (A)
                 (A) (A) (A) (A) (A) (A) (A) (A) (A) (A) (A) (A)
                 (A) (A) (A) (A) (A) (A) (A) (A) (A) (A) (A) (A)
                 (A) (A) (A) (A) (A) (A) (A) (A) (A) (A) (A) (A)
                 (A) (A) (A) (A) (A) (A) (A) (A) (A) (A) (A) (A)
                 (A) (A) (A) (A) (A) (A) (A) (A) (A) (A) (A) (A)
                 (A) (A) (A) (A) (A) (A) (A) (A) (A) (A) (A) (A)
                 (A) (A) (A) (A) (A) (A) (A) (A) (A) (A) (A) (A)
                 (A) (A) (A) (A) (A) (A) (A) (A) (A) (A) (A) (A)
                 (A) (A) (A) (A) (A) (A) (A) (A) (A) (A) (A) (A)
                 (A) (A) (A) (A) (A) (A) (A) (A) (A) (A) (A) (A)
                 (A) (A) (A) (A) (A) (A) (A) (A) (A) (A) (A) (A)
                 (A) (A) (A) (A) (A) (A) (A) (A) (A) (A) (A) (A)
                 (A) (A) (A) (A) (A) (A) (A) (A) (A) (A) (A) (A)
                 (A) (A) (A) (A) (A) (A) (A) (A) (A) (A) (A) (A)
                 (A) (A) (A) (A) (A) (A) (A) (A) (A) (A) (A) (A)
                 (A) (A) (A) (A) (A) (A) (A) (A) (A) (A) (A) (A)
                 (A) (A) (A) (A) (A) (A) (A) (A) (A) (A) (A) (A)
                 (A) (A) (A) (A) (A) (A) (A) (A) (A) (A) (A) (A)
                 (A) (A) (A) (A) (A) (A) (A) (A) (A) (A) (A) (A)
                 (A) (A) (A) (A) (A) (A) (A) (A) (A) (A) (A) (A)
                 (A) (A) (A) (A) (A) (A) (A) (A) (A) (A) (A) (A)
                 (A) (A) (A) (A) (A) (A) (A) (A) (A) (A) (A) (A)
                 (A) (A) (A) (A) (A) (A) (A) (A) (A) (A) (A) (A)
                 (A) (A) (A) (A) (A) (A) (A) (A) (A) (A) (A) (A)
                 (A) (A) (A) (A) (A) (A) (A) (A) (A) (A) (A) (A)
                 (A) (A) (A) (A) (A) (A) (A) (A) (A) (A) (A) (A)
                 (A) (A) (A) (A) (A) (A) (A) (A) (A) (A) (A) (A)
                 (A) (A) (A) (A) (A) (A) (A) (A) (A) (A) (A) (A)
                 (A) (A) (A) (A) (A) (A) (A) (A) (A) (A) (A) (A)
                 (A) (A) (A) (A) (A) (A) (A) (A) (A) (A) (A) (A)
                 (A) (A) (A) (A) (A) (A) (A) (A) (A) (A) (A) (A)
                 (A) (A) (A) (A) (A) (A) (A) (A) (A) (A) (A) (A)
                 (A) (A) (A) (A) (A) (A) (A) (A) (A) (A) (A) (A)
                 (A) (A) (A) (A) (A) (A) (A) (A) (A) (A) (A) (A)
                 (A) (A) (A) (A) (A) (A) (A) (A) (A) (A) (A) (A)
                 (A) (A) (A) (A) (A) (A) (A) (A) (A) (A) (A) (A)
                 (A) (A) (A)
 The electronic state is 1-A.
 Alpha  occ. eigenvalues --  -19.17848 -19.16463 -19.12644 -19.11662 -19.10792
 Alpha  occ. eigenvalues --  -19.08147 -14.37818 -14.36705 -14.36432 -14.29632
 Alpha  occ. eigenvalues --  -10.32821 -10.30972 -10.27517 -10.27012 -10.26487
 Alpha  occ. eigenvalues --  -10.26139 -10.26065 -10.25465 -10.22898 -10.22882
 Alpha  occ. eigenvalues --  -10.22608 -10.22525 -10.22144 -10.22118 -10.22108
 Alpha  occ. eigenvalues --  -10.21936 -10.21829 -10.21612 -10.21575 -10.21131
 Alpha  occ. eigenvalues --  -10.20843 -10.20839 -10.20735 -10.20263 -10.20195
 Alpha  occ. eigenvalues --  -10.20117 -10.19803 -10.19498 -10.19467 -10.18851
 Alpha  occ. eigenvalues --  -10.18489 -10.18467 -10.17663  -1.08060  -1.07490
 Alpha  occ. eigenvalues --   -1.00832  -1.00116  -0.98998  -0.98482  -0.98160
 Alpha  occ. eigenvalues --   -0.97486  -0.93788  -0.92836  -0.85008  -0.83248
 Alpha  occ. eigenvalues --   -0.82547  -0.82261  -0.81088  -0.80361  -0.79925
 Alpha  occ. eigenvalues --   -0.77335  -0.76840  -0.76081  -0.75718  -0.73393
 Alpha  occ. eigenvalues --   -0.72443  -0.71909  -0.71712  -0.69584  -0.68714
 Alpha  occ. eigenvalues --   -0.66885  -0.66803  -0.64574  -0.62285  -0.61469
 Alpha  occ. eigenvalues --   -0.60531  -0.58925  -0.58372  -0.58067  -0.57384
 Alpha  occ. eigenvalues --   -0.56883  -0.55722  -0.55491  -0.54658  -0.53873
 Alpha  occ. eigenvalues --   -0.53388  -0.52480  -0.52224  -0.51748  -0.51190
 Alpha  occ. eigenvalues --   -0.50358  -0.49327  -0.48921  -0.48680  -0.48262
 Alpha  occ. eigenvalues --   -0.47286  -0.47045  -0.46825  -0.46208  -0.46124
 Alpha  occ. eigenvalues --   -0.45635  -0.45229  -0.44802  -0.44742  -0.44022
 Alpha  occ. eigenvalues --   -0.43790  -0.43562  -0.43322  -0.43084  -0.42925
 Alpha  occ. eigenvalues --   -0.42499  -0.41838  -0.41582  -0.41344  -0.40960
 Alpha  occ. eigenvalues --   -0.40698  -0.40448  -0.40236  -0.39999  -0.39690
 Alpha  occ. eigenvalues --   -0.39338  -0.39124  -0.38688  -0.38547  -0.38133
 Alpha  occ. eigenvalues --   -0.37949  -0.37658  -0.37564  -0.37364  -0.36757
 Alpha  occ. eigenvalues --   -0.36466  -0.36030  -0.35643  -0.35144  -0.34530
 Alpha  occ. eigenvalues --   -0.34365  -0.33676  -0.32908  -0.31854  -0.31601
 Alpha  occ. eigenvalues --   -0.31500  -0.30684  -0.29098  -0.28423  -0.27887
 Alpha  occ. eigenvalues --   -0.27193  -0.26858  -0.26144  -0.25203  -0.24818
 Alpha  occ. eigenvalues --   -0.24413  -0.24312  -0.23617  -0.22974  -0.20426
 Alpha virt. eigenvalues --   -0.12017  -0.06860  -0.06607  -0.02028  -0.01045
 Alpha virt. eigenvalues --    0.00315   0.00723   0.01130   0.02678   0.02987
 Alpha virt. eigenvalues --    0.03450   0.04275   0.04695   0.04819   0.05046
 Alpha virt. eigenvalues --    0.05357   0.05717   0.05942   0.06381   0.06571
 Alpha virt. eigenvalues --    0.07074   0.08295   0.08408   0.08890   0.09198
 Alpha virt. eigenvalues --    0.09399   0.09521   0.09775   0.09906   0.10385
 Alpha virt. eigenvalues --    0.10664   0.10850   0.11319   0.11458   0.11932
 Alpha virt. eigenvalues --    0.12467   0.12683   0.12990   0.13161   0.13423
 Alpha virt. eigenvalues --    0.13951   0.14777   0.14852   0.15071   0.15386
 Alpha virt. eigenvalues --    0.15535   0.16742   0.16847   0.16942   0.17153
 Alpha virt. eigenvalues --    0.17403   0.18439   0.18524   0.19297   0.19555
 Alpha virt. eigenvalues --    0.20526   0.21132   0.21209   0.21490   0.22326
 Alpha virt. eigenvalues --    0.22740   0.23150   0.23531   0.23854   0.24255
 Alpha virt. eigenvalues --    0.24478   0.24877   0.25170   0.25599   0.25870
 Alpha virt. eigenvalues --    0.26143   0.27247   0.27631   0.28749   0.29117
 Alpha virt. eigenvalues --    0.29687   0.29853   0.30659   0.30808   0.30879
 Alpha virt. eigenvalues --    0.31377   0.31969   0.32454   0.32793   0.33451
 Alpha virt. eigenvalues --    0.34229   0.34495   0.35295   0.36350   0.36589
 Alpha virt. eigenvalues --    0.36853   0.37227   0.38480   0.38723   0.39135
 Alpha virt. eigenvalues --    0.39419   0.39651   0.40685   0.40978   0.41405
 Alpha virt. eigenvalues --    0.41527   0.42325   0.43002   0.43082   0.43578
 Alpha virt. eigenvalues --    0.44238   0.44498   0.44597   0.44740   0.45340
 Alpha virt. eigenvalues --    0.45540   0.45945   0.46220   0.46247   0.46818
 Alpha virt. eigenvalues --    0.46899   0.47297   0.47805   0.47883   0.48402
 Alpha virt. eigenvalues --    0.48873   0.49031   0.49329   0.49504   0.50026
 Alpha virt. eigenvalues --    0.50243   0.50374   0.50566   0.50910   0.51282
 Alpha virt. eigenvalues --    0.51700   0.52043   0.52487   0.52626   0.53384
 Alpha virt. eigenvalues --    0.53850   0.54036   0.54195   0.54752   0.54993
 Alpha virt. eigenvalues --    0.55368   0.56174   0.56213   0.56270   0.56607
 Alpha virt. eigenvalues --    0.56915   0.57541   0.57824   0.58724   0.58931
 Alpha virt. eigenvalues --    0.59166   0.59430   0.59678   0.59822   0.60275
 Alpha virt. eigenvalues --    0.60828   0.60926   0.61097   0.61541   0.61823
 Alpha virt. eigenvalues --    0.61908   0.62230   0.62487   0.62653   0.62964
 Alpha virt. eigenvalues --    0.63171   0.63634   0.64030   0.64122   0.64583
 Alpha virt. eigenvalues --    0.64731   0.64992   0.65336   0.65560   0.65989
 Alpha virt. eigenvalues --    0.66030   0.66346   0.66493   0.67100   0.67237
 Alpha virt. eigenvalues --    0.67580   0.67664   0.67762   0.68059   0.68286
 Alpha virt. eigenvalues --    0.68468   0.68899   0.69209   0.69542   0.69604
 Alpha virt. eigenvalues --    0.70165   0.70390   0.70626   0.70700   0.70796
 Alpha virt. eigenvalues --    0.71387   0.71515   0.71863   0.72177   0.72660
 Alpha virt. eigenvalues --    0.73006   0.73455   0.74325   0.74533   0.74754
 Alpha virt. eigenvalues --    0.75101   0.75397   0.75919   0.76135   0.76850
 Alpha virt. eigenvalues --    0.77293   0.78002   0.78130   0.78548   0.78981
 Alpha virt. eigenvalues --    0.79433   0.80444   0.80642   0.81031   0.81599
 Alpha virt. eigenvalues --    0.82442   0.82751   0.83337   0.83852   0.84424
 Alpha virt. eigenvalues --    0.84721   0.85019   0.85397   0.85655   0.86850
 Alpha virt. eigenvalues --    0.87195   0.87487   0.88391   0.88860   0.90423
 Alpha virt. eigenvalues --    0.90708   0.90889   0.92409   0.92639   0.93427
 Alpha virt. eigenvalues --    0.94469   0.94934   0.95676   0.95758   0.96364
 Alpha virt. eigenvalues --    0.96970   0.97624   0.97974   0.98353   0.98799
 Alpha virt. eigenvalues --    0.99557   0.99834   1.00001   1.00871   1.01126
 Alpha virt. eigenvalues --    1.02417   1.03083   1.03269   1.04089   1.05136
 Alpha virt. eigenvalues --    1.05678   1.06285   1.07000   1.08096   1.08507
 Alpha virt. eigenvalues --    1.09478   1.10136   1.10294   1.10829   1.11752
 Alpha virt. eigenvalues --    1.11846   1.11957   1.12705   1.14337   1.14642
 Alpha virt. eigenvalues --    1.15494   1.15777   1.16427   1.17017   1.17046
 Alpha virt. eigenvalues --    1.18719   1.19222   1.19440   1.20101   1.20529
 Alpha virt. eigenvalues --    1.21805   1.22087   1.22359   1.23142   1.23828
 Alpha virt. eigenvalues --    1.24040   1.24380   1.25510   1.26043   1.26974
 Alpha virt. eigenvalues --    1.27407   1.27966   1.28871   1.29404   1.29673
 Alpha virt. eigenvalues --    1.30574   1.31058   1.31301   1.32097   1.32958
 Alpha virt. eigenvalues --    1.33938   1.34472   1.35240   1.36446   1.36981
 Alpha virt. eigenvalues --    1.37417   1.38182   1.38238   1.39470   1.40166
 Alpha virt. eigenvalues --    1.40326   1.42511   1.43411   1.44306   1.44913
 Alpha virt. eigenvalues --    1.45678   1.46204   1.46511   1.47273   1.47782
 Alpha virt. eigenvalues --    1.48234   1.48339   1.48701   1.48933   1.49512
 Alpha virt. eigenvalues --    1.50252   1.50645   1.51238   1.52647   1.52973
 Alpha virt. eigenvalues --    1.53449   1.54457   1.54596   1.55531   1.56274
 Alpha virt. eigenvalues --    1.56385   1.56879   1.57265   1.57376   1.58442
 Alpha virt. eigenvalues --    1.59136   1.59274   1.59936   1.61381   1.61955
 Alpha virt. eigenvalues --    1.62184   1.63189   1.63352   1.63733   1.64219
 Alpha virt. eigenvalues --    1.64558   1.64920   1.65803   1.66013   1.66745
 Alpha virt. eigenvalues --    1.67287   1.67650   1.68050   1.68538   1.69245
 Alpha virt. eigenvalues --    1.69663   1.69851   1.70627   1.70986   1.71853
 Alpha virt. eigenvalues --    1.71987   1.72684   1.73316   1.73666   1.73966
 Alpha virt. eigenvalues --    1.74226   1.74826   1.75003   1.75389   1.75506
 Alpha virt. eigenvalues --    1.76369   1.76681   1.77273   1.77384   1.77483
 Alpha virt. eigenvalues --    1.77606   1.77936   1.78269   1.78538   1.79213
 Alpha virt. eigenvalues --    1.79809   1.80160   1.80429   1.80628   1.81290
 Alpha virt. eigenvalues --    1.81677   1.82107   1.82467   1.82758   1.83649
 Alpha virt. eigenvalues --    1.83872   1.84188   1.85025   1.85639   1.85666
 Alpha virt. eigenvalues --    1.86032   1.86664   1.87213   1.87492   1.87892
 Alpha virt. eigenvalues --    1.88363   1.88676   1.88851   1.89227   1.90435
 Alpha virt. eigenvalues --    1.91320   1.91496   1.91759   1.92046   1.92095
 Alpha virt. eigenvalues --    1.93493   1.93863   1.94987   1.95048   1.95386
 Alpha virt. eigenvalues --    1.96446   1.96795   1.97796   1.97968   1.98332
 Alpha virt. eigenvalues --    1.98860   1.99286   2.00229   2.00621   2.01164
 Alpha virt. eigenvalues --    2.01699   2.01948   2.02388   2.02844   2.03383
 Alpha virt. eigenvalues --    2.03615   2.03704   2.04487   2.05185   2.05741
 Alpha virt. eigenvalues --    2.05841   2.06337   2.06985   2.07048   2.07574
 Alpha virt. eigenvalues --    2.07941   2.08797   2.09525   2.09887   2.10200
 Alpha virt. eigenvalues --    2.10811   2.10961   2.11800   2.12669   2.13089
 Alpha virt. eigenvalues --    2.13757   2.14329   2.14835   2.15141   2.15259
 Alpha virt. eigenvalues --    2.15802   2.16852   2.17152   2.18096   2.19247
 Alpha virt. eigenvalues --    2.20288   2.20656   2.21686   2.23394   2.23688
 Alpha virt. eigenvalues --    2.24138   2.24521   2.24860   2.25249   2.25999
 Alpha virt. eigenvalues --    2.26424   2.28016   2.29000   2.29729   2.30201
 Alpha virt. eigenvalues --    2.30505   2.30892   2.31828   2.32264   2.32628
 Alpha virt. eigenvalues --    2.32806   2.34129   2.35182   2.35653   2.36018
 Alpha virt. eigenvalues --    2.36990   2.37838   2.38484   2.39587   2.40072
 Alpha virt. eigenvalues --    2.40645   2.41259   2.41558   2.42189   2.42550
 Alpha virt. eigenvalues --    2.42875   2.43717   2.44046   2.45896   2.46304
 Alpha virt. eigenvalues --    2.46615   2.47405   2.48528   2.48852   2.50161
 Alpha virt. eigenvalues --    2.50552   2.51105   2.52035   2.54283   2.54382
 Alpha virt. eigenvalues --    2.55763   2.55948   2.56452   2.57427   2.58531
 Alpha virt. eigenvalues --    2.59227   2.59895   2.60332   2.60527   2.61231
 Alpha virt. eigenvalues --    2.61971   2.63275   2.63916   2.64781   2.64917
 Alpha virt. eigenvalues --    2.65214   2.65602   2.66187   2.66900   2.68313
 Alpha virt. eigenvalues --    2.68462   2.68824   2.69917   2.70497   2.71118
 Alpha virt. eigenvalues --    2.71339   2.72694   2.72970   2.73969   2.74897
 Alpha virt. eigenvalues --    2.75102   2.75826   2.75966   2.76760   2.77979
 Alpha virt. eigenvalues --    2.78609   2.79368   2.80464   2.81334   2.81592
 Alpha virt. eigenvalues --    2.82401   2.83341   2.83463   2.83553   2.84271
 Alpha virt. eigenvalues --    2.85404   2.85860   2.86828   2.87231   2.88239
 Alpha virt. eigenvalues --    2.88418   2.88805   2.89257   2.89889   2.90659
 Alpha virt. eigenvalues --    2.91803   2.91892   2.95624   2.96599   2.96767
 Alpha virt. eigenvalues --    2.96904   2.97334   2.98248   3.00652   3.01814
 Alpha virt. eigenvalues --    3.03016   3.03541   3.04729   3.05860   3.06404
 Alpha virt. eigenvalues --    3.07409   3.07708   3.08977   3.09270   3.09764
 Alpha virt. eigenvalues --    3.11090   3.11740   3.11922   3.13108   3.14685
 Alpha virt. eigenvalues --    3.15178   3.17568   3.18000   3.19730   3.21070
 Alpha virt. eigenvalues --    3.22160   3.23645   3.26851   3.27715   3.31748
 Alpha virt. eigenvalues --    3.35809   3.38636   3.39242   3.39742   3.46502
 Alpha virt. eigenvalues --    3.48767   3.49520   3.50447   3.52374   3.53448
 Alpha virt. eigenvalues --    3.55860   3.57059   3.61268   3.62527   3.65992
 Alpha virt. eigenvalues --    3.68937   3.72762
          Condensed to atoms (all electrons):
 Mulliken charges:
               1
     1  O   -0.327468
     2  O   -0.228382
     3  O   -0.236634
     4  O   -0.249947
     5  O   -0.242259
     6  O   -0.272966
     7  N   -0.099722
     8  N   -0.104896
     9  N   -0.066855
    10  N   -0.210894
    11  C    0.026435
    12  C    0.256810
    13  C   -0.117969
    14  C   -0.149048
    15  C   -0.086648
    16  C    0.001738
    17  C   -0.157517
    18  C    0.128352
    19  C    0.007441
    20  C   -0.013557
    21  C    0.149741
    22  C    0.103277
    23  C   -0.070394
    24  C    0.029396
    25  C    0.004262
    26  C   -0.080718
    27  C   -0.054643
    28  C    0.066913
    29  C    0.075342
    30  C    0.002504
    31  C    0.131165
    32  C    0.029867
    33  C   -0.020461
    34  C    0.163763
    35  C    0.051227
    36  C    0.019172
    37  C    0.123125
    38  C    0.030996
    39  C   -0.203027
    40  C    0.136142
    41  C   -0.007347
    42  C    0.115121
    43  C   -0.042878
    44  H    0.055280
    45  H   -0.022244
    46  H    0.005628
    47  H    0.084296
    48  H    0.115223
    49  H    0.014135
    50  H   -0.012687
    51  H   -0.105877
    52  H    0.027018
    53  H    0.042598
    54  H    0.035761
    55  H    0.015591
    56  H    0.060371
    57  H    0.067301
    58  H    0.095368
    59  H    0.052749
    60  H    0.163501
    61  H    0.010452
    62  H    0.033508
    63  H    0.007452
    64  H    0.000897
    65  H    0.020431
    66  H    0.010795
    67  H    0.042450
    68  H    0.035652
    69  H   -0.078842
    70  H    0.016346
    71  H    0.010152
    72  H    0.202666
    73  H    0.038029
    74  H   -0.011460
    75  H    0.038052
    76  H    0.029463
    77  H    0.217502
    78  H    0.042183
    79  H    0.031701
 Sum of Mulliken charges =  -0.00000
 Mulliken charges with hydrogens summed into heavy atoms:
               1
     1  O   -0.327468
     2  O   -0.025716
     3  O   -0.236634
     4  O   -0.032446
     5  O   -0.242259
     6  O   -0.272966
     7  N   -0.015426
     8  N    0.010327
     9  N    0.096646
    10  N   -0.210894
    11  C    0.081715
    12  C    0.240194
    13  C   -0.117969
    14  C   -0.149048
    15  C   -0.086648
    16  C    0.001738
    17  C   -0.157517
    18  C    0.129800
    19  C    0.007441
    20  C   -0.119434
    21  C    0.149741
    22  C    0.103277
    23  C   -0.070394
    24  C    0.134773
    25  C    0.147525
    26  C   -0.080718
    27  C    0.093474
    28  C    0.066913
    29  C    0.119303
    30  C    0.009957
    31  C    0.152493
    32  C    0.118763
    33  C   -0.099303
    34  C    0.163763
    35  C    0.051227
    36  C    0.045670
    37  C    0.123125
    38  C    0.030996
    39  C   -0.203027
    40  C    0.136142
    41  C    0.030682
    42  C    0.171177
    43  C    0.031006
 Electronic spatial extent (au):  <R**2>=          31761.6420
 Charge=              0.0000 electrons
 Dipole moment (field-independent basis, Debye):
    X=             -1.4547    Y=              1.2932    Z=              2.3989  Tot=              3.0892
 Quadrupole moment (field-independent basis, Debye-Ang):
   XX=           -213.7142   YY=           -255.6603   ZZ=           -269.0218
   XY=             -8.9367   XZ=             43.5241   YZ=              6.7523
 Traceless Quadrupole moment (field-independent basis, Debye-Ang):
   XX=             32.4179   YY=             -9.5282   ZZ=            -22.8897
   XY=             -8.9367   XZ=             43.5241   YZ=              6.7523
 Octapole moment (field-independent basis, Debye-Ang**2):
  XXX=            -54.6992  YYY=             41.1125  ZZZ=             72.7705  XYY=            -47.5880
  XXY=           -113.8644  XXZ=             56.5913  XZZ=            -73.2484  YZZ=             17.0074
  YYZ=             59.4208  XYZ=             16.4044
 Hexadecapole moment (field-independent basis, Debye-Ang**3):
 XXXX=         -23082.4687 YYYY=         -12459.7252 ZZZZ=          -5091.0868 XXXY=           -142.8129
 XXXZ=            805.5452 YYYX=            149.2545 YYYZ=            814.9668 ZZZX=            234.0470
 ZZZY=            -38.2477 XXYY=          -5828.7472 XXZZ=          -5305.0983 YYZZ=          -2793.3425
 XXYZ=           -105.4508 YYXZ=            221.1429 ZZXY=             38.0053
 N-N= 4.947869192641D+03 E-N=-1.442442441014D+04  KE= 1.928152437227D+03
 1\1\GINC-PADAWAN\SP\RB3LYP TD-FC\SVP\C33H36N4O6\PADAWAN\25-Sep-2019\0\
 \# td=(NStates=1) B3LYP/SVP\\TD\\0,1\O,0,-5.3553917692,0.084463886,-3.
 2835181415\O,0,3.1143914446,2.8447317279,3.1409501734\O,0,3.3245908077
 ,0.6306884678,3.0966915543\O,0,1.3510727468,-6.9919954696,1.6390424105
 \O,0,0.3437692649,-6.9474211657,-0.334041387\O,0,1.9085679049,4.051688
 2916,0.3077702844\N,0,-2.3172113322,-0.8886372939,0.5260896256\N,0,-4.
 3203669181,0.5912567922,-1.235991954\N,0,1.8676571573,-0.6576473377,-0
 .4257210497\N,0,2.6611016521,1.994725218,-0.4798247292\C,0,-4.79958634
 98,1.1491164086,0.0079365935\C,0,-4.3673241252,0.3501451798,1.27615497
 32\C,0,-2.989514047,0.0959798547,1.3241244254\C,0,-1.9063097277,0.6248
 374409,2.0637695466\C,0,-0.7165382641,-0.0842538609,1.7712578034\C,0,-
 0.973811569,-0.9209851574,0.8123130507\C,0,-6.2473670928,1.2023680261,
 -0.1384090563\C,0,0.6198605927,0.1610167782,2.4613651566\C,0,-6.613611
 8757,0.7579950479,-1.3961653452\C,0,-0.1221784739,-2.0482835653,0.2309
 45176\C,0,1.1279396902,-1.8909386405,-0.3302546077\C,0,-5.3976103613,0
 .4340416189,-2.0251898305\C,0,1.9793720224,-2.9027108095,-0.999636973\
 C,0,-2.1740731082,1.6467804349,3.1654909393\C,0,-7.2731848117,1.682766
 4058,0.8875027362\C,0,3.1072770614,-2.2902289741,-1.4443356787\C,0,1.1
 326992972,1.5971182052,2.6353271686\C,0,3.0327413494,-0.8224208677,-1.
 0301770059\C,0,1.6038641566,-4.3198179462,-1.0532870456\C,0,-7.9429902
 05,0.5645280904,-2.0065790457\C,0,1.6248700526,-5.0025911937,0.3089068
 862\C,0,4.3151971287,-2.9294614149,-2.1063898703\C,0,3.9511259832,0.14
 89442979,-1.4278574681\C,0,2.6031409353,1.5919867869,2.9313190318\C,0,
 3.8246468425,1.6732927408,-1.1261691842\C,0,-9.1228172651,0.5974619065
 ,-1.4364684621\C,0,1.0698720519,-6.3340700572,0.4556142204\C,0,4.59318
 81534,2.7334801029,-1.5422713102\C,0,3.9891681852,3.720792603,-1.05063
 63579\C,0,2.7433759084,3.2899768488,-0.3326620289\C,0,5.9818717925,2.5
 018650271,-2.17274923\C,0,4.268082428,5.2059554713,-1.1744194553\C,0,6
 .6458146391,3.5532010049,-2.5920436813\H,0,-4.2560700931,2.3134124213,
 0.1154445848\H,0,-4.9144361005,-0.5632177979,1.3213368779\H,0,-4.54464
 1304,0.8591499147,2.2869156013\H,0,-2.7268617261,-1.2622836239,-0.2753
 744592\H,0,-3.4198629836,0.5506669838,-1.5958571366\H,0,0.4470591406,-
 0.4797776658,3.3743969878\H,0,1.3343274421,-0.4681914865,1.9138965225\
 H,0,-0.5860172626,-2.8540528703,0.2145464569\H,0,-3.369457091,1.801611
 4252,3.3609960893\H,0,-1.7069119063,1.2604654104,4.1952379117\H,0,-1.6
 724636275,2.4948033001,2.7987372955\H,0,-6.6238358345,2.261965,1.72951
 51845\H,0,-7.7592256896,0.879067716,1.5266396747\H,0,-7.9840743446,2.5
 068367668,0.5458530655\H,0,0.8611188203,2.2928313197,1.7305811254\H,0,
 0.4998330958,2.1699138134,3.4527510993\H,0,1.7543697634,0.2457152165,0
 .0535999947\H,0,2.098967689,-4.8911229427,-1.8147560853\H,0,0.46151794
 93,-4.2410139489,-1.3492734107\H,0,-7.8222532871,0.535133744,-3.079303
 8686\H,0,0.9827204609,-4.4524064203,0.8778853651\H,0,2.5802042905,-4.9
 071379183,0.7170795229\H,0,4.4890939717,-3.9282502772,-2.3216056217\H,
 0,5.251836282,-2.5538442346,-1.4223458522\H,0,4.6920406372,-2.41436366
 9,-3.1002290965\H,0,4.8201316327,-0.2418762821,-1.7486210378\H,0,-9.25
 36589664,0.8549129468,-0.3641791077\H,0,-9.9300211357,0.5353349492,-2.
 0901051105\H,0,4.1340580923,2.700933477,3.0355983255\H,0,6.2352969979,
 1.4658187311,-2.6357123862\H,0,5.0519458944,5.549537718,-0.6498436043\
 H,0,4.3941014326,5.5815349192,-2.2194044853\H,0,3.4536230319,5.7695765
 641,-0.5997317148\H,0,0.6842657347,-7.7450456617,1.8271687718\H,0,7.65
 82182662,3.2924947894,-3.1822454978\H,0,6.5377856661,4.5395294651,-2.1
 533676893\\Version=ES64L-G16RevA.03\State=1-A\HF=-1947.813786\RMSD=6.6
 22e-09\PG=C01 [X(C33H36N4O6)]\\@


 A MAN IS NEVER SO BRILLIANT AS WHEN HE TAKES THE WORDS RIGHT OUT
 OF YOUR MOUTH. -- ARNOT SHEPPARD, JR.
 Job cpu time:       0 days 13 hours 46 minutes 53.6 seconds.
 Elapsed time:       0 days  3 hours 27 minutes 25.5 seconds.
 File lengths (MBytes):  RWF=   2533 Int=      0 D2E=      0 Chk=     63 Scr=      1
 Normal termination of Gaussian 16 at Wed Sep 25 18:28:37 2019.
