 Entering Gaussian System, Link 0=g16
 Input=Geometria-289-.com
 Output=Geometria-289-.log
 Initial command:
 /usr/local/g16/l1.exe "/home/padawan/israel-mol/dihydrobiliverdin/spectra/emi/Gau-9201.inp" -scrdir="/home/padawan/israel-mol/dihydrobiliverdin/spectra/emi/"
 Entering Link 1 = /usr/local/g16/l1.exe PID=      9203.
  
 Copyright (c) 1988,1990,1992,1993,1995,1998,2003,2009,2016,
            Gaussian, Inc.  All Rights Reserved.
  
 This is part of the Gaussian(R) 16 program.  It is based on
 the Gaussian(R) 09 system (copyright 2009, Gaussian, Inc.),
 the Gaussian(R) 03 system (copyright 2003, Gaussian, Inc.),
 the Gaussian(R) 98 system (copyright 1998, Gaussian, Inc.),
 the Gaussian(R) 94 system (copyright 1995, Gaussian, Inc.),
 the Gaussian 92(TM) system (copyright 1992, Gaussian, Inc.),
 the Gaussian 90(TM) system (copyright 1990, Gaussian, Inc.),
 the Gaussian 88(TM) system (copyright 1988, Gaussian, Inc.),
 the Gaussian 86(TM) system (copyright 1986, Carnegie Mellon
 University), and the Gaussian 82(TM) system (copyright 1983,
 Carnegie Mellon University). Gaussian is a federally registered
 trademark of Gaussian, Inc.
  
 This software contains proprietary and confidential information,
 including trade secrets, belonging to Gaussian, Inc.
  
 This software is provided under written license and may be
 used, copied, transmitted, or stored only in accord with that
 written license.
  
 The following legend is applicable only to US Government
 contracts under FAR:
  
                    RESTRICTED RIGHTS LEGEND
  
 Use, reproduction and disclosure by the US Government is
 subject to restrictions as set forth in subparagraphs (a)
 and (c) of the Commercial Computer Software - Restricted
 Rights clause in FAR 52.227-19.
  
 Gaussian, Inc.
 340 Quinnipiac St., Bldg. 40, Wallingford CT 06492
  
  
 ---------------------------------------------------------------
 Warning -- This program may not be used in any manner that
 competes with the business of Gaussian, Inc. or will provide
 assistance to any competitor of Gaussian, Inc.  The licensee
 of this program is prohibited from giving any competitor of
 Gaussian, Inc. access to this program.  By using this program,
 the user acknowledges that Gaussian, Inc. is engaged in the
 business of creating and licensing software in the field of
 computational chemistry and represents and warrants to the
 licensee that it is not a competitor of Gaussian, Inc. and that
 it will not use this program in any manner prohibited above.
 ---------------------------------------------------------------
  

 Cite this work as:
 Gaussian 16, Revision A.03,
 M. J. Frisch, G. W. Trucks, H. B. Schlegel, G. E. Scuseria, 
 M. A. Robb, J. R. Cheeseman, G. Scalmani, V. Barone, 
 G. A. Petersson, H. Nakatsuji, X. Li, M. Caricato, A. V. Marenich, 
 J. Bloino, B. G. Janesko, R. Gomperts, B. Mennucci, H. P. Hratchian, 
 J. V. Ortiz, A. F. Izmaylov, J. L. Sonnenberg, D. Williams-Young, 
 F. Ding, F. Lipparini, F. Egidi, J. Goings, B. Peng, A. Petrone, 
 T. Henderson, D. Ranasinghe, V. G. Zakrzewski, J. Gao, N. Rega, 
 G. Zheng, W. Liang, M. Hada, M. Ehara, K. Toyota, R. Fukuda, 
 J. Hasegawa, M. Ishida, T. Nakajima, Y. Honda, O. Kitao, H. Nakai, 
 T. Vreven, K. Throssell, J. A. Montgomery, Jr., J. E. Peralta, 
 F. Ogliaro, M. J. Bearpark, J. J. Heyd, E. N. Brothers, K. N. Kudin, 
 V. N. Staroverov, T. A. Keith, R. Kobayashi, J. Normand, 
 K. Raghavachari, A. P. Rendell, J. C. Burant, S. S. Iyengar, 
 J. Tomasi, M. Cossi, J. M. Millam, M. Klene, C. Adamo, R. Cammi, 
 J. W. Ochterski, R. L. Martin, K. Morokuma, O. Farkas, 
 J. B. Foresman, and D. J. Fox, Gaussian, Inc., Wallingford CT, 2016.
 
 ******************************************
 Gaussian 16:  ES64L-G16RevA.03 25-Dec-2016
                28-Jul-2019 
 ******************************************
 %nproc=4
 Will use up to    4 processors via shared memory.
 %Mem=3GB
 --------------------------
 # td=(NStates=1) B3LYP/SVP
 --------------------------
 1/38=1,172=1/1;
 2/12=2,17=6,18=5,40=1/2;
 3/5=18,7=101,11=9,25=1,30=1,74=-5/1,2,3,8;
 4//1;
 5/5=2,38=5/2;
 8/6=1,10=1,108=1/1;
 9/41=1,42=1,70=2/14;
 6/7=2,8=2,9=2,10=2/1;
 99/5=1,9=1/99;
 --
 TD
 --
 Symbolic Z-matrix:
 Charge =  0 Multiplicity = 1
 8                    -3.20284  -1.64137  -2.94556 
 8                     2.97178   3.10837   3.22303 
 8                     3.60274   1.35198   4.44455 
 8                     7.66613  -1.54093  -0.69303 
 8                     6.60074  -2.99116  -1.99487 
 8                    -2.59564   1.52711   1.49782 
 7                    -0.31095  -2.32181   0.93757 
 7                    -2.65975  -1.33855  -0.72154 
 7                     1.20266   0.10116  -0.75091 
 7                    -0.9897    1.49033  -0.23743 
 6                    -3.33641  -1.27832   0.60829 
 6                    -2.67102  -2.2611    1.63022 
 6                    -1.24711  -1.9169    1.78815 
 6                    -0.60326  -1.11507   2.76498 
 6                     0.74507  -1.06109   2.48015 
 6                     0.87902  -1.83318   1.21846 
 6                    -4.65626  -1.85832   0.24893 
 6                     1.90313  -0.40034   3.26737 
 6                    -4.73056  -2.116    -1.10146 
 6                     1.99772  -1.80112   0.19711 
 6                     2.14949  -0.88893  -0.75842 
 6                    -3.50054  -1.65309  -1.70715 
 6                     3.02744  -0.64625  -1.79255 
 6                    -1.36975  -0.41393   3.93138 
 6                    -5.77434  -1.91514   1.26811 
 6                     2.50903   0.4483   -2.54992 
 6                     1.95513   1.06225   2.71414 
 6                     1.39921   0.96578  -1.79138 
 6                     4.21725  -1.45368  -2.13625 
 6                    -5.79141  -2.60917  -1.9472 
 6                     5.34011  -1.11455  -1.1999 
 6                     3.01557   0.95156  -3.76635 
 6                     0.5848    2.04742  -2.10631 
 6                     2.95132   1.77572   3.55288 
 6                    -0.59055   2.30097  -1.22052 
 6                    -6.83095  -3.42075  -1.60144 
 6                     6.60993  -2.02153  -1.37488 
 6                    -1.4475    3.50687  -1.28316 
 6                    -2.24302   3.41909  -0.14393 
 6                    -1.97621   2.12426   0.47448 
 6                    -1.21128   4.62155  -2.07291 
 6                    -3.28706   4.3447    0.33042 
 6                    -1.86084   5.83939  -2.13863 
 1                    -3.42268  -0.34394   1.08658 
 1                    -2.65481  -3.34633   1.34882 
 1                    -3.31081  -2.29418   2.52793 
 1                    -0.45624  -2.82309   0.03016 
 1                    -1.94644  -0.61242  -0.73411 
 1                     1.75175  -0.50975   4.3072 
 1                     2.74806  -0.91375   2.90275 
 1                     2.77309  -2.60762   0.37529 
 1                    -2.05283  -0.87905   4.5278 
 1                    -0.60125  -0.08349   4.651 
 1                    -1.86413   0.36417   3.42825 
 1                    -5.78957  -1.10538   2.00214 
 1                    -5.6544   -2.79297   1.7686 
 1                    -6.78238  -2.00353   0.62987 
 1                     2.00688   1.09061   1.64632 
 1                     0.89837   1.51185   3.06911 
 1                     0.30545   0.52123  -0.15022 
 1                     4.65061  -1.18859  -3.13937 
 1                     3.84564  -2.5617   -2.07833 
 1                    -5.67773  -2.18263  -2.87024 
 1                     5.01556  -1.02505  -0.03426 
 1                     5.72497  -0.17167  -1.45357 
 1                     3.78721   0.25062  -4.37074 
 1                     3.55998   2.05046  -3.55843 
 1                     2.30982   1.08593  -4.43293 
 1                     0.90826   2.66714  -2.94475 
 1                    -7.06103  -3.77089  -0.527 
 1                    -7.7722   -3.54403  -2.24461 
 1                     3.52927   3.58371   3.92514 
 1                    -0.35473   4.55052  -3.01737 
 1                    -4.17459   4.61127  -0.44291 
 1                    -3.6691    3.84882   0.9957 
 1                    -2.87909   5.32679   0.67352 
 1                     8.44078  -2.04256  -0.95091 
 1                    -1.74096   6.77931  -2.77788 
 1                    -2.5966    6.05833  -1.30797 
 
 Stoichiometry    C33H36N4O6
 Framework group  C1[X(C33H36N4O6)]
 Deg. of freedom   231
 Full point group                 C1      NOp   1
 Largest Abelian subgroup         C1      NOp   1
 Largest concise Abelian subgroup C1      NOp   1
                         Standard orientation:                         
 ---------------------------------------------------------------------
 Center     Atomic      Atomic             Coordinates (Angstroms)
 Number     Number       Type             X           Y           Z
 ---------------------------------------------------------------------
      1          8           0       -3.192223   -2.030864   -2.707520
      2          8           0        2.971380    3.515186    2.768669
      3          8           0        3.580306    1.948061    4.234435
      4          8           0        7.660195   -1.676485   -0.401500
      5          8           0        6.593822   -3.291623   -1.491068
      6          8           0       -2.594614    1.737785    1.241108
      7          7           0       -0.334282   -2.165869    1.257152
      8          7           0       -2.663409   -1.415869   -0.545343
      9          7           0        1.209626   -0.019348   -0.748227
     10          7           0       -0.976173    1.442717   -0.457448
     11          6           0       -3.349443   -1.161477    0.756423
     12          6           0       -2.698907   -1.991811    1.914138
     13          6           0       -1.273711   -1.637421    2.033074
     14          6           0       -0.631220   -0.707924    2.890350
     15          6           0        0.719541   -0.703728    2.612042
     16          6           0        0.857143   -1.649465    1.475125
     17          6           0       -4.670838   -1.778747    0.472793
     18          6           0        1.876587    0.055773    3.306184
     19          6           0       -4.737027   -2.226805   -0.827338
     20          6           0        1.983583   -1.771069    0.469143
     21          6           0        2.149156   -1.006185   -0.605892
     22          6           0       -3.499177   -1.863144   -1.482747
     23          6           0        3.036514   -0.919673   -1.656721
     24          6           0       -1.401135    0.157895    3.937809
     25          6           0       -5.796829   -1.681957    1.480181
     26          6           0        2.531814    0.058263   -2.567386
     27          6           0        1.943471    1.423642    2.549609
     28          6           0        1.420253    0.686013   -1.900128
     29          6           0        4.222843   -1.775437   -1.871222
     30          6           0       -5.795194   -2.829452   -1.602581
     31          6           0        5.341208   -1.312640   -0.983719
     32          6           0        3.051052    0.378850   -3.839070
     33          6           0        0.616197    1.716417   -2.373575
     34          6           0        2.938653    2.243705    3.285831
     35          6           0       -0.563786    2.101613   -1.543127
     36          6           0       -6.843218   -3.576603   -1.152870
     37          6           0        6.605566   -2.243234   -1.016312
     38          6           0       -1.411331    3.291412   -1.785044
     39          6           0       -2.215891    3.372749   -0.651709
     40          6           0       -1.963230    2.178260    0.148013
     41          6           0       -1.161048    4.279919   -2.724312
     42          6           0       -3.256563    4.363276   -0.323615
     43          6           0       -1.801102    5.479803   -2.969247
     44          1           0       -3.432362   -0.167687    1.095202
     45          1           0       -2.688618   -3.106245    1.791234
     46          1           0       -3.345563   -1.891922    2.801933
     47          1           0       -0.476542   -2.791090    0.429720
     48          1           0       -1.944695   -0.703496   -0.655805
     49          1           0        1.716702    0.097441    4.349660
     50          1           0        2.720383   -0.509851    3.025965
     51          1           0        2.751640   -2.548538    0.767509
     52          1           0       -2.092030   -0.212691    4.588953
     53          1           0       -0.635576    0.583237    4.609101
     54          1           0       -1.886021    0.858932    3.324284
     55          1           0       -5.811522   -0.775291    2.090502
     56          1           0       -5.687081   -2.479745    2.102243
     57          1           0       -6.800730   -1.854601    0.852750
     58          1           0        2.003332    1.298368    1.489215
     59          1           0        0.887450    1.926054    2.827644
     60          1           0        0.311109    0.488049   -0.221449
     61          1           0        4.665571   -1.659532   -2.898295
     62          1           0        3.842650   -2.861376   -1.658306
     63          1           0       -5.671531   -2.540297   -2.576217
     64          1           0        5.008698   -1.055008    0.154319
     65          1           0        5.734885   -0.418261   -1.366592
     66          1           0        3.821956   -0.406264   -4.330319
     67          1           0        3.601997    1.492779   -3.786138
     68          1           0        2.351266    0.420715   -4.523915
     69          1           0        0.950426    2.207565   -3.289388
     70          1           0       -7.083828   -3.767727   -0.041326
     71          1           0       -7.780559   -3.784900   -1.779621
     72          1           0        3.527142    4.082739    3.400102
     73          1           0       -0.298069    4.068941   -3.641638
     74          1           0       -4.136345    4.521804   -1.134565
     75          1           0       -3.647166    3.970234    0.402610
     76          1           0       -2.843911    5.381830   -0.121314
     77          1           0        8.433019   -2.214711   -0.578353
     78          1           0       -1.669557    6.317652   -3.735518
     79          1           0       -2.541364    5.820098   -2.184716
 ---------------------------------------------------------------------
 Rotational constants (GHZ):           0.0901234           0.0511743           0.0487334
 Standard basis: SVP (5D, 7F)
 There are   825 symmetry adapted cartesian basis functions of A   symmetry.
 There are   782 symmetry adapted basis functions of A   symmetry.
   782 basis functions,  1327 primitive gaussians,   825 cartesian basis functions
   155 alpha electrons      155 beta electrons
       nuclear repulsion energy      5215.0221763345 Hartrees.
 NAtoms=   79 NActive=   79 NUniq=   79 SFac= 1.00D+00 NAtFMM=   60 NAOKFM=T Big=T
 Integral buffers will be    131072 words long.
 Regular integral format.
 Two-electron integral symmetry is turned on.
 One-electron integrals computed using PRISM.
 NBasis=   782 RedAO= T EigKep=  3.16D-04  NBF=   782
 NBsUse=   782 1.00D-06 EigRej= -1.00D+00 NBFU=   782
 ExpMin= 1.22D-01 ExpMax= 2.27D+03 ExpMxC= 3.41D+02 IAcc=3 IRadAn=         5 AccDes= 0.00D+00
 Harris functional with IExCor=  402 and IRadAn=       5 diagonalized for initial guess.
 HarFok:  IExCor=  402 AccDes= 0.00D+00 IRadAn=         5 IDoV= 1 UseB2=F ITyADJ=14
 ICtDFT=  3500011 ScaDFX=  1.000000  1.000000  1.000000  1.000000
 FoFCou: FMM=F IPFlag=           0 FMFlag=      100000 FMFlg1=        2001
         NFxFlg=           0 DoJE=T BraDBF=F KetDBF=T FulRan=T
         wScrn=  0.000000 ICntrl=       500 IOpCl=  0 I1Cent=   200000004 NGrid=           0
         NMat0=    1 NMatS0=      1 NMatT0=    0 NMatD0=    1 NMtDS0=    0 NMtDT0=    0
 Petite list used in FoFCou.
 Requested convergence on RMS density matrix=1.00D-08 within 128 cycles.
 Requested convergence on MAX density matrix=1.00D-06.
 Requested convergence on             energy=1.00D-06.
 No special actions if energy rises.
 Integral accuracy reduced to 1.0D-05 until final iterations.
 EnCoef did     1 forward-backward iterations
 Initial convergence to 1.0D-05 achieved.  Increase integral accuracy.
 SCF Done:  E(RB3LYP) =  -1947.84425945     A.U. after   23 cycles
            NFock= 23  Conv=0.35D-08     -V/T= 2.0101
 DoSCS=F DFT=T ScalE2(SS,OS)=  1.000000  1.000000
 ExpMin= 1.22D-01 ExpMax= 2.27D+03 ExpMxC= 3.41D+02 IAcc=3 IRadAn=         5 AccDes= 0.00D+00
 HarFok:  IExCor=  205 AccDes= 0.00D+00 IRadAn=         5 IDoV=-2 UseB2=F ITyADJ=14
 ICtDFT= 12500011 ScaDFX=  1.000000  1.000000  1.000000  1.000000
 GSVD:  LWork=       -2193 too small for GESVD, short by        9890 words or        9890 for optimal perf.
 Range of M.O.s used for correlation:    44   782
 NBasis=   782 NAE=   155 NBE=   155 NFC=    43 NFV=     0
 NROrb=    739 NOA=   112 NOB=   112 NVA=   627 NVB=   627

 **** Warning!!: The smallest alpha delta epsilon is  0.47613321D-01

 Orbital symmetries:
       Occupied  (A) (A) (A) (A) (A) (A) (A) (A) (A) (A) (A) (A)
                 (A) (A) (A) (A) (A) (A) (A) (A) (A) (A) (A) (A)
                 (A) (A) (A) (A) (A) (A) (A) (A) (A) (A) (A) (A)
                 (A) (A) (A) (A) (A) (A) (A) (A) (A) (A) (A) (A)
                 (A) (A) (A) (A) (A) (A) (A) (A) (A) (A) (A) (A)
                 (A) (A) (A) (A) (A) (A) (A) (A) (A) (A) (A) (A)
                 (A) (A) (A) (A) (A) (A) (A) (A) (A) (A) (A) (A)
                 (A) (A) (A) (A) (A) (A) (A) (A) (A) (A) (A) (A)
                 (A) (A) (A) (A) (A) (A) (A) (A) (A) (A) (A) (A)
                 (A) (A) (A) (A) (A) (A) (A) (A) (A) (A) (A) (A)
                 (A) (A) (A) (A) (A) (A) (A) (A) (A) (A) (A) (A)
                 (A) (A) (A) (A) (A) (A) (A) (A) (A) (A) (A) (A)
                 (A) (A) (A) (A) (A) (A) (A) (A) (A) (A) (A)
       Virtual   (A) (A) (A) (A) (A) (A) (A) (A) (A) (A) (A) (A)
                 (A) (A) (A) (A) (A) (A) (A) (A) (A) (A) (A) (A)
                 (A) (A) (A) (A) (A) (A) (A) (A) (A) (A) (A) (A)
                 (A) (A) (A) (A) (A) (A) (A) (A) (A) (A) (A) (A)
                 (A) (A) (A) (A) (A) (A) (A) (A) (A) (A) (A) (A)
                 (A) (A) (A) (A) (A) (A) (A) (A) (A) (A) (A) (A)
                 (A) (A) (A) (A) (A) (A) (A) (A) (A) (A) (A) (A)
                 (A) (A) (A) (A) (A) (A) (A) (A) (A) (A) (A) (A)
                 (A) (A) (A) (A) (A) (A) (A) (A) (A) (A) (A) (A)
                 (A) (A) (A) (A) (A) (A) (A) (A) (A) (A) (A) (A)
                 (A) (A) (A) (A) (A) (A) (A) (A) (A) (A) (A) (A)
                 (A) (A) (A) (A) (A) (A) (A) (A) (A) (A) (A) (A)
                 (A) (A) (A) (A) (A) (A) (A) (A) (A) (A) (A) (A)
                 (A) (A) (A) (A) (A) (A) (A) (A) (A) (A) (A) (A)
                 (A) (A) (A) (A) (A) (A) (A) (A) (A) (A) (A) (A)
                 (A) (A) (A) (A) (A) (A) (A) (A) (A) (A) (A) (A)
                 (A) (A) (A) (A) (A) (A) (A) (A) (A) (A) (A) (A)
                 (A) (A) (A) (A) (A) (A) (A) (A) (A) (A) (A) (A)
                 (A) (A) (A) (A) (A) (A) (A) (A) (A) (A) (A) (A)
                 (A) (A) (A) (A) (A) (A) (A) (A) (A) (A) (A) (A)
                 (A) (A) (A) (A) (A) (A) (A) (A) (A) (A) (A) (A)
                 (A) (A) (A) (A) (A) (A) (A) (A) (A) (A) (A) (A)
                 (A) (A) (A) (A) (A) (A) (A) (A) (A) (A) (A) (A)
                 (A) (A) (A) (A) (A) (A) (A) (A) (A) (A) (A) (A)
                 (A) (A) (A) (A) (A) (A) (A) (A) (A) (A) (A) (A)
                 (A) (A) (A) (A) (A) (A) (A) (A) (A) (A) (A) (A)
                 (A) (A) (A) (A) (A) (A) (A) (A) (A) (A) (A) (A)
                 (A) (A) (A) (A) (A) (A) (A) (A) (A) (A) (A) (A)
                 (A) (A) (A) (A) (A) (A) (A) (A) (A) (A) (A) (A)
                 (A) (A) (A) (A) (A) (A) (A) (A) (A) (A) (A) (A)
                 (A) (A) (A) (A) (A) (A) (A) (A) (A) (A) (A) (A)
                 (A) (A) (A) (A) (A) (A) (A) (A) (A) (A) (A) (A)
                 (A) (A) (A) (A) (A) (A) (A) (A) (A) (A) (A) (A)
                 (A) (A) (A) (A) (A) (A) (A) (A) (A) (A) (A) (A)
                 (A) (A) (A) (A) (A) (A) (A) (A) (A) (A) (A) (A)
                 (A) (A) (A) (A) (A) (A) (A) (A) (A) (A) (A) (A)
                 (A) (A) (A) (A) (A) (A) (A) (A) (A) (A) (A) (A)
                 (A) (A) (A) (A) (A) (A) (A) (A) (A) (A) (A) (A)
                 (A) (A) (A) (A) (A) (A) (A) (A) (A) (A) (A) (A)
                 (A) (A) (A) (A) (A) (A) (A) (A) (A) (A) (A) (A)
                 (A) (A) (A) (A) (A) (A) (A) (A) (A) (A) (A) (A)
                 (A) (A) (A) (A) (A) (A) (A) (A) (A) (A) (A) (A)
                 (A) (A) (A) (A) (A) (A) (A) (A) (A) (A) (A) (A)
                 (A) (A) (A) (A) (A) (A) (A) (A) (A) (A) (A) (A)
                 (A) (A) (A) (A) (A) (A) (A) (A) (A) (A) (A) (A)
                 (A) (A) (A) (A) (A) (A) (A) (A) (A) (A) (A) (A)
                 (A) (A) (A) (A) (A) (A) (A) (A) (A) (A) (A) (A)
                 (A) (A) (A) (A) (A) (A) (A) (A) (A) (A) (A) (A)
                 (A) (A) (A) (A) (A) (A) (A) (A) (A) (A) (A) (A)
                 (A) (A) (A) (A) (A) (A) (A) (A) (A) (A) (A) (A)
                 (A) (A) (A) (A) (A) (A) (A) (A) (A) (A) (A) (A)
                 (A) (A) (A) (A) (A) (A) (A) (A) (A) (A) (A) (A)
                 (A) (A) (A)
     4 initial guesses have been made.
 Convergence on wavefunction:    0.001000000000000
 Iteration     1 Dimension     4 NMult     0 NNew      4
 CISAX will form     4 AO SS matrices at one time.
 Iteration     2 Dimension     6 NMult     4 NNew      2
 Iteration     3 Dimension     8 NMult     6 NNew      2
 Iteration     4 Dimension    10 NMult     8 NNew      2
 Iteration     5 Dimension    12 NMult    10 NNew      2
 Iteration     6 Dimension    14 NMult    12 NNew      2
 ***********************************************************************
 Excited states from <AA,BB:AA,BB> singles matrix:
 ***********************************************************************
 
 Ground to excited state transition densities written to RWF  633
 Ground to excited state transition electric dipole moments (Au):
       state          X           Y           Z        Dip. S.      Osc.
         1        -0.0148      0.2002     -0.2339      0.0950      0.0015
 Ground to excited state transition velocity dipole moments (Au):
       state          X           Y           Z        Dip. S.      Osc.
         1        -0.0010     -0.0046      0.0060      0.0001      0.0017
 Ground to excited state transition magnetic dipole moments (Au):
       state          X           Y           Z
         1        -0.0900     -0.1775     -0.1515
 Ground to excited state transition velocity quadrupole moments (Au):
       state          XX          YY          ZZ          XY          XZ          YZ
         1        -0.0122     -0.0139      0.0167      0.0177      0.0042     -0.0018
 <0|del|b> * <b|rxdel|0> + <0|del|b> * <b|delr+rdel|0>
 Rotatory Strengths (R) in cgs (10**-40 erg-esu-cm/Gauss)
       state          XX          YY          ZZ    R(velocity)    E-M Angle
         1         0.4562    -14.2645     13.5008     -0.1025       90.00
 1/2[<0|r|b>*<b|rxdel|0> + (<0|rxdel|b>*<b|r|0>)*]
 Rotatory Strengths (R) in cgs (10**-40 erg-esu-cm/Gauss)
       state          XX          YY          ZZ     R(length)
         1        -0.9438     25.1316    -25.0582     -0.2901
  1/2[<0|del|b>*<b|r|0> + (<0|r|b>*<b|del|0>)*] (Au)
       state          X           Y           Z        Dip. S.   Osc.(frdel)
         1         0.0000     -0.0009     -0.0014      0.0023      0.0015

 Excitation energies and oscillator strengths:
 
 Excited State   1:      Singlet-A      0.6302 eV 1967.24 nm  f=0.0015  <S**2>=0.000
     155 ->156         0.70290
 This state for optimization and/or second-order correction.
 Total Energy, E(TD-HF/TD-DFT) =  -1947.82109843    
 Copying the excited state density for this state as the 1-particle RhoCI density.
 SavETr:  write IOETrn=   770 NScale= 10 NData=  16 NLR=1 NState=    1 LETran=      28.

 **********************************************************************

            Population analysis using the SCF density.

 **********************************************************************

 Orbital symmetries:
       Occupied  (A) (A) (A) (A) (A) (A) (A) (A) (A) (A) (A) (A)
                 (A) (A) (A) (A) (A) (A) (A) (A) (A) (A) (A) (A)
                 (A) (A) (A) (A) (A) (A) (A) (A) (A) (A) (A) (A)
                 (A) (A) (A) (A) (A) (A) (A) (A) (A) (A) (A) (A)
                 (A) (A) (A) (A) (A) (A) (A) (A) (A) (A) (A) (A)
                 (A) (A) (A) (A) (A) (A) (A) (A) (A) (A) (A) (A)
                 (A) (A) (A) (A) (A) (A) (A) (A) (A) (A) (A) (A)
                 (A) (A) (A) (A) (A) (A) (A) (A) (A) (A) (A) (A)
                 (A) (A) (A) (A) (A) (A) (A) (A) (A) (A) (A) (A)
                 (A) (A) (A) (A) (A) (A) (A) (A) (A) (A) (A) (A)
                 (A) (A) (A) (A) (A) (A) (A) (A) (A) (A) (A) (A)
                 (A) (A) (A) (A) (A) (A) (A) (A) (A) (A) (A) (A)
                 (A) (A) (A) (A) (A) (A) (A) (A) (A) (A) (A)
       Virtual   (A) (A) (A) (A) (A) (A) (A) (A) (A) (A) (A) (A)
                 (A) (A) (A) (A) (A) (A) (A) (A) (A) (A) (A) (A)
                 (A) (A) (A) (A) (A) (A) (A) (A) (A) (A) (A) (A)
                 (A) (A) (A) (A) (A) (A) (A) (A) (A) (A) (A) (A)
                 (A) (A) (A) (A) (A) (A) (A) (A) (A) (A) (A) (A)
                 (A) (A) (A) (A) (A) (A) (A) (A) (A) (A) (A) (A)
                 (A) (A) (A) (A) (A) (A) (A) (A) (A) (A) (A) (A)
                 (A) (A) (A) (A) (A) (A) (A) (A) (A) (A) (A) (A)
                 (A) (A) (A) (A) (A) (A) (A) (A) (A) (A) (A) (A)
                 (A) (A) (A) (A) (A) (A) (A) (A) (A) (A) (A) (A)
                 (A) (A) (A) (A) (A) (A) (A) (A) (A) (A) (A) (A)
                 (A) (A) (A) (A) (A) (A) (A) (A) (A) (A) (A) (A)
                 (A) (A) (A) (A) (A) (A) (A) (A) (A) (A) (A) (A)
                 (A) (A) (A) (A) (A) (A) (A) (A) (A) (A) (A) (A)
                 (A) (A) (A) (A) (A) (A) (A) (A) (A) (A) (A) (A)
                 (A) (A) (A) (A) (A) (A) (A) (A) (A) (A) (A) (A)
                 (A) (A) (A) (A) (A) (A) (A) (A) (A) (A) (A) (A)
                 (A) (A) (A) (A) (A) (A) (A) (A) (A) (A) (A) (A)
                 (A) (A) (A) (A) (A) (A) (A) (A) (A) (A) (A) (A)
                 (A) (A) (A) (A) (A) (A) (A) (A) (A) (A) (A) (A)
                 (A) (A) (A) (A) (A) (A) (A) (A) (A) (A) (A) (A)
                 (A) (A) (A) (A) (A) (A) (A) (A) (A) (A) (A) (A)
                 (A) (A) (A) (A) (A) (A) (A) (A) (A) (A) (A) (A)
                 (A) (A) (A) (A) (A) (A) (A) (A) (A) (A) (A) (A)
                 (A) (A) (A) (A) (A) (A) (A) (A) (A) (A) (A) (A)
                 (A) (A) (A) (A) (A) (A) (A) (A) (A) (A) (A) (A)
                 (A) (A) (A) (A) (A) (A) (A) (A) (A) (A) (A) (A)
                 (A) (A) (A) (A) (A) (A) (A) (A) (A) (A) (A) (A)
                 (A) (A) (A) (A) (A) (A) (A) (A) (A) (A) (A) (A)
                 (A) (A) (A) (A) (A) (A) (A) (A) (A) (A) (A) (A)
                 (A) (A) (A) (A) (A) (A) (A) (A) (A) (A) (A) (A)
                 (A) (A) (A) (A) (A) (A) (A) (A) (A) (A) (A) (A)
                 (A) (A) (A) (A) (A) (A) (A) (A) (A) (A) (A) (A)
                 (A) (A) (A) (A) (A) (A) (A) (A) (A) (A) (A) (A)
                 (A) (A) (A) (A) (A) (A) (A) (A) (A) (A) (A) (A)
                 (A) (A) (A) (A) (A) (A) (A) (A) (A) (A) (A) (A)
                 (A) (A) (A) (A) (A) (A) (A) (A) (A) (A) (A) (A)
                 (A) (A) (A) (A) (A) (A) (A) (A) (A) (A) (A) (A)
                 (A) (A) (A) (A) (A) (A) (A) (A) (A) (A) (A) (A)
                 (A) (A) (A) (A) (A) (A) (A) (A) (A) (A) (A) (A)
                 (A) (A) (A) (A) (A) (A) (A) (A) (A) (A) (A) (A)
                 (A) (A) (A) (A) (A) (A) (A) (A) (A) (A) (A) (A)
                 (A) (A) (A) (A) (A) (A) (A) (A) (A) (A) (A) (A)
                 (A) (A) (A) (A) (A) (A) (A) (A) (A) (A) (A) (A)
                 (A) (A) (A) (A) (A) (A) (A) (A) (A) (A) (A) (A)
                 (A) (A) (A) (A) (A) (A) (A) (A) (A) (A) (A) (A)
                 (A) (A) (A) (A) (A) (A) (A) (A) (A) (A) (A) (A)
                 (A) (A) (A) (A) (A) (A) (A) (A) (A) (A) (A) (A)
                 (A) (A) (A) (A) (A) (A) (A) (A) (A) (A) (A) (A)
                 (A) (A) (A) (A) (A) (A) (A) (A) (A) (A) (A) (A)
                 (A) (A) (A) (A) (A) (A) (A) (A) (A) (A) (A) (A)
                 (A) (A) (A) (A) (A) (A) (A) (A) (A) (A) (A) (A)
                 (A) (A) (A)
 The electronic state is 1-A.
 Alpha  occ. eigenvalues --  -19.19047 -19.16752 -19.14115 -19.12410 -19.12409
 Alpha  occ. eigenvalues --  -19.06965 -14.37555 -14.36252 -14.33105 -14.32694
 Alpha  occ. eigenvalues --  -10.32778 -10.30973 -10.29377 -10.26776 -10.25840
 Alpha  occ. eigenvalues --  -10.25759 -10.24700 -10.23305 -10.23037 -10.22347
 Alpha  occ. eigenvalues --  -10.22334 -10.22316 -10.22230 -10.22223 -10.22098
 Alpha  occ. eigenvalues --  -10.22037 -10.22027 -10.21745 -10.21436 -10.20696
 Alpha  occ. eigenvalues --  -10.20366 -10.20295 -10.19747 -10.19263 -10.19252
 Alpha  occ. eigenvalues --  -10.19225 -10.19143 -10.18270 -10.18242 -10.17859
 Alpha  occ. eigenvalues --  -10.17227 -10.16526 -10.16009  -1.12457  -1.08804
 Alpha  occ. eigenvalues --   -1.04058  -1.00376  -0.99923  -0.99523  -0.98843
 Alpha  occ. eigenvalues --   -0.98358  -0.93781  -0.91244  -0.84439  -0.83449
 Alpha  occ. eigenvalues --   -0.82793  -0.80527  -0.79975  -0.79264  -0.78687
 Alpha  occ. eigenvalues --   -0.77588  -0.76088  -0.75686  -0.74291  -0.73542
 Alpha  occ. eigenvalues --   -0.71758  -0.70252  -0.69794  -0.69069  -0.68247
 Alpha  occ. eigenvalues --   -0.67188  -0.66403  -0.63990  -0.61969  -0.61341
 Alpha  occ. eigenvalues --   -0.60313  -0.60222  -0.57987  -0.57600  -0.56571
 Alpha  occ. eigenvalues --   -0.55977  -0.55800  -0.55498  -0.53794  -0.53632
 Alpha  occ. eigenvalues --   -0.52457  -0.51575  -0.51281  -0.50701  -0.49942
 Alpha  occ. eigenvalues --   -0.49466  -0.49048  -0.48693  -0.48038  -0.47869
 Alpha  occ. eigenvalues --   -0.47553  -0.47156  -0.46980  -0.46644  -0.46171
 Alpha  occ. eigenvalues --   -0.45534  -0.45238  -0.45043  -0.44294  -0.44142
 Alpha  occ. eigenvalues --   -0.43741  -0.43541  -0.43131  -0.42797  -0.42433
 Alpha  occ. eigenvalues --   -0.42304  -0.42097  -0.41647  -0.41198  -0.41077
 Alpha  occ. eigenvalues --   -0.40882  -0.40415  -0.40244  -0.40175  -0.39900
 Alpha  occ. eigenvalues --   -0.39562  -0.39341  -0.38973  -0.38685  -0.38363
 Alpha  occ. eigenvalues --   -0.37645  -0.37069  -0.36828  -0.36374  -0.36003
 Alpha  occ. eigenvalues --   -0.35919  -0.35599  -0.35172  -0.34825  -0.34570
 Alpha  occ. eigenvalues --   -0.34112  -0.33996  -0.33037  -0.32598  -0.31815
 Alpha  occ. eigenvalues --   -0.31680  -0.30130  -0.29649  -0.29343  -0.29243
 Alpha  occ. eigenvalues --   -0.28174  -0.26554  -0.26151  -0.24532  -0.24043
 Alpha  occ. eigenvalues --   -0.23129  -0.22897  -0.22633  -0.22085  -0.18423
 Alpha virt. eigenvalues --   -0.13662  -0.08899  -0.04137  -0.02970   0.00382
 Alpha virt. eigenvalues --    0.00900   0.01890   0.02041   0.03009   0.03475
 Alpha virt. eigenvalues --    0.03570   0.04164   0.05062   0.05302   0.05323
 Alpha virt. eigenvalues --    0.05826   0.06047   0.06267   0.06790   0.07270
 Alpha virt. eigenvalues --    0.07381   0.08207   0.08521   0.09077   0.09383
 Alpha virt. eigenvalues --    0.09627   0.09895   0.10127   0.10453   0.10800
 Alpha virt. eigenvalues --    0.11028   0.11763   0.12205   0.12315   0.12888
 Alpha virt. eigenvalues --    0.13205   0.13571   0.13585   0.13920   0.14278
 Alpha virt. eigenvalues --    0.14687   0.15131   0.15447   0.15784   0.16147
 Alpha virt. eigenvalues --    0.16801   0.17193   0.17473   0.17726   0.18678
 Alpha virt. eigenvalues --    0.18755   0.19108   0.19559   0.19729   0.20653
 Alpha virt. eigenvalues --    0.21402   0.21992   0.22321   0.22557   0.23083
 Alpha virt. eigenvalues --    0.23343   0.23551   0.24053   0.24377   0.24941
 Alpha virt. eigenvalues --    0.25494   0.25898   0.26367   0.27035   0.27825
 Alpha virt. eigenvalues --    0.28489   0.28689   0.28934   0.29070   0.29844
 Alpha virt. eigenvalues --    0.29943   0.30637   0.31377   0.31983   0.32124
 Alpha virt. eigenvalues --    0.32218   0.32816   0.33151   0.33551   0.34518
 Alpha virt. eigenvalues --    0.34730   0.34997   0.35380   0.36163   0.36630
 Alpha virt. eigenvalues --    0.37261   0.37772   0.38195   0.38805   0.39402
 Alpha virt. eigenvalues --    0.39789   0.40490   0.40927   0.41606   0.41800
 Alpha virt. eigenvalues --    0.42313   0.42472   0.42790   0.43065   0.43392
 Alpha virt. eigenvalues --    0.43501   0.43737   0.44261   0.44506   0.45305
 Alpha virt. eigenvalues --    0.45691   0.46035   0.46465   0.46654   0.46878
 Alpha virt. eigenvalues --    0.47228   0.47566   0.47997   0.48690   0.48986
 Alpha virt. eigenvalues --    0.49085   0.49330   0.49683   0.49827   0.50309
 Alpha virt. eigenvalues --    0.50872   0.51013   0.51208   0.51956   0.52276
 Alpha virt. eigenvalues --    0.52669   0.53037   0.53558   0.53819   0.54125
 Alpha virt. eigenvalues --    0.54635   0.54826   0.54989   0.55595   0.56115
 Alpha virt. eigenvalues --    0.56201   0.56571   0.56759   0.57462   0.57675
 Alpha virt. eigenvalues --    0.57890   0.58273   0.58682   0.58932   0.59751
 Alpha virt. eigenvalues --    0.59760   0.60034   0.60255   0.60585   0.60788
 Alpha virt. eigenvalues --    0.61359   0.61424   0.61462   0.61865   0.62263
 Alpha virt. eigenvalues --    0.62365   0.62608   0.62945   0.63307   0.63577
 Alpha virt. eigenvalues --    0.63697   0.64055   0.64154   0.64795   0.65011
 Alpha virt. eigenvalues --    0.65219   0.65687   0.65882   0.66212   0.66646
 Alpha virt. eigenvalues --    0.66956   0.66981   0.67124   0.67639   0.67762
 Alpha virt. eigenvalues --    0.68133   0.68733   0.69023   0.69326   0.69527
 Alpha virt. eigenvalues --    0.69818   0.69994   0.70367   0.70551   0.70919
 Alpha virt. eigenvalues --    0.71279   0.71654   0.71856   0.72154   0.72473
 Alpha virt. eigenvalues --    0.72742   0.72900   0.73087   0.73267   0.73895
 Alpha virt. eigenvalues --    0.74345   0.74632   0.74995   0.75589   0.75786
 Alpha virt. eigenvalues --    0.75855   0.76315   0.76549   0.76786   0.77155
 Alpha virt. eigenvalues --    0.77667   0.78227   0.78329   0.79091   0.79258
 Alpha virt. eigenvalues --    0.79973   0.80796   0.81040   0.81822   0.82360
 Alpha virt. eigenvalues --    0.82695   0.83121   0.84033   0.84404   0.84931
 Alpha virt. eigenvalues --    0.85214   0.85973   0.86469   0.87065   0.87151
 Alpha virt. eigenvalues --    0.87443   0.88133   0.89077   0.89375   0.89797
 Alpha virt. eigenvalues --    0.91193   0.91469   0.92230   0.92700   0.94164
 Alpha virt. eigenvalues --    0.94217   0.95085   0.95402   0.95825   0.96227
 Alpha virt. eigenvalues --    0.97080   0.97354   0.97814   0.98152   0.98409
 Alpha virt. eigenvalues --    0.98902   0.99288   1.00369   1.00640   1.01546
 Alpha virt. eigenvalues --    1.02370   1.04080   1.04876   1.05732   1.05923
 Alpha virt. eigenvalues --    1.07020   1.07698   1.08192   1.08929   1.09418
 Alpha virt. eigenvalues --    1.10180   1.10815   1.11429   1.12141   1.13117
 Alpha virt. eigenvalues --    1.13635   1.14106   1.15287   1.15947   1.16551
 Alpha virt. eigenvalues --    1.17020   1.17115   1.18031   1.18344   1.18828
 Alpha virt. eigenvalues --    1.19912   1.20171   1.20650   1.20802   1.21872
 Alpha virt. eigenvalues --    1.22093   1.23995   1.24574   1.25112   1.25879
 Alpha virt. eigenvalues --    1.26473   1.26639   1.27152   1.27333   1.27943
 Alpha virt. eigenvalues --    1.28525   1.28855   1.29344   1.29780   1.30528
 Alpha virt. eigenvalues --    1.31554   1.31950   1.32570   1.33213   1.34038
 Alpha virt. eigenvalues --    1.34390   1.35520   1.36138   1.36411   1.37260
 Alpha virt. eigenvalues --    1.38137   1.38752   1.39545   1.40212   1.40862
 Alpha virt. eigenvalues --    1.41864   1.42291   1.43417   1.45019   1.46035
 Alpha virt. eigenvalues --    1.47122   1.47546   1.47816   1.48752   1.49200
 Alpha virt. eigenvalues --    1.49549   1.50835   1.51001   1.51435   1.52077
 Alpha virt. eigenvalues --    1.52320   1.52680   1.53290   1.53911   1.54596
 Alpha virt. eigenvalues --    1.55288   1.55423   1.55939   1.57146   1.57845
 Alpha virt. eigenvalues --    1.58657   1.59684   1.60187   1.60367   1.61129
 Alpha virt. eigenvalues --    1.61600   1.62393   1.62710   1.62841   1.63000
 Alpha virt. eigenvalues --    1.63264   1.63377   1.63867   1.64264   1.64698
 Alpha virt. eigenvalues --    1.64980   1.65259   1.65904   1.66073   1.67135
 Alpha virt. eigenvalues --    1.67293   1.67821   1.68395   1.68686   1.69046
 Alpha virt. eigenvalues --    1.69307   1.69502   1.70316   1.70425   1.70752
 Alpha virt. eigenvalues --    1.71398   1.72360   1.72621   1.73113   1.73802
 Alpha virt. eigenvalues --    1.74187   1.75240   1.75384   1.75997   1.76528
 Alpha virt. eigenvalues --    1.76795   1.77153   1.77379   1.77867   1.78307
 Alpha virt. eigenvalues --    1.78502   1.78993   1.79324   1.79867   1.80263
 Alpha virt. eigenvalues --    1.80522   1.80921   1.81191   1.81458   1.82223
 Alpha virt. eigenvalues --    1.82784   1.83080   1.83235   1.83631   1.83872
 Alpha virt. eigenvalues --    1.84471   1.85237   1.85564   1.86071   1.86429
 Alpha virt. eigenvalues --    1.87485   1.87910   1.88510   1.88747   1.89231
 Alpha virt. eigenvalues --    1.89430   1.89827   1.90329   1.90786   1.91023
 Alpha virt. eigenvalues --    1.91679   1.91944   1.92268   1.92578   1.93231
 Alpha virt. eigenvalues --    1.93976   1.94295   1.94738   1.94982   1.95412
 Alpha virt. eigenvalues --    1.95746   1.96092   1.96624   1.97836   1.98637
 Alpha virt. eigenvalues --    1.98826   1.99949   2.00307   2.00356   2.01126
 Alpha virt. eigenvalues --    2.01500   2.01951   2.02337   2.03396   2.03869
 Alpha virt. eigenvalues --    2.04329   2.05147   2.05397   2.06396   2.06809
 Alpha virt. eigenvalues --    2.06924   2.07495   2.08166   2.08535   2.08824
 Alpha virt. eigenvalues --    2.09324   2.10279   2.10769   2.11121   2.11928
 Alpha virt. eigenvalues --    2.12153   2.12525   2.13147   2.13556   2.14362
 Alpha virt. eigenvalues --    2.14676   2.14865   2.15248   2.16206   2.16644
 Alpha virt. eigenvalues --    2.17012   2.17716   2.18035   2.18335   2.18756
 Alpha virt. eigenvalues --    2.18972   2.20602   2.21831   2.22640   2.23242
 Alpha virt. eigenvalues --    2.24151   2.24530   2.24861   2.25451   2.25992
 Alpha virt. eigenvalues --    2.27833   2.28039   2.28676   2.29631   2.29914
 Alpha virt. eigenvalues --    2.31394   2.31800   2.32986   2.33390   2.33757
 Alpha virt. eigenvalues --    2.34446   2.35023   2.35373   2.35605   2.36409
 Alpha virt. eigenvalues --    2.37481   2.38743   2.39734   2.39924   2.40437
 Alpha virt. eigenvalues --    2.41039   2.41339   2.42191   2.42743   2.44290
 Alpha virt. eigenvalues --    2.44616   2.45681   2.46255   2.46515   2.47091
 Alpha virt. eigenvalues --    2.47727   2.48063   2.48371   2.48600   2.49799
 Alpha virt. eigenvalues --    2.50641   2.50986   2.52601   2.54637   2.56084
 Alpha virt. eigenvalues --    2.56682   2.56991   2.57950   2.58029   2.58725
 Alpha virt. eigenvalues --    2.59031   2.60166   2.60906   2.60974   2.62350
 Alpha virt. eigenvalues --    2.62870   2.63356   2.63934   2.64665   2.65563
 Alpha virt. eigenvalues --    2.65765   2.66851   2.67435   2.67753   2.68468
 Alpha virt. eigenvalues --    2.68592   2.69491   2.70665   2.70807   2.71198
 Alpha virt. eigenvalues --    2.72029   2.72209   2.72424   2.73385   2.73903
 Alpha virt. eigenvalues --    2.74821   2.75527   2.75978   2.76613   2.77390
 Alpha virt. eigenvalues --    2.79166   2.79841   2.80599   2.81666   2.82432
 Alpha virt. eigenvalues --    2.83103   2.83571   2.84323   2.85424   2.85814
 Alpha virt. eigenvalues --    2.86492   2.86803   2.88305   2.89281   2.89703
 Alpha virt. eigenvalues --    2.89824   2.90309   2.90362   2.91234   2.91839
 Alpha virt. eigenvalues --    2.93295   2.95121   2.96704   2.97848   2.98454
 Alpha virt. eigenvalues --    2.98720   3.00028   3.00465   3.01115   3.02237
 Alpha virt. eigenvalues --    3.03212   3.03733   3.04865   3.05782   3.06260
 Alpha virt. eigenvalues --    3.06622   3.07472   3.07832   3.11609   3.11760
 Alpha virt. eigenvalues --    3.12218   3.13623   3.14765   3.15237   3.15718
 Alpha virt. eigenvalues --    3.17755   3.19374   3.20018   3.20891   3.21355
 Alpha virt. eigenvalues --    3.23296   3.24850   3.25877   3.27223   3.30697
 Alpha virt. eigenvalues --    3.36616   3.36944   3.39096   3.41861   3.43531
 Alpha virt. eigenvalues --    3.50509   3.51751   3.53634   3.54894   3.55555
 Alpha virt. eigenvalues --    3.57502   3.63704   3.65531   3.68220   3.69816
 Alpha virt. eigenvalues --    3.74301   3.76907
          Condensed to atoms (all electrons):
 Mulliken charges:
               1
     1  O   -0.301997
     2  O   -0.235885
     3  O   -0.195894
     4  O   -0.174312
     5  O   -0.151411
     6  O   -0.310810
     7  N    0.036719
     8  N   -0.167758
     9  N   -0.174223
    10  N   -0.287948
    11  C    0.093345
    12  C    0.181163
    13  C   -0.132690
    14  C   -0.123902
    15  C   -0.181785
    16  C   -0.088229
    17  C   -0.194678
    18  C    0.219121
    19  C   -0.043429
    20  C   -0.216843
    21  C    0.236831
    22  C    0.133794
    23  C   -0.065897
    24  C    0.152186
    25  C    0.110676
    26  C   -0.096151
    27  C   -0.063456
    28  C    0.076201
    29  C    0.121691
    30  C    0.046428
    31  C   -0.061328
    32  C    0.059074
    33  C   -0.061675
    34  C    0.148553
    35  C    0.094408
    36  C   -0.079144
    37  C    0.107727
    38  C    0.111176
    39  C   -0.207971
    40  C    0.221721
    41  C   -0.096849
    42  C    0.189639
    43  C   -0.074348
    44  H    0.031545
    45  H   -0.015059
    46  H   -0.010257
    47  H    0.131465
    48  H    0.133604
    49  H    0.007998
    50  H   -0.023798
    51  H    0.026719
    52  H   -0.023898
    53  H   -0.013140
    54  H    0.019863
    55  H    0.027879
    56  H    0.004013
    57  H    0.044546
    58  H    0.030801
    59  H    0.072607
    60  H    0.260612
    61  H    0.006973
    62  H    0.051069
    63  H   -0.021853
    64  H    0.069623
    65  H    0.009577
    66  H    0.041612
    67  H    0.054052
    68  H   -0.005887
    69  H   -0.014242
    70  H    0.026933
    71  H    0.033587
    72  H    0.190374
    73  H    0.037625
    74  H    0.049720
    75  H   -0.077337
    76  H    0.042998
    77  H    0.173238
    78  H    0.055948
    79  H    0.018646
 Sum of Mulliken charges =  -0.00000
 Mulliken charges with hydrogens summed into heavy atoms:
               1
     1  O   -0.301997
     2  O   -0.045511
     3  O   -0.195894
     4  O   -0.001073
     5  O   -0.151411
     6  O   -0.310810
     7  N    0.168184
     8  N   -0.034153
     9  N    0.086390
    10  N   -0.287948
    11  C    0.124890
    12  C    0.155846
    13  C   -0.132690
    14  C   -0.123902
    15  C   -0.181785
    16  C   -0.088229
    17  C   -0.194678
    18  C    0.203321
    19  C   -0.043429
    20  C   -0.190123
    21  C    0.236831
    22  C    0.133794
    23  C   -0.065897
    24  C    0.135011
    25  C    0.187114
    26  C   -0.096151
    27  C    0.039952
    28  C    0.076201
    29  C    0.179733
    30  C    0.024576
    31  C    0.017872
    32  C    0.148850
    33  C   -0.075917
    34  C    0.148553
    35  C    0.094408
    36  C   -0.018624
    37  C    0.107727
    38  C    0.111176
    39  C   -0.207971
    40  C    0.221721
    41  C   -0.059224
    42  C    0.205020
    43  C    0.000247
 Electronic spatial extent (au):  <R**2>=          25587.0706
 Charge=             -0.0000 electrons
 Dipole moment (field-independent basis, Debye):
    X=              3.9607    Y=              4.0956    Z=             -1.3476  Tot=              5.8547
 Quadrupole moment (field-independent basis, Debye-Ang):
   XX=           -230.5830   YY=           -241.7272   ZZ=           -261.7184
   XY=             -6.4238   XZ=            -27.6675   YZ=            -20.2734
 Traceless Quadrupole moment (field-independent basis, Debye-Ang):
   XX=             14.0932   YY=              2.9490   ZZ=            -17.0422
   XY=             -6.4238   XZ=            -27.6675   YZ=            -20.2734
 Octapole moment (field-independent basis, Debye-Ang**2):
  XXX=            237.6741  YYY=            164.0571  ZZZ=            -29.4745  XYY=             -4.6498
  XXY=              1.9636  XXZ=             -0.3304  XZZ=             39.2203  YZZ=             67.3339
  YYZ=             29.4020  XYZ=             39.4952
 Hexadecapole moment (field-independent basis, Debye-Ang**3):
 XXXX=         -16113.7353 YYYY=          -7794.2663 ZZZZ=          -7125.1671 XXXY=           -348.1089
 XXXZ=           -428.6700 YYYX=           -117.1496 YYYZ=           -106.0512 ZZZX=           -433.3880
 ZZZY=            -12.6576 XXYY=          -4510.9389 XXZZ=          -4470.8885 YYZZ=          -2411.0402
 XXYZ=           -206.3492 YYXZ=            216.8610 ZZXY=            -21.6520
 N-N= 5.215022176335D+03 E-N=-1.495966164571D+04  KE= 1.928371975088D+03
 1\1\GINC-PADAWAN\SP\RB3LYP TD-FC\SVP\C33H36N4O6\PADAWAN\28-Jul-2019\0\
 \# td=(NStates=1) B3LYP/SVP\\TD\\0,1\O,0,-3.2028371939,-1.6413691924,-
 2.9455552098\O,0,2.9717776326,3.1083724957,3.2230265736\O,0,3.60274458
 27,1.3519823265,4.4445488985\O,0,7.6661252154,-1.5409302072,-0.6930300
 648\O,0,6.6007442308,-2.9911599109,-1.9948659347\O,0,-2.5956404705,1.5
 271081999,1.4978198425\N,0,-0.3109468409,-2.3218084951,0.9375685977\N,
 0,-2.6597480128,-1.3385489899,-0.721544299\N,0,1.2026618156,0.10116102
 58,-0.7509100282\N,0,-0.9896981153,1.4903344413,-0.2374346414\C,0,-3.3
 364087906,-1.2783153939,0.6082878027\C,0,-2.6710157277,-2.2611002562,1
 .6302183286\C,0,-1.2471103527,-1.916899504,1.7881468033\C,0,-0.6032601
 283,-1.115072699,2.764984519\C,0,0.7450656192,-1.0610911101,2.48014920
 95\C,0,0.8790205883,-1.8331797527,1.2184566497\C,0,-4.6562605727,-1.85
 83214808,0.2489317805\C,0,1.9031349049,-0.4003403636,3.2673688914\C,0,
 -4.7305594173,-2.1160003084,-1.1014604865\C,0,1.9977177282,-1.80111830
 4,0.1971119899\C,0,2.149490971,-0.8889308053,-0.7584197435\C,0,-3.5005
 447244,-1.653087274,-1.7071479982\C,0,3.0274438076,-0.6462453728,-1.79
 25531542\C,0,-1.3697455468,-0.4139252495,3.9313786462\C,0,-5.774342658
 4,-1.9151379941,1.2681078164\C,0,2.50903056,0.4483021984,-2.549919602\
 C,0,1.9551349459,1.0622519172,2.7141380554\C,0,1.3992132878,0.96578322
 69,-1.7913752435\C,0,4.2172470738,-1.4536847976,-2.1362532554\C,0,-5.7
 914134774,-2.6091730077,-1.947198168\C,0,5.340109562,-1.1145532005,-1.
 1999034072\C,0,3.0155716526,0.951563559,-3.7663531445\C,0,0.5848009042
 ,2.0474198889,-2.1063123763\C,0,2.9513237727,1.7757171572,3.5528806333
 \C,0,-0.5905528869,2.3009747297,-1.2205173396\C,0,-6.8309470212,-3.420
 7458387,-1.6014387026\C,0,6.6099305627,-2.0215304081,-1.3748781778\C,0
 ,-1.4475034051,3.5068729205,-1.2831563903\C,0,-2.2430183912,3.41909238
 82,-0.1439322994\C,0,-1.9762098934,2.1242633598,0.4744763796\C,0,-1.21
 12811065,4.621548415,-2.0729090589\C,0,-3.2870593424,4.3447049534,0.33
 04172814\C,0,-1.8608399752,5.8393893571,-2.1386275956\H,0,-3.422680761
 3,-0.3439398839,1.0865828629\H,0,-2.6548071071,-3.346329758,1.34881523
 06\H,0,-3.3108109009,-2.2941828627,2.5279321819\H,0,-0.4562409289,-2.8
 230910742,0.030160026\H,0,-1.946443034,-0.6124175453,-0.7341075132\H,0
 ,1.7517531367,-0.509752429,4.3072028194\H,0,2.7480621391,-0.9137532666
 ,2.9027452039\H,0,2.7730861225,-2.6076223451,0.3752905823\H,0,-2.05282
 79121,-0.8790471787,4.5277998418\H,0,-0.601249893,-0.0834925529,4.6510
 014566\H,0,-1.8641257264,0.3641688636,3.4282515905\H,0,-5.7895697442,-
 1.1053786691,2.0021445075\H,0,-5.6544042011,-2.7929734019,1.7685997063
 \H,0,-6.7823756144,-2.003525996,0.6298693486\H,0,2.0068768271,1.090609
 0028,1.6463222435\H,0,0.8983697885,1.5118534296,3.0691148852\H,0,0.305
 4488025,0.5212264924,-0.150217054\H,0,4.6506107803,-1.1885919182,-3.13
 93695389\H,0,3.8456353933,-2.561697949,-2.0783349415\H,0,-5.6777299114
 ,-2.1826291875,-2.8702404878\H,0,5.0155594772,-1.0250529852,-0.0342602
 023\H,0,5.7249739387,-0.1716741635,-1.4535698395\H,0,3.7872086324,0.25
 06215543,-4.370735303\H,0,3.5599817498,2.0504561243,-3.5584281782\H,0,
 2.309816771,1.0859330912,-4.4329264446\H,0,0.9082647365,2.6671382103,-
 2.9447453665\H,0,-7.0610251886,-3.7708892728,-0.5270017214\H,0,-7.7721
 954844,-3.5440257331,-2.2446075143\H,0,3.5292666542,3.5837077318,3.925
 1357678\H,0,-0.3547293517,4.5505163311,-3.0173696324\H,0,-4.1745860482
 ,4.6112677086,-0.442905442\H,0,-3.6690956593,3.8488196756,0.9957003814
 \H,0,-2.8790862248,5.3267929704,0.6735231222\H,0,8.4407797715,-2.04255
 74099,-0.9509057256\H,0,-1.7409570203,6.7793083879,-2.7778826405\H,0,-
 2.5966020131,6.0583272085,-1.3079667042\\Version=ES64L-G16RevA.03\Stat
 e=1-A\HF=-1947.8442595\RMSD=3.475e-09\PG=C01 [X(C33H36N4O6)]\\@


 THE MOST BEAUTIFUL EXPERIENCE WE CAN HAVE IS THE MYSTERIOUS.
 IT IS THE FUNDAMENTAL EMOTION WHICH STANDS AT AT THE CRADLE 
 OF TRUE ART AND TRUE SCIENCE.

                                    -- ALBERT EINSTEIN
 Job cpu time:       0 days  4 hours 47 minutes 36.2 seconds.
 Elapsed time:       0 days  1 hours 12 minutes  0.5 seconds.
 File lengths (MBytes):  RWF=   2533 Int=      0 D2E=      0 Chk=     63 Scr=      1
 Normal termination of Gaussian 16 at Sun Jul 28 07:49:23 2019.
