 Entering Gaussian System, Link 0=g16
 Input=Geometria-28-.com
 Output=Geometria-28-.log
 Initial command:
 /usr/local/g16/l1.exe "/home/padawan/israel-mol/dihydrobiliverdin/spectra/emi/Gau-14904.inp" -scrdir="/home/padawan/israel-mol/dihydrobiliverdin/spectra/emi/"
 Entering Link 1 = /usr/local/g16/l1.exe PID=     14906.
  
 Copyright (c) 1988,1990,1992,1993,1995,1998,2003,2009,2016,
            Gaussian, Inc.  All Rights Reserved.
  
 This is part of the Gaussian(R) 16 program.  It is based on
 the Gaussian(R) 09 system (copyright 2009, Gaussian, Inc.),
 the Gaussian(R) 03 system (copyright 2003, Gaussian, Inc.),
 the Gaussian(R) 98 system (copyright 1998, Gaussian, Inc.),
 the Gaussian(R) 94 system (copyright 1995, Gaussian, Inc.),
 the Gaussian 92(TM) system (copyright 1992, Gaussian, Inc.),
 the Gaussian 90(TM) system (copyright 1990, Gaussian, Inc.),
 the Gaussian 88(TM) system (copyright 1988, Gaussian, Inc.),
 the Gaussian 86(TM) system (copyright 1986, Carnegie Mellon
 University), and the Gaussian 82(TM) system (copyright 1983,
 Carnegie Mellon University). Gaussian is a federally registered
 trademark of Gaussian, Inc.
  
 This software contains proprietary and confidential information,
 including trade secrets, belonging to Gaussian, Inc.
  
 This software is provided under written license and may be
 used, copied, transmitted, or stored only in accord with that
 written license.
  
 The following legend is applicable only to US Government
 contracts under FAR:
  
                    RESTRICTED RIGHTS LEGEND
  
 Use, reproduction and disclosure by the US Government is
 subject to restrictions as set forth in subparagraphs (a)
 and (c) of the Commercial Computer Software - Restricted
 Rights clause in FAR 52.227-19.
  
 Gaussian, Inc.
 340 Quinnipiac St., Bldg. 40, Wallingford CT 06492
  
  
 ---------------------------------------------------------------
 Warning -- This program may not be used in any manner that
 competes with the business of Gaussian, Inc. or will provide
 assistance to any competitor of Gaussian, Inc.  The licensee
 of this program is prohibited from giving any competitor of
 Gaussian, Inc. access to this program.  By using this program,
 the user acknowledges that Gaussian, Inc. is engaged in the
 business of creating and licensing software in the field of
 computational chemistry and represents and warrants to the
 licensee that it is not a competitor of Gaussian, Inc. and that
 it will not use this program in any manner prohibited above.
 ---------------------------------------------------------------
  

 Cite this work as:
 Gaussian 16, Revision A.03,
 M. J. Frisch, G. W. Trucks, H. B. Schlegel, G. E. Scuseria, 
 M. A. Robb, J. R. Cheeseman, G. Scalmani, V. Barone, 
 G. A. Petersson, H. Nakatsuji, X. Li, M. Caricato, A. V. Marenich, 
 J. Bloino, B. G. Janesko, R. Gomperts, B. Mennucci, H. P. Hratchian, 
 J. V. Ortiz, A. F. Izmaylov, J. L. Sonnenberg, D. Williams-Young, 
 F. Ding, F. Lipparini, F. Egidi, J. Goings, B. Peng, A. Petrone, 
 T. Henderson, D. Ranasinghe, V. G. Zakrzewski, J. Gao, N. Rega, 
 G. Zheng, W. Liang, M. Hada, M. Ehara, K. Toyota, R. Fukuda, 
 J. Hasegawa, M. Ishida, T. Nakajima, Y. Honda, O. Kitao, H. Nakai, 
 T. Vreven, K. Throssell, J. A. Montgomery, Jr., J. E. Peralta, 
 F. Ogliaro, M. J. Bearpark, J. J. Heyd, E. N. Brothers, K. N. Kudin, 
 V. N. Staroverov, T. A. Keith, R. Kobayashi, J. Normand, 
 K. Raghavachari, A. P. Rendell, J. C. Burant, S. S. Iyengar, 
 J. Tomasi, M. Cossi, J. M. Millam, M. Klene, C. Adamo, R. Cammi, 
 J. W. Ochterski, R. L. Martin, K. Morokuma, O. Farkas, 
 J. B. Foresman, and D. J. Fox, Gaussian, Inc., Wallingford CT, 2016.
 
 ******************************************
 Gaussian 16:  ES64L-G16RevA.03 25-Dec-2016
                24-Jul-2019 
 ******************************************
 %nproc=4
 Will use up to    4 processors via shared memory.
 %Mem=3GB
 --------------------------
 # td=(NStates=1) B3LYP/SVP
 --------------------------
 1/38=1,172=1/1;
 2/12=2,17=6,18=5,40=1/2;
 3/5=18,7=101,11=9,25=1,30=1,74=-5/1,2,3,8;
 4//1;
 5/5=2,38=5/2;
 8/6=1,10=1,108=1/1;
 9/41=1,42=1,70=2/14;
 6/7=2,8=2,9=2,10=2/1;
 99/5=1,9=1/99;
 --
 TD
 --
 Symbolic Z-matrix:
 Charge =  0 Multiplicity = 1
 8                    -3.48587  -1.21654  -2.87348 
 8                     2.96616   3.22968   3.2072 
 8                     3.73      1.38807   4.32053 
 8                     7.63287  -1.6387   -0.57047 
 8                     6.81334  -3.07741  -2.09535 
 8                    -2.6143    1.62001   1.39855 
 7                    -0.21408  -2.45434   0.84383 
 7                    -2.75897  -1.26484  -0.65496 
 7                     1.17473   0.09547  -0.87404 
 7                    -0.98167   1.54295  -0.28479 
 6                    -3.38213  -1.39748   0.63554 
 6                    -2.62483  -2.48636   1.62911 
 6                    -1.19648  -1.99983   1.68225 
 6                    -0.6116   -1.23365   2.72002 
 6                     0.77872  -1.05008   2.45968 
 6                     1.00955  -1.82594   1.15873 
 6                    -4.79347  -1.95708   0.32595 
 6                     1.81027  -0.27118   3.10427 
 6                    -4.86302  -2.16218  -1.05139 
 6                     2.05223  -1.8255    0.18257 
 6                     2.1068   -0.90352  -0.77807 
 6                    -3.66954  -1.55745  -1.63401 
 6                     3.07683  -0.67312  -1.81342 
 6                    -1.37402  -0.60489   3.84174 
 6                    -5.80807  -2.2251    1.44661 
 6                     2.68061   0.45491  -2.48428 
 6                     1.75074   1.31493   2.87472 
 6                     1.42139   0.93743  -1.82386 
 6                     4.30814  -1.48594  -2.05906 
 6                    -5.93992  -2.5733   -1.7877 
 6                     5.44912  -1.21151  -1.11978 
 6                     3.31443   1.29833  -3.57579 
 6                     0.55499   2.05118  -2.02731 
 6                     2.95907   1.91832   3.58421 
 6                    -0.51762   2.38498  -1.1914 
 6                    -6.94944  -3.31432  -1.51568 
 6                     6.64861  -2.12809  -1.34477 
 6                    -1.26147   3.5844   -1.20295 
 6                    -2.25412   3.39256  -0.23339 
 6                    -2.10724   2.05326   0.37174 
 6                    -1.14199   4.62809  -2.17632 
 6                    -3.46218   4.13808   0.16023 
 6                    -1.72918   5.82627  -2.21255 
 1                    -3.38843  -0.54361   1.19751 
 1                    -2.63348  -3.57352   1.18146 
 1                    -3.15699  -2.47573   2.59427 
 1                    -0.39775  -2.94182  -0.03342 
 1                    -2.16285  -0.57204  -0.79719 
 1                     1.70636  -0.44286   4.08128 
 1                     2.84677  -0.62702   2.76946 
 1                     2.85986  -2.416     0.30797 
 1                    -2.21866  -1.51898   3.9413 
 1                    -0.75794  -0.35363   4.88917 
 1                    -1.71673   0.57093   3.51665 
 1                    -5.48164  -1.68651   2.59724 
 1                    -5.82386  -3.25716   2.03402 
 1                    -6.68117  -1.83381   1.13909 
 1                     1.75659   1.51117   1.77277 
 1                     0.78147   1.61689   3.32636 
 1                     0.33337   0.22652  -0.24827 
 1                     4.38763  -1.44741  -3.16994 
 1                     3.93032  -2.56658  -2.09181 
 1                    -5.70236  -2.25445  -2.95499 
 1                     4.95675  -1.26847  -0.16225 
 1                     5.91559  -0.25128  -1.43944 
 1                     4.20689   0.68477  -3.85514 
 1                     3.58221   2.35142  -3.15465 
 1                     2.64001   1.43382  -4.44659 
 1                     0.94925   2.73675  -2.81053 
 1                    -7.59167  -3.53154  -0.44545 
 1                    -7.67828  -3.54914  -2.22438 
 1                     3.90781   3.48964   3.60053 
 1                    -0.5342    4.50933  -3.10584 
 1                    -3.94884   4.3991   -0.86795 
 1                    -4.08698   3.27892   0.73494 
 1                    -3.11121   5.08135   0.7492 
 1                     8.34222  -2.29271  -1.03741 
 1                    -1.69798   6.4091   -3.1233 
 1                    -2.44989   6.37626  -1.40684 
 
 Stoichiometry    C33H36N4O6
 Framework group  C1[X(C33H36N4O6)]
 Deg. of freedom   231
 Full point group                 C1      NOp   1
 Largest Abelian subgroup         C1      NOp   1
 Largest concise Abelian subgroup C1      NOp   1
                         Standard orientation:                         
 ---------------------------------------------------------------------
 Center     Atomic      Atomic             Coordinates (Angstroms)
 Number     Number       Type             X           Y           Z
 ---------------------------------------------------------------------
      1          8           0       -3.466863   -1.082459   -2.950141
      2          8           0        2.977712    3.098046    3.323854
      3          8           0        3.692580    1.216624    4.402608
      4          8           0        7.608949   -1.763074   -0.506467
      5          8           0        6.785256   -3.149614   -2.076757
      6          8           0       -2.604738    1.634544    1.400773
      7          7           0       -0.270532   -2.468599    0.780438
      8          7           0       -2.772274   -1.197172   -0.723724
      9          7           0        1.187926    0.095774   -0.856113
     10          7           0       -0.950201    1.567951   -0.261495
     11          6           0       -3.415839   -1.349246    0.554560
     12          6           0       -2.692295   -2.475289    1.531732
     13          6           0       -1.256318   -2.016389    1.616120
     14          6           0       -0.672448   -1.286119    2.680017
     15          6           0        0.724475   -1.121839    2.443194
     16          6           0        0.959635   -1.870417    1.127126
     17          6           0       -4.832506   -1.875352    0.212282
     18          6           0        1.760668   -0.377606    3.120469
     19          6           0       -4.886319   -2.046107   -1.170433
     20          6           0        2.015801   -1.865686    0.165586
     21          6           0        2.100449   -0.922121   -0.771631
     22          6           0       -3.674076   -1.449535   -1.721909
     23          6           0        3.088952   -0.684782   -1.787758
     24          6           0       -1.439168   -0.670553    3.806111
     25          6           0       -5.867435   -2.151514    1.312171
     26          6           0        2.722553    0.466053   -2.436479
     27          6           0        1.732895    1.214364    2.928578
     28          6           0        1.463026    0.955582   -1.781822
     29          6           0        4.308794   -1.513886   -2.036165
     30          6           0       -5.959949   -2.419693   -1.931114
     31          6           0        5.441181   -1.282960   -1.075033
     32          6           0        3.386742    1.323623   -3.498508
     33          6           0        0.619732    2.089555   -1.970075
     34          6           0        2.941758    1.778380    3.668888
     35          6           0       -0.458369    2.422820   -1.141051
     36          6           0       -6.986353   -3.148410   -1.690908
     37          6           0        6.627062   -2.215687   -1.305742
     38          6           0       -1.180321    3.635583   -1.133720
     39          6           0       -2.189812    3.438779   -0.182729
     40          6           0       -2.075562    2.082905    0.391761
     41          6           0       -1.028407    4.699919   -2.079829
     42          6           0       -3.389703    4.196648    0.212291
     43          6           0       -1.593397    5.909168   -2.095072
     44          1           0       -3.414705   -0.509108    1.136893
     45          1           0       -2.714175   -3.551077    1.057830
     46          1           0       -3.237715   -2.478035    2.489514
     47          1           0       -0.450554   -2.931490   -0.110773
     48          1           0       -2.161864   -0.512193   -0.841004
     49          1           0        1.639941   -0.570701    4.091527
     50          1           0        2.795227   -0.744244    2.791325
     51          1           0        2.810846   -2.473705    0.287676
     52          1           0       -2.301423   -1.571150    3.871986
     53          1           0       -0.833488   -0.455760    4.867622
     54          1           0       -1.756087    0.518794    3.504922
     55          1           0       -5.547624   -1.646695    2.479854
     56          1           0       -5.910044   -3.196884    1.874166
     57          1           0       -6.728944   -1.737059    1.002326
     58          1           0        1.757790    1.436800    1.831882
     59          1           0        0.762935    1.523118    3.374116
     60          1           0        0.340327    0.227175   -0.238892
     61          1           0        4.404613   -1.450226   -3.144606
     62          1           0        3.912125   -2.586336   -2.100210
     63          1           0       -5.700283   -2.077380   -3.086991
     64          1           0        4.934431   -1.353807   -0.125979
     65          1           0        5.929288   -0.324048   -1.364969
     66          1           0        4.271879    0.700704   -3.780415
     67          1           0        3.667444    2.361247   -3.048386
     68          1           0        2.727197    1.492247   -4.374893
     69          1           0        1.037241    2.786348   -2.731019
     70          1           0       -7.647393   -3.379406   -0.635117
     71          1           0       -7.709236   -3.352814   -2.414960
     72          1           0        3.918254    3.331229    3.736175
     73          1           0       -0.409809    4.592351   -3.003567
     74          1           0       -3.857070    4.491070   -0.815817
     75          1           0       -4.037874    3.335549    0.757465
     76          1           0       -3.030175    5.118957    0.828650
     77          1           0        8.312939   -2.418590   -0.979376
     78          1           0       -1.538910    6.512975   -2.990933
     79          1           0       -2.315388    6.452805   -1.286193
 ---------------------------------------------------------------------
 Rotational constants (GHZ):           0.0902740           0.0501647           0.0473418
 Standard basis: SVP (5D, 7F)
 There are   825 symmetry adapted cartesian basis functions of A   symmetry.
 There are   782 symmetry adapted basis functions of A   symmetry.
   782 basis functions,  1327 primitive gaussians,   825 cartesian basis functions
   155 alpha electrons      155 beta electrons
       nuclear repulsion energy      5178.9976410577 Hartrees.
 NAtoms=   79 NActive=   79 NUniq=   79 SFac= 1.00D+00 NAtFMM=   60 NAOKFM=T Big=T
 Integral buffers will be    131072 words long.
 Regular integral format.
 Two-electron integral symmetry is turned on.
 One-electron integrals computed using PRISM.
 NBasis=   782 RedAO= T EigKep=  3.42D-04  NBF=   782
 NBsUse=   782 1.00D-06 EigRej= -1.00D+00 NBFU=   782
 ExpMin= 1.22D-01 ExpMax= 2.27D+03 ExpMxC= 3.41D+02 IAcc=3 IRadAn=         5 AccDes= 0.00D+00
 Harris functional with IExCor=  402 and IRadAn=       5 diagonalized for initial guess.
 HarFok:  IExCor=  402 AccDes= 0.00D+00 IRadAn=         5 IDoV= 1 UseB2=F ITyADJ=14
 ICtDFT=  3500011 ScaDFX=  1.000000  1.000000  1.000000  1.000000
 FoFCou: FMM=F IPFlag=           0 FMFlag=      100000 FMFlg1=        2001
         NFxFlg=           0 DoJE=T BraDBF=F KetDBF=T FulRan=T
         wScrn=  0.000000 ICntrl=       500 IOpCl=  0 I1Cent=   200000004 NGrid=           0
         NMat0=    1 NMatS0=      1 NMatT0=    0 NMatD0=    1 NMtDS0=    0 NMtDT0=    0
 Petite list used in FoFCou.
 Requested convergence on RMS density matrix=1.00D-08 within 128 cycles.
 Requested convergence on MAX density matrix=1.00D-06.
 Requested convergence on             energy=1.00D-06.
 No special actions if energy rises.
 Integral accuracy reduced to 1.0D-05 until final iterations.
 Initial convergence to 1.0D-05 achieved.  Increase integral accuracy.
 SCF Done:  E(RB3LYP) =  -1947.80360143     A.U. after   17 cycles
            NFock= 17  Conv=0.25D-08     -V/T= 2.0106
 DoSCS=F DFT=T ScalE2(SS,OS)=  1.000000  1.000000
 ExpMin= 1.22D-01 ExpMax= 2.27D+03 ExpMxC= 3.41D+02 IAcc=3 IRadAn=         5 AccDes= 0.00D+00
 HarFok:  IExCor=  205 AccDes= 0.00D+00 IRadAn=         5 IDoV=-2 UseB2=F ITyADJ=14
 ICtDFT= 12500011 ScaDFX=  1.000000  1.000000  1.000000  1.000000
 GSVD:  LWork=       -2193 too small for GESVD, short by        9890 words or        9890 for optimal perf.
 Range of M.O.s used for correlation:    44   782
 NBasis=   782 NAE=   155 NBE=   155 NFC=    43 NFV=     0
 NROrb=    739 NOA=   112 NOB=   112 NVA=   627 NVB=   627

 **** Warning!!: The smallest alpha delta epsilon is  0.65632177D-01

 Orbital symmetries:
       Occupied  (A) (A) (A) (A) (A) (A) (A) (A) (A) (A) (A) (A)
                 (A) (A) (A) (A) (A) (A) (A) (A) (A) (A) (A) (A)
                 (A) (A) (A) (A) (A) (A) (A) (A) (A) (A) (A) (A)
                 (A) (A) (A) (A) (A) (A) (A) (A) (A) (A) (A) (A)
                 (A) (A) (A) (A) (A) (A) (A) (A) (A) (A) (A) (A)
                 (A) (A) (A) (A) (A) (A) (A) (A) (A) (A) (A) (A)
                 (A) (A) (A) (A) (A) (A) (A) (A) (A) (A) (A) (A)
                 (A) (A) (A) (A) (A) (A) (A) (A) (A) (A) (A) (A)
                 (A) (A) (A) (A) (A) (A) (A) (A) (A) (A) (A) (A)
                 (A) (A) (A) (A) (A) (A) (A) (A) (A) (A) (A) (A)
                 (A) (A) (A) (A) (A) (A) (A) (A) (A) (A) (A) (A)
                 (A) (A) (A) (A) (A) (A) (A) (A) (A) (A) (A) (A)
                 (A) (A) (A) (A) (A) (A) (A) (A) (A) (A) (A)
       Virtual   (A) (A) (A) (A) (A) (A) (A) (A) (A) (A) (A) (A)
                 (A) (A) (A) (A) (A) (A) (A) (A) (A) (A) (A) (A)
                 (A) (A) (A) (A) (A) (A) (A) (A) (A) (A) (A) (A)
                 (A) (A) (A) (A) (A) (A) (A) (A) (A) (A) (A) (A)
                 (A) (A) (A) (A) (A) (A) (A) (A) (A) (A) (A) (A)
                 (A) (A) (A) (A) (A) (A) (A) (A) (A) (A) (A) (A)
                 (A) (A) (A) (A) (A) (A) (A) (A) (A) (A) (A) (A)
                 (A) (A) (A) (A) (A) (A) (A) (A) (A) (A) (A) (A)
                 (A) (A) (A) (A) (A) (A) (A) (A) (A) (A) (A) (A)
                 (A) (A) (A) (A) (A) (A) (A) (A) (A) (A) (A) (A)
                 (A) (A) (A) (A) (A) (A) (A) (A) (A) (A) (A) (A)
                 (A) (A) (A) (A) (A) (A) (A) (A) (A) (A) (A) (A)
                 (A) (A) (A) (A) (A) (A) (A) (A) (A) (A) (A) (A)
                 (A) (A) (A) (A) (A) (A) (A) (A) (A) (A) (A) (A)
                 (A) (A) (A) (A) (A) (A) (A) (A) (A) (A) (A) (A)
                 (A) (A) (A) (A) (A) (A) (A) (A) (A) (A) (A) (A)
                 (A) (A) (A) (A) (A) (A) (A) (A) (A) (A) (A) (A)
                 (A) (A) (A) (A) (A) (A) (A) (A) (A) (A) (A) (A)
                 (A) (A) (A) (A) (A) (A) (A) (A) (A) (A) (A) (A)
                 (A) (A) (A) (A) (A) (A) (A) (A) (A) (A) (A) (A)
                 (A) (A) (A) (A) (A) (A) (A) (A) (A) (A) (A) (A)
                 (A) (A) (A) (A) (A) (A) (A) (A) (A) (A) (A) (A)
                 (A) (A) (A) (A) (A) (A) (A) (A) (A) (A) (A) (A)
                 (A) (A) (A) (A) (A) (A) (A) (A) (A) (A) (A) (A)
                 (A) (A) (A) (A) (A) (A) (A) (A) (A) (A) (A) (A)
                 (A) (A) (A) (A) (A) (A) (A) (A) (A) (A) (A) (A)
                 (A) (A) (A) (A) (A) (A) (A) (A) (A) (A) (A) (A)
                 (A) (A) (A) (A) (A) (A) (A) (A) (A) (A) (A) (A)
                 (A) (A) (A) (A) (A) (A) (A) (A) (A) (A) (A) (A)
                 (A) (A) (A) (A) (A) (A) (A) (A) (A) (A) (A) (A)
                 (A) (A) (A) (A) (A) (A) (A) (A) (A) (A) (A) (A)
                 (A) (A) (A) (A) (A) (A) (A) (A) (A) (A) (A) (A)
                 (A) (A) (A) (A) (A) (A) (A) (A) (A) (A) (A) (A)
                 (A) (A) (A) (A) (A) (A) (A) (A) (A) (A) (A) (A)
                 (A) (A) (A) (A) (A) (A) (A) (A) (A) (A) (A) (A)
                 (A) (A) (A) (A) (A) (A) (A) (A) (A) (A) (A) (A)
                 (A) (A) (A) (A) (A) (A) (A) (A) (A) (A) (A) (A)
                 (A) (A) (A) (A) (A) (A) (A) (A) (A) (A) (A) (A)
                 (A) (A) (A) (A) (A) (A) (A) (A) (A) (A) (A) (A)
                 (A) (A) (A) (A) (A) (A) (A) (A) (A) (A) (A) (A)
                 (A) (A) (A) (A) (A) (A) (A) (A) (A) (A) (A) (A)
                 (A) (A) (A) (A) (A) (A) (A) (A) (A) (A) (A) (A)
                 (A) (A) (A) (A) (A) (A) (A) (A) (A) (A) (A) (A)
                 (A) (A) (A) (A) (A) (A) (A) (A) (A) (A) (A) (A)
                 (A) (A) (A) (A) (A) (A) (A) (A) (A) (A) (A) (A)
                 (A) (A) (A) (A) (A) (A) (A) (A) (A) (A) (A) (A)
                 (A) (A) (A) (A) (A) (A) (A) (A) (A) (A) (A) (A)
                 (A) (A) (A) (A) (A) (A) (A) (A) (A) (A) (A) (A)
                 (A) (A) (A) (A) (A) (A) (A) (A) (A) (A) (A) (A)
                 (A) (A) (A) (A) (A) (A) (A) (A) (A) (A) (A) (A)
                 (A) (A) (A) (A) (A) (A) (A) (A) (A) (A) (A) (A)
                 (A) (A) (A) (A) (A) (A) (A) (A) (A) (A) (A) (A)
                 (A) (A) (A)
     4 initial guesses have been made.
 Convergence on wavefunction:    0.001000000000000
 Iteration     1 Dimension     4 NMult     0 NNew      4
 CISAX will form     4 AO SS matrices at one time.
 Iteration     2 Dimension     6 NMult     4 NNew      2
 Iteration     3 Dimension     8 NMult     6 NNew      2
 Iteration     4 Dimension    10 NMult     8 NNew      2
 Iteration     5 Dimension    12 NMult    10 NNew      2
 Iteration     6 Dimension    14 NMult    12 NNew      2
 ***********************************************************************
 Excited states from <AA,BB:AA,BB> singles matrix:
 ***********************************************************************
 
 Ground to excited state transition densities written to RWF  633
 Ground to excited state transition electric dipole moments (Au):
       state          X           Y           Z        Dip. S.      Osc.
         1        -0.0321     -0.2461      0.2247      0.1121      0.0030
 Ground to excited state transition velocity dipole moments (Au):
       state          X           Y           Z        Dip. S.      Osc.
         1         0.0039      0.0105     -0.0099      0.0002      0.0037
 Ground to excited state transition magnetic dipole moments (Au):
       state          X           Y           Z
         1         0.1770      0.2378      0.3128
 Ground to excited state transition velocity quadrupole moments (Au):
       state          XX          YY          ZZ          XY          XZ          YZ
         1         0.0175      0.0226     -0.0311     -0.0387     -0.0188      0.0022
 <0|del|b> * <b|rxdel|0> + <0|del|b> * <b|delr+rdel|0>
 Rotatory Strengths (R) in cgs (10**-40 erg-esu-cm/Gauss)
       state          XX          YY          ZZ    R(velocity)    E-M Angle
         1         0.0036    -24.3281     26.2023      0.6259       89.05
 1/2[<0|r|b>*<b|rxdel|0> + (<0|rxdel|b>*<b|r|0>)*]
 Rotatory Strengths (R) in cgs (10**-40 erg-esu-cm/Gauss)
       state          XX          YY          ZZ     R(length)
         1         4.0206     41.3852    -49.7039     -1.4327
  1/2[<0|del|b>*<b|r|0> + (<0|r|b>*<b|del|0>)*] (Au)
       state          X           Y           Z        Dip. S.   Osc.(frdel)
         1        -0.0001     -0.0026     -0.0022      0.0049      0.0033

 Excitation energies and oscillator strengths:
 
 Excited State   1:      Singlet-A      1.0949 eV 1132.34 nm  f=0.0030  <S**2>=0.000
     155 ->156         0.70255
 This state for optimization and/or second-order correction.
 Total Energy, E(TD-HF/TD-DFT) =  -1947.76336312    
 Copying the excited state density for this state as the 1-particle RhoCI density.
 SavETr:  write IOETrn=   770 NScale= 10 NData=  16 NLR=1 NState=    1 LETran=      28.

 **********************************************************************

            Population analysis using the SCF density.

 **********************************************************************

 Orbital symmetries:
       Occupied  (A) (A) (A) (A) (A) (A) (A) (A) (A) (A) (A) (A)
                 (A) (A) (A) (A) (A) (A) (A) (A) (A) (A) (A) (A)
                 (A) (A) (A) (A) (A) (A) (A) (A) (A) (A) (A) (A)
                 (A) (A) (A) (A) (A) (A) (A) (A) (A) (A) (A) (A)
                 (A) (A) (A) (A) (A) (A) (A) (A) (A) (A) (A) (A)
                 (A) (A) (A) (A) (A) (A) (A) (A) (A) (A) (A) (A)
                 (A) (A) (A) (A) (A) (A) (A) (A) (A) (A) (A) (A)
                 (A) (A) (A) (A) (A) (A) (A) (A) (A) (A) (A) (A)
                 (A) (A) (A) (A) (A) (A) (A) (A) (A) (A) (A) (A)
                 (A) (A) (A) (A) (A) (A) (A) (A) (A) (A) (A) (A)
                 (A) (A) (A) (A) (A) (A) (A) (A) (A) (A) (A) (A)
                 (A) (A) (A) (A) (A) (A) (A) (A) (A) (A) (A) (A)
                 (A) (A) (A) (A) (A) (A) (A) (A) (A) (A) (A)
       Virtual   (A) (A) (A) (A) (A) (A) (A) (A) (A) (A) (A) (A)
                 (A) (A) (A) (A) (A) (A) (A) (A) (A) (A) (A) (A)
                 (A) (A) (A) (A) (A) (A) (A) (A) (A) (A) (A) (A)
                 (A) (A) (A) (A) (A) (A) (A) (A) (A) (A) (A) (A)
                 (A) (A) (A) (A) (A) (A) (A) (A) (A) (A) (A) (A)
                 (A) (A) (A) (A) (A) (A) (A) (A) (A) (A) (A) (A)
                 (A) (A) (A) (A) (A) (A) (A) (A) (A) (A) (A) (A)
                 (A) (A) (A) (A) (A) (A) (A) (A) (A) (A) (A) (A)
                 (A) (A) (A) (A) (A) (A) (A) (A) (A) (A) (A) (A)
                 (A) (A) (A) (A) (A) (A) (A) (A) (A) (A) (A) (A)
                 (A) (A) (A) (A) (A) (A) (A) (A) (A) (A) (A) (A)
                 (A) (A) (A) (A) (A) (A) (A) (A) (A) (A) (A) (A)
                 (A) (A) (A) (A) (A) (A) (A) (A) (A) (A) (A) (A)
                 (A) (A) (A) (A) (A) (A) (A) (A) (A) (A) (A) (A)
                 (A) (A) (A) (A) (A) (A) (A) (A) (A) (A) (A) (A)
                 (A) (A) (A) (A) (A) (A) (A) (A) (A) (A) (A) (A)
                 (A) (A) (A) (A) (A) (A) (A) (A) (A) (A) (A) (A)
                 (A) (A) (A) (A) (A) (A) (A) (A) (A) (A) (A) (A)
                 (A) (A) (A) (A) (A) (A) (A) (A) (A) (A) (A) (A)
                 (A) (A) (A) (A) (A) (A) (A) (A) (A) (A) (A) (A)
                 (A) (A) (A) (A) (A) (A) (A) (A) (A) (A) (A) (A)
                 (A) (A) (A) (A) (A) (A) (A) (A) (A) (A) (A) (A)
                 (A) (A) (A) (A) (A) (A) (A) (A) (A) (A) (A) (A)
                 (A) (A) (A) (A) (A) (A) (A) (A) (A) (A) (A) (A)
                 (A) (A) (A) (A) (A) (A) (A) (A) (A) (A) (A) (A)
                 (A) (A) (A) (A) (A) (A) (A) (A) (A) (A) (A) (A)
                 (A) (A) (A) (A) (A) (A) (A) (A) (A) (A) (A) (A)
                 (A) (A) (A) (A) (A) (A) (A) (A) (A) (A) (A) (A)
                 (A) (A) (A) (A) (A) (A) (A) (A) (A) (A) (A) (A)
                 (A) (A) (A) (A) (A) (A) (A) (A) (A) (A) (A) (A)
                 (A) (A) (A) (A) (A) (A) (A) (A) (A) (A) (A) (A)
                 (A) (A) (A) (A) (A) (A) (A) (A) (A) (A) (A) (A)
                 (A) (A) (A) (A) (A) (A) (A) (A) (A) (A) (A) (A)
                 (A) (A) (A) (A) (A) (A) (A) (A) (A) (A) (A) (A)
                 (A) (A) (A) (A) (A) (A) (A) (A) (A) (A) (A) (A)
                 (A) (A) (A) (A) (A) (A) (A) (A) (A) (A) (A) (A)
                 (A) (A) (A) (A) (A) (A) (A) (A) (A) (A) (A) (A)
                 (A) (A) (A) (A) (A) (A) (A) (A) (A) (A) (A) (A)
                 (A) (A) (A) (A) (A) (A) (A) (A) (A) (A) (A) (A)
                 (A) (A) (A) (A) (A) (A) (A) (A) (A) (A) (A) (A)
                 (A) (A) (A) (A) (A) (A) (A) (A) (A) (A) (A) (A)
                 (A) (A) (A) (A) (A) (A) (A) (A) (A) (A) (A) (A)
                 (A) (A) (A) (A) (A) (A) (A) (A) (A) (A) (A) (A)
                 (A) (A) (A) (A) (A) (A) (A) (A) (A) (A) (A) (A)
                 (A) (A) (A) (A) (A) (A) (A) (A) (A) (A) (A) (A)
                 (A) (A) (A) (A) (A) (A) (A) (A) (A) (A) (A) (A)
                 (A) (A) (A) (A) (A) (A) (A) (A) (A) (A) (A) (A)
                 (A) (A) (A) (A) (A) (A) (A) (A) (A) (A) (A) (A)
                 (A) (A) (A) (A) (A) (A) (A) (A) (A) (A) (A) (A)
                 (A) (A) (A) (A) (A) (A) (A) (A) (A) (A) (A) (A)
                 (A) (A) (A) (A) (A) (A) (A) (A) (A) (A) (A) (A)
                 (A) (A) (A) (A) (A) (A) (A) (A) (A) (A) (A) (A)
                 (A) (A) (A)
 The electronic state is 1-A.
 Alpha  occ. eigenvalues --  -19.20418 -19.18692 -19.15205 -19.13820 -19.12631
 Alpha  occ. eigenvalues --  -19.08157 -14.37816 -14.37413 -14.33480 -14.29159
 Alpha  occ. eigenvalues --  -10.34051 -10.32061 -10.27636 -10.27229 -10.26236
 Alpha  occ. eigenvalues --  -10.24783 -10.23927 -10.23232 -10.23066 -10.22612
 Alpha  occ. eigenvalues --  -10.22605 -10.22584 -10.22280 -10.22168 -10.22052
 Alpha  occ. eigenvalues --  -10.21624 -10.21380 -10.21362 -10.21256 -10.20942
 Alpha  occ. eigenvalues --  -10.20818 -10.20699 -10.20591 -10.20475 -10.20445
 Alpha  occ. eigenvalues --  -10.20350 -10.20329 -10.19018 -10.18722 -10.18606
 Alpha  occ. eigenvalues --  -10.18499 -10.18330 -10.17595  -1.11660  -1.09632
 Alpha  occ. eigenvalues --   -1.03118  -1.01915  -1.01728  -1.01385  -0.98862
 Alpha  occ. eigenvalues --   -0.96094  -0.94090  -0.91602  -0.85125  -0.82932
 Alpha  occ. eigenvalues --   -0.82158  -0.80920  -0.80296  -0.79892  -0.78457
 Alpha  occ. eigenvalues --   -0.77229  -0.75926  -0.75421  -0.74219  -0.73344
 Alpha  occ. eigenvalues --   -0.71201  -0.70719  -0.69727  -0.69483  -0.67466
 Alpha  occ. eigenvalues --   -0.65988  -0.65931  -0.63531  -0.61608  -0.60916
 Alpha  occ. eigenvalues --   -0.59599  -0.59099  -0.58043  -0.57369  -0.57150
 Alpha  occ. eigenvalues --   -0.56857  -0.55642  -0.54816  -0.52874  -0.52631
 Alpha  occ. eigenvalues --   -0.52194  -0.51901  -0.51273  -0.50878  -0.50555
 Alpha  occ. eigenvalues --   -0.50387  -0.49554  -0.49037  -0.48896  -0.48687
 Alpha  occ. eigenvalues --   -0.48128  -0.47391  -0.47134  -0.46876  -0.45566
 Alpha  occ. eigenvalues --   -0.45468  -0.45115  -0.45067  -0.44436  -0.43941
 Alpha  occ. eigenvalues --   -0.43822  -0.43651  -0.43412  -0.43242  -0.42816
 Alpha  occ. eigenvalues --   -0.42284  -0.42043  -0.41915  -0.41432  -0.41071
 Alpha  occ. eigenvalues --   -0.40943  -0.40610  -0.40450  -0.40240  -0.39810
 Alpha  occ. eigenvalues --   -0.39208  -0.38845  -0.38553  -0.38009  -0.37749
 Alpha  occ. eigenvalues --   -0.37567  -0.36961  -0.36873  -0.36621  -0.36325
 Alpha  occ. eigenvalues --   -0.35669  -0.35502  -0.35346  -0.34707  -0.34367
 Alpha  occ. eigenvalues --   -0.34019  -0.33801  -0.33092  -0.32788  -0.32415
 Alpha  occ. eigenvalues --   -0.31283  -0.30602  -0.29493  -0.29305  -0.29181
 Alpha  occ. eigenvalues --   -0.28610  -0.27757  -0.25055  -0.24945  -0.23568
 Alpha  occ. eigenvalues --   -0.23070  -0.22909  -0.22715  -0.21819  -0.18912
 Alpha virt. eigenvalues --   -0.12349  -0.07579  -0.05610  -0.01859  -0.00993
 Alpha virt. eigenvalues --    0.00117   0.00685   0.01648   0.01984   0.02790
 Alpha virt. eigenvalues --    0.02928   0.03614   0.04058   0.04458   0.04832
 Alpha virt. eigenvalues --    0.05580   0.05635   0.05796   0.06096   0.06702
 Alpha virt. eigenvalues --    0.07032   0.07459   0.07666   0.07769   0.08131
 Alpha virt. eigenvalues --    0.08939   0.09469   0.09768   0.09986   0.10437
 Alpha virt. eigenvalues --    0.10846   0.10961   0.11453   0.11889   0.12021
 Alpha virt. eigenvalues --    0.12476   0.12557   0.12961   0.13346   0.14087
 Alpha virt. eigenvalues --    0.14599   0.14646   0.15300   0.15658   0.15776
 Alpha virt. eigenvalues --    0.16207   0.16644   0.16789   0.17634   0.17833
 Alpha virt. eigenvalues --    0.18393   0.18660   0.19389   0.19851   0.19920
 Alpha virt. eigenvalues --    0.20565   0.21334   0.21691   0.22128   0.22484
 Alpha virt. eigenvalues --    0.22644   0.23107   0.23609   0.23694   0.24790
 Alpha virt. eigenvalues --    0.25715   0.25811   0.26256   0.26736   0.27132
 Alpha virt. eigenvalues --    0.27356   0.27731   0.28264   0.28557   0.28791
 Alpha virt. eigenvalues --    0.29060   0.30540   0.30830   0.31411   0.31697
 Alpha virt. eigenvalues --    0.31912   0.32752   0.33164   0.33736   0.34185
 Alpha virt. eigenvalues --    0.34451   0.34898   0.35241   0.35611   0.36926
 Alpha virt. eigenvalues --    0.37331   0.38027   0.38660   0.39037   0.39995
 Alpha virt. eigenvalues --    0.40155   0.40421   0.40916   0.41806   0.41871
 Alpha virt. eigenvalues --    0.42132   0.42236   0.43061   0.43170   0.43486
 Alpha virt. eigenvalues --    0.43824   0.43915   0.44118   0.44528   0.44688
 Alpha virt. eigenvalues --    0.45466   0.46064   0.46214   0.46434   0.46576
 Alpha virt. eigenvalues --    0.46895   0.47144   0.47768   0.47954   0.48156
 Alpha virt. eigenvalues --    0.48387   0.49125   0.49378   0.49546   0.49705
 Alpha virt. eigenvalues --    0.50223   0.50719   0.50772   0.51079   0.51197
 Alpha virt. eigenvalues --    0.51338   0.52027   0.52253   0.52731   0.52803
 Alpha virt. eigenvalues --    0.53117   0.53307   0.54457   0.54574   0.55127
 Alpha virt. eigenvalues --    0.55376   0.55753   0.56261   0.56585   0.56668
 Alpha virt. eigenvalues --    0.57563   0.57953   0.58210   0.58352   0.58722
 Alpha virt. eigenvalues --    0.59022   0.59280   0.59383   0.59583   0.59805
 Alpha virt. eigenvalues --    0.60027   0.60277   0.60580   0.60838   0.61131
 Alpha virt. eigenvalues --    0.61348   0.61968   0.62148   0.62437   0.62666
 Alpha virt. eigenvalues --    0.62943   0.63344   0.63609   0.64159   0.64228
 Alpha virt. eigenvalues --    0.64496   0.64659   0.65042   0.65435   0.65613
 Alpha virt. eigenvalues --    0.65858   0.66084   0.66210   0.66568   0.66843
 Alpha virt. eigenvalues --    0.67034   0.67311   0.67377   0.67800   0.67961
 Alpha virt. eigenvalues --    0.68202   0.68439   0.68892   0.68999   0.69230
 Alpha virt. eigenvalues --    0.69630   0.70145   0.70585   0.70733   0.71003
 Alpha virt. eigenvalues --    0.71243   0.72130   0.72627   0.72940   0.72970
 Alpha virt. eigenvalues --    0.73616   0.73778   0.74280   0.74727   0.74869
 Alpha virt. eigenvalues --    0.75134   0.75675   0.75902   0.76387   0.76911
 Alpha virt. eigenvalues --    0.77837   0.78235   0.78706   0.79205   0.79435
 Alpha virt. eigenvalues --    0.79941   0.80283   0.80839   0.81486   0.81737
 Alpha virt. eigenvalues --    0.81833   0.82549   0.82759   0.83871   0.84390
 Alpha virt. eigenvalues --    0.85083   0.85566   0.86133   0.86613   0.87664
 Alpha virt. eigenvalues --    0.88098   0.88386   0.88633   0.88795   0.90139
 Alpha virt. eigenvalues --    0.90336   0.90381   0.92162   0.92373   0.93171
 Alpha virt. eigenvalues --    0.93253   0.93672   0.94103   0.94856   0.95592
 Alpha virt. eigenvalues --    0.95748   0.96812   0.97055   0.97121   0.97781
 Alpha virt. eigenvalues --    0.98632   0.98935   0.99576   1.00518   1.01766
 Alpha virt. eigenvalues --    1.03206   1.04492   1.04962   1.05580   1.06341
 Alpha virt. eigenvalues --    1.07014   1.07598   1.08381   1.08738   1.09347
 Alpha virt. eigenvalues --    1.10046   1.10590   1.10842   1.11263   1.12018
 Alpha virt. eigenvalues --    1.12699   1.12892   1.13568   1.14291   1.15003
 Alpha virt. eigenvalues --    1.15853   1.16208   1.16393   1.16977   1.17839
 Alpha virt. eigenvalues --    1.19072   1.19418   1.19785   1.20679   1.21898
 Alpha virt. eigenvalues --    1.22222   1.22947   1.23893   1.24695   1.25286
 Alpha virt. eigenvalues --    1.25540   1.26222   1.26471   1.26746   1.27670
 Alpha virt. eigenvalues --    1.28323   1.28446   1.29214   1.30087   1.30733
 Alpha virt. eigenvalues --    1.31308   1.32055   1.32524   1.32671   1.33145
 Alpha virt. eigenvalues --    1.33741   1.33909   1.34301   1.36157   1.36742
 Alpha virt. eigenvalues --    1.37053   1.37912   1.38608   1.38937   1.39318
 Alpha virt. eigenvalues --    1.39666   1.40177   1.43405   1.43826   1.44618
 Alpha virt. eigenvalues --    1.45132   1.45781   1.46200   1.46540   1.46766
 Alpha virt. eigenvalues --    1.47252   1.47778   1.48358   1.48997   1.49756
 Alpha virt. eigenvalues --    1.51013   1.52309   1.53011   1.53389   1.53666
 Alpha virt. eigenvalues --    1.54296   1.55102   1.55293   1.55559   1.56419
 Alpha virt. eigenvalues --    1.56869   1.57430   1.58086   1.58755   1.59410
 Alpha virt. eigenvalues --    1.59911   1.60400   1.61855   1.62145   1.62375
 Alpha virt. eigenvalues --    1.62749   1.63667   1.63712   1.64031   1.64906
 Alpha virt. eigenvalues --    1.65646   1.66071   1.66177   1.66533   1.66622
 Alpha virt. eigenvalues --    1.67051   1.67477   1.67734   1.67869   1.68398
 Alpha virt. eigenvalues --    1.68706   1.69223   1.69506   1.70011   1.70450
 Alpha virt. eigenvalues --    1.70934   1.71124   1.71274   1.71914   1.72447
 Alpha virt. eigenvalues --    1.73109   1.73309   1.73588   1.73823   1.74878
 Alpha virt. eigenvalues --    1.74990   1.75435   1.75927   1.76611   1.76811
 Alpha virt. eigenvalues --    1.77089   1.77598   1.78257   1.78327   1.79065
 Alpha virt. eigenvalues --    1.79347   1.79404   1.80076   1.80397   1.80810
 Alpha virt. eigenvalues --    1.81129   1.81446   1.81729   1.82035   1.82950
 Alpha virt. eigenvalues --    1.83081   1.83540   1.84107   1.84858   1.85267
 Alpha virt. eigenvalues --    1.85913   1.86588   1.87002   1.87424   1.87641
 Alpha virt. eigenvalues --    1.87976   1.88729   1.89494   1.89712   1.89890
 Alpha virt. eigenvalues --    1.90482   1.91136   1.91431   1.92070   1.92424
 Alpha virt. eigenvalues --    1.92732   1.93302   1.93475   1.93961   1.94559
 Alpha virt. eigenvalues --    1.94987   1.95184   1.95389   1.95753   1.96178
 Alpha virt. eigenvalues --    1.97055   1.97191   1.97249   1.97910   1.98248
 Alpha virt. eigenvalues --    1.98484   1.99809   2.00677   2.00681   2.01342
 Alpha virt. eigenvalues --    2.01932   2.02653   2.02814   2.03312   2.03865
 Alpha virt. eigenvalues --    2.03908   2.04050   2.05116   2.05762   2.06211
 Alpha virt. eigenvalues --    2.06579   2.07471   2.07743   2.08083   2.08599
 Alpha virt. eigenvalues --    2.08746   2.09394   2.09975   2.10811   2.11620
 Alpha virt. eigenvalues --    2.12237   2.13004   2.13392   2.13669   2.13992
 Alpha virt. eigenvalues --    2.14484   2.14892   2.14971   2.16101   2.16979
 Alpha virt. eigenvalues --    2.17504   2.18149   2.19180   2.19785   2.21446
 Alpha virt. eigenvalues --    2.22520   2.22824   2.23625   2.24035   2.24428
 Alpha virt. eigenvalues --    2.24717   2.25282   2.25994   2.27251   2.28043
 Alpha virt. eigenvalues --    2.28379   2.28498   2.29735   2.30235   2.31624
 Alpha virt. eigenvalues --    2.32280   2.32549   2.32994   2.33660   2.34733
 Alpha virt. eigenvalues --    2.35130   2.35687   2.36403   2.36486   2.36747
 Alpha virt. eigenvalues --    2.36895   2.37681   2.38339   2.40188   2.41474
 Alpha virt. eigenvalues --    2.41680   2.42151   2.42898   2.44270   2.44629
 Alpha virt. eigenvalues --    2.45115   2.45699   2.46749   2.47513   2.47727
 Alpha virt. eigenvalues --    2.48192   2.49141   2.50825   2.51136   2.53012
 Alpha virt. eigenvalues --    2.53152   2.53616   2.54760   2.55709   2.57298
 Alpha virt. eigenvalues --    2.59115   2.60084   2.61058   2.61456   2.61921
 Alpha virt. eigenvalues --    2.62796   2.63450   2.63674   2.65218   2.65783
 Alpha virt. eigenvalues --    2.66494   2.66658   2.67216   2.67823   2.68342
 Alpha virt. eigenvalues --    2.68789   2.69446   2.69838   2.70424   2.70765
 Alpha virt. eigenvalues --    2.71449   2.71850   2.72065   2.72167   2.73028
 Alpha virt. eigenvalues --    2.73977   2.74303   2.75317   2.76829   2.77461
 Alpha virt. eigenvalues --    2.77857   2.78072   2.78235   2.78683   2.79276
 Alpha virt. eigenvalues --    2.80257   2.80961   2.81507   2.82014   2.83001
 Alpha virt. eigenvalues --    2.83365   2.83813   2.83921   2.84564   2.85453
 Alpha virt. eigenvalues --    2.85817   2.86194   2.87930   2.88128   2.88264
 Alpha virt. eigenvalues --    2.89071   2.90040   2.90275   2.91582   2.92913
 Alpha virt. eigenvalues --    2.93827   2.94672   2.95509   2.97419   2.99907
 Alpha virt. eigenvalues --    3.01437   3.02045   3.02782   3.04638   3.05613
 Alpha virt. eigenvalues --    3.07417   3.07568   3.07652   3.10105   3.10371
 Alpha virt. eigenvalues --    3.11992   3.12971   3.14225   3.14779   3.15980
 Alpha virt. eigenvalues --    3.17137   3.17577   3.19792   3.20380   3.21363
 Alpha virt. eigenvalues --    3.22261   3.23592   3.26660   3.28333   3.31656
 Alpha virt. eigenvalues --    3.34567   3.35663   3.37719   3.38370   3.41322
 Alpha virt. eigenvalues --    3.44449   3.49897   3.51178   3.52200   3.57858
 Alpha virt. eigenvalues --    3.58881   3.62113   3.64160   3.66246   3.67429
 Alpha virt. eigenvalues --    3.70331   3.74182
          Condensed to atoms (all electrons):
 Mulliken charges:
               1
     1  O   -0.317552
     2  O   -0.223474
     3  O   -0.199844
     4  O   -0.212749
     5  O   -0.234895
     6  O   -0.213489
     7  N   -0.060165
     8  N   -0.088787
     9  N   -0.014598
    10  N   -0.315731
    11  C    0.095455
    12  C    0.129385
    13  C   -0.086180
    14  C   -0.072954
    15  C   -0.069487
    16  C   -0.026171
    17  C   -0.119288
    18  C    0.140533
    19  C   -0.010841
    20  C   -0.106538
    21  C    0.131740
    22  C    0.142127
    23  C   -0.101667
    24  C   -0.092299
    25  C    0.016267
    26  C   -0.130797
    27  C   -0.038497
    28  C    0.024698
    29  C    0.041011
    30  C   -0.029992
    31  C    0.081295
    32  C    0.069891
    33  C   -0.096748
    34  C    0.150557
    35  C    0.123676
    36  C   -0.080814
    37  C    0.152570
    38  C    0.128699
    39  C   -0.233818
    40  C    0.188978
    41  C   -0.050362
    42  C    0.011376
    43  C   -0.089608
    44  H    0.013618
    45  H    0.008208
    46  H   -0.000594
    47  H    0.120557
    48  H    0.079492
    49  H   -0.032269
    50  H    0.003116
    51  H   -0.044777
    52  H    0.039573
    53  H    0.033473
    54  H    0.086505
    55  H    0.026558
    56  H    0.064678
    57  H    0.026978
    58  H    0.043096
    59  H    0.053783
    60  H    0.192248
    61  H    0.014420
    62  H    0.022767
    63  H    0.048270
    64  H    0.049342
    65  H    0.051370
    66  H    0.022643
    67  H    0.057664
    68  H    0.046742
    69  H   -0.022505
    70  H    0.030554
    71  H    0.002145
    72  H    0.195634
    73  H    0.007561
    74  H    0.052563
    75  H    0.063757
    76  H    0.062522
    77  H    0.207550
    78  H    0.019017
    79  H    0.042828
 Sum of Mulliken charges =  -0.00000
 Mulliken charges with hydrogens summed into heavy atoms:
               1
     1  O   -0.317552
     2  O   -0.027840
     3  O   -0.199844
     4  O   -0.005199
     5  O   -0.234895
     6  O   -0.213489
     7  N    0.060393
     8  N   -0.009296
     9  N    0.177650
    10  N   -0.315731
    11  C    0.109073
    12  C    0.136999
    13  C   -0.086180
    14  C   -0.072954
    15  C   -0.069487
    16  C   -0.026171
    17  C   -0.119288
    18  C    0.111380
    19  C   -0.010841
    20  C   -0.151315
    21  C    0.131740
    22  C    0.142127
    23  C   -0.101667
    24  C    0.067251
    25  C    0.134481
    26  C   -0.130797
    27  C    0.058383
    28  C    0.024698
    29  C    0.078198
    30  C    0.018278
    31  C    0.182008
    32  C    0.196939
    33  C   -0.119253
    34  C    0.150557
    35  C    0.123676
    36  C   -0.048116
    37  C    0.152570
    38  C    0.128699
    39  C   -0.233818
    40  C    0.188978
    41  C   -0.042800
    42  C    0.190219
    43  C   -0.027763
 Electronic spatial extent (au):  <R**2>=          26055.6311
 Charge=             -0.0000 electrons
 Dipole moment (field-independent basis, Debye):
    X=              3.9784    Y=              1.9301    Z=             -0.3634  Tot=              4.4368
 Quadrupole moment (field-independent basis, Debye-Ang):
   XX=           -235.0199   YY=           -242.7462   ZZ=           -269.3792
   XY=              9.9412   XZ=            -24.9109   YZ=            -12.7449
 Traceless Quadrupole moment (field-independent basis, Debye-Ang):
   XX=             14.0285   YY=              6.3022   ZZ=            -20.3308
   XY=              9.9412   XZ=            -24.9109   YZ=            -12.7449
 Octapole moment (field-independent basis, Debye-Ang**2):
  XXX=            156.1315  YYY=             80.7911  ZZZ=             -3.6064  XYY=             -8.7325
  XXY=              4.9928  XXZ=             27.2481  XZZ=             38.2037  YZZ=             64.5660
  YYZ=             14.7265  XYZ=             20.7725
 Hexadecapole moment (field-independent basis, Debye-Ang**3):
 XXXX=         -17540.5970 YYYY=          -8362.7015 ZZZZ=          -7053.8197 XXXY=            165.5802
 XXXZ=           -327.6102 YYYX=            -62.8780 YYYZ=            -44.6189 ZZZX=           -291.6571
 ZZZY=             34.5237 XXYY=          -4614.8614 XXZZ=          -4716.8994 YYZZ=          -2463.7515
 XXYZ=           -173.8562 YYXZ=            209.6577 ZZXY=            166.6731
 N-N= 5.178997641058D+03 E-N=-1.488629521040D+04  KE= 1.927314441776D+03
 1\1\GINC-PADAWAN\SP\RB3LYP TD-FC\SVP\C33H36N4O6\PADAWAN\24-Jul-2019\0\
 \# td=(NStates=1) B3LYP/SVP\\TD\\0,1\O,0,-3.4858654967,-1.2165367092,-
 2.8734780021\O,0,2.9661570705,3.229684627,3.2072049914\O,0,3.729997307
 9,1.3880659349,4.3205264962\O,0,7.6328718901,-1.6386999842,-0.57046780
 86\O,0,6.8133354899,-3.0774085358,-2.0953459827\O,0,-2.6143023367,1.62
 00074898,1.3985499155\N,0,-0.2140771539,-2.4543417485,0.8438292237\N,0
 ,-2.7589679348,-1.2648416192,-0.6549576404\N,0,1.1747290223,0.09547045
 67,-0.8740423414\N,0,-0.9816673122,1.5429497029,-0.2847893768\C,0,-3.3
 82133363,-1.3974773101,0.635540528\C,0,-2.6248311092,-2.4863627825,1.6
 291082176\C,0,-1.1964752892,-1.9998277968,1.6822462132\C,0,-0.61160096
 24,-1.2336545572,2.7200200225\C,0,0.7787189845,-1.050080009,2.45967716
 23\C,0,1.0095536416,-1.8259390286,1.1587306771\C,0,-4.793474294,-1.957
 0813568,0.3259494822\C,0,1.810265618,-0.2711774473,3.1042725818\C,0,-4
 .8630226637,-2.1621849269,-1.051385479\C,0,2.0522331797,-1.8255007423,
 0.1825705358\C,0,2.1067967016,-0.9035222644,-0.7780717087\C,0,-3.66954
 16241,-1.5574477101,-1.6340106845\C,0,3.0768287461,-0.6731180601,-1.81
 34152404\C,0,-1.3740159738,-0.6048943464,3.8417396823\C,0,-5.808066030
 7,-2.2250989902,1.4466056662\C,0,2.6806077177,0.4549128595,-2.48428303
 83\C,0,1.7507445069,1.3149271847,2.874724114\C,0,1.4213855051,0.937430
 3916,-1.8238584918\C,0,4.3081361627,-1.4859380229,-2.0590555357\C,0,-5
 .9399183279,-2.5732994203,-1.7877022184\C,0,5.449120463,-1.2115128965,
 -1.1197753944\C,0,3.3144315386,1.2983282354,-3.5757940886\C,0,0.554987
 9229,2.0511802649,-2.0273144765\C,0,2.9590745478,1.9183214176,3.584213
 7666\C,0,-0.5176155932,2.3849831305,-1.1914044283\C,0,-6.9494388704,-3
 .3143151956,-1.5156801267\C,0,6.648614431,-2.1280910642,-1.3447651665\
 C,0,-1.2614748023,3.5844006733,-1.2029483695\C,0,-2.2541195014,3.39255
 9735,-0.2333912453\C,0,-2.1072429967,2.0532562591,0.3717361056\C,0,-1.
 1419941778,4.6280890691,-2.1763193999\C,0,-3.4621768542,4.1380842913,0
 .1602302627\C,0,-1.7291768089,5.826268045,-2.2125549883\H,0,-3.3884273
 359,-0.5436098509,1.197513956\H,0,-2.6334849749,-3.5735224772,1.181458
 4949\H,0,-3.1569855184,-2.4757310175,2.5942688156\H,0,-0.3977450793,-2
 .9418229474,-0.0334163316\H,0,-2.1628546752,-0.5720435079,-0.797193821
 8\H,0,1.7063585973,-0.4428557394,4.0812802271\H,0,2.8467720101,-0.6270
 245938,2.7694618756\H,0,2.8598648004,-2.4160031832,0.3079738506\H,0,-2
 .2186644957,-1.5189811721,3.9413011919\H,0,-0.7579355616,-0.3536295666
 ,4.889165273\H,0,-1.7167309869,0.5709295397,3.5166504303\H,0,-5.481638
 9511,-1.6865067819,2.5972440174\H,0,-5.8238611468,-3.2571598206,2.0340
 162479\H,0,-6.6811654933,-1.8338090243,1.1390902707\H,0,1.7565917986,1
 .511171059,1.7727748888\H,0,0.7814680983,1.6168939337,3.3263606098\H,0
 ,0.3333715948,0.2265170215,-0.248266859\H,0,4.3876344826,-1.4474077998
 ,-3.1699425962\H,0,3.9303238622,-2.566578437,-2.0918062886\H,0,-5.7023
 623746,-2.2544463692,-2.9549889627\H,0,4.9567535967,-1.2684673266,-0.1
 622530016\H,0,5.9155930006,-0.2512821243,-1.4394384263\H,0,4.206890600
 6,0.6847749696,-3.8551437439\H,0,3.582213973,2.3514162203,-3.154647800
 2\H,0,2.6400097903,1.4338178797,-4.4465878108\H,0,0.9492488349,2.73674
 5171,-2.8105319452\H,0,-7.5916682529,-3.5315353374,-0.4454535666\H,0,-
 7.6782760925,-3.5491362441,-2.224375491\H,0,3.907814509,3.4896383248,3
 .6005333075\H,0,-0.5341972985,4.5093322127,-3.1058384792\H,0,-3.948843
 4739,4.3990964914,-0.8679479463\H,0,-4.0869774474,3.2789226859,0.73494
 43058\H,0,-3.1112094371,5.0813484259,0.74920069\H,0,8.3422199155,-2.29
 27124254,-1.0374143764\H,0,-1.6979827229,6.4091013672,-3.1232971819\H,
 0,-2.4498873416,6.3762590017,-1.4068365912\\Version=ES64L-G16RevA.03\S
 tate=1-A\HF=-1947.8036014\RMSD=2.510e-09\PG=C01 [X(C33H36N4O6)]\\@


    UPON JULIA'S CLOTHES

 WHENAS IN SILKS MY JULIA GOES,
 THEN, THEN, METHINKS, HOW SWEETLY FLOWS
 THAT LIQUEFACTION OF HER CLOTHES.

 NEXT, WHEN I CAST MINE EYES, AND SEE
 THAT BRAVE VIBRATION, EACH WAY FREE,
 O, HOW THAT GLITTERING TAKETH ME!
     -- ROBERT HERRICK, 1648
 Job cpu time:       0 days  4 hours 16 minutes 17.3 seconds.
 Elapsed time:       0 days  1 hours  4 minutes 10.1 seconds.
 File lengths (MBytes):  RWF=   2533 Int=      0 D2E=      0 Chk=     63 Scr=      1
 Normal termination of Gaussian 16 at Wed Jul 24 10:43:59 2019.
