 Entering Gaussian System, Link 0=g16
 Input=Geometria-92-.com
 Output=Geometria-92-.log
 Initial command:
 /usr/local/g16/l1.exe "/home/padawan/israel-mol/dihydrobiliverdin/spectra/emi/Gau-22095.inp" -scrdir="/home/padawan/israel-mol/dihydrobiliverdin/spectra/emi/"
 Entering Link 1 = /usr/local/g16/l1.exe PID=     22097.
  
 Copyright (c) 1988,1990,1992,1993,1995,1998,2003,2009,2016,
            Gaussian, Inc.  All Rights Reserved.
  
 This is part of the Gaussian(R) 16 program.  It is based on
 the Gaussian(R) 09 system (copyright 2009, Gaussian, Inc.),
 the Gaussian(R) 03 system (copyright 2003, Gaussian, Inc.),
 the Gaussian(R) 98 system (copyright 1998, Gaussian, Inc.),
 the Gaussian(R) 94 system (copyright 1995, Gaussian, Inc.),
 the Gaussian 92(TM) system (copyright 1992, Gaussian, Inc.),
 the Gaussian 90(TM) system (copyright 1990, Gaussian, Inc.),
 the Gaussian 88(TM) system (copyright 1988, Gaussian, Inc.),
 the Gaussian 86(TM) system (copyright 1986, Carnegie Mellon
 University), and the Gaussian 82(TM) system (copyright 1983,
 Carnegie Mellon University). Gaussian is a federally registered
 trademark of Gaussian, Inc.
  
 This software contains proprietary and confidential information,
 including trade secrets, belonging to Gaussian, Inc.
  
 This software is provided under written license and may be
 used, copied, transmitted, or stored only in accord with that
 written license.
  
 The following legend is applicable only to US Government
 contracts under FAR:
  
                    RESTRICTED RIGHTS LEGEND
  
 Use, reproduction and disclosure by the US Government is
 subject to restrictions as set forth in subparagraphs (a)
 and (c) of the Commercial Computer Software - Restricted
 Rights clause in FAR 52.227-19.
  
 Gaussian, Inc.
 340 Quinnipiac St., Bldg. 40, Wallingford CT 06492
  
  
 ---------------------------------------------------------------
 Warning -- This program may not be used in any manner that
 competes with the business of Gaussian, Inc. or will provide
 assistance to any competitor of Gaussian, Inc.  The licensee
 of this program is prohibited from giving any competitor of
 Gaussian, Inc. access to this program.  By using this program,
 the user acknowledges that Gaussian, Inc. is engaged in the
 business of creating and licensing software in the field of
 computational chemistry and represents and warrants to the
 licensee that it is not a competitor of Gaussian, Inc. and that
 it will not use this program in any manner prohibited above.
 ---------------------------------------------------------------
  

 Cite this work as:
 Gaussian 16, Revision A.03,
 M. J. Frisch, G. W. Trucks, H. B. Schlegel, G. E. Scuseria, 
 M. A. Robb, J. R. Cheeseman, G. Scalmani, V. Barone, 
 G. A. Petersson, H. Nakatsuji, X. Li, M. Caricato, A. V. Marenich, 
 J. Bloino, B. G. Janesko, R. Gomperts, B. Mennucci, H. P. Hratchian, 
 J. V. Ortiz, A. F. Izmaylov, J. L. Sonnenberg, D. Williams-Young, 
 F. Ding, F. Lipparini, F. Egidi, J. Goings, B. Peng, A. Petrone, 
 T. Henderson, D. Ranasinghe, V. G. Zakrzewski, J. Gao, N. Rega, 
 G. Zheng, W. Liang, M. Hada, M. Ehara, K. Toyota, R. Fukuda, 
 J. Hasegawa, M. Ishida, T. Nakajima, Y. Honda, O. Kitao, H. Nakai, 
 T. Vreven, K. Throssell, J. A. Montgomery, Jr., J. E. Peralta, 
 F. Ogliaro, M. J. Bearpark, J. J. Heyd, E. N. Brothers, K. N. Kudin, 
 V. N. Staroverov, T. A. Keith, R. Kobayashi, J. Normand, 
 K. Raghavachari, A. P. Rendell, J. C. Burant, S. S. Iyengar, 
 J. Tomasi, M. Cossi, J. M. Millam, M. Klene, C. Adamo, R. Cammi, 
 J. W. Ochterski, R. L. Martin, K. Morokuma, O. Farkas, 
 J. B. Foresman, and D. J. Fox, Gaussian, Inc., Wallingford CT, 2016.
 
 ******************************************
 Gaussian 16:  ES64L-G16RevA.03 25-Dec-2016
                25-Jul-2019 
 ******************************************
 %nproc=4
 Will use up to    4 processors via shared memory.
 %Mem=3GB
 --------------------------
 # td=(NStates=1) B3LYP/SVP
 --------------------------
 1/38=1,172=1/1;
 2/12=2,17=6,18=5,40=1/2;
 3/5=18,7=101,11=9,25=1,30=1,74=-5/1,2,3,8;
 4//1;
 5/5=2,38=5/2;
 8/6=1,10=1,108=1/1;
 9/41=1,42=1,70=2/14;
 6/7=2,8=2,9=2,10=2/1;
 99/5=1,9=1/99;
 --
 TD
 --
 Symbolic Z-matrix:
 Charge =  0 Multiplicity = 1
 8                    -3.38172  -1.27791  -2.92452 
 8                     2.90692   3.24049   3.32187 
 8                     3.77619   1.47365   4.38095 
 8                     7.64471  -1.74866  -0.51848 
 8                     6.80094  -2.86323  -2.45741 
 8                    -2.65794   1.63543   1.37492 
 7                    -0.25467  -2.43057   0.9566 
 7                    -2.72779  -1.26013  -0.67391 
 7                     1.17115   0.11513  -0.68601 
 7                    -0.98286   1.46872  -0.17582 
 6                    -3.34248  -1.29002   0.61748 
 6                    -2.6485   -2.27194   1.56358 
 6                    -1.18997  -1.98167   1.76426 
 6                    -0.62338  -1.16098   2.8277 
 6                     0.84057  -1.11929   2.49658 
 6                     0.96486  -1.87534   1.28256 
 6                    -4.69652  -1.84497   0.28285 
 6                     1.84019  -0.44262   3.34076 
 6                    -4.80716  -2.01107  -1.03379 
 6                     2.02634  -1.81404   0.30971 
 6                     2.04246  -0.78087  -0.64414 
 6                    -3.568    -1.54175  -1.6994 
 6                     3.05509  -0.70861  -1.80324 
 6                    -1.27166  -0.52404   3.96596 
 6                    -5.7738   -2.28983   1.29125 
 6                     2.51675   0.41675  -2.45917 
 6                     2.02453   1.10538   2.87722 
 6                     1.43918   0.95682  -1.7868 
 6                     4.16798  -1.56463  -1.98588 
 6                    -5.83397  -2.6064   -1.99205 
 6                     5.41484  -1.2183   -1.0453 
 6                     3.01368   1.01518  -3.90679 
 6                     0.59643   2.10894  -2.01302 
 6                     2.9455    1.8651    3.60888 
 6                    -0.56463   2.35066  -1.19109 
 6                    -6.86166  -3.33497  -1.74346 
 6                     6.62755  -2.06639  -1.47827 
 6                    -1.39467   3.49041  -1.28909 
 6                    -2.26119   3.35433  -0.20998 
 6                    -2.03673   2.06977   0.40317 
 6                    -1.21485   4.6192   -2.20928 
 6                    -3.37707   4.34884   0.29634 
 6                    -1.97999   5.74272  -2.34876 
 1                    -3.40696  -0.21612   1.08033 
 1                    -2.90603  -3.37669   1.16422 
 1                    -3.19122  -2.23265   2.50754 
 1                    -0.65885  -2.57669   0.09124 
 1                    -2.04635  -0.30135  -0.77335 
 1                     1.586    -0.57061   4.34116 
 1                     2.87799  -0.85037   3.1337 
 1                     2.92059  -2.61122   0.38396 
 1                    -1.97219  -1.25118   4.53196 
 1                    -0.48048  -0.04141   4.54157 
 1                    -1.78663   0.46684   3.62633 
 1                    -5.73966  -1.67768   2.24742 
 1                    -5.52294  -3.24047   1.45426 
 1                    -6.74408  -2.22328   0.8513 
 1                     2.22675   1.04972   1.7387 
 1                     0.96359   1.50046   2.95657 
 1                     0.30126   0.37214  -0.28985 
 1                     4.64377  -1.57096  -3.06138 
 1                     3.84548  -2.60932  -1.99285 
 1                    -5.74506  -2.2233   -3.01849 
 1                     5.25167  -1.334     0.10161 
 1                     5.49832  -0.20054  -1.12608 
 1                     3.83675   0.2018   -4.2494 
 1                     3.55039   2.00571  -3.79541 
 1                     2.04635   1.05897  -4.6387 
 1                     0.94499   2.69924  -2.91154 
 1                    -7.13064  -3.73792  -0.78066 
 1                    -7.45554  -3.81558  -2.66555 
 1                     3.80079   3.3825    3.85845 
 1                    -0.34422   4.6714   -2.92709 
 1                    -4.1887    4.31742  -0.49704 
 1                    -3.68197   3.85769   1.2601 
 1                    -2.8803    5.44525   0.4071 
 1                     8.31608  -2.4107   -0.98014 
 1                    -1.72167   6.17026  -3.33528 
 1                    -2.9214    5.88684  -1.82213 
 
 Stoichiometry    C33H36N4O6
 Framework group  C1[X(C33H36N4O6)]
 Deg. of freedom   231
 Full point group                 C1      NOp   1
 Largest Abelian subgroup         C1      NOp   1
 Largest concise Abelian subgroup C1      NOp   1
                         Standard orientation:                         
 ---------------------------------------------------------------------
 Center     Atomic      Atomic             Coordinates (Angstroms)
 Number     Number       Type             X           Y           Z
 ---------------------------------------------------------------------
      1          8           0       -3.398834   -1.518941   -2.780879
      2          8           0        2.929638    3.516304    3.013687
      3          8           0        3.804441    1.846791    4.216364
      4          8           0        7.641710   -1.790970   -0.409141
      5          8           0        6.785695   -3.068163   -2.239351
      6          8           0       -2.647665    1.754510    1.246138
      7          7           0       -0.248941   -2.334844    1.166603
      8          7           0       -2.731310   -1.307285   -0.544185
      9          7           0        1.168154    0.057862   -0.698481
     10          7           0       -0.982073    1.452661   -0.294366
     11          6           0       -3.338190   -1.224782    0.748604
     12          6           0       -2.638983   -2.121922    1.771902
     13          6           0       -1.179127   -1.816847    1.938006
     14          6           0       -0.605718   -0.907853    2.923087
     15          6           0        0.856220   -0.896420    2.580852
     16          6           0        0.972807   -1.754739    1.436035
     17          6           0       -4.694502   -1.805230    0.471315
     18          6           0        1.861257   -0.150305    3.357361
     19          6           0       -4.813173   -2.084439   -0.825344
     20          6           0        2.028416   -1.778848    0.455197
     21          6           0        2.039269   -0.832039   -0.584499
     22          6           0       -3.577838   -1.675669   -1.536437
     23          6           0        3.044904   -0.861291   -1.751547
     24          6           0       -1.246790   -0.174226    4.005866
     25          6           0       -5.765879   -2.160145    1.520835
     26          6           0        2.503158    0.203682   -2.499094
     27          6           0        2.043543    1.351633    2.760617
     28          6           0        1.429930    0.800951   -1.869513
     29          6           0        4.156261   -1.731008   -1.866132
     30          6           0       -5.846047   -2.759365   -1.722377
     31          6           0        5.408947   -1.305909   -0.966495
     32          6           0        2.991617    0.674204   -3.995981
     33          6           0        0.586390    1.930036   -2.189462
     34          6           0        2.969289    2.170844    3.418314
     35          6           0       -0.569564    2.243089   -1.384583
     36          6           0       -6.872570   -3.462674   -1.405578
     37          6           0        6.618612   -2.189480   -1.331756
     38          6           0       -1.399628    3.370933   -1.575796
     39          6           0       -2.259676    3.329533   -0.483799
     40          6           0       -2.032130    2.102576    0.236774
     41          6           0       -1.224831    4.415747   -2.591209
     42          6           0       -3.371991    4.365217   -0.058701
     43          6           0       -1.990257    5.523769   -2.822733
     44          1           0       -3.399351   -0.114819    1.117243
     45          1           0       -2.899456   -3.256807    1.471107
     46          1           0       -3.175962   -2.000610    2.712156
     47          1           0       -0.658416   -2.554831    0.319548
     48          1           0       -2.050018   -0.361375   -0.730233
     49          1           0        1.613056   -0.191055    4.366583
     50          1           0        2.897585   -0.575466    3.180132
     51          1           0        2.922713   -2.567524    0.592748
     52          1           0       -1.944241   -0.849008    4.636800
     53          1           0       -0.451913    0.355568    4.532844
     54          1           0       -1.763326    0.784089    3.584914
     55          1           0       -5.725665   -1.467648    2.420269
     56          1           0       -5.514497   -3.093385    1.763930
     57          1           0       -6.738768   -2.130912    1.082591
     58          1           0        2.238846    1.197545    1.629981
     59          1           0        0.983288    1.753167    2.811851
     60          1           0        0.300799    0.349037   -0.320830
     61          1           0        4.625535   -1.830790   -2.939886
     62          1           0        3.833212   -2.772071   -1.780811
     63          1           0       -5.763157   -2.466540   -2.778605
     64          1           0        5.252664   -1.321845    0.187080
     65          1           0        5.492434   -0.299023   -1.135475
     66          1           0        3.812209   -0.166584   -4.271898
     67          1           0        3.529469    1.670116   -3.973885
     68          1           0        2.019900    0.655518   -4.723137
     69          1           0        0.929794    2.440090   -3.137727
     70          1           0       -7.135921   -3.780594   -0.409944
     71          1           0       -7.472250   -4.020620   -2.279084
     72          1           0        3.826807    3.703281    3.530624
     73          1           0       -0.358529    4.404812   -3.316037
     74          1           0       -4.188417    4.266134   -0.841529
     75          1           0       -3.671295    3.959549    0.945717
     76          1           0       -2.874028    5.466607   -0.046143
     77          1           0        8.309951   -2.491126   -0.815829
     78          1           0       -1.737692    5.864147   -3.844054
     79          1           0       -2.928399    5.713831   -2.304916
 ---------------------------------------------------------------------
 Rotational constants (GHZ):           0.0886420           0.0500839           0.0481020
 Standard basis: SVP (5D, 7F)
 There are   825 symmetry adapted cartesian basis functions of A   symmetry.
 There are   782 symmetry adapted basis functions of A   symmetry.
   782 basis functions,  1327 primitive gaussians,   825 cartesian basis functions
   155 alpha electrons      155 beta electrons
       nuclear repulsion energy      5176.4120162395 Hartrees.
 NAtoms=   79 NActive=   79 NUniq=   79 SFac= 1.00D+00 NAtFMM=   60 NAOKFM=T Big=T
 Integral buffers will be    131072 words long.
 Regular integral format.
 Two-electron integral symmetry is turned on.
 One-electron integrals computed using PRISM.
 NBasis=   782 RedAO= T EigKep=  3.73D-04  NBF=   782
 NBsUse=   782 1.00D-06 EigRej= -1.00D+00 NBFU=   782
 ExpMin= 1.22D-01 ExpMax= 2.27D+03 ExpMxC= 3.41D+02 IAcc=3 IRadAn=         5 AccDes= 0.00D+00
 Harris functional with IExCor=  402 and IRadAn=       5 diagonalized for initial guess.
 HarFok:  IExCor=  402 AccDes= 0.00D+00 IRadAn=         5 IDoV= 1 UseB2=F ITyADJ=14
 ICtDFT=  3500011 ScaDFX=  1.000000  1.000000  1.000000  1.000000
 FoFCou: FMM=F IPFlag=           0 FMFlag=      100000 FMFlg1=        2001
         NFxFlg=           0 DoJE=T BraDBF=F KetDBF=T FulRan=T
         wScrn=  0.000000 ICntrl=       500 IOpCl=  0 I1Cent=   200000004 NGrid=           0
         NMat0=    1 NMatS0=      1 NMatT0=    0 NMatD0=    1 NMtDS0=    0 NMtDT0=    0
 Petite list used in FoFCou.
 Requested convergence on RMS density matrix=1.00D-08 within 128 cycles.
 Requested convergence on MAX density matrix=1.00D-06.
 Requested convergence on             energy=1.00D-06.
 No special actions if energy rises.
 Integral accuracy reduced to 1.0D-05 until final iterations.
 EnCoef did     1 forward-backward iterations
 Initial convergence to 1.0D-05 achieved.  Increase integral accuracy.
 SCF Done:  E(RB3LYP) =  -1947.83834401     A.U. after   22 cycles
            NFock= 22  Conv=0.60D-08     -V/T= 2.0109
 DoSCS=F DFT=T ScalE2(SS,OS)=  1.000000  1.000000
 ExpMin= 1.22D-01 ExpMax= 2.27D+03 ExpMxC= 3.41D+02 IAcc=3 IRadAn=         5 AccDes= 0.00D+00
 HarFok:  IExCor=  205 AccDes= 0.00D+00 IRadAn=         5 IDoV=-2 UseB2=F ITyADJ=14
 ICtDFT= 12500011 ScaDFX=  1.000000  1.000000  1.000000  1.000000
 GSVD:  LWork=       -2193 too small for GESVD, short by        9890 words or        9890 for optimal perf.
 Range of M.O.s used for correlation:    44   782
 NBasis=   782 NAE=   155 NBE=   155 NFC=    43 NFV=     0
 NROrb=    739 NOA=   112 NOB=   112 NVA=   627 NVB=   627

 **** Warning!!: The smallest alpha delta epsilon is  0.54391160D-01

 Orbital symmetries:
       Occupied  (A) (A) (A) (A) (A) (A) (A) (A) (A) (A) (A) (A)
                 (A) (A) (A) (A) (A) (A) (A) (A) (A) (A) (A) (A)
                 (A) (A) (A) (A) (A) (A) (A) (A) (A) (A) (A) (A)
                 (A) (A) (A) (A) (A) (A) (A) (A) (A) (A) (A) (A)
                 (A) (A) (A) (A) (A) (A) (A) (A) (A) (A) (A) (A)
                 (A) (A) (A) (A) (A) (A) (A) (A) (A) (A) (A) (A)
                 (A) (A) (A) (A) (A) (A) (A) (A) (A) (A) (A) (A)
                 (A) (A) (A) (A) (A) (A) (A) (A) (A) (A) (A) (A)
                 (A) (A) (A) (A) (A) (A) (A) (A) (A) (A) (A) (A)
                 (A) (A) (A) (A) (A) (A) (A) (A) (A) (A) (A) (A)
                 (A) (A) (A) (A) (A) (A) (A) (A) (A) (A) (A) (A)
                 (A) (A) (A) (A) (A) (A) (A) (A) (A) (A) (A) (A)
                 (A) (A) (A) (A) (A) (A) (A) (A) (A) (A) (A)
       Virtual   (A) (A) (A) (A) (A) (A) (A) (A) (A) (A) (A) (A)
                 (A) (A) (A) (A) (A) (A) (A) (A) (A) (A) (A) (A)
                 (A) (A) (A) (A) (A) (A) (A) (A) (A) (A) (A) (A)
                 (A) (A) (A) (A) (A) (A) (A) (A) (A) (A) (A) (A)
                 (A) (A) (A) (A) (A) (A) (A) (A) (A) (A) (A) (A)
                 (A) (A) (A) (A) (A) (A) (A) (A) (A) (A) (A) (A)
                 (A) (A) (A) (A) (A) (A) (A) (A) (A) (A) (A) (A)
                 (A) (A) (A) (A) (A) (A) (A) (A) (A) (A) (A) (A)
                 (A) (A) (A) (A) (A) (A) (A) (A) (A) (A) (A) (A)
                 (A) (A) (A) (A) (A) (A) (A) (A) (A) (A) (A) (A)
                 (A) (A) (A) (A) (A) (A) (A) (A) (A) (A) (A) (A)
                 (A) (A) (A) (A) (A) (A) (A) (A) (A) (A) (A) (A)
                 (A) (A) (A) (A) (A) (A) (A) (A) (A) (A) (A) (A)
                 (A) (A) (A) (A) (A) (A) (A) (A) (A) (A) (A) (A)
                 (A) (A) (A) (A) (A) (A) (A) (A) (A) (A) (A) (A)
                 (A) (A) (A) (A) (A) (A) (A) (A) (A) (A) (A) (A)
                 (A) (A) (A) (A) (A) (A) (A) (A) (A) (A) (A) (A)
                 (A) (A) (A) (A) (A) (A) (A) (A) (A) (A) (A) (A)
                 (A) (A) (A) (A) (A) (A) (A) (A) (A) (A) (A) (A)
                 (A) (A) (A) (A) (A) (A) (A) (A) (A) (A) (A) (A)
                 (A) (A) (A) (A) (A) (A) (A) (A) (A) (A) (A) (A)
                 (A) (A) (A) (A) (A) (A) (A) (A) (A) (A) (A) (A)
                 (A) (A) (A) (A) (A) (A) (A) (A) (A) (A) (A) (A)
                 (A) (A) (A) (A) (A) (A) (A) (A) (A) (A) (A) (A)
                 (A) (A) (A) (A) (A) (A) (A) (A) (A) (A) (A) (A)
                 (A) (A) (A) (A) (A) (A) (A) (A) (A) (A) (A) (A)
                 (A) (A) (A) (A) (A) (A) (A) (A) (A) (A) (A) (A)
                 (A) (A) (A) (A) (A) (A) (A) (A) (A) (A) (A) (A)
                 (A) (A) (A) (A) (A) (A) (A) (A) (A) (A) (A) (A)
                 (A) (A) (A) (A) (A) (A) (A) (A) (A) (A) (A) (A)
                 (A) (A) (A) (A) (A) (A) (A) (A) (A) (A) (A) (A)
                 (A) (A) (A) (A) (A) (A) (A) (A) (A) (A) (A) (A)
                 (A) (A) (A) (A) (A) (A) (A) (A) (A) (A) (A) (A)
                 (A) (A) (A) (A) (A) (A) (A) (A) (A) (A) (A) (A)
                 (A) (A) (A) (A) (A) (A) (A) (A) (A) (A) (A) (A)
                 (A) (A) (A) (A) (A) (A) (A) (A) (A) (A) (A) (A)
                 (A) (A) (A) (A) (A) (A) (A) (A) (A) (A) (A) (A)
                 (A) (A) (A) (A) (A) (A) (A) (A) (A) (A) (A) (A)
                 (A) (A) (A) (A) (A) (A) (A) (A) (A) (A) (A) (A)
                 (A) (A) (A) (A) (A) (A) (A) (A) (A) (A) (A) (A)
                 (A) (A) (A) (A) (A) (A) (A) (A) (A) (A) (A) (A)
                 (A) (A) (A) (A) (A) (A) (A) (A) (A) (A) (A) (A)
                 (A) (A) (A) (A) (A) (A) (A) (A) (A) (A) (A) (A)
                 (A) (A) (A) (A) (A) (A) (A) (A) (A) (A) (A) (A)
                 (A) (A) (A) (A) (A) (A) (A) (A) (A) (A) (A) (A)
                 (A) (A) (A) (A) (A) (A) (A) (A) (A) (A) (A) (A)
                 (A) (A) (A) (A) (A) (A) (A) (A) (A) (A) (A) (A)
                 (A) (A) (A) (A) (A) (A) (A) (A) (A) (A) (A) (A)
                 (A) (A) (A) (A) (A) (A) (A) (A) (A) (A) (A) (A)
                 (A) (A) (A) (A) (A) (A) (A) (A) (A) (A) (A) (A)
                 (A) (A) (A) (A) (A) (A) (A) (A) (A) (A) (A) (A)
                 (A) (A) (A) (A) (A) (A) (A) (A) (A) (A) (A) (A)
                 (A) (A) (A)
     4 initial guesses have been made.
 Convergence on wavefunction:    0.001000000000000
 Iteration     1 Dimension     4 NMult     0 NNew      4
 CISAX will form     4 AO SS matrices at one time.
 Iteration     2 Dimension     6 NMult     4 NNew      2
 Iteration     3 Dimension     8 NMult     6 NNew      2
 Iteration     4 Dimension    10 NMult     8 NNew      2
 Iteration     5 Dimension    12 NMult    10 NNew      2
 ***********************************************************************
 Excited states from <AA,BB:AA,BB> singles matrix:
 ***********************************************************************
 
 Ground to excited state transition densities written to RWF  633
 Ground to excited state transition electric dipole moments (Au):
       state          X           Y           Z        Dip. S.      Osc.
         1         0.0790     -0.0124     -0.0029      0.0064      0.0001
 Ground to excited state transition velocity dipole moments (Au):
       state          X           Y           Z        Dip. S.      Osc.
         1        -0.0014     -0.0010     -0.0011      0.0000      0.0001
 Ground to excited state transition magnetic dipole moments (Au):
       state          X           Y           Z
         1         0.0227      0.1334      0.1305
 Ground to excited state transition velocity quadrupole moments (Au):
       state          XX          YY          ZZ          XY          XZ          YZ
         1        -0.0033      0.0089     -0.0030      0.0092     -0.0030     -0.0016
 <0|del|b> * <b|rxdel|0> + <0|del|b> * <b|delr+rdel|0>
 Rotatory Strengths (R) in cgs (10**-40 erg-esu-cm/Gauss)
       state          XX          YY          ZZ    R(velocity)    E-M Angle
         1        -3.7981     -2.1148     -2.1690     -2.6940      143.82
 1/2[<0|r|b>*<b|rxdel|0> + (<0|rxdel|b>*<b|r|0>)*]
 Rotatory Strengths (R) in cgs (10**-40 erg-esu-cm/Gauss)
       state          XX          YY          ZZ     R(length)
         1        -1.2699      1.1739      0.2668      0.0569
  1/2[<0|del|b>*<b|r|0> + (<0|r|b>*<b|del|0>)*] (Au)
       state          X           Y           Z        Dip. S.   Osc.(frdel)
         1        -0.0001      0.0000      0.0000      0.0001      0.0001

 Excitation energies and oscillator strengths:
 
 Excited State   1:      Singlet-A      0.7585 eV 1634.64 nm  f=0.0001  <S**2>=0.000
     155 ->156         0.70391
 This state for optimization and/or second-order correction.
 Total Energy, E(TD-HF/TD-DFT) =  -1947.81047038    
 Copying the excited state density for this state as the 1-particle RhoCI density.
 SavETr:  write IOETrn=   770 NScale= 10 NData=  16 NLR=1 NState=    1 LETran=      28.

 **********************************************************************

            Population analysis using the SCF density.

 **********************************************************************

 Orbital symmetries:
       Occupied  (A) (A) (A) (A) (A) (A) (A) (A) (A) (A) (A) (A)
                 (A) (A) (A) (A) (A) (A) (A) (A) (A) (A) (A) (A)
                 (A) (A) (A) (A) (A) (A) (A) (A) (A) (A) (A) (A)
                 (A) (A) (A) (A) (A) (A) (A) (A) (A) (A) (A) (A)
                 (A) (A) (A) (A) (A) (A) (A) (A) (A) (A) (A) (A)
                 (A) (A) (A) (A) (A) (A) (A) (A) (A) (A) (A) (A)
                 (A) (A) (A) (A) (A) (A) (A) (A) (A) (A) (A) (A)
                 (A) (A) (A) (A) (A) (A) (A) (A) (A) (A) (A) (A)
                 (A) (A) (A) (A) (A) (A) (A) (A) (A) (A) (A) (A)
                 (A) (A) (A) (A) (A) (A) (A) (A) (A) (A) (A) (A)
                 (A) (A) (A) (A) (A) (A) (A) (A) (A) (A) (A) (A)
                 (A) (A) (A) (A) (A) (A) (A) (A) (A) (A) (A) (A)
                 (A) (A) (A) (A) (A) (A) (A) (A) (A) (A) (A)
       Virtual   (A) (A) (A) (A) (A) (A) (A) (A) (A) (A) (A) (A)
                 (A) (A) (A) (A) (A) (A) (A) (A) (A) (A) (A) (A)
                 (A) (A) (A) (A) (A) (A) (A) (A) (A) (A) (A) (A)
                 (A) (A) (A) (A) (A) (A) (A) (A) (A) (A) (A) (A)
                 (A) (A) (A) (A) (A) (A) (A) (A) (A) (A) (A) (A)
                 (A) (A) (A) (A) (A) (A) (A) (A) (A) (A) (A) (A)
                 (A) (A) (A) (A) (A) (A) (A) (A) (A) (A) (A) (A)
                 (A) (A) (A) (A) (A) (A) (A) (A) (A) (A) (A) (A)
                 (A) (A) (A) (A) (A) (A) (A) (A) (A) (A) (A) (A)
                 (A) (A) (A) (A) (A) (A) (A) (A) (A) (A) (A) (A)
                 (A) (A) (A) (A) (A) (A) (A) (A) (A) (A) (A) (A)
                 (A) (A) (A) (A) (A) (A) (A) (A) (A) (A) (A) (A)
                 (A) (A) (A) (A) (A) (A) (A) (A) (A) (A) (A) (A)
                 (A) (A) (A) (A) (A) (A) (A) (A) (A) (A) (A) (A)
                 (A) (A) (A) (A) (A) (A) (A) (A) (A) (A) (A) (A)
                 (A) (A) (A) (A) (A) (A) (A) (A) (A) (A) (A) (A)
                 (A) (A) (A) (A) (A) (A) (A) (A) (A) (A) (A) (A)
                 (A) (A) (A) (A) (A) (A) (A) (A) (A) (A) (A) (A)
                 (A) (A) (A) (A) (A) (A) (A) (A) (A) (A) (A) (A)
                 (A) (A) (A) (A) (A) (A) (A) (A) (A) (A) (A) (A)
                 (A) (A) (A) (A) (A) (A) (A) (A) (A) (A) (A) (A)
                 (A) (A) (A) (A) (A) (A) (A) (A) (A) (A) (A) (A)
                 (A) (A) (A) (A) (A) (A) (A) (A) (A) (A) (A) (A)
                 (A) (A) (A) (A) (A) (A) (A) (A) (A) (A) (A) (A)
                 (A) (A) (A) (A) (A) (A) (A) (A) (A) (A) (A) (A)
                 (A) (A) (A) (A) (A) (A) (A) (A) (A) (A) (A) (A)
                 (A) (A) (A) (A) (A) (A) (A) (A) (A) (A) (A) (A)
                 (A) (A) (A) (A) (A) (A) (A) (A) (A) (A) (A) (A)
                 (A) (A) (A) (A) (A) (A) (A) (A) (A) (A) (A) (A)
                 (A) (A) (A) (A) (A) (A) (A) (A) (A) (A) (A) (A)
                 (A) (A) (A) (A) (A) (A) (A) (A) (A) (A) (A) (A)
                 (A) (A) (A) (A) (A) (A) (A) (A) (A) (A) (A) (A)
                 (A) (A) (A) (A) (A) (A) (A) (A) (A) (A) (A) (A)
                 (A) (A) (A) (A) (A) (A) (A) (A) (A) (A) (A) (A)
                 (A) (A) (A) (A) (A) (A) (A) (A) (A) (A) (A) (A)
                 (A) (A) (A) (A) (A) (A) (A) (A) (A) (A) (A) (A)
                 (A) (A) (A) (A) (A) (A) (A) (A) (A) (A) (A) (A)
                 (A) (A) (A) (A) (A) (A) (A) (A) (A) (A) (A) (A)
                 (A) (A) (A) (A) (A) (A) (A) (A) (A) (A) (A) (A)
                 (A) (A) (A) (A) (A) (A) (A) (A) (A) (A) (A) (A)
                 (A) (A) (A) (A) (A) (A) (A) (A) (A) (A) (A) (A)
                 (A) (A) (A) (A) (A) (A) (A) (A) (A) (A) (A) (A)
                 (A) (A) (A) (A) (A) (A) (A) (A) (A) (A) (A) (A)
                 (A) (A) (A) (A) (A) (A) (A) (A) (A) (A) (A) (A)
                 (A) (A) (A) (A) (A) (A) (A) (A) (A) (A) (A) (A)
                 (A) (A) (A) (A) (A) (A) (A) (A) (A) (A) (A) (A)
                 (A) (A) (A) (A) (A) (A) (A) (A) (A) (A) (A) (A)
                 (A) (A) (A) (A) (A) (A) (A) (A) (A) (A) (A) (A)
                 (A) (A) (A) (A) (A) (A) (A) (A) (A) (A) (A) (A)
                 (A) (A) (A) (A) (A) (A) (A) (A) (A) (A) (A) (A)
                 (A) (A) (A) (A) (A) (A) (A) (A) (A) (A) (A) (A)
                 (A) (A) (A) (A) (A) (A) (A) (A) (A) (A) (A) (A)
                 (A) (A) (A)
 The electronic state is 1-A.
 Alpha  occ. eigenvalues --  -19.20754 -19.17153 -19.17044 -19.13283 -19.11871
 Alpha  occ. eigenvalues --  -19.07916 -14.37785 -14.36735 -14.33693 -14.31187
 Alpha  occ. eigenvalues --  -10.36039 -10.31581 -10.27596 -10.27026 -10.26311
 Alpha  occ. eigenvalues --  -10.26225 -10.26202 -10.24769 -10.24591 -10.24421
 Alpha  occ. eigenvalues --  -10.23771 -10.23730 -10.23577 -10.23050 -10.22046
 Alpha  occ. eigenvalues --  -10.22002 -10.21640 -10.21558 -10.21499 -10.21364
 Alpha  occ. eigenvalues --  -10.21141 -10.20580 -10.20537 -10.20347 -10.20105
 Alpha  occ. eigenvalues --  -10.19816 -10.18774 -10.18758 -10.18667 -10.18242
 Alpha  occ. eigenvalues --  -10.18216 -10.18027 -10.17720  -1.09073  -1.08526
 Alpha  occ. eigenvalues --   -1.03441  -1.02993  -1.00700  -0.99123  -0.98934
 Alpha  occ. eigenvalues --   -0.98516  -0.94269  -0.92070  -0.85027  -0.83178
 Alpha  occ. eigenvalues --   -0.81417  -0.80937  -0.80024  -0.79401  -0.78504
 Alpha  occ. eigenvalues --   -0.77029  -0.76424  -0.75742  -0.74766  -0.73175
 Alpha  occ. eigenvalues --   -0.71572  -0.70763  -0.70105  -0.69771  -0.68302
 Alpha  occ. eigenvalues --   -0.67416  -0.65979  -0.63910  -0.61570  -0.61087
 Alpha  occ. eigenvalues --   -0.59392  -0.58804  -0.58231  -0.57006  -0.56428
 Alpha  occ. eigenvalues --   -0.55761  -0.54740  -0.54569  -0.53594  -0.53351
 Alpha  occ. eigenvalues --   -0.52503  -0.51869  -0.51520  -0.51127  -0.50001
 Alpha  occ. eigenvalues --   -0.49762  -0.49333  -0.48877  -0.48796  -0.48066
 Alpha  occ. eigenvalues --   -0.47751  -0.47412  -0.46805  -0.46349  -0.46081
 Alpha  occ. eigenvalues --   -0.45481  -0.45207  -0.44741  -0.44393  -0.43553
 Alpha  occ. eigenvalues --   -0.43452  -0.43128  -0.42859  -0.42540  -0.42400
 Alpha  occ. eigenvalues --   -0.42316  -0.42218  -0.41845  -0.41358  -0.41168
 Alpha  occ. eigenvalues --   -0.40983  -0.40699  -0.40669  -0.40308  -0.40220
 Alpha  occ. eigenvalues --   -0.39660  -0.39128  -0.38830  -0.38419  -0.38113
 Alpha  occ. eigenvalues --   -0.37825  -0.37404  -0.37330  -0.36940  -0.36469
 Alpha  occ. eigenvalues --   -0.36200  -0.36017  -0.35764  -0.35355  -0.35279
 Alpha  occ. eigenvalues --   -0.34464  -0.34131  -0.32972  -0.32215  -0.31866
 Alpha  occ. eigenvalues --   -0.31709  -0.31467  -0.30174  -0.29870  -0.29699
 Alpha  occ. eigenvalues --   -0.28811  -0.27510  -0.26427  -0.25002  -0.23873
 Alpha  occ. eigenvalues --   -0.23601  -0.23195  -0.23032  -0.22549  -0.19363
 Alpha virt. eigenvalues --   -0.13924  -0.08551  -0.05053  -0.03142  -0.02526
 Alpha virt. eigenvalues --   -0.01052   0.00851   0.01741   0.02382   0.02736
 Alpha virt. eigenvalues --    0.03567   0.03899   0.04222   0.04400   0.04909
 Alpha virt. eigenvalues --    0.05528   0.05751   0.05931   0.06469   0.06727
 Alpha virt. eigenvalues --    0.07346   0.08118   0.08197   0.08338   0.08657
 Alpha virt. eigenvalues --    0.08689   0.09331   0.09618   0.09749   0.10371
 Alpha virt. eigenvalues --    0.10735   0.11070   0.11406   0.11583   0.11916
 Alpha virt. eigenvalues --    0.12542   0.12918   0.13137   0.13330   0.13931
 Alpha virt. eigenvalues --    0.14175   0.14481   0.14755   0.14842   0.15365
 Alpha virt. eigenvalues --    0.15631   0.16033   0.16319   0.16485   0.16824
 Alpha virt. eigenvalues --    0.17317   0.17746   0.18176   0.18716   0.19386
 Alpha virt. eigenvalues --    0.20006   0.20174   0.20877   0.21275   0.21650
 Alpha virt. eigenvalues --    0.21781   0.22732   0.23336   0.23968   0.24398
 Alpha virt. eigenvalues --    0.24691   0.24943   0.25845   0.26079   0.26410
 Alpha virt. eigenvalues --    0.27241   0.27411   0.27877   0.28321   0.28658
 Alpha virt. eigenvalues --    0.29524   0.29566   0.30247   0.30508   0.30950
 Alpha virt. eigenvalues --    0.31579   0.32051   0.33098   0.33361   0.33978
 Alpha virt. eigenvalues --    0.34056   0.34619   0.35389   0.35782   0.36170
 Alpha virt. eigenvalues --    0.36974   0.37319   0.37707   0.39076   0.39121
 Alpha virt. eigenvalues --    0.39877   0.40127   0.40491   0.40551   0.41260
 Alpha virt. eigenvalues --    0.41496   0.42117   0.42322   0.42669   0.43208
 Alpha virt. eigenvalues --    0.43562   0.43825   0.44521   0.44728   0.45032
 Alpha virt. eigenvalues --    0.45462   0.45871   0.45919   0.46516   0.46698
 Alpha virt. eigenvalues --    0.46796   0.47298   0.47655   0.47878   0.48125
 Alpha virt. eigenvalues --    0.48327   0.48799   0.49035   0.49651   0.49679
 Alpha virt. eigenvalues --    0.50016   0.50238   0.50583   0.50924   0.51400
 Alpha virt. eigenvalues --    0.51483   0.52103   0.52335   0.52631   0.52919
 Alpha virt. eigenvalues --    0.53560   0.53591   0.54065   0.54931   0.55228
 Alpha virt. eigenvalues --    0.55437   0.55839   0.55969   0.56160   0.56328
 Alpha virt. eigenvalues --    0.56566   0.57288   0.57497   0.57830   0.58376
 Alpha virt. eigenvalues --    0.58814   0.58918   0.58959   0.59401   0.59874
 Alpha virt. eigenvalues --    0.59905   0.60156   0.60936   0.61048   0.61527
 Alpha virt. eigenvalues --    0.61756   0.61845   0.62498   0.62621   0.63068
 Alpha virt. eigenvalues --    0.63149   0.63251   0.63486   0.63837   0.64040
 Alpha virt. eigenvalues --    0.64215   0.64437   0.64536   0.65135   0.65276
 Alpha virt. eigenvalues --    0.65595   0.65775   0.66101   0.66297   0.66520
 Alpha virt. eigenvalues --    0.66938   0.67243   0.67415   0.67714   0.68040
 Alpha virt. eigenvalues --    0.68239   0.68474   0.68586   0.68787   0.69299
 Alpha virt. eigenvalues --    0.69714   0.69938   0.70272   0.70887   0.70950
 Alpha virt. eigenvalues --    0.71380   0.71630   0.71737   0.72630   0.72944
 Alpha virt. eigenvalues --    0.73352   0.73637   0.73693   0.74491   0.74701
 Alpha virt. eigenvalues --    0.74980   0.75201   0.75571   0.75858   0.76175
 Alpha virt. eigenvalues --    0.76481   0.76994   0.77329   0.77736   0.78507
 Alpha virt. eigenvalues --    0.78718   0.79561   0.80150   0.80931   0.81230
 Alpha virt. eigenvalues --    0.81822   0.82202   0.82343   0.83517   0.84138
 Alpha virt. eigenvalues --    0.85013   0.86246   0.86352   0.86952   0.87838
 Alpha virt. eigenvalues --    0.88439   0.88573   0.88986   0.89280   0.90176
 Alpha virt. eigenvalues --    0.90480   0.91074   0.91661   0.91849   0.92242
 Alpha virt. eigenvalues --    0.92901   0.93646   0.94520   0.94804   0.95302
 Alpha virt. eigenvalues --    0.96061   0.96810   0.97341   0.97754   0.98237
 Alpha virt. eigenvalues --    0.98822   0.99303   0.99760   1.00479   1.00692
 Alpha virt. eigenvalues --    1.01705   1.02682   1.03256   1.05423   1.06001
 Alpha virt. eigenvalues --    1.07044   1.07658   1.07976   1.08730   1.10066
 Alpha virt. eigenvalues --    1.10089   1.10651   1.11075   1.11967   1.12599
 Alpha virt. eigenvalues --    1.13884   1.13934   1.14397   1.15026   1.15364
 Alpha virt. eigenvalues --    1.16097   1.16240   1.17201   1.17442   1.17609
 Alpha virt. eigenvalues --    1.18311   1.18862   1.19622   1.20531   1.21311
 Alpha virt. eigenvalues --    1.22102   1.22522   1.23216   1.24199   1.24419
 Alpha virt. eigenvalues --    1.25107   1.25589   1.25987   1.26444   1.27102
 Alpha virt. eigenvalues --    1.27646   1.28139   1.28415   1.29461   1.29859
 Alpha virt. eigenvalues --    1.30706   1.31324   1.32387   1.32469   1.33388
 Alpha virt. eigenvalues --    1.34082   1.34350   1.34985   1.35685   1.36570
 Alpha virt. eigenvalues --    1.36783   1.37148   1.37436   1.39758   1.39975
 Alpha virt. eigenvalues --    1.40988   1.41180   1.42781   1.43525   1.43975
 Alpha virt. eigenvalues --    1.44949   1.45253   1.46557   1.46667   1.47406
 Alpha virt. eigenvalues --    1.48482   1.48727   1.49437   1.50145   1.50428
 Alpha virt. eigenvalues --    1.50512   1.51097   1.51577   1.52096   1.52806
 Alpha virt. eigenvalues --    1.53750   1.54057   1.54335   1.54741   1.55390
 Alpha virt. eigenvalues --    1.55715   1.56910   1.57397   1.57791   1.58166
 Alpha virt. eigenvalues --    1.58450   1.58640   1.59721   1.60384   1.60961
 Alpha virt. eigenvalues --    1.61697   1.62353   1.63265   1.63527   1.63981
 Alpha virt. eigenvalues --    1.64298   1.64448   1.64876   1.65408   1.66447
 Alpha virt. eigenvalues --    1.67282   1.67315   1.67930   1.68215   1.68804
 Alpha virt. eigenvalues --    1.69155   1.69323   1.69477   1.70052   1.70416
 Alpha virt. eigenvalues --    1.70576   1.70971   1.71438   1.71519   1.72692
 Alpha virt. eigenvalues --    1.72776   1.73056   1.73221   1.73685   1.73803
 Alpha virt. eigenvalues --    1.74865   1.75500   1.75833   1.76165   1.76592
 Alpha virt. eigenvalues --    1.77489   1.77666   1.77770   1.78565   1.78948
 Alpha virt. eigenvalues --    1.79134   1.79297   1.79486   1.79916   1.80795
 Alpha virt. eigenvalues --    1.81385   1.82021   1.82780   1.82987   1.83467
 Alpha virt. eigenvalues --    1.83621   1.83796   1.84274   1.85030   1.85846
 Alpha virt. eigenvalues --    1.85939   1.86090   1.86881   1.86992   1.87222
 Alpha virt. eigenvalues --    1.87872   1.88587   1.89169   1.89704   1.89933
 Alpha virt. eigenvalues --    1.90620   1.91155   1.91790   1.92323   1.92650
 Alpha virt. eigenvalues --    1.92747   1.93652   1.93729   1.94201   1.94303
 Alpha virt. eigenvalues --    1.94768   1.95285   1.95513   1.96503   1.96727
 Alpha virt. eigenvalues --    1.97047   1.97551   1.97832   1.98466   1.98815
 Alpha virt. eigenvalues --    1.99722   2.00436   2.01289   2.01497   2.02030
 Alpha virt. eigenvalues --    2.02268   2.02876   2.03070   2.03680   2.03816
 Alpha virt. eigenvalues --    2.04758   2.04809   2.05041   2.05446   2.05679
 Alpha virt. eigenvalues --    2.06588   2.07687   2.07972   2.08564   2.08739
 Alpha virt. eigenvalues --    2.09128   2.10110   2.10694   2.10961   2.12338
 Alpha virt. eigenvalues --    2.12533   2.12799   2.13392   2.13891   2.14470
 Alpha virt. eigenvalues --    2.15238   2.15455   2.16241   2.16956   2.17878
 Alpha virt. eigenvalues --    2.18111   2.19186   2.19529   2.19944   2.20262
 Alpha virt. eigenvalues --    2.21384   2.22272   2.23076   2.23573   2.24564
 Alpha virt. eigenvalues --    2.25532   2.25591   2.26466   2.26772   2.27205
 Alpha virt. eigenvalues --    2.28202   2.29185   2.29650   2.30298   2.30783
 Alpha virt. eigenvalues --    2.30985   2.31905   2.32705   2.33334   2.33602
 Alpha virt. eigenvalues --    2.34290   2.35131   2.35997   2.36543   2.37135
 Alpha virt. eigenvalues --    2.37739   2.38823   2.39780   2.40509   2.40835
 Alpha virt. eigenvalues --    2.41701   2.42193   2.42947   2.43146   2.44055
 Alpha virt. eigenvalues --    2.45052   2.45538   2.46943   2.47372   2.48397
 Alpha virt. eigenvalues --    2.49595   2.49867   2.51421   2.52238   2.52659
 Alpha virt. eigenvalues --    2.52953   2.53899   2.54673   2.56004   2.57726
 Alpha virt. eigenvalues --    2.58180   2.58546   2.58966   2.59726   2.60216
 Alpha virt. eigenvalues --    2.60881   2.62368   2.62560   2.62770   2.63339
 Alpha virt. eigenvalues --    2.64676   2.65258   2.65622   2.66318   2.66680
 Alpha virt. eigenvalues --    2.66937   2.67549   2.68003   2.69309   2.69792
 Alpha virt. eigenvalues --    2.70489   2.71630   2.71888   2.72706   2.73239
 Alpha virt. eigenvalues --    2.73671   2.73986   2.74752   2.76074   2.76511
 Alpha virt. eigenvalues --    2.77203   2.77301   2.78169   2.79160   2.79962
 Alpha virt. eigenvalues --    2.80517   2.81289   2.82001   2.82660   2.83064
 Alpha virt. eigenvalues --    2.83563   2.84187   2.84486   2.84977   2.85295
 Alpha virt. eigenvalues --    2.86122   2.87195   2.87500   2.87927   2.88231
 Alpha virt. eigenvalues --    2.89191   2.90749   2.91481   2.93031   2.93944
 Alpha virt. eigenvalues --    2.94978   2.96353   2.97517   2.98524   2.99514
 Alpha virt. eigenvalues --    2.99933   3.00116   3.00376   3.02119   3.03031
 Alpha virt. eigenvalues --    3.05204   3.05750   3.07050   3.08410   3.09116
 Alpha virt. eigenvalues --    3.09487   3.09854   3.10181   3.10964   3.11588
 Alpha virt. eigenvalues --    3.13091   3.14970   3.16576   3.16860   3.18654
 Alpha virt. eigenvalues --    3.19523   3.19642   3.20668   3.27883   3.29130
 Alpha virt. eigenvalues --    3.29274   3.29597   3.31309   3.34359   3.36259
 Alpha virt. eigenvalues --    3.41708   3.42937   3.50641   3.51025   3.53792
 Alpha virt. eigenvalues --    3.56058   3.62633   3.64435   3.66687   3.67434
 Alpha virt. eigenvalues --    3.72554   3.79257
          Condensed to atoms (all electrons):
 Mulliken charges:
               1
     1  O   -0.292679
     2  O   -0.262443
     3  O   -0.225968
     4  O   -0.251749
     5  O   -0.263637
     6  O   -0.232938
     7  N    0.056622
     8  N   -0.248532
     9  N    0.068537
    10  N   -0.330091
    11  C    0.043406
    12  C    0.130147
    13  C   -0.138320
    14  C   -0.129380
    15  C   -0.100421
    16  C   -0.019202
    17  C   -0.236321
    18  C    0.116519
    19  C   -0.048185
    20  C   -0.149324
    21  C    0.029483
    22  C    0.146011
    23  C   -0.019147
    24  C    0.075036
    25  C    0.149946
    26  C   -0.134596
    27  C   -0.062315
    28  C    0.047525
    29  C    0.016253
    30  C    0.040627
    31  C    0.011457
    32  C   -0.012655
    33  C   -0.081345
    34  C    0.180554
    35  C    0.129625
    36  C   -0.074065
    37  C    0.225379
    38  C    0.096527
    39  C   -0.210654
    40  C    0.161812
    41  C   -0.078772
    42  C    0.026552
    43  C   -0.017495
    44  H    0.090766
    45  H    0.007557
    46  H   -0.015374
    47  H    0.095130
    48  H    0.196066
    49  H    0.008859
    50  H    0.002501
    51  H    0.046450
    52  H    0.040615
    53  H   -0.020105
    54  H    0.043112
    55  H    0.027359
    56  H   -0.002051
    57  H    0.026491
    58  H    0.067134
    59  H    0.059612
    60  H    0.130163
    61  H    0.044553
    62  H    0.037434
    63  H    0.017526
    64  H    0.071660
    65  H    0.027764
    66  H    0.045890
    67  H    0.055112
    68  H    0.077675
    69  H    0.008109
    70  H    0.000098
    71  H    0.035302
    72  H    0.194843
    73  H    0.009103
    74  H    0.061267
    75  H    0.050095
    76  H    0.063352
    77  H    0.206824
    78  H    0.036080
    79  H    0.021244
 Sum of Mulliken charges =  -0.00000
 Mulliken charges with hydrogens summed into heavy atoms:
               1
     1  O   -0.292679
     2  O   -0.067600
     3  O   -0.225968
     4  O   -0.044925
     5  O   -0.263637
     6  O   -0.232938
     7  N    0.151751
     8  N   -0.052467
     9  N    0.198700
    10  N   -0.330091
    11  C    0.134172
    12  C    0.122330
    13  C   -0.138320
    14  C   -0.129380
    15  C   -0.100421
    16  C   -0.019202
    17  C   -0.236321
    18  C    0.127878
    19  C   -0.048185
    20  C   -0.102873
    21  C    0.029483
    22  C    0.146011
    23  C   -0.019147
    24  C    0.138658
    25  C    0.201746
    26  C   -0.134596
    27  C    0.064431
    28  C    0.047525
    29  C    0.098240
    30  C    0.058154
    31  C    0.110881
    32  C    0.166022
    33  C   -0.073236
    34  C    0.180554
    35  C    0.129625
    36  C   -0.038666
    37  C    0.225379
    38  C    0.096527
    39  C   -0.210654
    40  C    0.161812
    41  C   -0.069669
    42  C    0.201267
    43  C    0.039829
 Electronic spatial extent (au):  <R**2>=          26011.2882
 Charge=              0.0000 electrons
 Dipole moment (field-independent basis, Debye):
    X=              3.7166    Y=              1.7242    Z=             -1.2278  Tot=              4.2771
 Quadrupole moment (field-independent basis, Debye-Ang):
   XX=           -241.9184   YY=           -248.0014   ZZ=           -266.6205
   XY=             -1.7481   XZ=            -23.7097   YZ=            -19.5634
 Traceless Quadrupole moment (field-independent basis, Debye-Ang):
   XX=             10.2617   YY=              4.1787   ZZ=            -14.4404
   XY=             -1.7481   XZ=            -23.7097   YZ=            -19.5634
 Octapole moment (field-independent basis, Debye-Ang**2):
  XXX=            152.8298  YYY=             40.1445  ZZZ=            -16.8757  XYY=            -13.6585
  XXY=            -14.0348  XXZ=             28.8459  XZZ=              3.8408  YZZ=             60.4882
  YYZ=              2.4321  XYZ=              8.1130
 Hexadecapole moment (field-independent basis, Debye-Ang**3):
 XXXX=         -17912.7408 YYYY=          -8386.5993 ZZZZ=          -7438.9632 XXXY=           -136.1332
 XXXZ=           -249.2826 YYYX=            -40.9214 YYYZ=             -4.3090 ZZZX=           -288.7172
 ZZZY=            -78.6254 XXYY=          -4352.7080 XXZZ=          -4798.4501 YYZZ=          -2554.9524
 XXYZ=           -253.6692 YYXZ=            194.7078 ZZXY=             84.6777
 N-N= 5.176412016240D+03 E-N=-1.488034839056D+04  KE= 1.926819781182D+03
 1\1\GINC-PADAWAN\SP\RB3LYP TD-FC\SVP\C33H36N4O6\PADAWAN\25-Jul-2019\0\
 \# td=(NStates=1) B3LYP/SVP\\TD\\0,1\O,0,-3.3817150817,-1.2779128468,-
 2.9245231066\O,0,2.9069211469,3.2404857071,3.3218664575\O,0,3.77619192
 74,1.4736544937,4.3809525389\O,0,7.6447130742,-1.7486609803,-0.5184826
 101\O,0,6.8009442508,-2.8632271176,-2.4574121893\O,0,-2.6579367002,1.6
 35429032,1.3749175523\N,0,-0.2546712133,-2.4305693712,0.9566005009\N,0
 ,-2.7277948175,-1.2601311481,-0.6739095356\N,0,1.1711486643,0.11513242
 29,-0.6860135386\N,0,-0.9828574312,1.4687222801,-0.1758184797\C,0,-3.3
 424793976,-1.2900165641,0.6174787218\C,0,-2.6485034764,-2.2719413403,1
 .563581665\C,0,-1.1899746392,-1.9816659806,1.764264415\C,0,-0.62338214
 05,-1.1609772894,2.8277007906\C,0,0.8405651691,-1.1192869297,2.4965808
 527\C,0,0.9648591721,-1.8753439691,1.2825630603\C,0,-4.6965245991,-1.8
 449701457,0.2828451718\C,0,1.8401886103,-0.4426245921,3.3407562301\C,0
 ,-4.8071570771,-2.0110698154,-1.0337937199\C,0,2.0263405905,-1.8140395
 962,0.30971325\C,0,2.0424602679,-0.7808699992,-0.6441383153\C,0,-3.568
 00147,-1.5417461399,-1.6993972231\C,0,3.0550865719,-0.7086116095,-1.80
 32442233\C,0,-1.2716557378,-0.5240362606,3.9659621045\C,0,-5.773802604
 4,-2.2898254628,1.2912501306\C,0,2.516751332,0.4167490431,-2.459170527
 1\C,0,2.0245318856,1.1053762296,2.877224364\C,0,1.4391772842,0.9568223
 308,-1.7868047865\C,0,4.1679821473,-1.5646258917,-1.9858782179\C,0,-5.
 8339677329,-2.6064027307,-1.9920526535\C,0,5.4148370347,-1.2183035756,
 -1.0452979467\C,0,3.0136814635,1.0151799206,-3.9067871879\C,0,0.596432
 0673,2.1089360405,-2.0130230474\C,0,2.9455031906,1.8650960951,3.608876
 2328\C,0,-0.5646302946,2.3506596982,-1.1910943973\C,0,-6.8616600925,-3
 .3349672608,-1.743462905\C,0,6.6275523248,-2.0663948946,-1.4782685169\
 C,0,-1.3946681216,3.4904112743,-1.2890869834\C,0,-2.2611902084,3.35432
 59116,-0.2099789041\C,0,-2.036725945,2.0697679103,0.4031692489\C,0,-1.
 2148514635,4.61919818,-2.2092826963\C,0,-3.3770683433,4.3488353664,0.2
 963438741\C,0,-1.9799918904,5.7427196902,-2.3487586087\H,0,-3.40695918
 91,-0.2161171016,1.0803322378\H,0,-2.9060322296,-3.3766927943,1.164216
 7708\H,0,-3.1912189417,-2.2326467091,2.5075401427\H,0,-0.6588511899,-2
 .5766864337,0.0912361336\H,0,-2.046353025,-0.3013464381,-0.7733514375\
 H,0,1.5859965611,-0.5706085147,4.3411562147\H,0,2.8779851314,-0.850366
 928,3.1336982992\H,0,2.920590873,-2.6112227052,0.3839614493\H,0,-1.972
 1898483,-1.2511843924,4.5319602578\H,0,-0.4804778158,-0.0414083444,4.5
 415705136\H,0,-1.7866279766,0.4668391306,3.6263313984\H,0,-5.739664753
 7,-1.6776758988,2.2474190349\H,0,-5.5229410548,-3.2404681514,1.4542582
 721\H,0,-6.744081785,-2.2232779712,0.8513014918\H,0,2.2267488143,1.049
 7249144,1.7387014814\H,0,0.9635863101,1.5004622905,2.9565736311\H,0,0.
 3012583834,0.372141584,-0.2898510174\H,0,4.6437700962,-1.570960155,-3.
 0613817401\H,0,3.8454753773,-2.6093227115,-1.9928463926\H,0,-5.7450566
 441,-2.2233032549,-3.0184853123\H,0,5.2516730886,-1.3340038803,0.10161
 3385\H,0,5.4983212734,-0.2005370498,-1.1260770902\H,0,3.8367535869,0.2
 017966718,-4.2494031698\H,0,3.5503907907,2.0057116499,-3.7954118766\H,
 0,2.0463504243,1.0589703949,-4.6386970217\H,0,0.9449884088,2.699241420
 6,-2.9115420462\H,0,-7.1306421503,-3.7379159755,-0.7806570869\H,0,-7.4
 555438193,-3.8155828888,-2.6655496085\H,0,3.8007938069,3.3824976108,3.
 8584490991\H,0,-0.3442183006,4.6713984193,-2.9270906045\H,0,-4.1886974
 593,4.3174183236,-0.4970408556\H,0,-3.6819669464,3.8576905627,1.260096
 8211\H,0,-2.8802963458,5.4452548166,0.4070964795\H,0,8.3160773012,-2.4
 107042246,-0.9801386489\H,0,-1.7216650911,6.1702574828,-3.33527838\H,0
 ,-2.9214044933,5.8868400598,-1.8221281203\\Version=ES64L-G16RevA.03\St
 ate=1-A\HF=-1947.838344\RMSD=5.964e-09\PG=C01 [X(C33H36N4O6)]\\@


 THE MEEK SHALL INHERIT THE EARTH.
 (THE REST OF US WILL ESCAPE TO THE STARS)
 Job cpu time:       0 days  4 hours  4 minutes  5.9 seconds.
 Elapsed time:       0 days  1 hours  1 minutes  7.8 seconds.
 File lengths (MBytes):  RWF=   2533 Int=      0 D2E=      0 Chk=     63 Scr=      1
 Normal termination of Gaussian 16 at Thu Jul 25 09:09:20 2019.
