 Entering Gaussian System, Link 0=g16
 Input=Geometria-396-.com
 Output=Geometria-396-.log
 Initial command:
 /usr/local/g16/l1.exe "/home/padawan/israel-mol/dihydrobiliverdin/spectra/emi/Gau-20706.inp" -scrdir="/home/padawan/israel-mol/dihydrobiliverdin/spectra/emi/"
 Entering Link 1 = /usr/local/g16/l1.exe PID=     20708.
  
 Copyright (c) 1988,1990,1992,1993,1995,1998,2003,2009,2016,
            Gaussian, Inc.  All Rights Reserved.
  
 This is part of the Gaussian(R) 16 program.  It is based on
 the Gaussian(R) 09 system (copyright 2009, Gaussian, Inc.),
 the Gaussian(R) 03 system (copyright 2003, Gaussian, Inc.),
 the Gaussian(R) 98 system (copyright 1998, Gaussian, Inc.),
 the Gaussian(R) 94 system (copyright 1995, Gaussian, Inc.),
 the Gaussian 92(TM) system (copyright 1992, Gaussian, Inc.),
 the Gaussian 90(TM) system (copyright 1990, Gaussian, Inc.),
 the Gaussian 88(TM) system (copyright 1988, Gaussian, Inc.),
 the Gaussian 86(TM) system (copyright 1986, Carnegie Mellon
 University), and the Gaussian 82(TM) system (copyright 1983,
 Carnegie Mellon University). Gaussian is a federally registered
 trademark of Gaussian, Inc.
  
 This software contains proprietary and confidential information,
 including trade secrets, belonging to Gaussian, Inc.
  
 This software is provided under written license and may be
 used, copied, transmitted, or stored only in accord with that
 written license.
  
 The following legend is applicable only to US Government
 contracts under FAR:
  
                    RESTRICTED RIGHTS LEGEND
  
 Use, reproduction and disclosure by the US Government is
 subject to restrictions as set forth in subparagraphs (a)
 and (c) of the Commercial Computer Software - Restricted
 Rights clause in FAR 52.227-19.
  
 Gaussian, Inc.
 340 Quinnipiac St., Bldg. 40, Wallingford CT 06492
  
  
 ---------------------------------------------------------------
 Warning -- This program may not be used in any manner that
 competes with the business of Gaussian, Inc. or will provide
 assistance to any competitor of Gaussian, Inc.  The licensee
 of this program is prohibited from giving any competitor of
 Gaussian, Inc. access to this program.  By using this program,
 the user acknowledges that Gaussian, Inc. is engaged in the
 business of creating and licensing software in the field of
 computational chemistry and represents and warrants to the
 licensee that it is not a competitor of Gaussian, Inc. and that
 it will not use this program in any manner prohibited above.
 ---------------------------------------------------------------
  

 Cite this work as:
 Gaussian 16, Revision A.03,
 M. J. Frisch, G. W. Trucks, H. B. Schlegel, G. E. Scuseria, 
 M. A. Robb, J. R. Cheeseman, G. Scalmani, V. Barone, 
 G. A. Petersson, H. Nakatsuji, X. Li, M. Caricato, A. V. Marenich, 
 J. Bloino, B. G. Janesko, R. Gomperts, B. Mennucci, H. P. Hratchian, 
 J. V. Ortiz, A. F. Izmaylov, J. L. Sonnenberg, D. Williams-Young, 
 F. Ding, F. Lipparini, F. Egidi, J. Goings, B. Peng, A. Petrone, 
 T. Henderson, D. Ranasinghe, V. G. Zakrzewski, J. Gao, N. Rega, 
 G. Zheng, W. Liang, M. Hada, M. Ehara, K. Toyota, R. Fukuda, 
 J. Hasegawa, M. Ishida, T. Nakajima, Y. Honda, O. Kitao, H. Nakai, 
 T. Vreven, K. Throssell, J. A. Montgomery, Jr., J. E. Peralta, 
 F. Ogliaro, M. J. Bearpark, J. J. Heyd, E. N. Brothers, K. N. Kudin, 
 V. N. Staroverov, T. A. Keith, R. Kobayashi, J. Normand, 
 K. Raghavachari, A. P. Rendell, J. C. Burant, S. S. Iyengar, 
 J. Tomasi, M. Cossi, J. M. Millam, M. Klene, C. Adamo, R. Cammi, 
 J. W. Ochterski, R. L. Martin, K. Morokuma, O. Farkas, 
 J. B. Foresman, and D. J. Fox, Gaussian, Inc., Wallingford CT, 2016.
 
 ******************************************
 Gaussian 16:  ES64L-G16RevA.03 25-Dec-2016
                29-Jul-2019 
 ******************************************
 %nproc=4
 Will use up to    4 processors via shared memory.
 %Mem=3GB
 --------------------------
 # td=(NStates=1) B3LYP/SVP
 --------------------------
 1/38=1,172=1/1;
 2/12=2,17=6,18=5,40=1/2;
 3/5=18,7=101,11=9,25=1,30=1,74=-5/1,2,3,8;
 4//1;
 5/5=2,38=5/2;
 8/6=1,10=1,108=1/1;
 9/41=1,42=1,70=2/14;
 6/7=2,8=2,9=2,10=2/1;
 99/5=1,9=1/99;
 --
 TD
 --
 Symbolic Z-matrix:
 Charge =  0 Multiplicity = 1
 8                    -3.35837  -1.36993  -2.89442 
 8                     2.96821   3.11966   3.15315 
 8                     3.70267   1.35246   4.39461 
 8                     7.79296  -1.72517  -0.84124 
 8                     6.65527  -3.0219   -2.1558 
 8                    -2.73466   1.63619   1.41121 
 7                    -0.17131  -2.44819   0.93684 
 7                    -2.72951  -1.21124  -0.66124 
 7                     1.11228   0.08507  -0.65786 
 7                    -1.01028   1.46318  -0.06164 
 6                    -3.37859  -1.27984   0.56627 
 6                    -2.55529  -2.35007   1.51314 
 6                    -1.1814   -2.01172   1.69653 
 6                    -0.55782  -1.12695   2.72016 
 6                     0.73494  -1.16672   2.43397 
 6                     0.99517  -1.90392   1.30934 
 6                    -4.74833  -1.92578   0.29184 
 6                     1.82709  -0.43093   3.19486 
 6                    -4.80636  -2.01575  -1.05819 
 6                     2.17333  -1.89351   0.34512 
 6                     2.1387   -0.92786  -0.58311 
 6                    -3.5739   -1.51464  -1.7417 
 6                     3.05126  -0.69887  -1.72692 
 6                    -1.31709  -0.3613    3.80623 
 6                    -5.7205   -2.16653   1.30755 
 6                     2.70392   0.50223  -2.34669 
 6                     1.94892   1.09667   2.77716 
 6                     1.39117   0.93371  -1.71742 
 6                     4.22327  -1.54775  -1.95897 
 6                    -5.90977  -2.46656  -1.89036 
 6                     5.46721  -1.1494   -1.18224 
 6                     3.28144   1.16964  -3.62313 
 6                     0.49403   2.08126  -1.95456 
 6                     2.95161   1.82659   3.60874 
 6                    -0.58863   2.2294   -1.13363 
 6                    -6.87497  -3.27194  -1.61313 
 6                     6.63017  -2.01077  -1.49676 
 6                    -1.3917    3.5826   -1.20292 
 6                    -2.4273    3.44506  -0.25014 
 6                    -2.08539   2.14475   0.50589 
 6                    -1.29974   4.61306  -2.28799 
 6                    -3.44224   4.32951   0.14309 
 6                    -2.02014   5.70206  -2.35223 
 1                    -3.45488  -0.40988   1.02435 
 1                    -2.57293  -3.30061   0.9864 
 1                    -3.00602  -2.27195   2.64561 
 1                    -0.30335  -2.99274  -0.0602 
 1                    -2.0263   -0.35232  -0.85403 
 1                     1.36238  -0.54334   4.27516 
 1                     2.86066  -0.79816   3.21481 
 1                     2.94208  -2.80182   0.54064 
 1                    -2.19235  -0.91438   4.18145 
 1                    -0.72307   0.05484   4.54995 
 1                    -1.72519   0.63008   3.21428 
 1                    -5.30086  -1.90606   2.22981 
 1                    -5.58845  -3.26272   1.37 
 1                    -6.83825  -1.93656   1.00616 
 1                     2.28924   1.18063   1.78216 
 1                     0.98612   1.71885   2.72594 
 1                     0.33283   0.35276  -0.06139 
 1                     4.37898  -1.43615  -3.00385 
 1                     3.73913  -2.56402  -1.85634 
 1                    -5.80168  -2.18406  -3.02412 
 1                     5.43834  -1.12257  -0.00199 
 1                     5.72205  -0.01833  -1.26836 
 1                     4.59266   0.88673  -3.54336 
 1                     3.31989   2.22091  -3.49108 
 1                     2.74016   0.91201  -4.63734 
 1                     0.56349   2.65472  -2.90949 
 1                    -7.15955  -3.59753  -0.55024 
 1                    -7.64274  -3.55205  -2.2913 
 1                     3.66802   3.56636   3.57909 
 1                    -0.48169   4.46363  -3.13569 
 1                    -4.27147   4.57195  -0.6812 
 1                    -3.96391   3.93128   0.88895 
 1                    -2.99928   5.20869   0.53496 
 1                     8.49653  -2.42241  -1.1739 
 1                    -1.86304   6.48287  -3.15011 
 1                    -2.8104    5.7222   -1.69521 
 
 Stoichiometry    C33H36N4O6
 Framework group  C1[X(C33H36N4O6)]
 Deg. of freedom   231
 Full point group                 C1      NOp   1
 Largest Abelian subgroup         C1      NOp   1
 Largest concise Abelian subgroup C1      NOp   1
                         Standard orientation:                         
 ---------------------------------------------------------------------
 Center     Atomic      Atomic             Coordinates (Angstroms)
 Number     Number       Type             X           Y           Z
 ---------------------------------------------------------------------
      1          8           0       -3.334519   -1.441982   -2.885389
      2          8           0        2.918525    3.188640    3.132249
      3          8           0        3.675839    1.442800    4.390101
      4          8           0        7.817422   -1.622103   -0.812793
      5          8           0        6.700215   -2.946098   -2.117707
      6          8           0       -2.760094    1.609842    1.394873
      7          7           0       -0.138695   -2.441939    0.959780
      8          7           0       -2.711521   -1.255083   -0.652748
      9          7           0        1.111620    0.095256   -0.654979
     10          7           0       -1.031098    1.448412   -0.073876
     11          6           0       -3.361524   -1.322188    0.574357
     12          6           0       -2.524738   -2.372457    1.531694
     13          6           0       -1.156045   -2.013188    1.714161
     14          6           0       -0.546618   -1.110877    2.730984
     15          6           0        0.747029   -1.134888    2.447058
     16          6           0        1.019410   -1.878059    1.329251
     17          6           0       -4.721584   -1.989739    0.303527
     18          6           0        1.827481   -0.377202    3.203130
     19          6           0       -4.776186   -2.092218   -1.045747
     20          6           0        2.198835   -1.859392    0.366713
     21          6           0        2.152087   -0.902415   -0.569921
     22          6           0       -3.549825   -1.579722   -1.731775
     23          6           0        3.063149   -0.670496   -1.714327
     24          6           0       -1.318336   -0.346623    3.809237
     25          6           0       -5.691881   -2.235368    1.319864
     26          6           0        2.699912    0.520167   -2.345023
     27          6           0        1.928448    1.148285    2.772355
     28          6           0        1.380214    0.938531   -1.721458
     29          6           0        4.247373   -1.504745   -1.937266
     30          6           0       -5.871804   -2.565739   -1.875598
     31          6           0        5.484342   -1.082166   -1.162203
     32          6           0        3.270003    1.184566   -3.626362
     33          6           0        0.467372    2.071218   -1.969879
     34          6           0        2.919426    1.899461    3.599028
     35          6           0       -0.618579    2.211178   -1.151863
     36          6           0       -6.826007   -3.382221   -1.592799
     37          6           0        6.659823   -1.929745   -1.467513
     38          6           0       -1.440520    3.552269   -1.234090
     39          6           0       -2.475596    3.408405   -0.281681
     40          6           0       -2.116608    2.119638    0.486124
     41          6           0       -1.361361    4.574478   -2.327938
     42          6           0       -3.503531    4.281826    0.102356
     43          6           0       -2.096926    5.652610   -2.402697
     44          1           0       -3.450795   -0.449454    1.024741
     45          1           0       -2.528138   -3.327677    1.013210
     46          1           0       -2.978325   -2.290891    2.662786
     47          1           0       -0.261452   -2.996915   -0.032681
     48          1           0       -2.020172   -0.388040   -0.851959
     49          1           0        1.362686   -0.486780    4.283679
     50          1           0        2.866096   -0.729631    3.227786
     51          1           0        2.980002   -2.755045    0.571250
     52          1           0       -2.186315   -0.908720    4.187959
     53          1           0       -0.731427    0.084285    4.550192
     54          1           0       -1.739422    0.633730    3.208100
     55          1           0       -5.277427   -1.961018    2.240438
     56          1           0       -5.544499   -3.329002    1.392028
     57          1           0       -6.812282   -2.023802    1.014837
     58          1           0        2.269128    1.228412    1.777157
     59          1           0        0.957054    1.756366    2.714310
     60          1           0        0.327525    0.357087   -0.062002
     61          1           0        4.403167   -1.400013   -2.982847
     62          1           0        3.777445   -2.526808   -1.826530
     63          1           0       -5.765905   -2.291581   -3.011603
     64          1           0        5.453214   -1.045524    0.017731
     65          1           0        5.723358    0.051594   -1.257772
     66          1           0        4.584952    0.920878   -3.542211
     67          1           0        3.293426    2.237386   -3.503398
     68          1           0        2.734026    0.910547   -4.639089
     69          1           0        0.530266    2.637297   -2.929657
     70          1           0       -7.107659   -3.702568   -0.527544
     71          1           0       -7.588673   -3.678994   -2.269641
     72          1           0        3.611294    3.648833    3.555323
     73          1           0       -0.539938    4.429258   -3.173104
     74          1           0       -4.334770    4.505395   -0.725226
     75          1           0       -4.020717    3.882753    0.850881
     76          1           0       -3.073621    5.170527    0.487225
     77          1           0        8.531274   -2.312205   -1.138340
     78          1           0       -1.949575    6.428616   -3.207100
     79          1           0       -2.888445    5.667304   -1.747037
 ---------------------------------------------------------------------
 Rotational constants (GHZ):           0.0910774           0.0502682           0.0477311
 Standard basis: SVP (5D, 7F)
 There are   825 symmetry adapted cartesian basis functions of A   symmetry.
 There are   782 symmetry adapted basis functions of A   symmetry.
   782 basis functions,  1327 primitive gaussians,   825 cartesian basis functions
   155 alpha electrons      155 beta electrons
       nuclear repulsion energy      5195.7192035314 Hartrees.
 NAtoms=   79 NActive=   79 NUniq=   79 SFac= 1.00D+00 NAtFMM=   60 NAOKFM=T Big=T
 Integral buffers will be    131072 words long.
 Regular integral format.
 Two-electron integral symmetry is turned on.
 One-electron integrals computed using PRISM.
 NBasis=   782 RedAO= T EigKep=  3.15D-04  NBF=   782
 NBsUse=   782 1.00D-06 EigRej= -1.00D+00 NBFU=   782
 ExpMin= 1.22D-01 ExpMax= 2.27D+03 ExpMxC= 3.41D+02 IAcc=3 IRadAn=         5 AccDes= 0.00D+00
 Harris functional with IExCor=  402 and IRadAn=       5 diagonalized for initial guess.
 HarFok:  IExCor=  402 AccDes= 0.00D+00 IRadAn=         5 IDoV= 1 UseB2=F ITyADJ=14
 ICtDFT=  3500011 ScaDFX=  1.000000  1.000000  1.000000  1.000000
 FoFCou: FMM=F IPFlag=           0 FMFlag=      100000 FMFlg1=        2001
         NFxFlg=           0 DoJE=T BraDBF=F KetDBF=T FulRan=T
         wScrn=  0.000000 ICntrl=       500 IOpCl=  0 I1Cent=   200000004 NGrid=           0
         NMat0=    1 NMatS0=      1 NMatT0=    0 NMatD0=    1 NMtDS0=    0 NMtDT0=    0
 Petite list used in FoFCou.
 Requested convergence on RMS density matrix=1.00D-08 within 128 cycles.
 Requested convergence on MAX density matrix=1.00D-06.
 Requested convergence on             energy=1.00D-06.
 No special actions if energy rises.
 Integral accuracy reduced to 1.0D-05 until final iterations.
 EnCoef did     3 forward-backward iterations
 Initial convergence to 1.0D-05 achieved.  Increase integral accuracy.
 SCF Done:  E(RB3LYP) =  -1947.84973088     A.U. after   22 cycles
            NFock= 22  Conv=0.78D-08     -V/T= 2.0105
 DoSCS=F DFT=T ScalE2(SS,OS)=  1.000000  1.000000
 ExpMin= 1.22D-01 ExpMax= 2.27D+03 ExpMxC= 3.41D+02 IAcc=3 IRadAn=         5 AccDes= 0.00D+00
 HarFok:  IExCor=  205 AccDes= 0.00D+00 IRadAn=         5 IDoV=-2 UseB2=F ITyADJ=14
 ICtDFT= 12500011 ScaDFX=  1.000000  1.000000  1.000000  1.000000
 GSVD:  LWork=       -2193 too small for GESVD, short by        9890 words or        9890 for optimal perf.
 Range of M.O.s used for correlation:    44   782
 NBasis=   782 NAE=   155 NBE=   155 NFC=    43 NFV=     0
 NROrb=    739 NOA=   112 NOB=   112 NVA=   627 NVB=   627

 **** Warning!!: The smallest alpha delta epsilon is  0.52850057D-01

 Orbital symmetries:
       Occupied  (A) (A) (A) (A) (A) (A) (A) (A) (A) (A) (A) (A)
                 (A) (A) (A) (A) (A) (A) (A) (A) (A) (A) (A) (A)
                 (A) (A) (A) (A) (A) (A) (A) (A) (A) (A) (A) (A)
                 (A) (A) (A) (A) (A) (A) (A) (A) (A) (A) (A) (A)
                 (A) (A) (A) (A) (A) (A) (A) (A) (A) (A) (A) (A)
                 (A) (A) (A) (A) (A) (A) (A) (A) (A) (A) (A) (A)
                 (A) (A) (A) (A) (A) (A) (A) (A) (A) (A) (A) (A)
                 (A) (A) (A) (A) (A) (A) (A) (A) (A) (A) (A) (A)
                 (A) (A) (A) (A) (A) (A) (A) (A) (A) (A) (A) (A)
                 (A) (A) (A) (A) (A) (A) (A) (A) (A) (A) (A) (A)
                 (A) (A) (A) (A) (A) (A) (A) (A) (A) (A) (A) (A)
                 (A) (A) (A) (A) (A) (A) (A) (A) (A) (A) (A) (A)
                 (A) (A) (A) (A) (A) (A) (A) (A) (A) (A) (A)
       Virtual   (A) (A) (A) (A) (A) (A) (A) (A) (A) (A) (A) (A)
                 (A) (A) (A) (A) (A) (A) (A) (A) (A) (A) (A) (A)
                 (A) (A) (A) (A) (A) (A) (A) (A) (A) (A) (A) (A)
                 (A) (A) (A) (A) (A) (A) (A) (A) (A) (A) (A) (A)
                 (A) (A) (A) (A) (A) (A) (A) (A) (A) (A) (A) (A)
                 (A) (A) (A) (A) (A) (A) (A) (A) (A) (A) (A) (A)
                 (A) (A) (A) (A) (A) (A) (A) (A) (A) (A) (A) (A)
                 (A) (A) (A) (A) (A) (A) (A) (A) (A) (A) (A) (A)
                 (A) (A) (A) (A) (A) (A) (A) (A) (A) (A) (A) (A)
                 (A) (A) (A) (A) (A) (A) (A) (A) (A) (A) (A) (A)
                 (A) (A) (A) (A) (A) (A) (A) (A) (A) (A) (A) (A)
                 (A) (A) (A) (A) (A) (A) (A) (A) (A) (A) (A) (A)
                 (A) (A) (A) (A) (A) (A) (A) (A) (A) (A) (A) (A)
                 (A) (A) (A) (A) (A) (A) (A) (A) (A) (A) (A) (A)
                 (A) (A) (A) (A) (A) (A) (A) (A) (A) (A) (A) (A)
                 (A) (A) (A) (A) (A) (A) (A) (A) (A) (A) (A) (A)
                 (A) (A) (A) (A) (A) (A) (A) (A) (A) (A) (A) (A)
                 (A) (A) (A) (A) (A) (A) (A) (A) (A) (A) (A) (A)
                 (A) (A) (A) (A) (A) (A) (A) (A) (A) (A) (A) (A)
                 (A) (A) (A) (A) (A) (A) (A) (A) (A) (A) (A) (A)
                 (A) (A) (A) (A) (A) (A) (A) (A) (A) (A) (A) (A)
                 (A) (A) (A) (A) (A) (A) (A) (A) (A) (A) (A) (A)
                 (A) (A) (A) (A) (A) (A) (A) (A) (A) (A) (A) (A)
                 (A) (A) (A) (A) (A) (A) (A) (A) (A) (A) (A) (A)
                 (A) (A) (A) (A) (A) (A) (A) (A) (A) (A) (A) (A)
                 (A) (A) (A) (A) (A) (A) (A) (A) (A) (A) (A) (A)
                 (A) (A) (A) (A) (A) (A) (A) (A) (A) (A) (A) (A)
                 (A) (A) (A) (A) (A) (A) (A) (A) (A) (A) (A) (A)
                 (A) (A) (A) (A) (A) (A) (A) (A) (A) (A) (A) (A)
                 (A) (A) (A) (A) (A) (A) (A) (A) (A) (A) (A) (A)
                 (A) (A) (A) (A) (A) (A) (A) (A) (A) (A) (A) (A)
                 (A) (A) (A) (A) (A) (A) (A) (A) (A) (A) (A) (A)
                 (A) (A) (A) (A) (A) (A) (A) (A) (A) (A) (A) (A)
                 (A) (A) (A) (A) (A) (A) (A) (A) (A) (A) (A) (A)
                 (A) (A) (A) (A) (A) (A) (A) (A) (A) (A) (A) (A)
                 (A) (A) (A) (A) (A) (A) (A) (A) (A) (A) (A) (A)
                 (A) (A) (A) (A) (A) (A) (A) (A) (A) (A) (A) (A)
                 (A) (A) (A) (A) (A) (A) (A) (A) (A) (A) (A) (A)
                 (A) (A) (A) (A) (A) (A) (A) (A) (A) (A) (A) (A)
                 (A) (A) (A) (A) (A) (A) (A) (A) (A) (A) (A) (A)
                 (A) (A) (A) (A) (A) (A) (A) (A) (A) (A) (A) (A)
                 (A) (A) (A) (A) (A) (A) (A) (A) (A) (A) (A) (A)
                 (A) (A) (A) (A) (A) (A) (A) (A) (A) (A) (A) (A)
                 (A) (A) (A) (A) (A) (A) (A) (A) (A) (A) (A) (A)
                 (A) (A) (A) (A) (A) (A) (A) (A) (A) (A) (A) (A)
                 (A) (A) (A) (A) (A) (A) (A) (A) (A) (A) (A) (A)
                 (A) (A) (A) (A) (A) (A) (A) (A) (A) (A) (A) (A)
                 (A) (A) (A) (A) (A) (A) (A) (A) (A) (A) (A) (A)
                 (A) (A) (A) (A) (A) (A) (A) (A) (A) (A) (A) (A)
                 (A) (A) (A) (A) (A) (A) (A) (A) (A) (A) (A) (A)
                 (A) (A) (A) (A) (A) (A) (A) (A) (A) (A) (A) (A)
                 (A) (A) (A) (A) (A) (A) (A) (A) (A) (A) (A) (A)
                 (A) (A) (A)
     4 initial guesses have been made.
 Convergence on wavefunction:    0.001000000000000
 Iteration     1 Dimension     4 NMult     0 NNew      4
 CISAX will form     4 AO SS matrices at one time.
 Iteration     2 Dimension     6 NMult     4 NNew      2
 Iteration     3 Dimension     8 NMult     6 NNew      2
 Iteration     4 Dimension    10 NMult     8 NNew      2
 Iteration     5 Dimension    12 NMult    10 NNew      2
 ***********************************************************************
 Excited states from <AA,BB:AA,BB> singles matrix:
 ***********************************************************************
 
 Ground to excited state transition densities written to RWF  633
 Ground to excited state transition electric dipole moments (Au):
       state          X           Y           Z        Dip. S.      Osc.
         1         0.0804      0.0899     -0.0800      0.0210      0.0004
 Ground to excited state transition velocity dipole moments (Au):
       state          X           Y           Z        Dip. S.      Osc.
         1        -0.0013     -0.0021      0.0013      0.0000      0.0002
 Ground to excited state transition magnetic dipole moments (Au):
       state          X           Y           Z
         1         0.0718      0.1445      0.1902
 Ground to excited state transition velocity quadrupole moments (Au):
       state          XX          YY          ZZ          XY          XZ          YZ
         1        -0.0061     -0.0004      0.0014      0.0213     -0.0038      0.0035
 <0|del|b> * <b|rxdel|0> + <0|del|b> * <b|delr+rdel|0>
 Rotatory Strengths (R) in cgs (10**-40 erg-esu-cm/Gauss)
       state          XX          YY          ZZ    R(velocity)    E-M Angle
         1        -0.4584      1.6556     -4.9823     -1.2617      102.08
 1/2[<0|r|b>*<b|rxdel|0> + (<0|rxdel|b>*<b|r|0>)*]
 Rotatory Strengths (R) in cgs (10**-40 erg-esu-cm/Gauss)
       state          XX          YY          ZZ     R(length)
         1        -4.0830     -9.1904     10.7636     -0.8366
  1/2[<0|del|b>*<b|r|0> + (<0|r|b>*<b|del|0>)*] (Au)
       state          X           Y           Z        Dip. S.   Osc.(frdel)
         1        -0.0001     -0.0002     -0.0001      0.0004      0.0003

 Excitation energies and oscillator strengths:
 
 Excited State   1:      Singlet-A      0.7373 eV 1681.51 nm  f=0.0004  <S**2>=0.000
     155 ->156         0.70467
 This state for optimization and/or second-order correction.
 Total Energy, E(TD-HF/TD-DFT) =  -1947.82263422    
 Copying the excited state density for this state as the 1-particle RhoCI density.
 SavETr:  write IOETrn=   770 NScale= 10 NData=  16 NLR=1 NState=    1 LETran=      28.

 **********************************************************************

            Population analysis using the SCF density.

 **********************************************************************

 Orbital symmetries:
       Occupied  (A) (A) (A) (A) (A) (A) (A) (A) (A) (A) (A) (A)
                 (A) (A) (A) (A) (A) (A) (A) (A) (A) (A) (A) (A)
                 (A) (A) (A) (A) (A) (A) (A) (A) (A) (A) (A) (A)
                 (A) (A) (A) (A) (A) (A) (A) (A) (A) (A) (A) (A)
                 (A) (A) (A) (A) (A) (A) (A) (A) (A) (A) (A) (A)
                 (A) (A) (A) (A) (A) (A) (A) (A) (A) (A) (A) (A)
                 (A) (A) (A) (A) (A) (A) (A) (A) (A) (A) (A) (A)
                 (A) (A) (A) (A) (A) (A) (A) (A) (A) (A) (A) (A)
                 (A) (A) (A) (A) (A) (A) (A) (A) (A) (A) (A) (A)
                 (A) (A) (A) (A) (A) (A) (A) (A) (A) (A) (A) (A)
                 (A) (A) (A) (A) (A) (A) (A) (A) (A) (A) (A) (A)
                 (A) (A) (A) (A) (A) (A) (A) (A) (A) (A) (A) (A)
                 (A) (A) (A) (A) (A) (A) (A) (A) (A) (A) (A)
       Virtual   (A) (A) (A) (A) (A) (A) (A) (A) (A) (A) (A) (A)
                 (A) (A) (A) (A) (A) (A) (A) (A) (A) (A) (A) (A)
                 (A) (A) (A) (A) (A) (A) (A) (A) (A) (A) (A) (A)
                 (A) (A) (A) (A) (A) (A) (A) (A) (A) (A) (A) (A)
                 (A) (A) (A) (A) (A) (A) (A) (A) (A) (A) (A) (A)
                 (A) (A) (A) (A) (A) (A) (A) (A) (A) (A) (A) (A)
                 (A) (A) (A) (A) (A) (A) (A) (A) (A) (A) (A) (A)
                 (A) (A) (A) (A) (A) (A) (A) (A) (A) (A) (A) (A)
                 (A) (A) (A) (A) (A) (A) (A) (A) (A) (A) (A) (A)
                 (A) (A) (A) (A) (A) (A) (A) (A) (A) (A) (A) (A)
                 (A) (A) (A) (A) (A) (A) (A) (A) (A) (A) (A) (A)
                 (A) (A) (A) (A) (A) (A) (A) (A) (A) (A) (A) (A)
                 (A) (A) (A) (A) (A) (A) (A) (A) (A) (A) (A) (A)
                 (A) (A) (A) (A) (A) (A) (A) (A) (A) (A) (A) (A)
                 (A) (A) (A) (A) (A) (A) (A) (A) (A) (A) (A) (A)
                 (A) (A) (A) (A) (A) (A) (A) (A) (A) (A) (A) (A)
                 (A) (A) (A) (A) (A) (A) (A) (A) (A) (A) (A) (A)
                 (A) (A) (A) (A) (A) (A) (A) (A) (A) (A) (A) (A)
                 (A) (A) (A) (A) (A) (A) (A) (A) (A) (A) (A) (A)
                 (A) (A) (A) (A) (A) (A) (A) (A) (A) (A) (A) (A)
                 (A) (A) (A) (A) (A) (A) (A) (A) (A) (A) (A) (A)
                 (A) (A) (A) (A) (A) (A) (A) (A) (A) (A) (A) (A)
                 (A) (A) (A) (A) (A) (A) (A) (A) (A) (A) (A) (A)
                 (A) (A) (A) (A) (A) (A) (A) (A) (A) (A) (A) (A)
                 (A) (A) (A) (A) (A) (A) (A) (A) (A) (A) (A) (A)
                 (A) (A) (A) (A) (A) (A) (A) (A) (A) (A) (A) (A)
                 (A) (A) (A) (A) (A) (A) (A) (A) (A) (A) (A) (A)
                 (A) (A) (A) (A) (A) (A) (A) (A) (A) (A) (A) (A)
                 (A) (A) (A) (A) (A) (A) (A) (A) (A) (A) (A) (A)
                 (A) (A) (A) (A) (A) (A) (A) (A) (A) (A) (A) (A)
                 (A) (A) (A) (A) (A) (A) (A) (A) (A) (A) (A) (A)
                 (A) (A) (A) (A) (A) (A) (A) (A) (A) (A) (A) (A)
                 (A) (A) (A) (A) (A) (A) (A) (A) (A) (A) (A) (A)
                 (A) (A) (A) (A) (A) (A) (A) (A) (A) (A) (A) (A)
                 (A) (A) (A) (A) (A) (A) (A) (A) (A) (A) (A) (A)
                 (A) (A) (A) (A) (A) (A) (A) (A) (A) (A) (A) (A)
                 (A) (A) (A) (A) (A) (A) (A) (A) (A) (A) (A) (A)
                 (A) (A) (A) (A) (A) (A) (A) (A) (A) (A) (A) (A)
                 (A) (A) (A) (A) (A) (A) (A) (A) (A) (A) (A) (A)
                 (A) (A) (A) (A) (A) (A) (A) (A) (A) (A) (A) (A)
                 (A) (A) (A) (A) (A) (A) (A) (A) (A) (A) (A) (A)
                 (A) (A) (A) (A) (A) (A) (A) (A) (A) (A) (A) (A)
                 (A) (A) (A) (A) (A) (A) (A) (A) (A) (A) (A) (A)
                 (A) (A) (A) (A) (A) (A) (A) (A) (A) (A) (A) (A)
                 (A) (A) (A) (A) (A) (A) (A) (A) (A) (A) (A) (A)
                 (A) (A) (A) (A) (A) (A) (A) (A) (A) (A) (A) (A)
                 (A) (A) (A) (A) (A) (A) (A) (A) (A) (A) (A) (A)
                 (A) (A) (A) (A) (A) (A) (A) (A) (A) (A) (A) (A)
                 (A) (A) (A) (A) (A) (A) (A) (A) (A) (A) (A) (A)
                 (A) (A) (A) (A) (A) (A) (A) (A) (A) (A) (A) (A)
                 (A) (A) (A) (A) (A) (A) (A) (A) (A) (A) (A) (A)
                 (A) (A) (A) (A) (A) (A) (A) (A) (A) (A) (A) (A)
                 (A) (A) (A)
 The electronic state is 1-A.
 Alpha  occ. eigenvalues --  -19.18406 -19.17209 -19.13367 -19.12802 -19.11667
 Alpha  occ. eigenvalues --  -19.08736 -14.38260 -14.37629 -14.32290 -14.31332
 Alpha  occ. eigenvalues --  -10.33108 -10.31239 -10.28449 -10.28238 -10.26536
 Alpha  occ. eigenvalues --  -10.26081 -10.25449 -10.24857 -10.24818 -10.24394
 Alpha  occ. eigenvalues --  -10.24230 -10.23907 -10.22558 -10.22140 -10.21643
 Alpha  occ. eigenvalues --  -10.21511 -10.21128 -10.20398 -10.19671 -10.19574
 Alpha  occ. eigenvalues --  -10.19380 -10.19377 -10.19373 -10.19327 -10.19286
 Alpha  occ. eigenvalues --  -10.19200 -10.18832 -10.17860 -10.17540 -10.17122
 Alpha  occ. eigenvalues --  -10.16975 -10.16143 -10.15708  -1.10093  -1.09528
 Alpha  occ. eigenvalues --   -1.02689  -1.02400  -1.01649  -0.99791  -0.98722
 Alpha  occ. eigenvalues --   -0.97585  -0.92387  -0.91797  -0.85240  -0.82008
 Alpha  occ. eigenvalues --   -0.81673  -0.80701  -0.79764  -0.79518  -0.78259
 Alpha  occ. eigenvalues --   -0.77298  -0.76324  -0.75760  -0.75137  -0.73171
 Alpha  occ. eigenvalues --   -0.70915  -0.70152  -0.69840  -0.69346  -0.67139
 Alpha  occ. eigenvalues --   -0.66284  -0.65652  -0.62870  -0.60286  -0.59995
 Alpha  occ. eigenvalues --   -0.58957  -0.58608  -0.58346  -0.57438  -0.56730
 Alpha  occ. eigenvalues --   -0.55228  -0.54726  -0.54649  -0.53312  -0.52930
 Alpha  occ. eigenvalues --   -0.51919  -0.51259  -0.50836  -0.50523  -0.49403
 Alpha  occ. eigenvalues --   -0.48747  -0.48650  -0.48368  -0.48046  -0.47523
 Alpha  occ. eigenvalues --   -0.47365  -0.47141  -0.46621  -0.46203  -0.45573
 Alpha  occ. eigenvalues --   -0.45299  -0.45107  -0.44566  -0.44248  -0.43980
 Alpha  occ. eigenvalues --   -0.43722  -0.43395  -0.43093  -0.42903  -0.42480
 Alpha  occ. eigenvalues --   -0.42179  -0.41706  -0.41592  -0.41537  -0.41105
 Alpha  occ. eigenvalues --   -0.40650  -0.40549  -0.40353  -0.40116  -0.39989
 Alpha  occ. eigenvalues --   -0.39626  -0.39562  -0.38634  -0.38456  -0.38003
 Alpha  occ. eigenvalues --   -0.37844  -0.37462  -0.37243  -0.36530  -0.36126
 Alpha  occ. eigenvalues --   -0.35874  -0.35680  -0.35231  -0.34962  -0.34480
 Alpha  occ. eigenvalues --   -0.33435  -0.32790  -0.32612  -0.32348  -0.31878
 Alpha  occ. eigenvalues --   -0.31072  -0.29921  -0.29693  -0.29094  -0.28999
 Alpha  occ. eigenvalues --   -0.28324  -0.27983  -0.25801  -0.25065  -0.23794
 Alpha  occ. eigenvalues --   -0.23617  -0.23363  -0.22906  -0.22261  -0.17662
 Alpha virt. eigenvalues --   -0.12377  -0.07531  -0.02860  -0.01828  -0.01546
 Alpha virt. eigenvalues --    0.00496   0.01133   0.02572   0.02663   0.02798
 Alpha virt. eigenvalues --    0.03280   0.03660   0.04248   0.04732   0.04796
 Alpha virt. eigenvalues --    0.04986   0.05937   0.06266   0.06463   0.06855
 Alpha virt. eigenvalues --    0.07120   0.07465   0.07951   0.08404   0.08617
 Alpha virt. eigenvalues --    0.08988   0.09350   0.09708   0.09849   0.10169
 Alpha virt. eigenvalues --    0.10491   0.11422   0.11864   0.11946   0.12110
 Alpha virt. eigenvalues --    0.12980   0.13420   0.13631   0.14255   0.14636
 Alpha virt. eigenvalues --    0.15084   0.15258   0.15814   0.15912   0.16394
 Alpha virt. eigenvalues --    0.16709   0.16897   0.17152   0.17625   0.18251
 Alpha virt. eigenvalues --    0.18424   0.18711   0.19119   0.19433   0.20207
 Alpha virt. eigenvalues --    0.21198   0.21421   0.21892   0.22216   0.22820
 Alpha virt. eigenvalues --    0.23211   0.23506   0.24367   0.24744   0.25060
 Alpha virt. eigenvalues --    0.25571   0.25585   0.26071   0.26720   0.26977
 Alpha virt. eigenvalues --    0.27452   0.28144   0.28753   0.29068   0.29645
 Alpha virt. eigenvalues --    0.29963   0.30874   0.30925   0.31699   0.31854
 Alpha virt. eigenvalues --    0.32402   0.32965   0.33525   0.33776   0.34137
 Alpha virt. eigenvalues --    0.34392   0.34780   0.35308   0.35721   0.35745
 Alpha virt. eigenvalues --    0.36655   0.37232   0.37750   0.38018   0.38772
 Alpha virt. eigenvalues --    0.39189   0.39807   0.40036   0.40784   0.41373
 Alpha virt. eigenvalues --    0.41760   0.42071   0.42787   0.43012   0.43525
 Alpha virt. eigenvalues --    0.43582   0.44340   0.44441   0.44965   0.45261
 Alpha virt. eigenvalues --    0.45440   0.45693   0.45920   0.45997   0.46598
 Alpha virt. eigenvalues --    0.47083   0.47454   0.47540   0.47946   0.48441
 Alpha virt. eigenvalues --    0.48706   0.48892   0.49045   0.49315   0.49814
 Alpha virt. eigenvalues --    0.49983   0.50294   0.50704   0.51072   0.51500
 Alpha virt. eigenvalues --    0.51815   0.52213   0.52513   0.52949   0.53526
 Alpha virt. eigenvalues --    0.54041   0.54189   0.54825   0.55201   0.55535
 Alpha virt. eigenvalues --    0.56368   0.56939   0.57164   0.57569   0.57911
 Alpha virt. eigenvalues --    0.58095   0.58579   0.58705   0.59069   0.59476
 Alpha virt. eigenvalues --    0.60024   0.60268   0.60391   0.60574   0.60895
 Alpha virt. eigenvalues --    0.61208   0.61543   0.61864   0.61948   0.62525
 Alpha virt. eigenvalues --    0.62559   0.62847   0.63081   0.63462   0.63582
 Alpha virt. eigenvalues --    0.64100   0.64264   0.64374   0.64554   0.64780
 Alpha virt. eigenvalues --    0.65184   0.65567   0.65745   0.65916   0.66267
 Alpha virt. eigenvalues --    0.66548   0.66859   0.66899   0.67236   0.67764
 Alpha virt. eigenvalues --    0.67830   0.68291   0.68543   0.68712   0.68984
 Alpha virt. eigenvalues --    0.69111   0.69381   0.69542   0.69744   0.70096
 Alpha virt. eigenvalues --    0.70442   0.70822   0.71649   0.71739   0.72110
 Alpha virt. eigenvalues --    0.72312   0.72599   0.73045   0.73339   0.73855
 Alpha virt. eigenvalues --    0.74404   0.74446   0.74983   0.75203   0.75374
 Alpha virt. eigenvalues --    0.75690   0.75927   0.76306   0.77187   0.77313
 Alpha virt. eigenvalues --    0.77780   0.78011   0.78465   0.78880   0.79190
 Alpha virt. eigenvalues --    0.79600   0.80230   0.80753   0.81107   0.81526
 Alpha virt. eigenvalues --    0.82492   0.83151   0.83309   0.84346   0.84817
 Alpha virt. eigenvalues --    0.85431   0.86058   0.86358   0.87128   0.87812
 Alpha virt. eigenvalues --    0.88238   0.88987   0.89160   0.89659   0.90005
 Alpha virt. eigenvalues --    0.90447   0.91842   0.92296   0.92738   0.93076
 Alpha virt. eigenvalues --    0.93383   0.94500   0.95406   0.95644   0.95953
 Alpha virt. eigenvalues --    0.96583   0.97211   0.97770   0.98177   0.98762
 Alpha virt. eigenvalues --    0.98925   0.99470   1.00471   1.00821   1.01868
 Alpha virt. eigenvalues --    1.03012   1.03480   1.03883   1.04474   1.06267
 Alpha virt. eigenvalues --    1.06738   1.07707   1.08561   1.09045   1.09723
 Alpha virt. eigenvalues --    1.10289   1.11019   1.11504   1.12019   1.12470
 Alpha virt. eigenvalues --    1.13050   1.13490   1.14071   1.14862   1.15491
 Alpha virt. eigenvalues --    1.17038   1.17400   1.17895   1.18250   1.19588
 Alpha virt. eigenvalues --    1.20191   1.20291   1.20951   1.21469   1.22190
 Alpha virt. eigenvalues --    1.22615   1.23840   1.24447   1.24756   1.25174
 Alpha virt. eigenvalues --    1.25901   1.26169   1.27294   1.28084   1.28271
 Alpha virt. eigenvalues --    1.28842   1.29429   1.29706   1.30182   1.30849
 Alpha virt. eigenvalues --    1.31622   1.32067   1.32300   1.33060   1.33706
 Alpha virt. eigenvalues --    1.33775   1.35081   1.35349   1.36387   1.37339
 Alpha virt. eigenvalues --    1.37867   1.38361   1.38503   1.39602   1.40132
 Alpha virt. eigenvalues --    1.41287   1.41865   1.42820   1.43871   1.44121
 Alpha virt. eigenvalues --    1.46123   1.46540   1.47093   1.47920   1.48379
 Alpha virt. eigenvalues --    1.48782   1.49225   1.49995   1.51200   1.51586
 Alpha virt. eigenvalues --    1.51768   1.52413   1.53246   1.53757   1.54010
 Alpha virt. eigenvalues --    1.55037   1.55519   1.56398   1.57238   1.57559
 Alpha virt. eigenvalues --    1.58176   1.58740   1.58985   1.59745   1.59840
 Alpha virt. eigenvalues --    1.60400   1.60689   1.61127   1.62143   1.62507
 Alpha virt. eigenvalues --    1.62862   1.63343   1.63800   1.63882   1.64865
 Alpha virt. eigenvalues --    1.65248   1.65591   1.66093   1.66474   1.66512
 Alpha virt. eigenvalues --    1.66822   1.67740   1.68040   1.68690   1.68894
 Alpha virt. eigenvalues --    1.68904   1.68960   1.69656   1.70154   1.70730
 Alpha virt. eigenvalues --    1.71050   1.71618   1.71761   1.72651   1.72915
 Alpha virt. eigenvalues --    1.73173   1.73602   1.74071   1.74576   1.75312
 Alpha virt. eigenvalues --    1.75419   1.76297   1.76341   1.77050   1.77259
 Alpha virt. eigenvalues --    1.77633   1.77827   1.78244   1.78620   1.79416
 Alpha virt. eigenvalues --    1.79525   1.80201   1.80681   1.81217   1.81292
 Alpha virt. eigenvalues --    1.81795   1.82240   1.82546   1.82792   1.83321
 Alpha virt. eigenvalues --    1.84133   1.84304   1.84773   1.85526   1.85963
 Alpha virt. eigenvalues --    1.86360   1.87605   1.87885   1.88318   1.89019
 Alpha virt. eigenvalues --    1.89148   1.89271   1.89592   1.90071   1.90175
 Alpha virt. eigenvalues --    1.90723   1.90922   1.91022   1.91474   1.91795
 Alpha virt. eigenvalues --    1.92197   1.92937   1.93335   1.94310   1.94672
 Alpha virt. eigenvalues --    1.95236   1.95437   1.95755   1.96403   1.96756
 Alpha virt. eigenvalues --    1.97457   1.97977   1.98091   1.98465   1.99304
 Alpha virt. eigenvalues --    1.99848   2.00019   2.00627   2.01108   2.02003
 Alpha virt. eigenvalues --    2.02185   2.02660   2.02804   2.03472   2.04191
 Alpha virt. eigenvalues --    2.04250   2.04738   2.05464   2.06005   2.07084
 Alpha virt. eigenvalues --    2.07549   2.08380   2.09208   2.10238   2.10413
 Alpha virt. eigenvalues --    2.10617   2.11120   2.11446   2.12128   2.12928
 Alpha virt. eigenvalues --    2.13103   2.14213   2.15123   2.15663   2.15969
 Alpha virt. eigenvalues --    2.16391   2.17676   2.18311   2.19436   2.20295
 Alpha virt. eigenvalues --    2.21269   2.21870   2.22158   2.22901   2.24021
 Alpha virt. eigenvalues --    2.25166   2.25779   2.26556   2.26625   2.26868
 Alpha virt. eigenvalues --    2.27490   2.28283   2.28781   2.29800   2.30360
 Alpha virt. eigenvalues --    2.30781   2.31170   2.31866   2.32046   2.32452
 Alpha virt. eigenvalues --    2.33822   2.34581   2.34649   2.35116   2.35612
 Alpha virt. eigenvalues --    2.36476   2.37856   2.38281   2.38639   2.39031
 Alpha virt. eigenvalues --    2.39313   2.40282   2.40413   2.41127   2.41299
 Alpha virt. eigenvalues --    2.42417   2.42512   2.43407   2.44630   2.44876
 Alpha virt. eigenvalues --    2.45343   2.46195   2.48348   2.48889   2.49448
 Alpha virt. eigenvalues --    2.49760   2.50103   2.50413   2.51287   2.52057
 Alpha virt. eigenvalues --    2.53115   2.53811   2.54282   2.55863   2.56803
 Alpha virt. eigenvalues --    2.57435   2.58167   2.58985   2.60147   2.61358
 Alpha virt. eigenvalues --    2.62537   2.62885   2.63220   2.64026   2.64523
 Alpha virt. eigenvalues --    2.65636   2.66420   2.67103   2.67580   2.68406
 Alpha virt. eigenvalues --    2.69444   2.69966   2.70294   2.70680   2.70818
 Alpha virt. eigenvalues --    2.70946   2.71207   2.72801   2.73669   2.74109
 Alpha virt. eigenvalues --    2.74695   2.75507   2.75810   2.76193   2.76778
 Alpha virt. eigenvalues --    2.78420   2.78833   2.78970   2.79842   2.80688
 Alpha virt. eigenvalues --    2.81665   2.82877   2.83335   2.83692   2.84809
 Alpha virt. eigenvalues --    2.84893   2.85562   2.86204   2.87472   2.89133
 Alpha virt. eigenvalues --    2.89314   2.89418   2.91725   2.92272   2.92996
 Alpha virt. eigenvalues --    2.93171   2.94103   2.94489   2.95130   2.95579
 Alpha virt. eigenvalues --    2.97241   2.97425   2.98822   3.00046   3.00869
 Alpha virt. eigenvalues --    3.01203   3.01923   3.02850   3.03453   3.03816
 Alpha virt. eigenvalues --    3.05751   3.08296   3.08547   3.09035   3.12984
 Alpha virt. eigenvalues --    3.14057   3.14545   3.14818   3.15871   3.16414
 Alpha virt. eigenvalues --    3.17514   3.17689   3.19686   3.20516   3.21437
 Alpha virt. eigenvalues --    3.21821   3.24518   3.24689   3.25015   3.28621
 Alpha virt. eigenvalues --    3.32789   3.37675   3.39220   3.40374   3.41630
 Alpha virt. eigenvalues --    3.46075   3.51461   3.51802   3.53487   3.57333
 Alpha virt. eigenvalues --    3.58726   3.60555   3.67496   3.67885   3.69631
 Alpha virt. eigenvalues --    3.71828   3.82053
          Condensed to atoms (all electrons):
 Mulliken charges:
               1
     1  O   -0.183487
     2  O   -0.183628
     3  O   -0.193817
     4  O   -0.242840
     5  O   -0.226448
     6  O   -0.215131
     7  N   -0.042925
     8  N   -0.255464
     9  N   -0.122512
    10  N   -0.328822
    11  C    0.146395
    12  C    0.146027
    13  C   -0.136806
    14  C   -0.107072
    15  C   -0.071831
    16  C   -0.100319
    17  C   -0.188062
    18  C    0.069367
    19  C   -0.086122
    20  C   -0.193569
    21  C    0.242814
    22  C    0.135920
    23  C   -0.127582
    24  C    0.092802
    25  C    0.166730
    26  C   -0.122530
    27  C   -0.016228
    28  C    0.098669
    29  C    0.187160
    30  C   -0.013569
    31  C   -0.042091
    32  C    0.008064
    33  C   -0.105916
    34  C    0.128215
    35  C    0.123653
    36  C   -0.060060
    37  C    0.145324
    38  C    0.017348
    39  C   -0.203363
    40  C    0.176470
    41  C   -0.051548
    42  C    0.159587
    43  C    0.018938
    44  H   -0.030651
    45  H   -0.037589
    46  H    0.019477
    47  H    0.163834
    48  H    0.173348
    49  H    0.028182
    50  H    0.000711
    51  H    0.070351
    52  H    0.005246
    53  H   -0.024061
    54  H    0.061029
    55  H   -0.017235
    56  H    0.024783
    57  H    0.068494
    58  H    0.009662
    59  H    0.048432
    60  H    0.178549
    61  H    0.006157
    62  H    0.038217
    63  H    0.020865
    64  H    0.071368
    65  H    0.056349
    66  H    0.041336
    67  H    0.027605
    68  H    0.086993
    69  H    0.014561
    70  H    0.002793
    71  H    0.004215
    72  H    0.149064
    73  H    0.013716
    74  H    0.054042
    75  H   -0.033384
    76  H    0.029561
    77  H    0.221071
    78  H    0.037824
    79  H   -0.026657
 Sum of Mulliken charges =  -0.00000
 Mulliken charges with hydrogens summed into heavy atoms:
               1
     1  O   -0.183487
     2  O   -0.034564
     3  O   -0.193817
     4  O   -0.021769
     5  O   -0.226448
     6  O   -0.215131
     7  N    0.120909
     8  N   -0.082116
     9  N    0.056037
    10  N   -0.328822
    11  C    0.115744
    12  C    0.127914
    13  C   -0.136806
    14  C   -0.107072
    15  C   -0.071831
    16  C   -0.100319
    17  C   -0.188062
    18  C    0.098260
    19  C   -0.086122
    20  C   -0.123218
    21  C    0.242814
    22  C    0.135920
    23  C   -0.127582
    24  C    0.135016
    25  C    0.242773
    26  C   -0.122530
    27  C    0.041867
    28  C    0.098669
    29  C    0.231534
    30  C    0.007296
    31  C    0.085626
    32  C    0.163999
    33  C   -0.091356
    34  C    0.128215
    35  C    0.123653
    36  C   -0.053052
    37  C    0.145324
    38  C    0.017348
    39  C   -0.203363
    40  C    0.176470
    41  C   -0.037832
    42  C    0.209806
    43  C    0.030105
 Electronic spatial extent (au):  <R**2>=          25898.1933
 Charge=              0.0000 electrons
 Dipole moment (field-independent basis, Debye):
    X=              3.9218    Y=              3.2497    Z=             -1.8432  Tot=              5.4165
 Quadrupole moment (field-independent basis, Debye-Ang):
   XX=           -238.7631   YY=           -237.2639   ZZ=           -268.7448
   XY=              1.6527   XZ=            -22.6048   YZ=            -14.1213
 Traceless Quadrupole moment (field-independent basis, Debye-Ang):
   XX=              9.4942   YY=             10.9934   ZZ=            -20.4875
   XY=              1.6527   XZ=            -22.6048   YZ=            -14.1213
 Octapole moment (field-independent basis, Debye-Ang**2):
  XXX=            172.2685  YYY=             98.4296  ZZZ=            -34.5796  XYY=             -8.6335
  XXY=             20.8935  XXZ=             14.6853  XZZ=             16.9815  YZZ=             73.8696
  YYZ=             23.1487  XYZ=             14.4276
 Hexadecapole moment (field-independent basis, Debye-Ang**3):
 XXXX=         -17488.3957 YYYY=          -8015.0812 ZZZZ=          -7067.5471 XXXY=           -196.9847
 XXXZ=           -349.0570 YYYX=            -95.6627 YYYZ=             27.2870 ZZZX=           -351.6694
 ZZZY=              4.6991 XXYY=          -4411.2872 XXZZ=          -4719.7169 YYZZ=          -2411.2164
 XXYZ=           -178.8409 YYXZ=            223.4587 ZZXY=            108.6416
 N-N= 5.195719203531D+03 E-N=-1.492091760274D+04  KE= 1.927647337046D+03
 1\1\GINC-PADAWAN\SP\RB3LYP TD-FC\SVP\C33H36N4O6\PADAWAN\29-Jul-2019\0\
 \# td=(NStates=1) B3LYP/SVP\\TD\\0,1\O,0,-3.3583727475,-1.3699320487,-
 2.8944200963\O,0,2.9682072755,3.1196636249,3.1531495859\O,0,3.70267457
 57,1.3524623745,4.394613905\O,0,7.7929578987,-1.7251686311,-0.84124488
 63\O,0,6.6552696834,-3.0219029852,-2.1558020283\O,0,-2.7346643729,1.63
 6189108,1.4112111816\N,0,-0.1713128775,-2.4481911334,0.9368385247\N,0,
 -2.7295149895,-1.2112362586,-0.6612382684\N,0,1.1122827777,0.085069416
 6,-0.6578607233\N,0,-1.0102801735,1.4631817261,-0.0616370616\C,0,-3.37
 8593009,-1.279835546,0.5662736013\C,0,-2.5552941555,-2.3500691531,1.51
 31366205\C,0,-1.1814037821,-2.0117189859,1.6965276414\C,0,-0.557815583
 9,-1.1269538871,2.7201600365\C,0,0.7349446071,-1.1667216732,2.43397459
 21\C,0,0.9951722034,-1.9039168264,1.3093357376\C,0,-4.7483297796,-1.92
 57782265,0.2918360709\C,0,1.8270873001,-0.4309334229,3.1948616407\C,0,
 -4.8063569971,-2.0157502834,-1.0581861591\C,0,2.1733252889,-1.89350754
 3,0.3451167904\C,0,2.1386998919,-0.9278646987,-0.5831122127\C,0,-3.573
 9020601,-1.5146434296,-1.7417014535\C,0,3.0512561888,-0.6988706354,-1.
 7269165906\C,0,-1.3170902812,-0.361299987,3.8062261309\C,0,-5.72049727
 38,-2.1665331336,1.3075517608\C,0,2.7039200489,0.502227591,-2.34668927
 89\C,0,1.9489243248,1.0966653585,2.777164358\C,0,1.3911724837,0.933710
 0196,-1.7174178478\C,0,4.2232676759,-1.5477542045,-1.9589655267\C,0,-5
 .9097653126,-2.4665587463,-1.8903624844\C,0,5.4672122722,-1.1493966849
 ,-1.1822416411\C,0,3.2814382392,1.1696353661,-3.6231288221\C,0,0.49403
 18273,2.0812632732,-1.9545572008\C,0,2.9516138017,1.8265922447,3.60873
 62188\C,0,-0.5886326949,2.229397572,-1.1336286508\C,0,-6.8749714236,-3
 .2719409582,-1.6131298717\C,0,6.6301725869,-2.010769332,-1.496760366\C
 ,0,-1.3916978246,3.5826004932,-1.2029183665\C,0,-2.4272968191,3.445064
 9855,-0.2501429205\C,0,-2.0853908115,2.144745408,0.505889521\C,0,-1.29
 97399524,4.613057566,-2.2879905671\C,0,-3.442244861,4.3295134342,0.143
 0885486\C,0,-2.0201359048,5.7020556238,-2.3522289557\H,0,-3.4548839816
 ,-0.4098764775,1.0243466393\H,0,-2.5729289193,-3.3006051855,0.98639898
 9\H,0,-3.0060204218,-2.2719506395,2.6456139501\H,0,-0.3033456394,-2.99
 27380389,-0.0601990099\H,0,-2.0263010198,-0.3523215357,-0.8540295054\H
 ,0,1.3623841998,-0.5433357874,4.2751596151\H,0,2.8606633992,-0.7981617
 075,3.21480641\H,0,2.9420830222,-2.8018217651,0.5406371169\H,0,-2.1923
 518645,-0.9143807121,4.1814452063\H,0,-0.7230720752,0.0548412805,4.549
 9513516\H,0,-1.725191833,0.6300754542,3.2142801933\H,0,-5.3008608733,-
 1.9060587371,2.2298072737\H,0,-5.5884476055,-3.2627203766,1.3699998463
 \H,0,-6.8382512019,-1.9365592993,1.0061569774\H,0,2.2892350629,1.18062
 80047,1.7821558269\H,0,0.9861185634,1.7188541297,2.7259405678\H,0,0.33
 28315408,0.3527596458,-0.0613881711\H,0,4.3789836176,-1.4361466737,-3.
 0038459865\H,0,3.7391347433,-2.564018181,-1.8563427423\H,0,-5.80168230
 66,-2.1840593305,-3.0241158754\H,0,5.4383417555,-1.1225727372,-0.00198
 6975\H,0,5.7220536467,-0.018328829,-1.2683613186\H,0,4.5926591774,0.88
 67251646,-3.5433625658\H,0,3.3198877404,2.22091317,-3.4910814435\H,0,2
 .7401598053,0.9120056985,-4.6373368857\H,0,0.563490259,2.6547169682,-2
 .9094918412\H,0,-7.1595450406,-3.5975319371,-0.5502440456\H,0,-7.64274
 25392,-3.5520465352,-2.2913021837\H,0,3.6680205296,3.5663559966,3.5790
 911633\H,0,-0.481692048,4.4636276423,-3.1356914645\H,0,-4.2714657362,4
 .5719537772,-0.6811992714\H,0,-3.9639051402,3.9312779214,0.8889497064\
 H,0,-2.999278244,5.2086911602,0.5349592658\H,0,8.496525346,-2.42240539
 47,-1.1738980248\H,0,-1.8630392285,6.482868744,-3.1501098632\H,0,-2.81
 04033932,5.7222035962,-1.695205428\\Version=ES64L-G16RevA.03\State=1-A
 \HF=-1947.8497309\RMSD=7.802e-09\PG=C01 [X(C33H36N4O6)]\\@


 ADAM SMITH SAID, "THE REAL PRICE OF ANYTHING IS THE TOIL AND TROUBLE
 OF ACQUIRING IT."  BUT IN ALL UNDERTAKINGS WITH NATURE WE SHOULD FIRST
 READ CAREFULLY THE SMALL PRINT IN THE CONTRACT. THIS MIGHT DISCLOSE
 THAT THE REAL PRICE IS TO BE PAID BY THOSE WHO INHERIT THE DEPLETION
 AND DESPOILATION THAT FOLLOWS.
                               -- E. R. HARRISON IN "COSMOLOGY" (1980)
 Job cpu time:       0 days  4 hours 12 minutes  9.1 seconds.
 Elapsed time:       0 days  1 hours  3 minutes 10.1 seconds.
 File lengths (MBytes):  RWF=   2533 Int=      0 D2E=      0 Chk=     63 Scr=      1
 Normal termination of Gaussian 16 at Mon Jul 29 21:40:41 2019.
