 Entering Gaussian System, Link 0=g16
 Input=Geometria-12-.com
 Output=Geometria-12-.log
 Initial command:
 /usr/local/g16/l1.exe "/home/padawan/israel-mol/dihydrobiliverdin/spectra/emi/Gau-7948.inp" -scrdir="/home/padawan/israel-mol/dihydrobiliverdin/spectra/emi/"
 Entering Link 1 = /usr/local/g16/l1.exe PID=      7950.
  
 Copyright (c) 1988,1990,1992,1993,1995,1998,2003,2009,2016,
            Gaussian, Inc.  All Rights Reserved.
  
 This is part of the Gaussian(R) 16 program.  It is based on
 the Gaussian(R) 09 system (copyright 2009, Gaussian, Inc.),
 the Gaussian(R) 03 system (copyright 2003, Gaussian, Inc.),
 the Gaussian(R) 98 system (copyright 1998, Gaussian, Inc.),
 the Gaussian(R) 94 system (copyright 1995, Gaussian, Inc.),
 the Gaussian 92(TM) system (copyright 1992, Gaussian, Inc.),
 the Gaussian 90(TM) system (copyright 1990, Gaussian, Inc.),
 the Gaussian 88(TM) system (copyright 1988, Gaussian, Inc.),
 the Gaussian 86(TM) system (copyright 1986, Carnegie Mellon
 University), and the Gaussian 82(TM) system (copyright 1983,
 Carnegie Mellon University). Gaussian is a federally registered
 trademark of Gaussian, Inc.
  
 This software contains proprietary and confidential information,
 including trade secrets, belonging to Gaussian, Inc.
  
 This software is provided under written license and may be
 used, copied, transmitted, or stored only in accord with that
 written license.
  
 The following legend is applicable only to US Government
 contracts under FAR:
  
                    RESTRICTED RIGHTS LEGEND
  
 Use, reproduction and disclosure by the US Government is
 subject to restrictions as set forth in subparagraphs (a)
 and (c) of the Commercial Computer Software - Restricted
 Rights clause in FAR 52.227-19.
  
 Gaussian, Inc.
 340 Quinnipiac St., Bldg. 40, Wallingford CT 06492
  
  
 ---------------------------------------------------------------
 Warning -- This program may not be used in any manner that
 competes with the business of Gaussian, Inc. or will provide
 assistance to any competitor of Gaussian, Inc.  The licensee
 of this program is prohibited from giving any competitor of
 Gaussian, Inc. access to this program.  By using this program,
 the user acknowledges that Gaussian, Inc. is engaged in the
 business of creating and licensing software in the field of
 computational chemistry and represents and warrants to the
 licensee that it is not a competitor of Gaussian, Inc. and that
 it will not use this program in any manner prohibited above.
 ---------------------------------------------------------------
  

 Cite this work as:
 Gaussian 16, Revision A.03,
 M. J. Frisch, G. W. Trucks, H. B. Schlegel, G. E. Scuseria, 
 M. A. Robb, J. R. Cheeseman, G. Scalmani, V. Barone, 
 G. A. Petersson, H. Nakatsuji, X. Li, M. Caricato, A. V. Marenich, 
 J. Bloino, B. G. Janesko, R. Gomperts, B. Mennucci, H. P. Hratchian, 
 J. V. Ortiz, A. F. Izmaylov, J. L. Sonnenberg, D. Williams-Young, 
 F. Ding, F. Lipparini, F. Egidi, J. Goings, B. Peng, A. Petrone, 
 T. Henderson, D. Ranasinghe, V. G. Zakrzewski, J. Gao, N. Rega, 
 G. Zheng, W. Liang, M. Hada, M. Ehara, K. Toyota, R. Fukuda, 
 J. Hasegawa, M. Ishida, T. Nakajima, Y. Honda, O. Kitao, H. Nakai, 
 T. Vreven, K. Throssell, J. A. Montgomery, Jr., J. E. Peralta, 
 F. Ogliaro, M. J. Bearpark, J. J. Heyd, E. N. Brothers, K. N. Kudin, 
 V. N. Staroverov, T. A. Keith, R. Kobayashi, J. Normand, 
 K. Raghavachari, A. P. Rendell, J. C. Burant, S. S. Iyengar, 
 J. Tomasi, M. Cossi, J. M. Millam, M. Klene, C. Adamo, R. Cammi, 
 J. W. Ochterski, R. L. Martin, K. Morokuma, O. Farkas, 
 J. B. Foresman, and D. J. Fox, Gaussian, Inc., Wallingford CT, 2016.
 
 ******************************************
 Gaussian 16:  ES64L-G16RevA.03 25-Dec-2016
                13-Sep-2019 
 ******************************************
 %nproc=4
 Will use up to    4 processors via shared memory.
 %Mem=4GB
 --------------------------
 # td=(NStates=1) B3LYP/SVP
 --------------------------
 1/38=1,172=1/1;
 2/12=2,17=6,18=5,40=1/2;
 3/5=18,7=101,11=9,25=1,30=1,74=-5/1,2,3,8;
 4//1;
 5/5=2,38=5/2;
 8/6=1,10=1,108=1/1;
 9/41=1,42=1,70=2/14;
 6/7=2,8=2,9=2,10=2/1;
 99/5=1,9=1/99;
 --
 TD
 --
 Symbolic Z-matrix:
 Charge =  0 Multiplicity = 1
 8                    -5.44191  -0.05317  -3.33954 
 8                     3.06114   2.92991   3.20791 
 8                     3.33448   0.68376   3.14536 
 8                     1.75833  -7.32749   1.44326 
 8                     0.57189  -6.9659   -0.43765 
 8                     1.70584   4.00316   0.03218 
 7                    -2.31331  -0.85707   0.62342 
 7                    -4.44304   0.57003  -1.25978 
 7                     1.85398  -0.68484  -0.34324 
 7                     2.50848   1.93343  -0.62247 
 6                    -4.78106   1.12518  -0.0226 
 6                    -4.37847   0.3076    1.22319 
 6                    -2.92045  -0.02424   1.45973 
 6                    -1.94033   0.68867   2.14446 
 6                    -0.68512   0.07972   1.88653 
 6                    -0.92149  -0.92478   0.89113 
 6                    -6.28158   1.39683  -0.19582 
 6                     0.62947   0.17559   2.54141 
 6                    -6.68875   0.80386  -1.4293 
 6                    -0.19117  -1.87982   0.18251 
 6                     1.16215  -1.86357  -0.25105 
 6                    -5.44532   0.39443  -2.21757 
 6                     1.96915  -2.92367  -0.90076 
 6                    -2.17351   1.69787   3.24521 
 6                    -7.12499   1.96407   0.83592 
 6                     3.10725  -2.37192  -1.41623 
 6                     1.14013   1.58865   2.61101 
 6                     3.00823  -0.917    -1.04224 
 6                     1.54184  -4.3412   -0.97005 
 6                    -7.98369   0.8876   -2.03754 
 6                     1.87159  -5.10859   0.36653 
 6                     4.21175  -2.95532  -2.08925 
 6                     3.90644   0.20067  -1.38882 
 6                     2.59988   1.65119   2.97648 
 6                     3.67021   1.50698  -1.1402 
 6                    -9.17331   0.90389  -1.38604 
 6                     1.30917  -6.54571   0.43715 
 6                     4.61177   2.64258  -1.35052 
 6                     3.90324   3.7981   -1.02077 
 6                     2.60566   3.29439  -0.52465 
 6                     5.9069    2.48146  -2.08207 
 6                     4.29203   5.19952  -1.08725 
 6                     6.72309   3.45316  -2.49781 
 1                    -4.22723   1.97766   0.11822 
 1                    -5.12985  -0.55974   1.16956 
 1                    -4.86588   0.91143   2.12784 
 1                    -2.89187  -1.46484   0.00279 
 1                    -3.4746    0.42448  -1.50096 
 1                     0.61941  -0.40872   3.43698 
 1                     1.31441  -0.64505   2.16325 
 1                    -0.67827  -2.7575   -0.00535 
 1                    -3.22505   1.58333   3.36022 
 1                    -1.72117   1.55888   4.13895 
 1                    -1.85308   2.75733   3.12311 
 1                    -6.55573   2.67715   1.51784 
 1                    -7.45659   1.02753   1.51402 
 1                    -8.08019   2.29099   0.42227 
 1                     1.1325    2.14743   1.60332 
 1                     0.53573   2.19619   3.36531 
 1                     1.68429   0.3962   -0.20878 
 1                     1.95515  -4.87439  -1.87308 
 1                     0.36558  -4.31912  -1.03458 
 1                    -8.05968   0.68493  -3.195 
 1                     1.39741  -4.51893   1.17719 
 1                     2.97607  -5.01765   0.33393 
 1                     4.0252   -4.03633  -2.13578 
 1                     5.35507  -2.78255  -1.73465 
 1                     4.30502  -2.42617  -3.10379 
 1                     4.97215  -0.30346  -1.86691 
 1                    -9.34979   1.02399  -0.2173 
 1                    -10.1805   0.82491  -1.81891 
 1                     4.12332   2.96518   3.39563 
 1                     6.27592   1.40816  -2.51618 
 1                     5.15742   5.28658  -0.48726 
 1                     4.42054   5.5907   -2.11629 
 1                     3.44274   5.73274  -0.67077 
 1                     1.50981  -8.18096   1.18781 
 1                     7.66699   3.02093  -3.05362 
 1                     6.4722    4.54982  -2.54131 
 
 Stoichiometry    C33H36N4O6
 Framework group  C1[X(C33H36N4O6)]
 Deg. of freedom   231
 Full point group                 C1      NOp   1
 Largest Abelian subgroup         C1      NOp   1
 Largest concise Abelian subgroup C1      NOp   1
                         Standard orientation:                         
 ---------------------------------------------------------------------
 Center     Atomic      Atomic             Coordinates (Angstroms)
 Number     Number       Type             X           Y           Z
 ---------------------------------------------------------------------
      1          8           0        5.449027    0.084727   -3.326564
      2          8           0       -3.055324   -2.950984    3.194951
      3          8           0       -3.338404   -0.705920    3.137026
      4          8           0       -1.793727    7.316140    1.457122
      5          8           0       -0.601538    6.964171   -0.421981
      6          8           0       -1.688277   -4.010840    0.019763
      7          7           0        2.308139    0.865607    0.631279
      8          7           0        4.448294   -0.547724   -1.250494
      9          7           0       -1.856195    0.677333   -0.345066
     10          7           0       -2.498555   -1.943125   -0.631851
     11          6           0        4.786012   -1.104277   -0.013852
     12          6           0        4.377059   -0.291387    1.232935
     13          6           0        2.917075    0.033494    1.466996
     14          6           0        1.938589   -0.685320    2.147877
     15          6           0        0.681280   -0.081286    1.888571
     16          6           0        0.915440    0.926568    0.896045
     17          6           0        6.288089   -1.368921   -0.184369
     18          6           0       -0.634322   -0.184456    2.540298
     19          6           0        6.695382   -0.771286   -1.415547
     20          6           0        0.182500    1.880047    0.188026
     21          6           0       -1.169769    1.858867   -0.248582
     22          6           0        5.451911   -0.365476   -2.205630
     23          6           0       -1.979977    2.916937   -0.897617
     24          6           0        2.173761   -1.696051    3.246790
     25          6           0        7.131694   -1.934871    0.847926
     26          6           0       -3.114490    2.361396   -1.416913
     27          6           0       -1.138915   -1.599904    2.605469
     28          6           0       -3.009905    0.906057   -1.046090
     29          6           0       -1.558749    4.336486   -0.962653
     30          6           0        7.992028   -0.847915   -2.021097
     31          6           0       -1.894841    5.099292    0.374975
     32          6           0       -4.220049    2.941519   -2.091027
     33          6           0       -3.902423   -0.214733   -1.397279
     34          6           0       -2.599183   -1.669715    2.967537
     35          6           0       -3.661003   -1.520568   -1.151175
     36          6           0        9.180258   -0.860506   -1.366988
     37          6           0       -1.338895    6.538699    0.450196
     38          6           0       -4.597090   -2.659802   -1.366241
     39          6           0       -3.884218   -3.812967   -1.037607
     40          6           0       -2.589972   -3.304722   -0.537422
     41          6           0       -5.891294   -2.502662   -2.100296
     42          6           0       -4.266699   -5.215926   -1.108216
     43          6           0       -6.702277   -3.476960   -2.520121
     44          1           0        4.235618   -1.959503    0.123747
     45          1           0        5.124737    0.579366    1.183003
     46          1           0        4.865120   -0.895180    2.137260
     47          1           0        2.885393    1.477362    0.013362
     48          1           0        3.479760   -0.405864   -1.493485
     49          1           0       -0.628813    0.397794    3.437248
     50          1           0       -1.322017    0.634048    2.162525
     51          1           0        0.666152    2.760302    0.003302
     52          1           0        3.224530   -1.577167    3.364407
     53          1           0        1.718833   -1.561140    4.139845
     54          1           0        1.858264   -2.756623    3.121509
     55          1           0        6.564062   -2.652030    1.526919
     56          1           0        7.457663   -0.998471    1.528945
     57          1           0        8.089241   -2.256614    0.435648
     58          1           0       -1.126588   -2.156285    1.596493
     59          1           0       -0.533521   -2.206546    3.359694
     60          1           0       -1.682059   -0.403263   -0.212742
     61          1           0       -1.972401    4.869968   -1.865360
     62          1           0       -0.382263    4.319725   -1.024616
     63          1           0        8.069687   -0.642203   -3.177902
     64          1           0       -1.419870    4.509826    1.185306
     65          1           0       -2.998835    5.003576    0.339700
     66          1           0       -4.038152    4.023441   -2.134620
     67          1           0       -5.363381    2.762893   -1.739378
     68          1           0       -4.308745    2.414341   -3.107003
     69          1           0       -4.969272    0.285831   -1.876567
     70          1           0        9.354668   -0.982562   -0.198142
     71          1           0       10.188043   -0.776092   -1.797422
     72          1           0       -4.117753   -2.991358    3.380228
     73          1           0       -6.264063   -1.429981   -2.532725
     74          1           0       -5.133018   -5.308186   -0.510358
     75          1           0       -4.391204   -5.605248   -2.138452
     76          1           0       -3.415996   -5.746382   -0.691086
     77          1           0       -1.548391    8.171289    1.204218
     78          1           0       -7.646830   -3.047577   -3.077023
     79          1           0       -6.446468   -4.572403   -2.565609
 ---------------------------------------------------------------------
 Rotational constants (GHZ):           0.0736010           0.0449629           0.0347192
 Standard basis: SVP (5D, 7F)
 There are   825 symmetry adapted cartesian basis functions of A   symmetry.
 There are   782 symmetry adapted basis functions of A   symmetry.
   782 basis functions,  1327 primitive gaussians,   825 cartesian basis functions
   155 alpha electrons      155 beta electrons
       nuclear repulsion energy      4921.0016512316 Hartrees.
 NAtoms=   79 NActive=   79 NUniq=   79 SFac= 1.00D+00 NAtFMM=   60 NAOKFM=T Big=T
 Integral buffers will be    131072 words long.
 Regular integral format.
 Two-electron integral symmetry is turned on.
 One-electron integrals computed using PRISM.
 NBasis=   782 RedAO= T EigKep=  3.58D-04  NBF=   782
 NBsUse=   782 1.00D-06 EigRej= -1.00D+00 NBFU=   782
 ExpMin= 1.22D-01 ExpMax= 2.27D+03 ExpMxC= 3.41D+02 IAcc=3 IRadAn=         5 AccDes= 0.00D+00
 Harris functional with IExCor=  402 and IRadAn=       5 diagonalized for initial guess.
 HarFok:  IExCor=  402 AccDes= 0.00D+00 IRadAn=         5 IDoV= 1 UseB2=F ITyADJ=14
 ICtDFT=  3500011 ScaDFX=  1.000000  1.000000  1.000000  1.000000
 FoFCou: FMM=F IPFlag=           0 FMFlag=      100000 FMFlg1=        2001
         NFxFlg=           0 DoJE=T BraDBF=F KetDBF=T FulRan=T
         wScrn=  0.000000 ICntrl=       500 IOpCl=  0 I1Cent=   200000004 NGrid=           0
         NMat0=    1 NMatS0=      1 NMatT0=    0 NMatD0=    1 NMtDS0=    0 NMtDT0=    0
 Petite list used in FoFCou.
 Requested convergence on RMS density matrix=1.00D-08 within 128 cycles.
 Requested convergence on MAX density matrix=1.00D-06.
 Requested convergence on             energy=1.00D-06.
 No special actions if energy rises.
 Integral accuracy reduced to 1.0D-05 until final iterations.
 EnCoef did     2 forward-backward iterations
 Initial convergence to 1.0D-05 achieved.  Increase integral accuracy.
 SCF Done:  E(RB3LYP) =  -1947.91790916     A.U. after   19 cycles
            NFock= 19  Conv=0.64D-08     -V/T= 2.0109
 DoSCS=F DFT=T ScalE2(SS,OS)=  1.000000  1.000000
 ExpMin= 1.22D-01 ExpMax= 2.27D+03 ExpMxC= 3.41D+02 IAcc=3 IRadAn=         5 AccDes= 0.00D+00
 HarFok:  IExCor=  205 AccDes= 0.00D+00 IRadAn=         5 IDoV=-2 UseB2=F ITyADJ=14
 ICtDFT= 12500011 ScaDFX=  1.000000  1.000000  1.000000  1.000000
 GSVD:  LWork=       -2193 too small for GESVD, short by        9890 words or        9890 for optimal perf.
 Range of M.O.s used for correlation:    44   782
 NBasis=   782 NAE=   155 NBE=   155 NFC=    43 NFV=     0
 NROrb=    739 NOA=   112 NOB=   112 NVA=   627 NVB=   627

 **** Warning!!: The smallest alpha delta epsilon is  0.79993684D-01

 Orbital symmetries:
       Occupied  (A) (A) (A) (A) (A) (A) (A) (A) (A) (A) (A) (A)
                 (A) (A) (A) (A) (A) (A) (A) (A) (A) (A) (A) (A)
                 (A) (A) (A) (A) (A) (A) (A) (A) (A) (A) (A) (A)
                 (A) (A) (A) (A) (A) (A) (A) (A) (A) (A) (A) (A)
                 (A) (A) (A) (A) (A) (A) (A) (A) (A) (A) (A) (A)
                 (A) (A) (A) (A) (A) (A) (A) (A) (A) (A) (A) (A)
                 (A) (A) (A) (A) (A) (A) (A) (A) (A) (A) (A) (A)
                 (A) (A) (A) (A) (A) (A) (A) (A) (A) (A) (A) (A)
                 (A) (A) (A) (A) (A) (A) (A) (A) (A) (A) (A) (A)
                 (A) (A) (A) (A) (A) (A) (A) (A) (A) (A) (A) (A)
                 (A) (A) (A) (A) (A) (A) (A) (A) (A) (A) (A) (A)
                 (A) (A) (A) (A) (A) (A) (A) (A) (A) (A) (A) (A)
                 (A) (A) (A) (A) (A) (A) (A) (A) (A) (A) (A)
       Virtual   (A) (A) (A) (A) (A) (A) (A) (A) (A) (A) (A) (A)
                 (A) (A) (A) (A) (A) (A) (A) (A) (A) (A) (A) (A)
                 (A) (A) (A) (A) (A) (A) (A) (A) (A) (A) (A) (A)
                 (A) (A) (A) (A) (A) (A) (A) (A) (A) (A) (A) (A)
                 (A) (A) (A) (A) (A) (A) (A) (A) (A) (A) (A) (A)
                 (A) (A) (A) (A) (A) (A) (A) (A) (A) (A) (A) (A)
                 (A) (A) (A) (A) (A) (A) (A) (A) (A) (A) (A) (A)
                 (A) (A) (A) (A) (A) (A) (A) (A) (A) (A) (A) (A)
                 (A) (A) (A) (A) (A) (A) (A) (A) (A) (A) (A) (A)
                 (A) (A) (A) (A) (A) (A) (A) (A) (A) (A) (A) (A)
                 (A) (A) (A) (A) (A) (A) (A) (A) (A) (A) (A) (A)
                 (A) (A) (A) (A) (A) (A) (A) (A) (A) (A) (A) (A)
                 (A) (A) (A) (A) (A) (A) (A) (A) (A) (A) (A) (A)
                 (A) (A) (A) (A) (A) (A) (A) (A) (A) (A) (A) (A)
                 (A) (A) (A) (A) (A) (A) (A) (A) (A) (A) (A) (A)
                 (A) (A) (A) (A) (A) (A) (A) (A) (A) (A) (A) (A)
                 (A) (A) (A) (A) (A) (A) (A) (A) (A) (A) (A) (A)
                 (A) (A) (A) (A) (A) (A) (A) (A) (A) (A) (A) (A)
                 (A) (A) (A) (A) (A) (A) (A) (A) (A) (A) (A) (A)
                 (A) (A) (A) (A) (A) (A) (A) (A) (A) (A) (A) (A)
                 (A) (A) (A) (A) (A) (A) (A) (A) (A) (A) (A) (A)
                 (A) (A) (A) (A) (A) (A) (A) (A) (A) (A) (A) (A)
                 (A) (A) (A) (A) (A) (A) (A) (A) (A) (A) (A) (A)
                 (A) (A) (A) (A) (A) (A) (A) (A) (A) (A) (A) (A)
                 (A) (A) (A) (A) (A) (A) (A) (A) (A) (A) (A) (A)
                 (A) (A) (A) (A) (A) (A) (A) (A) (A) (A) (A) (A)
                 (A) (A) (A) (A) (A) (A) (A) (A) (A) (A) (A) (A)
                 (A) (A) (A) (A) (A) (A) (A) (A) (A) (A) (A) (A)
                 (A) (A) (A) (A) (A) (A) (A) (A) (A) (A) (A) (A)
                 (A) (A) (A) (A) (A) (A) (A) (A) (A) (A) (A) (A)
                 (A) (A) (A) (A) (A) (A) (A) (A) (A) (A) (A) (A)
                 (A) (A) (A) (A) (A) (A) (A) (A) (A) (A) (A) (A)
                 (A) (A) (A) (A) (A) (A) (A) (A) (A) (A) (A) (A)
                 (A) (A) (A) (A) (A) (A) (A) (A) (A) (A) (A) (A)
                 (A) (A) (A) (A) (A) (A) (A) (A) (A) (A) (A) (A)
                 (A) (A) (A) (A) (A) (A) (A) (A) (A) (A) (A) (A)
                 (A) (A) (A) (A) (A) (A) (A) (A) (A) (A) (A) (A)
                 (A) (A) (A) (A) (A) (A) (A) (A) (A) (A) (A) (A)
                 (A) (A) (A) (A) (A) (A) (A) (A) (A) (A) (A) (A)
                 (A) (A) (A) (A) (A) (A) (A) (A) (A) (A) (A) (A)
                 (A) (A) (A) (A) (A) (A) (A) (A) (A) (A) (A) (A)
                 (A) (A) (A) (A) (A) (A) (A) (A) (A) (A) (A) (A)
                 (A) (A) (A) (A) (A) (A) (A) (A) (A) (A) (A) (A)
                 (A) (A) (A) (A) (A) (A) (A) (A) (A) (A) (A) (A)
                 (A) (A) (A) (A) (A) (A) (A) (A) (A) (A) (A) (A)
                 (A) (A) (A) (A) (A) (A) (A) (A) (A) (A) (A) (A)
                 (A) (A) (A) (A) (A) (A) (A) (A) (A) (A) (A) (A)
                 (A) (A) (A) (A) (A) (A) (A) (A) (A) (A) (A) (A)
                 (A) (A) (A) (A) (A) (A) (A) (A) (A) (A) (A) (A)
                 (A) (A) (A) (A) (A) (A) (A) (A) (A) (A) (A) (A)
                 (A) (A) (A) (A) (A) (A) (A) (A) (A) (A) (A) (A)
                 (A) (A) (A) (A) (A) (A) (A) (A) (A) (A) (A) (A)
                 (A) (A) (A)
     4 initial guesses have been made.
 Convergence on wavefunction:    0.001000000000000
 Iteration     1 Dimension     4 NMult     0 NNew      4
 CISAX will form     4 AO SS matrices at one time.
 New state      1 was old state      2
 Iteration     2 Dimension     6 NMult     4 NNew      2
 Iteration     3 Dimension     8 NMult     6 NNew      2
 Iteration     4 Dimension    10 NMult     8 NNew      2
 Iteration     5 Dimension    12 NMult    10 NNew      2
 Iteration     6 Dimension    14 NMult    12 NNew      2
 Iteration     7 Dimension    16 NMult    14 NNew      2
 Iteration     8 Dimension    18 NMult    16 NNew      2
 ***********************************************************************
 Excited states from <AA,BB:AA,BB> singles matrix:
 ***********************************************************************
 
 Ground to excited state transition densities written to RWF  633
 Ground to excited state transition electric dipole moments (Au):
       state          X           Y           Z        Dip. S.      Osc.
         1        -2.5138     -1.1657     -0.9235      8.5310      0.4314
 Ground to excited state transition velocity dipole moments (Au):
       state          X           Y           Z        Dip. S.      Osc.
         1         0.1846      0.0802      0.0673      0.0450      0.3957
 Ground to excited state transition magnetic dipole moments (Au):
       state          X           Y           Z
         1         0.7769      0.0172     -1.5025
 Ground to excited state transition velocity quadrupole moments (Au):
       state          XX          YY          ZZ          XY          XZ          YZ
         1        -0.2671     -0.4670      0.1127     -0.6334     -0.3459     -0.2144
 <0|del|b> * <b|rxdel|0> + <0|del|b> * <b|delr+rdel|0>
 Rotatory Strengths (R) in cgs (10**-40 erg-esu-cm/Gauss)
       state          XX          YY          ZZ    R(velocity)    E-M Angle
         1      -534.0469    211.4064    729.9961    135.7852       83.01
 1/2[<0|r|b>*<b|rxdel|0> + (<0|rxdel|b>*<b|r|0>)*]
 Rotatory Strengths (R) in cgs (10**-40 erg-esu-cm/Gauss)
       state          XX          YY          ZZ     R(length)
         1      1381.0808     14.1998   -981.2569    138.0079
  1/2[<0|del|b>*<b|r|0> + (<0|r|b>*<b|del|0>)*] (Au)
       state          X           Y           Z        Dip. S.   Osc.(frdel)
         1        -0.4640     -0.0935     -0.0621      0.6196      0.4131

 Excitation energies and oscillator strengths:
 
 Excited State   1:      Singlet-A      2.0643 eV  600.62 nm  f=0.4314  <S**2>=0.000
     154 ->156         0.19051
     155 ->156         0.68214
     155 <-156        -0.12073
 This state for optimization and/or second-order correction.
 Total Energy, E(TD-HF/TD-DFT) =  -1947.84204871    
 Copying the excited state density for this state as the 1-particle RhoCI density.
 SavETr:  write IOETrn=   770 NScale= 10 NData=  16 NLR=1 NState=    1 LETran=      28.

 **********************************************************************

            Population analysis using the SCF density.

 **********************************************************************

 Orbital symmetries:
       Occupied  (A) (A) (A) (A) (A) (A) (A) (A) (A) (A) (A) (A)
                 (A) (A) (A) (A) (A) (A) (A) (A) (A) (A) (A) (A)
                 (A) (A) (A) (A) (A) (A) (A) (A) (A) (A) (A) (A)
                 (A) (A) (A) (A) (A) (A) (A) (A) (A) (A) (A) (A)
                 (A) (A) (A) (A) (A) (A) (A) (A) (A) (A) (A) (A)
                 (A) (A) (A) (A) (A) (A) (A) (A) (A) (A) (A) (A)
                 (A) (A) (A) (A) (A) (A) (A) (A) (A) (A) (A) (A)
                 (A) (A) (A) (A) (A) (A) (A) (A) (A) (A) (A) (A)
                 (A) (A) (A) (A) (A) (A) (A) (A) (A) (A) (A) (A)
                 (A) (A) (A) (A) (A) (A) (A) (A) (A) (A) (A) (A)
                 (A) (A) (A) (A) (A) (A) (A) (A) (A) (A) (A) (A)
                 (A) (A) (A) (A) (A) (A) (A) (A) (A) (A) (A) (A)
                 (A) (A) (A) (A) (A) (A) (A) (A) (A) (A) (A)
       Virtual   (A) (A) (A) (A) (A) (A) (A) (A) (A) (A) (A) (A)
                 (A) (A) (A) (A) (A) (A) (A) (A) (A) (A) (A) (A)
                 (A) (A) (A) (A) (A) (A) (A) (A) (A) (A) (A) (A)
                 (A) (A) (A) (A) (A) (A) (A) (A) (A) (A) (A) (A)
                 (A) (A) (A) (A) (A) (A) (A) (A) (A) (A) (A) (A)
                 (A) (A) (A) (A) (A) (A) (A) (A) (A) (A) (A) (A)
                 (A) (A) (A) (A) (A) (A) (A) (A) (A) (A) (A) (A)
                 (A) (A) (A) (A) (A) (A) (A) (A) (A) (A) (A) (A)
                 (A) (A) (A) (A) (A) (A) (A) (A) (A) (A) (A) (A)
                 (A) (A) (A) (A) (A) (A) (A) (A) (A) (A) (A) (A)
                 (A) (A) (A) (A) (A) (A) (A) (A) (A) (A) (A) (A)
                 (A) (A) (A) (A) (A) (A) (A) (A) (A) (A) (A) (A)
                 (A) (A) (A) (A) (A) (A) (A) (A) (A) (A) (A) (A)
                 (A) (A) (A) (A) (A) (A) (A) (A) (A) (A) (A) (A)
                 (A) (A) (A) (A) (A) (A) (A) (A) (A) (A) (A) (A)
                 (A) (A) (A) (A) (A) (A) (A) (A) (A) (A) (A) (A)
                 (A) (A) (A) (A) (A) (A) (A) (A) (A) (A) (A) (A)
                 (A) (A) (A) (A) (A) (A) (A) (A) (A) (A) (A) (A)
                 (A) (A) (A) (A) (A) (A) (A) (A) (A) (A) (A) (A)
                 (A) (A) (A) (A) (A) (A) (A) (A) (A) (A) (A) (A)
                 (A) (A) (A) (A) (A) (A) (A) (A) (A) (A) (A) (A)
                 (A) (A) (A) (A) (A) (A) (A) (A) (A) (A) (A) (A)
                 (A) (A) (A) (A) (A) (A) (A) (A) (A) (A) (A) (A)
                 (A) (A) (A) (A) (A) (A) (A) (A) (A) (A) (A) (A)
                 (A) (A) (A) (A) (A) (A) (A) (A) (A) (A) (A) (A)
                 (A) (A) (A) (A) (A) (A) (A) (A) (A) (A) (A) (A)
                 (A) (A) (A) (A) (A) (A) (A) (A) (A) (A) (A) (A)
                 (A) (A) (A) (A) (A) (A) (A) (A) (A) (A) (A) (A)
                 (A) (A) (A) (A) (A) (A) (A) (A) (A) (A) (A) (A)
                 (A) (A) (A) (A) (A) (A) (A) (A) (A) (A) (A) (A)
                 (A) (A) (A) (A) (A) (A) (A) (A) (A) (A) (A) (A)
                 (A) (A) (A) (A) (A) (A) (A) (A) (A) (A) (A) (A)
                 (A) (A) (A) (A) (A) (A) (A) (A) (A) (A) (A) (A)
                 (A) (A) (A) (A) (A) (A) (A) (A) (A) (A) (A) (A)
                 (A) (A) (A) (A) (A) (A) (A) (A) (A) (A) (A) (A)
                 (A) (A) (A) (A) (A) (A) (A) (A) (A) (A) (A) (A)
                 (A) (A) (A) (A) (A) (A) (A) (A) (A) (A) (A) (A)
                 (A) (A) (A) (A) (A) (A) (A) (A) (A) (A) (A) (A)
                 (A) (A) (A) (A) (A) (A) (A) (A) (A) (A) (A) (A)
                 (A) (A) (A) (A) (A) (A) (A) (A) (A) (A) (A) (A)
                 (A) (A) (A) (A) (A) (A) (A) (A) (A) (A) (A) (A)
                 (A) (A) (A) (A) (A) (A) (A) (A) (A) (A) (A) (A)
                 (A) (A) (A) (A) (A) (A) (A) (A) (A) (A) (A) (A)
                 (A) (A) (A) (A) (A) (A) (A) (A) (A) (A) (A) (A)
                 (A) (A) (A) (A) (A) (A) (A) (A) (A) (A) (A) (A)
                 (A) (A) (A) (A) (A) (A) (A) (A) (A) (A) (A) (A)
                 (A) (A) (A) (A) (A) (A) (A) (A) (A) (A) (A) (A)
                 (A) (A) (A) (A) (A) (A) (A) (A) (A) (A) (A) (A)
                 (A) (A) (A) (A) (A) (A) (A) (A) (A) (A) (A) (A)
                 (A) (A) (A) (A) (A) (A) (A) (A) (A) (A) (A) (A)
                 (A) (A) (A) (A) (A) (A) (A) (A) (A) (A) (A) (A)
                 (A) (A) (A) (A) (A) (A) (A) (A) (A) (A) (A) (A)
                 (A) (A) (A)
 The electronic state is 1-A.
 Alpha  occ. eigenvalues --  -19.19619 -19.16587 -19.13922 -19.10995 -19.10885
 Alpha  occ. eigenvalues --  -19.08690 -14.39454 -14.37150 -14.35651 -14.28664
 Alpha  occ. eigenvalues --  -10.33709 -10.30665 -10.29303 -10.25508 -10.25375
 Alpha  occ. eigenvalues --  -10.25177 -10.24399 -10.24200 -10.23660 -10.23579
 Alpha  occ. eigenvalues --  -10.22642 -10.22628 -10.22468 -10.22374 -10.22193
 Alpha  occ. eigenvalues --  -10.21970 -10.21932 -10.21883 -10.21545 -10.21063
 Alpha  occ. eigenvalues --  -10.20932 -10.20659 -10.20577 -10.20516 -10.20254
 Alpha  occ. eigenvalues --  -10.20149 -10.20090 -10.19869 -10.19786 -10.19400
 Alpha  occ. eigenvalues --  -10.19139 -10.18593 -10.17808  -1.11776  -1.05657
 Alpha  occ. eigenvalues --   -1.03098  -1.01968  -1.00026  -0.98603  -0.97994
 Alpha  occ. eigenvalues --   -0.97063  -0.95538  -0.91324  -0.83680  -0.82781
 Alpha  occ. eigenvalues --   -0.82150  -0.81831  -0.79963  -0.79643  -0.78277
 Alpha  occ. eigenvalues --   -0.77495  -0.76745  -0.75656  -0.74740  -0.73081
 Alpha  occ. eigenvalues --   -0.72265  -0.71182  -0.70163  -0.69395  -0.68483
 Alpha  occ. eigenvalues --   -0.67870  -0.66725  -0.63919  -0.61706  -0.61570
 Alpha  occ. eigenvalues --   -0.60370  -0.58478  -0.57740  -0.57645  -0.56755
 Alpha  occ. eigenvalues --   -0.56118  -0.55925  -0.55092  -0.54182  -0.53088
 Alpha  occ. eigenvalues --   -0.52770  -0.52004  -0.51312  -0.50971  -0.50519
 Alpha  occ. eigenvalues --   -0.49618  -0.49258  -0.48763  -0.48204  -0.47557
 Alpha  occ. eigenvalues --   -0.47007  -0.46849  -0.46437  -0.46106  -0.45545
 Alpha  occ. eigenvalues --   -0.44997  -0.44884  -0.44491  -0.44313  -0.43942
 Alpha  occ. eigenvalues --   -0.43630  -0.43366  -0.43274  -0.43181  -0.42999
 Alpha  occ. eigenvalues --   -0.42341  -0.41961  -0.41810  -0.41271  -0.41081
 Alpha  occ. eigenvalues --   -0.40979  -0.40305  -0.40128  -0.39958  -0.39861
 Alpha  occ. eigenvalues --   -0.39667  -0.39440  -0.39158  -0.39074  -0.38634
 Alpha  occ. eigenvalues --   -0.38436  -0.38241  -0.37738  -0.37160  -0.36794
 Alpha  occ. eigenvalues --   -0.36496  -0.35955  -0.35718  -0.35608  -0.33958
 Alpha  occ. eigenvalues --   -0.33823  -0.33581  -0.32760  -0.31965  -0.31537
 Alpha  occ. eigenvalues --   -0.30671  -0.30178  -0.29288  -0.28722  -0.27364
 Alpha  occ. eigenvalues --   -0.26692  -0.26316  -0.26280  -0.26179  -0.25253
 Alpha  occ. eigenvalues --   -0.23822  -0.23356  -0.23251  -0.22035  -0.19189
 Alpha virt. eigenvalues --   -0.11190  -0.06726  -0.06334  -0.01591  -0.00629
 Alpha virt. eigenvalues --    0.00480   0.00881   0.01520   0.02322   0.02670
 Alpha virt. eigenvalues --    0.03188   0.03525   0.03651   0.04204   0.04387
 Alpha virt. eigenvalues --    0.05616   0.05671   0.06249   0.06804   0.07194
 Alpha virt. eigenvalues --    0.07381   0.07707   0.07894   0.08042   0.08160
 Alpha virt. eigenvalues --    0.08853   0.09468   0.09713   0.09967   0.09987
 Alpha virt. eigenvalues --    0.10372   0.11245   0.11583   0.12229   0.12473
 Alpha virt. eigenvalues --    0.12797   0.12859   0.13328   0.13782   0.13960
 Alpha virt. eigenvalues --    0.14444   0.14843   0.14999   0.15328   0.15775
 Alpha virt. eigenvalues --    0.15943   0.16223   0.16771   0.17441   0.17583
 Alpha virt. eigenvalues --    0.17833   0.18613   0.19424   0.20141   0.20724
 Alpha virt. eigenvalues --    0.21133   0.21626   0.21952   0.22078   0.22472
 Alpha virt. eigenvalues --    0.23034   0.23183   0.23468   0.23769   0.24353
 Alpha virt. eigenvalues --    0.24538   0.24865   0.25088   0.26001   0.26232
 Alpha virt. eigenvalues --    0.26539   0.27053   0.27452   0.28434   0.28996
 Alpha virt. eigenvalues --    0.29310   0.29452   0.29734   0.31225   0.31501
 Alpha virt. eigenvalues --    0.31802   0.32227   0.32819   0.33396   0.34171
 Alpha virt. eigenvalues --    0.34504   0.34719   0.35027   0.36202   0.36554
 Alpha virt. eigenvalues --    0.36890   0.37243   0.37554   0.38791   0.38914
 Alpha virt. eigenvalues --    0.39167   0.39939   0.40117   0.40848   0.41278
 Alpha virt. eigenvalues --    0.41635   0.42225   0.42635   0.43121   0.43441
 Alpha virt. eigenvalues --    0.43603   0.44058   0.44249   0.44674   0.45330
 Alpha virt. eigenvalues --    0.45424   0.45827   0.46161   0.46458   0.46519
 Alpha virt. eigenvalues --    0.46654   0.46912   0.47329   0.47724   0.48030
 Alpha virt. eigenvalues --    0.48573   0.48635   0.49175   0.49496   0.49935
 Alpha virt. eigenvalues --    0.50482   0.50568   0.50722   0.50945   0.51492
 Alpha virt. eigenvalues --    0.51680   0.52179   0.52632   0.53001   0.53256
 Alpha virt. eigenvalues --    0.53620   0.54205   0.54832   0.55180   0.55607
 Alpha virt. eigenvalues --    0.55788   0.56221   0.56784   0.57030   0.57204
 Alpha virt. eigenvalues --    0.57369   0.57757   0.57920   0.58234   0.58887
 Alpha virt. eigenvalues --    0.59158   0.59404   0.59627   0.59888   0.60175
 Alpha virt. eigenvalues --    0.60818   0.60933   0.61343   0.61565   0.62105
 Alpha virt. eigenvalues --    0.62140   0.62406   0.62519   0.62845   0.63389
 Alpha virt. eigenvalues --    0.63525   0.63718   0.63909   0.64337   0.64445
 Alpha virt. eigenvalues --    0.64547   0.65019   0.65091   0.65381   0.65504
 Alpha virt. eigenvalues --    0.65961   0.66017   0.66386   0.66943   0.67010
 Alpha virt. eigenvalues --    0.67167   0.67496   0.67738   0.67891   0.68168
 Alpha virt. eigenvalues --    0.68343   0.68527   0.68738   0.68864   0.69180
 Alpha virt. eigenvalues --    0.69467   0.69767   0.70011   0.70388   0.70484
 Alpha virt. eigenvalues --    0.70834   0.70995   0.71408   0.71672   0.72031
 Alpha virt. eigenvalues --    0.72375   0.72580   0.72614   0.73207   0.73528
 Alpha virt. eigenvalues --    0.74216   0.74336   0.74767   0.74962   0.75789
 Alpha virt. eigenvalues --    0.76358   0.76467   0.76679   0.77021   0.77165
 Alpha virt. eigenvalues --    0.78305   0.78499   0.79384   0.79574   0.79928
 Alpha virt. eigenvalues --    0.80422   0.81847   0.81998   0.82251   0.83206
 Alpha virt. eigenvalues --    0.83708   0.84937   0.85348   0.85576   0.86156
 Alpha virt. eigenvalues --    0.86957   0.87196   0.87799   0.88153   0.88662
 Alpha virt. eigenvalues --    0.89056   0.90258   0.91790   0.92436   0.92977
 Alpha virt. eigenvalues --    0.93657   0.94372   0.95007   0.95141   0.95476
 Alpha virt. eigenvalues --    0.95895   0.96520   0.96676   0.97550   0.98077
 Alpha virt. eigenvalues --    0.98173   0.99081   0.99933   1.00642   1.00815
 Alpha virt. eigenvalues --    1.01535   1.01634   1.03148   1.04539   1.04803
 Alpha virt. eigenvalues --    1.05046   1.05242   1.05995   1.07049   1.07554
 Alpha virt. eigenvalues --    1.07865   1.09143   1.10416   1.10835   1.11606
 Alpha virt. eigenvalues --    1.11670   1.11945   1.12834   1.13062   1.13755
 Alpha virt. eigenvalues --    1.14102   1.14493   1.15127   1.16696   1.17163
 Alpha virt. eigenvalues --    1.18216   1.19743   1.20454   1.20597   1.22346
 Alpha virt. eigenvalues --    1.22858   1.23715   1.24091   1.24526   1.24783
 Alpha virt. eigenvalues --    1.25146   1.26032   1.26396   1.27022   1.27405
 Alpha virt. eigenvalues --    1.28646   1.28991   1.29290   1.29872   1.30941
 Alpha virt. eigenvalues --    1.31433   1.31974   1.32370   1.32784   1.33528
 Alpha virt. eigenvalues --    1.33978   1.34691   1.35350   1.36155   1.37328
 Alpha virt. eigenvalues --    1.37659   1.38248   1.38753   1.39226   1.39935
 Alpha virt. eigenvalues --    1.40543   1.41312   1.41958   1.44080   1.44434
 Alpha virt. eigenvalues --    1.45027   1.46176   1.46493   1.47045   1.47442
 Alpha virt. eigenvalues --    1.47959   1.48597   1.49080   1.49771   1.50287
 Alpha virt. eigenvalues --    1.50764   1.51412   1.52048   1.52450   1.52812
 Alpha virt. eigenvalues --    1.53003   1.53513   1.53846   1.54853   1.55333
 Alpha virt. eigenvalues --    1.56755   1.56865   1.57500   1.58264   1.58443
 Alpha virt. eigenvalues --    1.59335   1.59403   1.59986   1.61177   1.61531
 Alpha virt. eigenvalues --    1.61983   1.62613   1.62955   1.63521   1.64066
 Alpha virt. eigenvalues --    1.64417   1.64949   1.65272   1.65699   1.66313
 Alpha virt. eigenvalues --    1.66675   1.67067   1.67592   1.67823   1.68181
 Alpha virt. eigenvalues --    1.68404   1.69159   1.69532   1.70163   1.70284
 Alpha virt. eigenvalues --    1.70951   1.71055   1.71950   1.72010   1.72536
 Alpha virt. eigenvalues --    1.73688   1.73996   1.74440   1.75109   1.75243
 Alpha virt. eigenvalues --    1.76249   1.76483   1.76669   1.76978   1.77362
 Alpha virt. eigenvalues --    1.77518   1.77876   1.78325   1.78486   1.78647
 Alpha virt. eigenvalues --    1.78953   1.79103   1.79421   1.79798   1.80923
 Alpha virt. eigenvalues --    1.81326   1.81496   1.81736   1.82109   1.82529
 Alpha virt. eigenvalues --    1.83232   1.83688   1.84077   1.84560   1.84830
 Alpha virt. eigenvalues --    1.85066   1.85418   1.85786   1.86258   1.87282
 Alpha virt. eigenvalues --    1.87544   1.88157   1.88573   1.88671   1.89315
 Alpha virt. eigenvalues --    1.90468   1.90728   1.90904   1.91034   1.91707
 Alpha virt. eigenvalues --    1.91847   1.92036   1.92825   1.93879   1.94233
 Alpha virt. eigenvalues --    1.94893   1.95789   1.96027   1.96449   1.97463
 Alpha virt. eigenvalues --    1.97516   1.98080   1.98350   1.98675   1.98979
 Alpha virt. eigenvalues --    1.99461   1.99997   2.01238   2.01534   2.01935
 Alpha virt. eigenvalues --    2.02245   2.02645   2.03804   2.04059   2.04774
 Alpha virt. eigenvalues --    2.05247   2.05663   2.06613   2.07048   2.07676
 Alpha virt. eigenvalues --    2.08195   2.08449   2.08921   2.09323   2.09366
 Alpha virt. eigenvalues --    2.09801   2.10228   2.11023   2.11667   2.12469
 Alpha virt. eigenvalues --    2.12652   2.13353   2.14135   2.14260   2.15148
 Alpha virt. eigenvalues --    2.15474   2.16722   2.16888   2.17841   2.18547
 Alpha virt. eigenvalues --    2.19566   2.19873   2.20476   2.20810   2.21082
 Alpha virt. eigenvalues --    2.21639   2.22394   2.23487   2.24092   2.24946
 Alpha virt. eigenvalues --    2.25966   2.26368   2.26923   2.27228   2.28184
 Alpha virt. eigenvalues --    2.28900   2.29703   2.30300   2.31017   2.32340
 Alpha virt. eigenvalues --    2.32855   2.33045   2.33350   2.34225   2.34745
 Alpha virt. eigenvalues --    2.35130   2.35812   2.36439   2.37731   2.38116
 Alpha virt. eigenvalues --    2.39216   2.39906   2.40024   2.40522   2.40858
 Alpha virt. eigenvalues --    2.40987   2.42162   2.42959   2.43716   2.44417
 Alpha virt. eigenvalues --    2.44799   2.47275   2.47778   2.49018   2.49236
 Alpha virt. eigenvalues --    2.50378   2.50718   2.51270   2.51624   2.52722
 Alpha virt. eigenvalues --    2.52986   2.53562   2.55767   2.56210   2.57613
 Alpha virt. eigenvalues --    2.58999   2.59221   2.59590   2.60872   2.61233
 Alpha virt. eigenvalues --    2.61691   2.61909   2.62439   2.62930   2.63358
 Alpha virt. eigenvalues --    2.64633   2.64825   2.65432   2.65683   2.66024
 Alpha virt. eigenvalues --    2.66146   2.67010   2.67807   2.68937   2.69478
 Alpha virt. eigenvalues --    2.70437   2.70494   2.71736   2.72487   2.72722
 Alpha virt. eigenvalues --    2.73230   2.74724   2.75270   2.75822   2.76180
 Alpha virt. eigenvalues --    2.76934   2.78077   2.78362   2.78836   2.80129
 Alpha virt. eigenvalues --    2.80975   2.81355   2.81912   2.83481   2.84051
 Alpha virt. eigenvalues --    2.84630   2.85139   2.87519   2.88009   2.88246
 Alpha virt. eigenvalues --    2.88518   2.89159   2.89656   2.90755   2.91011
 Alpha virt. eigenvalues --    2.91256   2.91889   2.92303   2.92957   2.94167
 Alpha virt. eigenvalues --    2.94819   2.95613   2.96456   2.96601   2.98375
 Alpha virt. eigenvalues --    2.98572   2.99629   3.01054   3.01463   3.03015
 Alpha virt. eigenvalues --    3.06814   3.07294   3.08191   3.09184   3.09514
 Alpha virt. eigenvalues --    3.09658   3.11051   3.13002   3.13804   3.13989
 Alpha virt. eigenvalues --    3.15334   3.16615   3.16793   3.18376   3.19623
 Alpha virt. eigenvalues --    3.20780   3.20806   3.21911   3.23990   3.27101
 Alpha virt. eigenvalues --    3.28493   3.29731   3.35739   3.37949   3.42720
 Alpha virt. eigenvalues --    3.46917   3.47276   3.50767   3.52330   3.53064
 Alpha virt. eigenvalues --    3.58636   3.59907   3.60683   3.63459   3.67593
 Alpha virt. eigenvalues --    3.68349   3.78442
          Condensed to atoms (all electrons):
 Mulliken charges:
               1
     1  O   -0.201166
     2  O   -0.265853
     3  O   -0.248537
     4  O   -0.142555
     5  O   -0.232058
     6  O   -0.276705
     7  N   -0.088396
     8  N   -0.208081
     9  N   -0.090858
    10  N   -0.277234
    11  C    0.199150
    12  C    0.033504
    13  C   -0.023735
    14  C   -0.140206
    15  C   -0.057015
    16  C    0.116224
    17  C   -0.178830
    18  C    0.097831
    19  C   -0.074821
    20  C   -0.068342
    21  C    0.077515
    22  C    0.178137
    23  C   -0.075133
    24  C    0.148739
    25  C    0.047077
    26  C   -0.054451
    27  C   -0.015525
    28  C    0.003848
    29  C    0.009787
    30  C   -0.014136
    31  C    0.002933
    32  C    0.012368
    33  C   -0.139391
    34  C    0.147319
    35  C    0.124358
    36  C   -0.102338
    37  C    0.148419
    38  C    0.052385
    39  C   -0.213074
    40  C    0.152910
    41  C   -0.059606
    42  C    0.135116
    43  C   -0.080676
    44  H   -0.020782
    45  H    0.007580
    46  H    0.025836
    47  H    0.134161
    48  H    0.113543
    49  H   -0.007624
    50  H    0.004227
    51  H   -0.053789
    52  H   -0.022092
    53  H   -0.017222
    54  H    0.031099
    55  H    0.041340
    56  H    0.051320
    57  H    0.043378
    58  H    0.100919
    59  H    0.043540
    60  H    0.196589
    61  H    0.037150
    62  H    0.033167
    63  H    0.048190
    64  H    0.045864
    65  H    0.045876
    66  H    0.018060
    67  H    0.055815
    68  H    0.044153
    69  H    0.022278
    70  H    0.028545
    71  H    0.029917
    72  H    0.230583
    73  H    0.030255
    74  H    0.021956
    75  H    0.035138
    76  H    0.016130
    77  H    0.157667
    78  H    0.035524
    79  H    0.032811
 Sum of Mulliken charges =  -0.00000
 Mulliken charges with hydrogens summed into heavy atoms:
               1
     1  O   -0.201166
     2  O   -0.035270
     3  O   -0.248537
     4  O    0.015112
     5  O   -0.232058
     6  O   -0.276705
     7  N    0.045766
     8  N   -0.094537
     9  N    0.105731
    10  N   -0.277234
    11  C    0.178368
    12  C    0.066920
    13  C   -0.023735
    14  C   -0.140206
    15  C   -0.057015
    16  C    0.116224
    17  C   -0.178830
    18  C    0.094435
    19  C   -0.074821
    20  C   -0.122132
    21  C    0.077515
    22  C    0.178137
    23  C   -0.075133
    24  C    0.140523
    25  C    0.183116
    26  C   -0.054451
    27  C    0.128933
    28  C    0.003848
    29  C    0.080103
    30  C    0.034054
    31  C    0.094673
    32  C    0.130396
    33  C   -0.117114
    34  C    0.147319
    35  C    0.124358
    36  C   -0.043877
    37  C    0.148419
    38  C    0.052385
    39  C   -0.213074
    40  C    0.152910
    41  C   -0.029351
    42  C    0.208340
    43  C   -0.012342
 Electronic spatial extent (au):  <R**2>=          32161.9731
 Charge=             -0.0000 electrons
 Dipole moment (field-independent basis, Debye):
    X=              0.2063    Y=              3.6106    Z=              3.0405  Tot=              4.7248
 Quadrupole moment (field-independent basis, Debye-Ang):
   XX=           -224.0132   YY=           -246.3158   ZZ=           -263.5118
   XY=            -13.5456   XZ=             34.9972   YZ=              0.9434
 Traceless Quadrupole moment (field-independent basis, Debye-Ang):
   XX=             20.6004   YY=             -1.7022   ZZ=            -18.8982
   XY=            -13.5456   XZ=             34.9972   YZ=              0.9434
 Octapole moment (field-independent basis, Debye-Ang**2):
  XXX=             39.3070  YYY=            178.7328  ZZZ=             81.0666  XYY=           -112.6224
  XXY=            -52.3642  XXZ=             70.8533  XZZ=            -74.5070  YZZ=            -27.1636
  YYZ=             52.3322  XYZ=             19.0765
 Hexadecapole moment (field-independent basis, Debye-Ang**3):
 XXXX=         -23709.0102 YYYY=         -11564.7988 ZZZZ=          -5015.9199 XXXY=           -226.4596
 XXXZ=            644.1058 YYYX=           -357.0212 YYYZ=            556.8574 ZZZX=             96.2004
 ZZZY=           -125.1813 XXYY=          -6056.7427 XXZZ=          -5285.4572 YYZZ=          -2912.8649
 XXYZ=           -182.1493 YYXZ=             58.1487 ZZXY=             55.9428
 N-N= 4.921001651232D+03 E-N=-1.437011106706D+04  KE= 1.926906979854D+03
 1\1\GINC-PADAWAN\SP\RB3LYP TD-FC\SVP\C33H36N4O6\PADAWAN\13-Sep-2019\0\
 \# td=(NStates=1) B3LYP/SVP\\TD\\0,1\O,0,-5.441910421,-0.0531698774,-3
 .3395437441\O,0,3.0611361191,2.9299102457,3.2079068691\O,0,3.334481796
 8,0.6837637754,3.1453564207\O,0,1.7583334728,-7.327489019,1.4432628326
 \O,0,0.5718920772,-6.9659030139,-0.4376517481\O,0,1.7058376319,4.00316
 34391,0.0321827257\N,0,-2.3133109422,-0.8570741376,0.6234193585\N,0,-4
 .4430391853,0.57003467,-1.2597843332\N,0,1.8539757892,-0.684840057,-0.
 3432428019\N,0,2.5084763895,1.9334290884,-0.6224689936\C,0,-4.78106449
 76,1.1251840154,-0.0225964598\C,0,-4.3784652393,0.3076009254,1.2231896
 767\C,0,-2.9204471403,-0.0242421675,1.4597279858\C,0,-1.94033313,0.688
 6738246,2.1444576154\C,0,-0.6851151218,0.0797225368,1.8865293305\C,0,-
 0.9214863364,-0.9247755365,0.8911309325\C,0,-6.2815805142,1.396827472,
 -0.1958247979\C,0,0.6294715538,0.1755882353,2.5414131614\C,0,-6.688749
 3894,0.8038596344,-1.4292986586\C,0,-0.1911653726,-1.8798167186,0.1825
 103325\C,0,1.1621531115,-1.8635659032,-0.2510466869\C,0,-5.4453151318,
 0.3944276575,-2.2175690684\C,0,1.9691510003,-2.9236729057,-0.900757085
 \C,0,-2.1735130522,1.6978655435,3.2452089111\C,0,-7.1249899922,1.96407
 45367,0.8359175777\C,0,3.1072470584,-2.3719171429,-1.4162328684\C,0,1.
 1401300403,1.5886473581,2.6110147374\C,0,3.0082288982,-0.9170003256,-1
 .042238212\C,0,1.541837954,-4.3412000844,-0.9700487218\C,0,-7.98369427
 54,0.8876003976,-2.037542142\C,0,1.8715947251,-5.1085917938,0.36653264
 88\C,0,4.2117467837,-2.9553240012,-2.0892481561\C,0,3.9064415148,0.200
 6694704,-1.3888235648\C,0,2.5998806093,1.6511927075,2.9764835483\C,0,3
 .6702113989,1.5069761091,-1.1402005874\C,0,-9.1733123146,0.9038925496,
 -1.3860434196\C,0,1.3091659813,-6.5457112213,0.4371523742\C,0,4.611770
 0116,2.642581013,-1.3505221353\C,0,3.9032395924,3.7981003337,-1.020773
 3716\C,0,2.605662137,3.2943872898,-0.5246512278\C,0,5.9069042957,2.481
 4629869,-2.0820701621\C,0,4.2920348233,5.1995248283,-1.0872507385\C,0,
 6.7230923668,3.4531610009,-2.4978142583\H,0,-4.2272272088,1.977658846,
 0.1182248628\H,0,-5.1298476417,-0.5597374498,1.1695617004\H,0,-4.86588
 34282,0.9114251422,2.1278396937\H,0,-2.8918682267,-1.4648438799,0.0027
 933575\H,0,-3.4745984571,0.4244843655,-1.5009576467\H,0,0.6194063753,-
 0.4087205601,3.4369832464\H,0,1.3144054499,-0.6450491723,2.1632514579\
 H,0,-0.6782664875,-2.7575032153,-0.0053455323\H,0,-3.2250526506,1.5833
 295971,3.3602160113\H,0,-1.7211733324,1.5588752514,4.1389522831\H,0,-1
 .8530816893,2.7573295528,3.1231097328\H,0,-6.5557290238,2.6771465182,1
 .5178440174\H,0,-7.4565854255,1.0275325625,1.5140184125\H,0,-8.0801939
 566,2.2909851816,0.4222707073\H,0,1.132495958,2.1474267793,1.603318399
 1\H,0,0.5357266852,2.1961864406,3.3653123554\H,0,1.6842927557,0.396200
 265,-0.2087762429\H,0,1.9551533075,-4.8743912695,-1.8730819179\H,0,0.3
 655783553,-4.3191217597,-1.0345819416\H,0,-8.0596770295,0.6849287235,-
 3.1949954377\H,0,1.3974119301,-4.518933073,1.1771852951\H,0,2.97607387
 75,-5.0176489694,0.333931208\H,0,4.0251975821,-4.0363310853,-2.1357770
 388\H,0,5.3550666051,-2.7825471049,-1.7346470823\H,0,4.3050219353,-2.4
 261748501,-3.1037894525\H,0,4.9721468342,-0.3034624407,-1.866912867\H,
 0,-9.3497885794,1.0239898545,-0.2173044202\H,0,-10.1804961832,0.824913
 9071,-1.8189079908\H,0,4.1233170182,2.9651799017,3.3956343291\H,0,6.27
 59210603,1.4081629655,-2.516180433\H,0,5.1574164414,5.2865814223,-0.48
 72573456\H,0,4.4205440769,5.5906958353,-2.1162941743\H,0,3.4427419438,
 5.7327428807,-0.6707688185\H,0,1.5098082889,-8.180959253,1.1878148364\
 H,0,7.6669891433,3.0209276327,-3.0536226356\H,0,6.4721991074,4.5498204
 942,-2.5413064831\\Version=ES64L-G16RevA.03\State=1-A\HF=-1947.9179092
 \RMSD=6.420e-09\PG=C01 [X(C33H36N4O6)]\\@


 THE MEEK SHALL INHERIT THE EARTH.
 (THE REST OF US WILL ESCAPE TO THE STARS)
 Job cpu time:       0 days 12 hours  4 minutes 14.3 seconds.
 Elapsed time:       0 days  3 hours  1 minutes 32.8 seconds.
 File lengths (MBytes):  RWF=   2533 Int=      0 D2E=      0 Chk=     63 Scr=      1
 Normal termination of Gaussian 16 at Fri Sep 13 04:53:08 2019.
