 Entering Gaussian System, Link 0=g16
 Input=Geometria-330-.com
 Output=Geometria-330-.log
 Initial command:
 /usr/local/g16/l1.exe "/home/padawan/israel-mol/dihydrobiliverdin/spectra/emi/Gau-13545.inp" -scrdir="/home/padawan/israel-mol/dihydrobiliverdin/spectra/emi/"
 Entering Link 1 = /usr/local/g16/l1.exe PID=     13547.
  
 Copyright (c) 1988,1990,1992,1993,1995,1998,2003,2009,2016,
            Gaussian, Inc.  All Rights Reserved.
  
 This is part of the Gaussian(R) 16 program.  It is based on
 the Gaussian(R) 09 system (copyright 2009, Gaussian, Inc.),
 the Gaussian(R) 03 system (copyright 2003, Gaussian, Inc.),
 the Gaussian(R) 98 system (copyright 1998, Gaussian, Inc.),
 the Gaussian(R) 94 system (copyright 1995, Gaussian, Inc.),
 the Gaussian 92(TM) system (copyright 1992, Gaussian, Inc.),
 the Gaussian 90(TM) system (copyright 1990, Gaussian, Inc.),
 the Gaussian 88(TM) system (copyright 1988, Gaussian, Inc.),
 the Gaussian 86(TM) system (copyright 1986, Carnegie Mellon
 University), and the Gaussian 82(TM) system (copyright 1983,
 Carnegie Mellon University). Gaussian is a federally registered
 trademark of Gaussian, Inc.
  
 This software contains proprietary and confidential information,
 including trade secrets, belonging to Gaussian, Inc.
  
 This software is provided under written license and may be
 used, copied, transmitted, or stored only in accord with that
 written license.
  
 The following legend is applicable only to US Government
 contracts under FAR:
  
                    RESTRICTED RIGHTS LEGEND
  
 Use, reproduction and disclosure by the US Government is
 subject to restrictions as set forth in subparagraphs (a)
 and (c) of the Commercial Computer Software - Restricted
 Rights clause in FAR 52.227-19.
  
 Gaussian, Inc.
 340 Quinnipiac St., Bldg. 40, Wallingford CT 06492
  
  
 ---------------------------------------------------------------
 Warning -- This program may not be used in any manner that
 competes with the business of Gaussian, Inc. or will provide
 assistance to any competitor of Gaussian, Inc.  The licensee
 of this program is prohibited from giving any competitor of
 Gaussian, Inc. access to this program.  By using this program,
 the user acknowledges that Gaussian, Inc. is engaged in the
 business of creating and licensing software in the field of
 computational chemistry and represents and warrants to the
 licensee that it is not a competitor of Gaussian, Inc. and that
 it will not use this program in any manner prohibited above.
 ---------------------------------------------------------------
  

 Cite this work as:
 Gaussian 16, Revision A.03,
 M. J. Frisch, G. W. Trucks, H. B. Schlegel, G. E. Scuseria, 
 M. A. Robb, J. R. Cheeseman, G. Scalmani, V. Barone, 
 G. A. Petersson, H. Nakatsuji, X. Li, M. Caricato, A. V. Marenich, 
 J. Bloino, B. G. Janesko, R. Gomperts, B. Mennucci, H. P. Hratchian, 
 J. V. Ortiz, A. F. Izmaylov, J. L. Sonnenberg, D. Williams-Young, 
 F. Ding, F. Lipparini, F. Egidi, J. Goings, B. Peng, A. Petrone, 
 T. Henderson, D. Ranasinghe, V. G. Zakrzewski, J. Gao, N. Rega, 
 G. Zheng, W. Liang, M. Hada, M. Ehara, K. Toyota, R. Fukuda, 
 J. Hasegawa, M. Ishida, T. Nakajima, Y. Honda, O. Kitao, H. Nakai, 
 T. Vreven, K. Throssell, J. A. Montgomery, Jr., J. E. Peralta, 
 F. Ogliaro, M. J. Bearpark, J. J. Heyd, E. N. Brothers, K. N. Kudin, 
 V. N. Staroverov, T. A. Keith, R. Kobayashi, J. Normand, 
 K. Raghavachari, A. P. Rendell, J. C. Burant, S. S. Iyengar, 
 J. Tomasi, M. Cossi, J. M. Millam, M. Klene, C. Adamo, R. Cammi, 
 J. W. Ochterski, R. L. Martin, K. Morokuma, O. Farkas, 
 J. B. Foresman, and D. J. Fox, Gaussian, Inc., Wallingford CT, 2016.
 
 ******************************************
 Gaussian 16:  ES64L-G16RevA.03 25-Dec-2016
                28-Jul-2019 
 ******************************************
 %nproc=4
 Will use up to    4 processors via shared memory.
 %Mem=3GB
 --------------------------
 # td=(NStates=1) B3LYP/SVP
 --------------------------
 1/38=1,172=1/1;
 2/12=2,17=6,18=5,40=1/2;
 3/5=18,7=101,11=9,25=1,30=1,74=-5/1,2,3,8;
 4//1;
 5/5=2,38=5/2;
 8/6=1,10=1,108=1/1;
 9/41=1,42=1,70=2/14;
 6/7=2,8=2,9=2,10=2/1;
 99/5=1,9=1/99;
 --
 TD
 --
 Symbolic Z-matrix:
 Charge =  0 Multiplicity = 1
 8                    -3.29952  -1.4041   -2.82353 
 8                     3.31395   3.06896   3.07773 
 8                     3.66341   1.30445   4.49066 
 8                     7.57302  -1.62644  -0.54635 
 8                     6.6446   -2.8557   -2.16777 
 8                    -2.57299   1.70045   1.44217 
 7                    -0.22379  -2.37716   0.93419 
 7                    -2.77409  -1.23745  -0.5258 
 7                     1.14275  -0.00119  -0.82437 
 7                    -0.95043   1.48425  -0.20894 
 6                    -3.35758  -1.25518   0.67946 
 6                    -2.6423   -2.27859   1.60736 
 6                    -1.16305  -1.99779   1.8316 
 6                    -0.56492  -1.25927   2.88381 
 6                     0.82647  -1.18572   2.4484 
 6                     1.01094  -1.82839   1.20722 
 6                    -4.7719   -1.93675   0.37873 
 6                     1.82358  -0.33549   3.10588 
 6                    -4.7834   -2.10792  -1.00069 
 6                     2.12239  -1.90526   0.31349 
 6                     2.15303  -0.90049  -0.67865 
 6                    -3.58875  -1.58258  -1.66461 
 6                     3.03023  -0.71445  -1.88265 
 6                    -1.35696  -0.51148   3.88696 
 6                    -5.86533  -2.11252   1.31899 
 6                     2.59389   0.53717  -2.55074 
 6                     1.90153   1.19592   2.80679 
 6                     1.36242   0.94279  -1.81005 
 6                     4.27026  -1.48678  -2.1097 
 6                    -5.84602  -2.40262  -2.07335 
 6                     5.36573  -0.98742  -1.18451 
 6                     3.3394    1.22475  -3.56683 
 6                     0.53315   2.03459  -2.00289 
 6                     2.96196   1.7391    3.60339 
 6                    -0.53353   2.27977  -1.14881 
 6                    -6.93651  -3.166    -1.80109 
 6                     6.57534  -1.9925   -1.31448 
 6                    -1.38731   3.56586  -1.26385 
 6                    -2.33515   3.38728  -0.23314 
 6                    -1.99428   2.0755    0.50101 
 6                    -1.36781   4.4795   -2.34476 
 6                    -3.35632   4.18849   0.155 
 6                    -2.15706   5.60649  -2.3676 
 1                    -3.24324  -0.41429   1.16118 
 1                    -2.68231  -3.22889   1.01076 
 1                    -3.11732  -2.20098   2.59435 
 1                    -0.39775  -2.7688    0.00348 
 1                    -2.19467  -0.35088  -0.55883 
 1                     1.81171  -0.50211   4.13341 
 1                     3.07466  -0.91986   2.94313 
 1                     2.72561  -2.74187   0.39906 
 1                    -2.17526  -1.23854   4.27345 
 1                    -0.72333  -0.27163   4.5542 
 1                    -1.67307   0.49821   3.48921 
 1                    -5.52627  -1.75462   2.3104 
 1                    -6.22073  -3.21588   1.47566 
 1                    -6.90387  -1.56294   0.80482 
 1                     1.84535   1.35075   1.78763 
 1                     0.89116   1.54006   3.01475 
 1                     0.40751   0.15761  -0.12294 
 1                     4.51937  -1.51768  -3.11962 
 1                     4.14384  -2.4988   -1.7192 
 1                    -5.62571  -2.23357  -3.16723 
 1                     4.99394  -1.31055  -0.08216 
 1                     5.77437   0.02547  -1.42905 
 1                     4.11738   0.72041  -4.15106 
 1                     3.65267   2.05479  -3.10602 
 1                     2.55607   1.50615  -4.36661 
 1                     0.94417   2.82252  -2.62128 
 1                    -7.09874  -3.40855  -0.59977 
 1                    -7.70122  -3.51388  -2.58427 
 1                     4.01393   3.33834   3.70529 
 1                    -0.91501   4.1231   -3.3758 
 1                    -3.88209   4.80427  -0.78682 
 1                    -4.15496   3.75677   0.95084 
 1                    -2.87783   5.04406   0.49615 
 1                     8.29665  -2.11195  -0.79199 
 1                    -2.08776   6.07639  -3.37955 
 1                    -2.66968   6.03173  -1.48455 
 
 Stoichiometry    C33H36N4O6
 Framework group  C1[X(C33H36N4O6)]
 Deg. of freedom   231
 Full point group                 C1      NOp   1
 Largest Abelian subgroup         C1      NOp   1
 Largest concise Abelian subgroup C1      NOp   1
                         Standard orientation:                         
 ---------------------------------------------------------------------
 Center     Atomic      Atomic             Coordinates (Angstroms)
 Number     Number       Type             X           Y           Z
 ---------------------------------------------------------------------
      1          8           0       -3.327966   -1.125757   -2.912540
      2          8           0        3.351009    2.755869    3.324077
      3          8           0        3.704969    0.866076    4.563185
      4          8           0        7.561784   -1.594300   -0.758289
      5          8           0        6.615331   -2.663886   -2.479415
      6          8           0       -2.554431    1.564745    1.617926
      7          7           0       -0.225617   -2.455108    0.711780
      8          7           0       -2.783188   -1.175980   -0.613824
      9          7           0        1.135952    0.070272   -0.828924
     10          7           0       -0.946245    1.498445   -0.059855
     11          6           0       -3.356911   -1.304277    0.589436
     12          6           0       -2.638160   -2.412099    1.411688
     13          6           0       -1.156032   -2.158163    1.648608
     14          6           0       -0.546426   -1.522987    2.760024
     15          6           0        0.841652   -1.413554    2.321596
     16          6           0        1.013461   -1.938148    1.024345
     17          6           0       -4.776323   -1.950291    0.238422
     18          6           0        1.847437   -0.631585    3.047072
     19          6           0       -4.799737   -1.991922   -1.150809
     20          6           0        2.117280   -1.934802    0.117959
     21          6           0        2.143820   -0.841918   -0.776328
     22          6           0       -3.608460   -1.410713   -1.772921
     23          6           0        3.011920   -0.547105   -1.965109
     24          6           0       -1.327310   -0.869574    3.835260
     25          6           0       -5.862748   -2.209572    1.167413
     26          6           0        2.575110    0.762796   -2.509771
     27          6           0        1.929018    0.920800    2.891526
     28          6           0        1.351330    1.101429   -1.724048
     29          6           0        4.246988   -1.298811   -2.273736
     30          6           0       -5.872210   -2.181832   -2.237241
     31          6           0        5.351926   -0.891480   -1.315310
     32          6           0        3.315044    1.539838   -3.463557
     33          6           0        0.524845    2.209096   -1.807140
     34          6           0        2.998048    1.383884    3.726314
     35          6           0       -0.533858    2.376885   -0.924894
     36          6           0       -6.963461   -2.963814   -2.028162
     37          6           0        6.556441   -1.883885   -1.548746
     38          6           0       -1.383445    3.670807   -0.912191
     39          6           0       -2.323560    3.399821    0.105361
     40          6           0       -1.981926    2.024163    0.710991
     41          6           0       -1.369128    4.681288   -1.903252
     42          6           0       -3.338352    4.164552    0.575212
     43          6           0       -2.154070    5.807989   -1.814146
     44          1           0       -3.235324   -0.512383    1.146526
     45          1           0       -2.686789   -3.302428    0.729385
     46          1           0       -3.104815   -2.425442    2.405608
     47          1           0       -0.408698   -2.757603   -0.249905
     48          1           0       -2.200547   -0.292049   -0.568891
     49          1           0        1.843277   -0.893345    4.054628
     50          1           0        3.094833   -1.202193    2.819901
     51          1           0        2.717859   -2.777660    0.119975
     52          1           0       -2.145305   -1.626934    4.159145
     53          1           0       -0.687320   -0.695076    4.516570
     54          1           0       -1.642639    0.173832    3.536146
     55          1           0       -5.514212   -1.946858    2.184975
     56          1           0       -6.221227   -3.321599    1.223451
     57          1           0       -6.903251   -1.611098    0.715584
     58          1           0        1.865155    1.170259    1.891771
     59          1           0        0.921745    1.247243    3.139250
     60          1           0        0.407087    0.165248   -0.109536
     61          1           0        4.487737   -1.236111   -3.284207
     62          1           0        4.119737   -2.342458   -1.978312
     63          1           0       -5.660153   -1.912123   -3.312403
     64          1           0        4.987843   -1.314907   -0.244811
     65          1           0        5.762567    0.138502   -1.467722
     66          1           0        4.086234    1.089754   -4.098872
     67          1           0        3.635339    2.322237   -2.929980
     68          1           0        2.526345    1.897147   -4.226918
     69          1           0        0.933936    3.049998   -2.352773
     70          1           0       -7.116864   -3.316920   -0.853384
     71          1           0       -7.735897   -3.234639   -2.833877
     72          1           0        4.057131    2.963272    3.968080
     73          1           0       -0.926153    4.421239   -2.966849
     74          1           0       -3.869331    4.867221   -0.300550
     75          1           0       -4.132197    3.662981    1.334034
     76          1           0       -2.853714    4.983022    0.990633
     77          1           0        8.281460   -2.057070   -1.054291
     78          1           0       -2.091154    6.370071   -2.778389
     79          1           0       -2.657793    6.150589   -0.890959
 ---------------------------------------------------------------------
 Rotational constants (GHZ):           0.0917316           0.0501408           0.0484259
 Standard basis: SVP (5D, 7F)
 There are   825 symmetry adapted cartesian basis functions of A   symmetry.
 There are   782 symmetry adapted basis functions of A   symmetry.
   782 basis functions,  1327 primitive gaussians,   825 cartesian basis functions
   155 alpha electrons      155 beta electrons
       nuclear repulsion energy      5201.5596143495 Hartrees.
 NAtoms=   79 NActive=   79 NUniq=   79 SFac= 1.00D+00 NAtFMM=   60 NAOKFM=T Big=T
 Integral buffers will be    131072 words long.
 Regular integral format.
 Two-electron integral symmetry is turned on.
 One-electron integrals computed using PRISM.
 NBasis=   782 RedAO= T EigKep=  4.00D-04  NBF=   782
 NBsUse=   782 1.00D-06 EigRej= -1.00D+00 NBFU=   782
 ExpMin= 1.22D-01 ExpMax= 2.27D+03 ExpMxC= 3.41D+02 IAcc=3 IRadAn=         5 AccDes= 0.00D+00
 Harris functional with IExCor=  402 and IRadAn=       5 diagonalized for initial guess.
 HarFok:  IExCor=  402 AccDes= 0.00D+00 IRadAn=         5 IDoV= 1 UseB2=F ITyADJ=14
 ICtDFT=  3500011 ScaDFX=  1.000000  1.000000  1.000000  1.000000
 FoFCou: FMM=F IPFlag=           0 FMFlag=      100000 FMFlg1=        2001
         NFxFlg=           0 DoJE=T BraDBF=F KetDBF=T FulRan=T
         wScrn=  0.000000 ICntrl=       500 IOpCl=  0 I1Cent=   200000004 NGrid=           0
         NMat0=    1 NMatS0=      1 NMatT0=    0 NMatD0=    1 NMtDS0=    0 NMtDT0=    0
 Petite list used in FoFCou.
 Requested convergence on RMS density matrix=1.00D-08 within 128 cycles.
 Requested convergence on MAX density matrix=1.00D-06.
 Requested convergence on             energy=1.00D-06.
 No special actions if energy rises.
 Integral accuracy reduced to 1.0D-05 until final iterations.
 Initial convergence to 1.0D-05 achieved.  Increase integral accuracy.
 SCF Done:  E(RB3LYP) =  -1947.79350413     A.U. after   16 cycles
            NFock= 16  Conv=0.43D-08     -V/T= 2.0102
 DoSCS=F DFT=T ScalE2(SS,OS)=  1.000000  1.000000
 ExpMin= 1.22D-01 ExpMax= 2.27D+03 ExpMxC= 3.41D+02 IAcc=3 IRadAn=         5 AccDes= 0.00D+00
 HarFok:  IExCor=  205 AccDes= 0.00D+00 IRadAn=         5 IDoV=-2 UseB2=F ITyADJ=14
 ICtDFT= 12500011 ScaDFX=  1.000000  1.000000  1.000000  1.000000
 GSVD:  LWork=       -2193 too small for GESVD, short by        9890 words or        9890 for optimal perf.
 Range of M.O.s used for correlation:    44   782
 NBasis=   782 NAE=   155 NBE=   155 NFC=    43 NFV=     0
 NROrb=    739 NOA=   112 NOB=   112 NVA=   627 NVB=   627

 **** Warning!!: The smallest alpha delta epsilon is  0.70691915D-01

 Orbital symmetries:
       Occupied  (A) (A) (A) (A) (A) (A) (A) (A) (A) (A) (A) (A)
                 (A) (A) (A) (A) (A) (A) (A) (A) (A) (A) (A) (A)
                 (A) (A) (A) (A) (A) (A) (A) (A) (A) (A) (A) (A)
                 (A) (A) (A) (A) (A) (A) (A) (A) (A) (A) (A) (A)
                 (A) (A) (A) (A) (A) (A) (A) (A) (A) (A) (A) (A)
                 (A) (A) (A) (A) (A) (A) (A) (A) (A) (A) (A) (A)
                 (A) (A) (A) (A) (A) (A) (A) (A) (A) (A) (A) (A)
                 (A) (A) (A) (A) (A) (A) (A) (A) (A) (A) (A) (A)
                 (A) (A) (A) (A) (A) (A) (A) (A) (A) (A) (A) (A)
                 (A) (A) (A) (A) (A) (A) (A) (A) (A) (A) (A) (A)
                 (A) (A) (A) (A) (A) (A) (A) (A) (A) (A) (A) (A)
                 (A) (A) (A) (A) (A) (A) (A) (A) (A) (A) (A) (A)
                 (A) (A) (A) (A) (A) (A) (A) (A) (A) (A) (A)
       Virtual   (A) (A) (A) (A) (A) (A) (A) (A) (A) (A) (A) (A)
                 (A) (A) (A) (A) (A) (A) (A) (A) (A) (A) (A) (A)
                 (A) (A) (A) (A) (A) (A) (A) (A) (A) (A) (A) (A)
                 (A) (A) (A) (A) (A) (A) (A) (A) (A) (A) (A) (A)
                 (A) (A) (A) (A) (A) (A) (A) (A) (A) (A) (A) (A)
                 (A) (A) (A) (A) (A) (A) (A) (A) (A) (A) (A) (A)
                 (A) (A) (A) (A) (A) (A) (A) (A) (A) (A) (A) (A)
                 (A) (A) (A) (A) (A) (A) (A) (A) (A) (A) (A) (A)
                 (A) (A) (A) (A) (A) (A) (A) (A) (A) (A) (A) (A)
                 (A) (A) (A) (A) (A) (A) (A) (A) (A) (A) (A) (A)
                 (A) (A) (A) (A) (A) (A) (A) (A) (A) (A) (A) (A)
                 (A) (A) (A) (A) (A) (A) (A) (A) (A) (A) (A) (A)
                 (A) (A) (A) (A) (A) (A) (A) (A) (A) (A) (A) (A)
                 (A) (A) (A) (A) (A) (A) (A) (A) (A) (A) (A) (A)
                 (A) (A) (A) (A) (A) (A) (A) (A) (A) (A) (A) (A)
                 (A) (A) (A) (A) (A) (A) (A) (A) (A) (A) (A) (A)
                 (A) (A) (A) (A) (A) (A) (A) (A) (A) (A) (A) (A)
                 (A) (A) (A) (A) (A) (A) (A) (A) (A) (A) (A) (A)
                 (A) (A) (A) (A) (A) (A) (A) (A) (A) (A) (A) (A)
                 (A) (A) (A) (A) (A) (A) (A) (A) (A) (A) (A) (A)
                 (A) (A) (A) (A) (A) (A) (A) (A) (A) (A) (A) (A)
                 (A) (A) (A) (A) (A) (A) (A) (A) (A) (A) (A) (A)
                 (A) (A) (A) (A) (A) (A) (A) (A) (A) (A) (A) (A)
                 (A) (A) (A) (A) (A) (A) (A) (A) (A) (A) (A) (A)
                 (A) (A) (A) (A) (A) (A) (A) (A) (A) (A) (A) (A)
                 (A) (A) (A) (A) (A) (A) (A) (A) (A) (A) (A) (A)
                 (A) (A) (A) (A) (A) (A) (A) (A) (A) (A) (A) (A)
                 (A) (A) (A) (A) (A) (A) (A) (A) (A) (A) (A) (A)
                 (A) (A) (A) (A) (A) (A) (A) (A) (A) (A) (A) (A)
                 (A) (A) (A) (A) (A) (A) (A) (A) (A) (A) (A) (A)
                 (A) (A) (A) (A) (A) (A) (A) (A) (A) (A) (A) (A)
                 (A) (A) (A) (A) (A) (A) (A) (A) (A) (A) (A) (A)
                 (A) (A) (A) (A) (A) (A) (A) (A) (A) (A) (A) (A)
                 (A) (A) (A) (A) (A) (A) (A) (A) (A) (A) (A) (A)
                 (A) (A) (A) (A) (A) (A) (A) (A) (A) (A) (A) (A)
                 (A) (A) (A) (A) (A) (A) (A) (A) (A) (A) (A) (A)
                 (A) (A) (A) (A) (A) (A) (A) (A) (A) (A) (A) (A)
                 (A) (A) (A) (A) (A) (A) (A) (A) (A) (A) (A) (A)
                 (A) (A) (A) (A) (A) (A) (A) (A) (A) (A) (A) (A)
                 (A) (A) (A) (A) (A) (A) (A) (A) (A) (A) (A) (A)
                 (A) (A) (A) (A) (A) (A) (A) (A) (A) (A) (A) (A)
                 (A) (A) (A) (A) (A) (A) (A) (A) (A) (A) (A) (A)
                 (A) (A) (A) (A) (A) (A) (A) (A) (A) (A) (A) (A)
                 (A) (A) (A) (A) (A) (A) (A) (A) (A) (A) (A) (A)
                 (A) (A) (A) (A) (A) (A) (A) (A) (A) (A) (A) (A)
                 (A) (A) (A) (A) (A) (A) (A) (A) (A) (A) (A) (A)
                 (A) (A) (A) (A) (A) (A) (A) (A) (A) (A) (A) (A)
                 (A) (A) (A) (A) (A) (A) (A) (A) (A) (A) (A) (A)
                 (A) (A) (A) (A) (A) (A) (A) (A) (A) (A) (A) (A)
                 (A) (A) (A) (A) (A) (A) (A) (A) (A) (A) (A) (A)
                 (A) (A) (A) (A) (A) (A) (A) (A) (A) (A) (A) (A)
                 (A) (A) (A) (A) (A) (A) (A) (A) (A) (A) (A) (A)
                 (A) (A) (A)
     4 initial guesses have been made.
 Convergence on wavefunction:    0.001000000000000
 Iteration     1 Dimension     4 NMult     0 NNew      4
 CISAX will form     4 AO SS matrices at one time.
 Iteration     2 Dimension     6 NMult     4 NNew      2
 Iteration     3 Dimension     8 NMult     6 NNew      2
 Iteration     4 Dimension    10 NMult     8 NNew      2
 ***********************************************************************
 Excited states from <AA,BB:AA,BB> singles matrix:
 ***********************************************************************
 
 Ground to excited state transition densities written to RWF  633
 Ground to excited state transition electric dipole moments (Au):
       state          X           Y           Z        Dip. S.      Osc.
         1        -0.0433     -0.0647      0.0203      0.0065      0.0002
 Ground to excited state transition velocity dipole moments (Au):
       state          X           Y           Z        Dip. S.      Osc.
         1         0.0007      0.0015     -0.0005      0.0000      0.0000
 Ground to excited state transition magnetic dipole moments (Au):
       state          X           Y           Z
         1        -0.0449     -0.1054     -0.2030
 Ground to excited state transition velocity quadrupole moments (Au):
       state          XX          YY          ZZ          XY          XZ          YZ
         1        -0.0073      0.0111      0.0022     -0.0282     -0.0042      0.0028
 <0|del|b> * <b|rxdel|0> + <0|del|b> * <b|delr+rdel|0>
 Rotatory Strengths (R) in cgs (10**-40 erg-esu-cm/Gauss)
       state          XX          YY          ZZ    R(velocity)    E-M Angle
         1        -0.2046      0.5328     -1.5504     -0.4074       90.00
 1/2[<0|r|b>*<b|rxdel|0> + (<0|rxdel|b>*<b|r|0>)*]
 Rotatory Strengths (R) in cgs (10**-40 erg-esu-cm/Gauss)
       state          XX          YY          ZZ     R(length)
         1        -1.3740     -4.8250      2.9198     -1.0931
  1/2[<0|del|b>*<b|r|0> + (<0|r|b>*<b|del|0>)*] (Au)
       state          X           Y           Z        Dip. S.   Osc.(frdel)
         1        -0.0000     -0.0001     -0.0000      0.0001      0.0001

 Excitation energies and oscillator strengths:
 
 Excited State   1:      Singlet-A      1.2086 eV 1025.82 nm  f=0.0002  <S**2>=0.000
     155 ->156         0.70346
 This state for optimization and/or second-order correction.
 Total Energy, E(TD-HF/TD-DFT) =  -1947.74908740    
 Copying the excited state density for this state as the 1-particle RhoCI density.
 SavETr:  write IOETrn=   770 NScale= 10 NData=  16 NLR=1 NState=    1 LETran=      28.

 **********************************************************************

            Population analysis using the SCF density.

 **********************************************************************

 Orbital symmetries:
       Occupied  (A) (A) (A) (A) (A) (A) (A) (A) (A) (A) (A) (A)
                 (A) (A) (A) (A) (A) (A) (A) (A) (A) (A) (A) (A)
                 (A) (A) (A) (A) (A) (A) (A) (A) (A) (A) (A) (A)
                 (A) (A) (A) (A) (A) (A) (A) (A) (A) (A) (A) (A)
                 (A) (A) (A) (A) (A) (A) (A) (A) (A) (A) (A) (A)
                 (A) (A) (A) (A) (A) (A) (A) (A) (A) (A) (A) (A)
                 (A) (A) (A) (A) (A) (A) (A) (A) (A) (A) (A) (A)
                 (A) (A) (A) (A) (A) (A) (A) (A) (A) (A) (A) (A)
                 (A) (A) (A) (A) (A) (A) (A) (A) (A) (A) (A) (A)
                 (A) (A) (A) (A) (A) (A) (A) (A) (A) (A) (A) (A)
                 (A) (A) (A) (A) (A) (A) (A) (A) (A) (A) (A) (A)
                 (A) (A) (A) (A) (A) (A) (A) (A) (A) (A) (A) (A)
                 (A) (A) (A) (A) (A) (A) (A) (A) (A) (A) (A)
       Virtual   (A) (A) (A) (A) (A) (A) (A) (A) (A) (A) (A) (A)
                 (A) (A) (A) (A) (A) (A) (A) (A) (A) (A) (A) (A)
                 (A) (A) (A) (A) (A) (A) (A) (A) (A) (A) (A) (A)
                 (A) (A) (A) (A) (A) (A) (A) (A) (A) (A) (A) (A)
                 (A) (A) (A) (A) (A) (A) (A) (A) (A) (A) (A) (A)
                 (A) (A) (A) (A) (A) (A) (A) (A) (A) (A) (A) (A)
                 (A) (A) (A) (A) (A) (A) (A) (A) (A) (A) (A) (A)
                 (A) (A) (A) (A) (A) (A) (A) (A) (A) (A) (A) (A)
                 (A) (A) (A) (A) (A) (A) (A) (A) (A) (A) (A) (A)
                 (A) (A) (A) (A) (A) (A) (A) (A) (A) (A) (A) (A)
                 (A) (A) (A) (A) (A) (A) (A) (A) (A) (A) (A) (A)
                 (A) (A) (A) (A) (A) (A) (A) (A) (A) (A) (A) (A)
                 (A) (A) (A) (A) (A) (A) (A) (A) (A) (A) (A) (A)
                 (A) (A) (A) (A) (A) (A) (A) (A) (A) (A) (A) (A)
                 (A) (A) (A) (A) (A) (A) (A) (A) (A) (A) (A) (A)
                 (A) (A) (A) (A) (A) (A) (A) (A) (A) (A) (A) (A)
                 (A) (A) (A) (A) (A) (A) (A) (A) (A) (A) (A) (A)
                 (A) (A) (A) (A) (A) (A) (A) (A) (A) (A) (A) (A)
                 (A) (A) (A) (A) (A) (A) (A) (A) (A) (A) (A) (A)
                 (A) (A) (A) (A) (A) (A) (A) (A) (A) (A) (A) (A)
                 (A) (A) (A) (A) (A) (A) (A) (A) (A) (A) (A) (A)
                 (A) (A) (A) (A) (A) (A) (A) (A) (A) (A) (A) (A)
                 (A) (A) (A) (A) (A) (A) (A) (A) (A) (A) (A) (A)
                 (A) (A) (A) (A) (A) (A) (A) (A) (A) (A) (A) (A)
                 (A) (A) (A) (A) (A) (A) (A) (A) (A) (A) (A) (A)
                 (A) (A) (A) (A) (A) (A) (A) (A) (A) (A) (A) (A)
                 (A) (A) (A) (A) (A) (A) (A) (A) (A) (A) (A) (A)
                 (A) (A) (A) (A) (A) (A) (A) (A) (A) (A) (A) (A)
                 (A) (A) (A) (A) (A) (A) (A) (A) (A) (A) (A) (A)
                 (A) (A) (A) (A) (A) (A) (A) (A) (A) (A) (A) (A)
                 (A) (A) (A) (A) (A) (A) (A) (A) (A) (A) (A) (A)
                 (A) (A) (A) (A) (A) (A) (A) (A) (A) (A) (A) (A)
                 (A) (A) (A) (A) (A) (A) (A) (A) (A) (A) (A) (A)
                 (A) (A) (A) (A) (A) (A) (A) (A) (A) (A) (A) (A)
                 (A) (A) (A) (A) (A) (A) (A) (A) (A) (A) (A) (A)
                 (A) (A) (A) (A) (A) (A) (A) (A) (A) (A) (A) (A)
                 (A) (A) (A) (A) (A) (A) (A) (A) (A) (A) (A) (A)
                 (A) (A) (A) (A) (A) (A) (A) (A) (A) (A) (A) (A)
                 (A) (A) (A) (A) (A) (A) (A) (A) (A) (A) (A) (A)
                 (A) (A) (A) (A) (A) (A) (A) (A) (A) (A) (A) (A)
                 (A) (A) (A) (A) (A) (A) (A) (A) (A) (A) (A) (A)
                 (A) (A) (A) (A) (A) (A) (A) (A) (A) (A) (A) (A)
                 (A) (A) (A) (A) (A) (A) (A) (A) (A) (A) (A) (A)
                 (A) (A) (A) (A) (A) (A) (A) (A) (A) (A) (A) (A)
                 (A) (A) (A) (A) (A) (A) (A) (A) (A) (A) (A) (A)
                 (A) (A) (A) (A) (A) (A) (A) (A) (A) (A) (A) (A)
                 (A) (A) (A) (A) (A) (A) (A) (A) (A) (A) (A) (A)
                 (A) (A) (A) (A) (A) (A) (A) (A) (A) (A) (A) (A)
                 (A) (A) (A) (A) (A) (A) (A) (A) (A) (A) (A) (A)
                 (A) (A) (A) (A) (A) (A) (A) (A) (A) (A) (A) (A)
                 (A) (A) (A) (A) (A) (A) (A) (A) (A) (A) (A) (A)
                 (A) (A) (A) (A) (A) (A) (A) (A) (A) (A) (A) (A)
                 (A) (A) (A)
 The electronic state is 1-A.
 Alpha  occ. eigenvalues --  -19.19904 -19.15300 -19.13874 -19.13674 -19.13551
 Alpha  occ. eigenvalues --  -19.09710 -14.37191 -14.36440 -14.31912 -14.30877
 Alpha  occ. eigenvalues --  -10.33145 -10.32262 -10.28888 -10.27199 -10.26961
 Alpha  occ. eigenvalues --  -10.25829 -10.25058 -10.23332 -10.23264 -10.23164
 Alpha  occ. eigenvalues --  -10.21970 -10.21822 -10.21763 -10.21599 -10.20985
 Alpha  occ. eigenvalues --  -10.20777 -10.20772 -10.20604 -10.20590 -10.20566
 Alpha  occ. eigenvalues --  -10.20475 -10.20241 -10.20154 -10.20149 -10.20029
 Alpha  occ. eigenvalues --  -10.19893 -10.19848 -10.19843 -10.19495 -10.19108
 Alpha  occ. eigenvalues --  -10.17175 -10.17084 -10.16624  -1.13373  -1.07144
 Alpha  occ. eigenvalues --   -1.06996  -1.02333  -1.01825  -0.99285  -0.98067
 Alpha  occ. eigenvalues --   -0.96609  -0.94583  -0.93867  -0.83671  -0.82918
 Alpha  occ. eigenvalues --   -0.82408  -0.80828  -0.79970  -0.79286  -0.78693
 Alpha  occ. eigenvalues --   -0.77415  -0.76763  -0.75940  -0.74197  -0.73453
 Alpha  occ. eigenvalues --   -0.71480  -0.70426  -0.69889  -0.69814  -0.68065
 Alpha  occ. eigenvalues --   -0.66558  -0.65415  -0.62906  -0.62258  -0.60732
 Alpha  occ. eigenvalues --   -0.59739  -0.58616  -0.57662  -0.57093  -0.56398
 Alpha  occ. eigenvalues --   -0.55714  -0.55068  -0.54571  -0.54505  -0.54074
 Alpha  occ. eigenvalues --   -0.52024  -0.51749  -0.50952  -0.50635  -0.50013
 Alpha  occ. eigenvalues --   -0.49782  -0.49101  -0.48942  -0.48825  -0.47984
 Alpha  occ. eigenvalues --   -0.47511  -0.47223  -0.46911  -0.46621  -0.46268
 Alpha  occ. eigenvalues --   -0.45797  -0.45338  -0.45147  -0.44787  -0.44138
 Alpha  occ. eigenvalues --   -0.43838  -0.43568  -0.43246  -0.42812  -0.42518
 Alpha  occ. eigenvalues --   -0.42409  -0.41802  -0.41554  -0.41331  -0.40880
 Alpha  occ. eigenvalues --   -0.40721  -0.40546  -0.40381  -0.40123  -0.39651
 Alpha  occ. eigenvalues --   -0.39259  -0.39108  -0.38936  -0.38672  -0.38493
 Alpha  occ. eigenvalues --   -0.38386  -0.38201  -0.37494  -0.37431  -0.36931
 Alpha  occ. eigenvalues --   -0.36520  -0.36247  -0.35826  -0.35739  -0.35492
 Alpha  occ. eigenvalues --   -0.34018  -0.33958  -0.32400  -0.31585  -0.31147
 Alpha  occ. eigenvalues --   -0.29972  -0.29741  -0.29539  -0.29309  -0.28858
 Alpha  occ. eigenvalues --   -0.28687  -0.25907  -0.25534  -0.25493  -0.23841
 Alpha  occ. eigenvalues --   -0.22939  -0.22826  -0.22341  -0.22150  -0.19236
 Alpha virt. eigenvalues --   -0.12167  -0.07365  -0.05228  -0.01940  -0.01453
 Alpha virt. eigenvalues --   -0.00727   0.01577   0.02294   0.02452   0.03224
 Alpha virt. eigenvalues --    0.03558   0.04001   0.04610   0.04971   0.05659
 Alpha virt. eigenvalues --    0.05828   0.06251   0.06496   0.06688   0.07110
 Alpha virt. eigenvalues --    0.07464   0.07740   0.07828   0.08045   0.08429
 Alpha virt. eigenvalues --    0.08905   0.09093   0.09199   0.09793   0.10368
 Alpha virt. eigenvalues --    0.10699   0.11378   0.11919   0.12025   0.12375
 Alpha virt. eigenvalues --    0.12800   0.13157   0.13525   0.14047   0.14074
 Alpha virt. eigenvalues --    0.14361   0.14738   0.14889   0.15373   0.15881
 Alpha virt. eigenvalues --    0.16800   0.17301   0.17352   0.18336   0.18648
 Alpha virt. eigenvalues --    0.19806   0.20039   0.20208   0.20678   0.20920
 Alpha virt. eigenvalues --    0.21392   0.22187   0.22506   0.22965   0.23201
 Alpha virt. eigenvalues --    0.23423   0.24124   0.24640   0.24890   0.25081
 Alpha virt. eigenvalues --    0.25367   0.25789   0.26236   0.26685   0.27237
 Alpha virt. eigenvalues --    0.27594   0.27721   0.28201   0.28552   0.29105
 Alpha virt. eigenvalues --    0.29821   0.30089   0.30446   0.30603   0.31361
 Alpha virt. eigenvalues --    0.32483   0.32622   0.32818   0.33071   0.33525
 Alpha virt. eigenvalues --    0.34051   0.34853   0.35195   0.35800   0.36141
 Alpha virt. eigenvalues --    0.36890   0.37981   0.38148   0.38572   0.39428
 Alpha virt. eigenvalues --    0.39616   0.39894   0.40036   0.40634   0.41394
 Alpha virt. eigenvalues --    0.41825   0.42313   0.42826   0.42966   0.43387
 Alpha virt. eigenvalues --    0.43652   0.43968   0.44722   0.44803   0.45255
 Alpha virt. eigenvalues --    0.45412   0.45702   0.45887   0.46128   0.46357
 Alpha virt. eigenvalues --    0.46497   0.47452   0.47683   0.48010   0.48393
 Alpha virt. eigenvalues --    0.48898   0.49035   0.49375   0.49916   0.50346
 Alpha virt. eigenvalues --    0.50636   0.50972   0.51643   0.51842   0.52009
 Alpha virt. eigenvalues --    0.52389   0.52516   0.53454   0.53727   0.53960
 Alpha virt. eigenvalues --    0.54448   0.55109   0.55528   0.55774   0.56304
 Alpha virt. eigenvalues --    0.56793   0.56836   0.57027   0.57407   0.57669
 Alpha virt. eigenvalues --    0.58079   0.58779   0.59091   0.59168   0.59429
 Alpha virt. eigenvalues --    0.59776   0.60007   0.60554   0.60696   0.60917
 Alpha virt. eigenvalues --    0.61326   0.61782   0.61883   0.62147   0.62476
 Alpha virt. eigenvalues --    0.62664   0.63063   0.63324   0.63631   0.64177
 Alpha virt. eigenvalues --    0.64618   0.64827   0.64882   0.65045   0.65207
 Alpha virt. eigenvalues --    0.65544   0.65664   0.65883   0.66158   0.66260
 Alpha virt. eigenvalues --    0.66368   0.66550   0.66778   0.67334   0.67418
 Alpha virt. eigenvalues --    0.67751   0.68089   0.68355   0.68780   0.69042
 Alpha virt. eigenvalues --    0.69127   0.69650   0.69775   0.70117   0.70251
 Alpha virt. eigenvalues --    0.70527   0.71066   0.71169   0.71604   0.71773
 Alpha virt. eigenvalues --    0.72237   0.72412   0.72770   0.72964   0.73304
 Alpha virt. eigenvalues --    0.73689   0.74473   0.74520   0.74804   0.75156
 Alpha virt. eigenvalues --    0.75260   0.76129   0.76334   0.76741   0.76911
 Alpha virt. eigenvalues --    0.77756   0.77945   0.78478   0.78891   0.79569
 Alpha virt. eigenvalues --    0.80086   0.81016   0.81276   0.81791   0.81909
 Alpha virt. eigenvalues --    0.82775   0.83045   0.83268   0.84081   0.84426
 Alpha virt. eigenvalues --    0.85045   0.85875   0.86406   0.86694   0.87092
 Alpha virt. eigenvalues --    0.87646   0.88376   0.89251   0.90084   0.90638
 Alpha virt. eigenvalues --    0.91088   0.91505   0.92511   0.92721   0.92758
 Alpha virt. eigenvalues --    0.93542   0.94074   0.94857   0.94899   0.95989
 Alpha virt. eigenvalues --    0.96868   0.97452   0.97696   0.98330   0.98496
 Alpha virt. eigenvalues --    0.99308   0.99497   1.00223   1.01526   1.01885
 Alpha virt. eigenvalues --    1.02514   1.02980   1.03776   1.03867   1.05064
 Alpha virt. eigenvalues --    1.06181   1.06841   1.07919   1.08277   1.08516
 Alpha virt. eigenvalues --    1.09510   1.10771   1.11851   1.11893   1.12305
 Alpha virt. eigenvalues --    1.12753   1.14097   1.14268   1.14665   1.15157
 Alpha virt. eigenvalues --    1.16071   1.16979   1.17091   1.17249   1.18133
 Alpha virt. eigenvalues --    1.19838   1.20466   1.20538   1.21100   1.21804
 Alpha virt. eigenvalues --    1.23202   1.23537   1.23645   1.24238   1.24637
 Alpha virt. eigenvalues --    1.25203   1.25666   1.26178   1.26317   1.26560
 Alpha virt. eigenvalues --    1.27348   1.28022   1.29363   1.29867   1.30256
 Alpha virt. eigenvalues --    1.31351   1.31951   1.32314   1.32985   1.33586
 Alpha virt. eigenvalues --    1.34743   1.35503   1.36474   1.36934   1.38635
 Alpha virt. eigenvalues --    1.39321   1.40025   1.41036   1.41161   1.42106
 Alpha virt. eigenvalues --    1.43394   1.43581   1.43703   1.44108   1.45059
 Alpha virt. eigenvalues --    1.45265   1.45610   1.46235   1.46910   1.47018
 Alpha virt. eigenvalues --    1.47399   1.49012   1.50437   1.50520   1.51309
 Alpha virt. eigenvalues --    1.51628   1.52126   1.52202   1.52727   1.53795
 Alpha virt. eigenvalues --    1.54165   1.54701   1.55083   1.55804   1.56215
 Alpha virt. eigenvalues --    1.57607   1.57714   1.58347   1.59234   1.59602
 Alpha virt. eigenvalues --    1.59895   1.60110   1.60912   1.61279   1.62173
 Alpha virt. eigenvalues --    1.62696   1.63092   1.63244   1.63653   1.63948
 Alpha virt. eigenvalues --    1.64653   1.64810   1.65149   1.65836   1.66396
 Alpha virt. eigenvalues --    1.66820   1.67045   1.67580   1.67807   1.68479
 Alpha virt. eigenvalues --    1.68560   1.69648   1.69766   1.70303   1.71189
 Alpha virt. eigenvalues --    1.71749   1.71849   1.72148   1.72868   1.73280
 Alpha virt. eigenvalues --    1.73918   1.74140   1.74612   1.75251   1.75808
 Alpha virt. eigenvalues --    1.75995   1.76285   1.77020   1.77272   1.77420
 Alpha virt. eigenvalues --    1.77822   1.78083   1.78863   1.79143   1.79512
 Alpha virt. eigenvalues --    1.79743   1.80527   1.80890   1.81360   1.82276
 Alpha virt. eigenvalues --    1.82531   1.83039   1.83374   1.83575   1.83879
 Alpha virt. eigenvalues --    1.84053   1.84500   1.84902   1.85096   1.85693
 Alpha virt. eigenvalues --    1.86095   1.86278   1.86662   1.87588   1.88020
 Alpha virt. eigenvalues --    1.88475   1.88548   1.89241   1.89873   1.90373
 Alpha virt. eigenvalues --    1.91166   1.91301   1.91764   1.92526   1.93532
 Alpha virt. eigenvalues --    1.93610   1.94074   1.94381   1.95035   1.95375
 Alpha virt. eigenvalues --    1.96883   1.96916   1.97274   1.97357   1.98322
 Alpha virt. eigenvalues --    1.99115   1.99679   1.99924   2.00830   2.01035
 Alpha virt. eigenvalues --    2.01225   2.02034   2.02551   2.02824   2.03566
 Alpha virt. eigenvalues --    2.03986   2.04421   2.05169   2.05535   2.05768
 Alpha virt. eigenvalues --    2.06327   2.06616   2.07271   2.07603   2.08116
 Alpha virt. eigenvalues --    2.08569   2.08807   2.09284   2.09490   2.10516
 Alpha virt. eigenvalues --    2.11247   2.11972   2.12535   2.13164   2.13328
 Alpha virt. eigenvalues --    2.13673   2.14061   2.14493   2.15551   2.15641
 Alpha virt. eigenvalues --    2.16415   2.16977   2.17765   2.18363   2.18989
 Alpha virt. eigenvalues --    2.19373   2.19871   2.20950   2.21848   2.22310
 Alpha virt. eigenvalues --    2.22785   2.23940   2.24319   2.25266   2.26177
 Alpha virt. eigenvalues --    2.26714   2.26864   2.27220   2.27565   2.28983
 Alpha virt. eigenvalues --    2.29964   2.30419   2.31291   2.31970   2.32724
 Alpha virt. eigenvalues --    2.33601   2.33978   2.34704   2.35297   2.36344
 Alpha virt. eigenvalues --    2.36855   2.37828   2.38835   2.39165   2.39227
 Alpha virt. eigenvalues --    2.40015   2.40817   2.41460   2.41990   2.42483
 Alpha virt. eigenvalues --    2.43963   2.44597   2.45059   2.45853   2.46203
 Alpha virt. eigenvalues --    2.46784   2.47392   2.48456   2.49018   2.49499
 Alpha virt. eigenvalues --    2.50612   2.51245   2.51783   2.51992   2.52965
 Alpha virt. eigenvalues --    2.54347   2.56100   2.56872   2.57103   2.57671
 Alpha virt. eigenvalues --    2.58113   2.58563   2.60853   2.62013   2.62709
 Alpha virt. eigenvalues --    2.63102   2.64171   2.64652   2.65060   2.65382
 Alpha virt. eigenvalues --    2.66245   2.66769   2.67038   2.67531   2.67938
 Alpha virt. eigenvalues --    2.69539   2.69802   2.70795   2.70998   2.71038
 Alpha virt. eigenvalues --    2.71511   2.72324   2.72954   2.73265   2.73484
 Alpha virt. eigenvalues --    2.74291   2.75122   2.75909   2.76784   2.77375
 Alpha virt. eigenvalues --    2.78907   2.79102   2.79510   2.81319   2.81664
 Alpha virt. eigenvalues --    2.82869   2.83318   2.83985   2.85238   2.85431
 Alpha virt. eigenvalues --    2.86047   2.86851   2.88525   2.89160   2.90388
 Alpha virt. eigenvalues --    2.91041   2.91161   2.92418   2.92887   2.93007
 Alpha virt. eigenvalues --    2.93626   2.94109   2.95245   2.95912   2.96726
 Alpha virt. eigenvalues --    2.98420   2.99967   3.00429   3.00917   3.01607
 Alpha virt. eigenvalues --    3.02655   3.03723   3.03894   3.05750   3.06320
 Alpha virt. eigenvalues --    3.07291   3.07388   3.09561   3.10892   3.11269
 Alpha virt. eigenvalues --    3.13086   3.13508   3.14621   3.17857   3.18258
 Alpha virt. eigenvalues --    3.18320   3.20264   3.21149   3.21751   3.22849
 Alpha virt. eigenvalues --    3.23069   3.24708   3.25256   3.28241   3.29236
 Alpha virt. eigenvalues --    3.32075   3.33871   3.36874   3.45811   3.46310
 Alpha virt. eigenvalues --    3.49908   3.50136   3.52223   3.53533   3.54275
 Alpha virt. eigenvalues --    3.61502   3.61819   3.65255   3.68205   3.74030
 Alpha virt. eigenvalues --    3.76705   3.81466
          Condensed to atoms (all electrons):
 Mulliken charges:
               1
     1  O   -0.206926
     2  O   -0.281384
     3  O   -0.203122
     4  O   -0.094284
     5  O   -0.235091
     6  O   -0.136836
     7  N   -0.028125
     8  N   -0.219483
     9  N   -0.079420
    10  N   -0.288511
    11  C    0.109898
    12  C    0.225213
    13  C   -0.131824
    14  C   -0.162439
    15  C   -0.095704
    16  C   -0.031750
    17  C   -0.120111
    18  C   -0.041734
    19  C   -0.075547
    20  C   -0.070481
    21  C    0.104903
    22  C    0.160209
    23  C   -0.097730
    24  C    0.196069
    25  C   -0.011347
    26  C   -0.142030
    27  C    0.119404
    28  C    0.124681
    29  C    0.172147
    30  C   -0.005220
    31  C   -0.074220
    32  C    0.138046
    33  C   -0.102545
    34  C    0.190158
    35  C    0.091261
    36  C   -0.095110
    37  C    0.103553
    38  C    0.046500
    39  C   -0.165588
    40  C    0.162154
    41  C   -0.090300
    42  C    0.005687
    43  C   -0.037592
    44  H   -0.055161
    45  H   -0.025461
    46  H   -0.021700
    47  H    0.116137
    48  H    0.146297
    49  H    0.002223
    50  H   -0.005137
    51  H   -0.009779
    52  H    0.025659
    53  H   -0.073220
    54  H    0.043639
    55  H    0.030151
    56  H    0.059270
    57  H    0.072329
    58  H   -0.003833
    59  H    0.033705
    60  H    0.183989
    61  H    0.001894
    62  H    0.005317
    63  H    0.038042
    64  H    0.071989
    65  H    0.056192
    66  H    0.029485
    67  H    0.009425
    68  H    0.033884
    69  H   -0.015603
    70  H    0.032816
    71  H    0.043685
    72  H    0.169753
    73  H    0.039748
    74  H    0.039581
    75  H    0.064633
    76  H    0.024223
    77  H    0.143459
    78  H    0.032394
    79  H    0.034547
 Sum of Mulliken charges =  -0.00000
 Mulliken charges with hydrogens summed into heavy atoms:
               1
     1  O   -0.206926
     2  O   -0.111631
     3  O   -0.203122
     4  O    0.049175
     5  O   -0.235091
     6  O   -0.136836
     7  N    0.088012
     8  N   -0.073186
     9  N    0.104568
    10  N   -0.288511
    11  C    0.054737
    12  C    0.178052
    13  C   -0.131824
    14  C   -0.162439
    15  C   -0.095704
    16  C   -0.031750
    17  C   -0.120111
    18  C   -0.044649
    19  C   -0.075547
    20  C   -0.080260
    21  C    0.104903
    22  C    0.160209
    23  C   -0.097730
    24  C    0.192147
    25  C    0.150403
    26  C   -0.142030
    27  C    0.149277
    28  C    0.124681
    29  C    0.179358
    30  C    0.032821
    31  C    0.053961
    32  C    0.210840
    33  C   -0.118148
    34  C    0.190158
    35  C    0.091261
    36  C   -0.018609
    37  C    0.103553
    38  C    0.046500
    39  C   -0.165588
    40  C    0.162154
    41  C   -0.050551
    42  C    0.134124
    43  C    0.029349
 Electronic spatial extent (au):  <R**2>=          25741.1541
 Charge=             -0.0000 electrons
 Dipole moment (field-independent basis, Debye):
    X=              2.4293    Y=              2.8461    Z=             -1.1654  Tot=              3.9192
 Quadrupole moment (field-independent basis, Debye-Ang):
   XX=           -228.0740   YY=           -241.1767   ZZ=           -268.5532
   XY=              3.6409   XZ=            -22.0309   YZ=            -10.6468
 Traceless Quadrupole moment (field-independent basis, Debye-Ang):
   XX=             17.8606   YY=              4.7579   ZZ=            -22.6185
   XY=              3.6409   XZ=            -22.0309   YZ=            -10.6468
 Octapole moment (field-independent basis, Debye-Ang**2):
  XXX=            231.0555  YYY=             70.4875  ZZZ=            -17.5441  XYY=            -21.4756
  XXY=            -16.3842  XXZ=             -1.7621  XZZ=              0.7247  YZZ=             69.7721
  YYZ=             11.5152  XYZ=            -16.7799
 Hexadecapole moment (field-independent basis, Debye-Ang**3):
 XXXX=         -16800.0128 YYYY=          -7983.9955 ZZZZ=          -7131.8398 XXXY=             -6.0621
 XXXZ=           -192.9324 YYYX=           -223.5856 YYYZ=             43.2176 ZZZX=           -217.9125
 ZZZY=             39.8949 XXYY=          -4389.9889 XXZZ=          -4649.1737 YYZZ=          -2457.3628
 XXYZ=           -125.4096 YYXZ=            152.9497 ZZXY=            254.7928
 N-N= 5.201559614349D+03 E-N=-1.493218470504D+04  KE= 1.928074801662D+03
 1\1\GINC-PADAWAN\SP\RB3LYP TD-FC\SVP\C33H36N4O6\PADAWAN\28-Jul-2019\0\
 \# td=(NStates=1) B3LYP/SVP\\TD\\0,1\O,0,-3.2995168619,-1.404095465,-2
 .8235330076\O,0,3.31395185,3.0689585544,3.0777320441\O,0,3.6634106493,
 1.3044475731,4.49066351\O,0,7.5730159045,-1.6264387581,-0.5463453963\O
 ,0,6.6445986163,-2.8556963645,-2.1677732254\O,0,-2.5729882053,1.700445
 5337,1.4421742779\N,0,-0.223788125,-2.3771640307,0.9341882596\N,0,-2.7
 740894469,-1.2374488799,-0.5258047251\N,0,1.142745824,-0.0011892092,-0
 .8243673739\N,0,-0.9504341889,1.4842538333,-0.2089417921\C,0,-3.357580
 9078,-1.2551830807,0.6794649204\C,0,-2.6423028564,-2.2785920054,1.6073
 560424\C,0,-1.1630519469,-1.9977875928,1.8316011487\C,0,-0.5649162939,
 -1.2592671184,2.8838064011\C,0,0.82647376,-1.1857235734,2.4483960342\C
 ,0,1.0109437806,-1.8283892736,1.2072155256\C,0,-4.7719021368,-1.936749
 3236,0.3787347608\C,0,1.8235769491,-0.335493879,3.1058827428\C,0,-4.78
 34047019,-2.1079195004,-1.0006904095\C,0,2.1223901954,-1.9052587181,0.
 3134936281\C,0,2.153031325,-0.9004919614,-0.6786517667\C,0,-3.58875354
 53,-1.5825802233,-1.6646137448\C,0,3.0302340866,-0.7144521935,-1.88265
 21641\C,0,-1.3569642686,-0.5114750045,3.8869642047\C,0,-5.8653317573,-
 2.1125177321,1.3189929049\C,0,2.5938890458,0.5371710853,-2.550739684\C
 ,0,1.9015295854,1.1959152835,2.8067873203\C,0,1.3624196085,0.942790927
 7,-1.8100471107\C,0,4.2702623753,-1.4867781069,-2.1097006002\C,0,-5.84
 6018938,-2.4026223526,-2.0733507833\C,0,5.3657321242,-0.9874204872,-1.
 1845118681\C,0,3.3394040358,1.2247508777,-3.5668331925\C,0,0.533145738
 7,2.0345886058,-2.0028920343\C,0,2.9619648368,1.7391034958,3.603385683
 8\C,0,-0.5335271843,2.2797726095,-1.1488101689\C,0,-6.9365075773,-3.16
 60003641,-1.8010886676\C,0,6.5753371033,-1.9924975049,-1.3144821382\C,
 0,-1.3873073855,3.5658588191,-1.2638544601\C,0,-2.3351476042,3.3872792
 069,-0.2331412203\C,0,-1.9942817006,2.0754984833,0.5010090329\C,0,-1.3
 678067591,4.4795042106,-2.3447562436\C,0,-3.3563162681,4.1884893318,0.
 1549997397\C,0,-2.1570595972,5.6064860668,-2.3676004928\H,0,-3.2432428
 175,-0.4142869186,1.1611803226\H,0,-2.6823098574,-3.2288880138,1.01076
 14252\H,0,-3.117321552,-2.2009835428,2.5943488236\H,0,-0.3977450793,-2
 .7687956447,0.0034773577\H,0,-2.1946678565,-0.3508813916,-0.5588299854
 \H,0,1.8117091323,-0.502111665,4.1334054396\H,0,3.0746647994,-0.919863
 8777,2.9431292423\H,0,2.725611375,-2.7418657695,0.3990629595\H,0,-2.17
 52601553,-1.2385431283,4.2734544072\H,0,-0.7233321012,-0.2716313667,4.
 5542017767\H,0,-1.6730666205,0.4982122679,3.4892076861\H,0,-5.52627341
 45,-1.7546235936,2.3103953325\H,0,-6.2207308338,-3.2158756922,1.475660
 4123\H,0,-6.9038677636,-1.5629419376,0.8048168434\H,0,1.8453506745,1.3
 507450164,1.7876263739\H,0,0.8911590674,1.5400562499,3.0147494486\H,0,
 0.4075090085,0.1576101308,-0.1229443267\H,0,4.519367656,-1.5176848275,
 -3.1196175637\H,0,4.1438352133,-2.4988016594,-1.7191990279\H,0,-5.6257
 147099,-2.233574282,-3.1672301868\H,0,4.993937315,-1.3105515351,-0.082
 1649928\H,0,5.7743688782,0.0254655505,-1.4290473872\H,0,4.1173816497,0
 .720408533,-4.1510633358\H,0,3.6526710187,2.0547865574,-3.1060229377\H
 ,0,2.5560713964,1.5061451124,-4.366609813\H,0,0.9441683268,2.822523748
 9,-2.6212830203\H,0,-7.09873896,-3.4085530392,-0.5997689981\H,0,-7.701
 2183867,-3.5138827188,-2.5842714806\H,0,4.01392512,3.3383431953,3.7052
 937836\H,0,-0.9150053793,4.1231035899,-3.3757954749\H,0,-3.8820867983,
 4.8042670085,-0.7868198335\H,0,-4.1549642461,3.7567704706,0.950835895\
 H,0,-2.8778260988,5.0440646976,0.4961453844\H,0,8.296645358,-2.1119543
 496,-0.791989834\H,0,-2.0877617008,6.0763880959,-3.3795528075\H,0,-2.6
 696793208,6.0317345493,-1.4845543629\\Version=ES64L-G16RevA.03\State=1
 -A\HF=-1947.7935041\RMSD=4.284e-09\PG=C01 [X(C33H36N4O6)]\\@


 THE MOST SERIOUS THREAT TO THE SURVIVAL OF MANKIND IS NOT NOW
 IGNORANCE IN THE TRADITIONAL SENSE,
 BUT A MORALLY NEUTRAL, AN INSENSITIVE OR INHIBITED HUMAN INTELLIGENCE.

                     -- MARGO JEFFERSON IN NEWSWEEK, SEPTEMBER 2, 1974
 Job cpu time:       0 days  3 hours 23 minutes 56.1 seconds.
 Elapsed time:       0 days  0 hours 51 minutes  2.8 seconds.
 File lengths (MBytes):  RWF=   2533 Int=      0 D2E=      0 Chk=     63 Scr=      1
 Normal termination of Gaussian 16 at Sun Jul 28 21:56:01 2019.
