 Entering Gaussian System, Link 0=g16
 Input=Geometria-256-.com
 Output=Geometria-256-.log
 Initial command:
 /usr/local/g16/l1.exe "/home/padawan/israel-mol/pheophytin/spectra/emi/Gau-106939.inp" -scrdir="/home/padawan/israel-mol/pheophytin/spectra/emi/"
 Entering Link 1 = /usr/local/g16/l1.exe PID=    106941.
  
 Copyright (c) 1988,1990,1992,1993,1995,1998,2003,2009,2016,
            Gaussian, Inc.  All Rights Reserved.
  
 This is part of the Gaussian(R) 16 program.  It is based on
 the Gaussian(R) 09 system (copyright 2009, Gaussian, Inc.),
 the Gaussian(R) 03 system (copyright 2003, Gaussian, Inc.),
 the Gaussian(R) 98 system (copyright 1998, Gaussian, Inc.),
 the Gaussian(R) 94 system (copyright 1995, Gaussian, Inc.),
 the Gaussian 92(TM) system (copyright 1992, Gaussian, Inc.),
 the Gaussian 90(TM) system (copyright 1990, Gaussian, Inc.),
 the Gaussian 88(TM) system (copyright 1988, Gaussian, Inc.),
 the Gaussian 86(TM) system (copyright 1986, Carnegie Mellon
 University), and the Gaussian 82(TM) system (copyright 1983,
 Carnegie Mellon University). Gaussian is a federally registered
 trademark of Gaussian, Inc.
  
 This software contains proprietary and confidential information,
 including trade secrets, belonging to Gaussian, Inc.
  
 This software is provided under written license and may be
 used, copied, transmitted, or stored only in accord with that
 written license.
  
 The following legend is applicable only to US Government
 contracts under FAR:
  
                    RESTRICTED RIGHTS LEGEND
  
 Use, reproduction and disclosure by the US Government is
 subject to restrictions as set forth in subparagraphs (a)
 and (c) of the Commercial Computer Software - Restricted
 Rights clause in FAR 52.227-19.
  
 Gaussian, Inc.
 340 Quinnipiac St., Bldg. 40, Wallingford CT 06492
  
  
 ---------------------------------------------------------------
 Warning -- This program may not be used in any manner that
 competes with the business of Gaussian, Inc. or will provide
 assistance to any competitor of Gaussian, Inc.  The licensee
 of this program is prohibited from giving any competitor of
 Gaussian, Inc. access to this program.  By using this program,
 the user acknowledges that Gaussian, Inc. is engaged in the
 business of creating and licensing software in the field of
 computational chemistry and represents and warrants to the
 licensee that it is not a competitor of Gaussian, Inc. and that
 it will not use this program in any manner prohibited above.
 ---------------------------------------------------------------
  

 Cite this work as:
 Gaussian 16, Revision A.03,
 M. J. Frisch, G. W. Trucks, H. B. Schlegel, G. E. Scuseria, 
 M. A. Robb, J. R. Cheeseman, G. Scalmani, V. Barone, 
 G. A. Petersson, H. Nakatsuji, X. Li, M. Caricato, A. V. Marenich, 
 J. Bloino, B. G. Janesko, R. Gomperts, B. Mennucci, H. P. Hratchian, 
 J. V. Ortiz, A. F. Izmaylov, J. L. Sonnenberg, D. Williams-Young, 
 F. Ding, F. Lipparini, F. Egidi, J. Goings, B. Peng, A. Petrone, 
 T. Henderson, D. Ranasinghe, V. G. Zakrzewski, J. Gao, N. Rega, 
 G. Zheng, W. Liang, M. Hada, M. Ehara, K. Toyota, R. Fukuda, 
 J. Hasegawa, M. Ishida, T. Nakajima, Y. Honda, O. Kitao, H. Nakai, 
 T. Vreven, K. Throssell, J. A. Montgomery, Jr., J. E. Peralta, 
 F. Ogliaro, M. J. Bearpark, J. J. Heyd, E. N. Brothers, K. N. Kudin, 
 V. N. Staroverov, T. A. Keith, R. Kobayashi, J. Normand, 
 K. Raghavachari, A. P. Rendell, J. C. Burant, S. S. Iyengar, 
 J. Tomasi, M. Cossi, J. M. Millam, M. Klene, C. Adamo, R. Cammi, 
 J. W. Ochterski, R. L. Martin, K. Morokuma, O. Farkas, 
 J. B. Foresman, and D. J. Fox, Gaussian, Inc., Wallingford CT, 2016.
 
 ******************************************
 Gaussian 16:  ES64L-G16RevA.03 25-Dec-2016
                20-Aug-2019 
 ******************************************
 %nproc=4
 Will use up to    4 processors via shared memory.
 %Mem=2GB
 --------------------------
 # td=(NStates=1) B3LYP/SVP
 --------------------------
 1/38=1,172=1/1;
 2/12=2,17=6,18=5,40=1/2;
 3/5=18,7=101,11=9,25=1,30=1,74=-5/1,2,3,8;
 4//1;
 5/5=2,38=5/2;
 8/6=1,10=1,108=1/1;
 9/41=1,42=1,70=2/14;
 6/7=2,8=2,9=2,10=2/1;
 99/5=1,9=1/99;
 --
 TD
 --
 Symbolic Z-matrix:
 Charge =  0 Multiplicity = 1
 6                    -5.07746  -2.00094   0.41814 
 6                    -4.71329   2.75838   1.42785 
 6                    -9.45705   3.3577   -0.13824 
 6                    -9.86065  -1.38004  -0.89114 
 7                    -5.16933   0.47245   0.82398 
 6                    -4.44186  -0.76263   0.84039 
 6                    -3.05589  -0.6094    1.32008 
 6                    -3.06698   0.83788   1.81341 
 6                    -4.3822    1.42426   1.34667 
 6                    -3.03695   0.81573   3.37126 
 6                    -2.11705  -0.8408    0.10048 
 6                    -0.62336  -0.88522   0.52844 
 6                     0.33888  -1.01132  -0.70278 
 8                    -0.01581  -1.27363  -1.89665 
 8                     1.66075  -1.0087   -0.28981 
 7                    -7.0325    2.75751   0.43449 
 6                    -5.88696   3.40348   0.90388 
 6                    -6.09224   4.77193   0.84578 
 6                    -7.42929   4.89401   0.32098 
 6                    -8.01787   3.60232   0.14618 
 6                    -5.11876   5.80597   1.30084 
 6                    -7.94279   6.33574   0.10542 
 6                    -9.28945   6.58204  -0.53101 
 7                    -9.2276    0.9035   -0.44577 
 6                    -9.93555   2.12152  -0.49424 
 6                    -11.30476   1.86009  -0.86352 
 6                    -11.42496   0.5644   -1.01061 
 6                    -10.13977  -0.01879  -0.77541 
 6                    -12.26771   3.06348  -1.02085 
 6                    -12.78943  -0.04645  -1.38929 
 6                    -12.8253  -0.26419  -2.97162 
 7                    -7.49175  -1.24875  -0.15255 
 6                    -8.58465  -1.91658  -0.6644 
 6                    -8.30535  -3.33337  -0.69156 
 6                    -6.81191  -3.3775   -0.30441 
 6                    -6.49142  -2.04731   0.0712 
 6                    -9.15681  -4.50864  -1.08099 
 6                    -5.76581  -4.42159  -0.01368 
 8                    -5.72409  -5.55976  -0.07313 
 6                    -4.4789   -3.37524   0.43493 
 6                    -3.90761  -3.81227   1.8643 
 8                    -4.15388  -3.42795   2.90355 
 8                    -3.04355  -4.80607   1.51201 
 6                    -2.44055  -5.52669   2.65625 
 6                     2.70339  -1.15795  -1.28808 
 6                     3.97773  -0.86143  -0.60168 
 6                     4.88613  -0.07842  -0.97687 
 6                     4.92505   0.86233  -2.24733 
 6                     6.27604  -0.00381  -0.21915 
 6                     7.50539  -0.53445  -0.93454 
 6                     8.76481  -0.2414   -0.25009 
 6                     10.08033  -0.65666  -0.87762 
 6                     10.12365  -2.22624  -1.24945 
 6                     11.3407  -0.26677   0.14742 
 6                     12.71701  -0.47161  -0.62293 
 6                     13.90301  -0.02129   0.28166 
 6                     15.30634  -0.13325  -0.42069 
 6                     15.79761  -1.55811  -0.62164 
 6                     16.31707   0.65813   0.47951 
 6                     17.80695   0.61047  -0.10068 
 6                     18.61219   1.70342   0.74964 
 6                     20.06965   1.6824    0.30722 
 6                     20.14768   2.1967   -1.21927 
 6                     20.90038   2.47981   1.26726 
 1                    -4.09365   3.46636   1.95724 
 1                    -9.90138   4.26101  -0.3503 
 1                    -10.66921  -2.13027  -1.27469 
 1                    -2.83909  -1.57614   1.95353 
 1                    -2.30739   1.55155   1.51773 
 1                    -2.10114   0.54025   3.61155 
 1                    -3.26646   1.76158   3.78853 
 1                    -3.67268   0.21289   3.67614 
 1                    -2.32228  -1.75929  -0.45534 
 1                    -2.2607    0.09158  -0.57857 
 1                    -0.37759   0.0944    1.05621 
 1                    -0.47357  -1.91674   0.97613 
 1                    -4.34267   6.18688   0.34567 
 1                    -5.76611   6.81021   1.81767 
 1                    -4.52265   5.52636   2.32276 
 1                    -7.48518   7.07032   0.61021 
 1                    -9.95268   5.7915   -0.98926 
 1                    -9.74049   7.59959  -0.77898 
 1                    -12.47089   3.8218   -0.39171 
 1                    -11.84835   3.64962  -1.98878 
 1                    -13.37973   2.47484  -1.19971 
 1                    -12.6591  -1.05947  -1.06859 
 1                    -13.69152   0.37184  -0.99319 
 1                    -12.9284   0.73719  -3.48608 
 1                    -12.03865  -0.7482   -3.47371 
 1                    -13.84969  -0.80272  -3.14611 
 1                    -10.18459  -4.65053  -0.51478 
 1                    -9.44634  -4.57065  -2.22191 
 1                    -8.33506  -5.38223  -0.86906 
 1                    -3.64785  -3.14996  -0.34863 
 1                    -2.28872  -6.67011   2.23531 
 1                    -1.58757  -5.05408   3.11711 
 1                    -3.215    -5.74413   3.44858 
 1                     2.65796  -2.30335  -1.58379 
 1                     2.65644  -0.43864  -2.23034 
 1                     4.38277  -1.49419   0.38803 
 1                     5.48525   1.84957  -2.20767 
 1                     5.21165   0.2969   -3.11485 
 1                     3.7795    1.23906  -2.65623 
 1                     6.35679   1.09105  -0.16417 
 1                     6.08302  -0.46456   0.71609 
 1                     7.5346   -1.72675  -1.10789 
 1                     7.49505   0.09228  -1.87337 
 1                     8.83464   0.81359  -0.00611 
 1                     8.83185  -0.71629   0.75285 
 1                     10.32905  -0.23309  -1.93674 
 1                     9.39944  -2.69847  -1.96743 
 1                     11.05485  -2.37452  -1.77423 
 1                     10.07289  -2.87593  -0.28975 
 1                     11.12239   0.77153   0.41455 
 1                     11.14056  -0.69847   0.95368 
 1                     13.00718  -1.46599  -0.75422 
 1                     12.82334   0.11424  -1.52413 
 1                     13.71357   0.97992   0.59195 
 1                     13.75668  -0.71325   1.16445 
 1                     15.2163   0.49305  -1.34738 
 1                     14.92653  -2.22919  -1.11028 
 1                     16.81761  -1.31158  -1.1241 
 1                     15.81258  -2.25294   0.18349 
 1                     16.05642   1.66245   0.76858 
 1                     16.30413   0.29727   1.5787 
 1                     18.22052  -0.3268    0.10495 
 1                     17.62608   0.85081  -1.17946 
 1                     18.16258   2.63533   0.5245 
 1                     18.62805   1.50363   1.84315 
 1                     20.37094   0.80034   0.35829 
 1                     19.72429   3.30739  -1.32272 
 1                     21.29114   2.19689  -1.74695 
 1                     19.64247   1.70258  -1.95574 
 1                     20.72253   2.30786   2.5157 
 1                     21.94968   2.43271   1.16175 
 1                     20.48983   3.47888   1.08823 
 1                    -7.15722   1.80646   0.52465 
 1                    -7.50496  -0.16017  -0.01996 
 
 Stoichiometry    C55H74N4O5
 Framework group  C1[X(C55H74N4O5)]
 Deg. of freedom   408
 Full point group                 C1      NOp   1
 Largest Abelian subgroup         C1      NOp   1
 Largest concise Abelian subgroup C1      NOp   1
                         Standard orientation:                         
 ---------------------------------------------------------------------
 Center     Atomic      Atomic             Coordinates (Angstroms)
 Number     Number       Type             X           Y           Z
 ---------------------------------------------------------------------
      1          6           0       -5.076489   -2.008930    0.406904
      2          6           0       -4.713810    2.742153    1.455185
      3          6           0       -9.459542    3.351700   -0.100973
      4          6           0       -9.861383   -1.379935   -0.892233
      5          7           0       -5.169263    0.461005    0.833088
      6          6           0       -4.441112   -0.773770    0.838618
      7          6           0       -3.054716   -0.623724    1.318091
      8          6           0       -3.066068    0.819460    1.823272
      9          6           0       -4.382095    1.408927    1.362730
     10          6           0       -3.034388    0.784567    3.380857
     11          6           0       -2.117035   -0.844612    0.095655
     12          6           0       -0.622875   -0.891720    0.521677
     13          6           0        0.338136   -1.007206   -0.711538
     14          8           0       -0.017668   -1.259920   -1.907151
     15          8           0        1.660441   -1.007247   -0.299952
     16          7           0       -7.034061    2.748159    0.464285
     17          6           0       -5.888382    3.390884    0.937752
     18          6           0       -6.094455    4.759650    0.891071
     19          6           0       -7.432117    4.885301    0.368690
     20          6           0       -8.020188    3.594764    0.183929
     21          6           0       -5.121053    5.790468    1.353567
     22          6           0       -7.946622    6.328471    0.165483
     23          6           0       -9.294078    6.579235   -0.467495
     24          7           0       -9.229089    0.900224   -0.428841
     25          6           0       -9.937743    2.118210   -0.466587
     26          6           0      -11.307201    1.859071   -0.836564
     27          6           0      -11.426861    0.564565   -0.994139
     28          6           0      -10.141115   -0.019830   -0.765069
     29          6           0      -12.270966    3.063183   -0.983019
     30          6           0      -12.791402   -0.043911   -1.376381
     31          6           0      -12.828816   -0.248699   -2.960407
     32          7           0       -7.491783   -1.253407   -0.155079
     33          6           0       -8.584864   -1.917617   -0.671240
     34          6           0       -8.304832   -3.333984   -0.710298
     35          6           0       -6.810961   -3.380475   -0.325086
     36          6           0       -6.490785   -2.053225    0.061075
     37          6           0       -9.156065   -4.506495   -1.108449
     38          6           0       -5.763995   -4.426334   -0.044010
     39          8           0       -5.721728   -5.563961   -0.112827
     40          6           0       -4.477177   -3.383000    0.411807
     41          6           0       -3.904150   -3.831412    1.836949
     42          8           0       -4.149528   -3.455751    2.879572
     43          8           0       -3.039921   -4.821818    1.475624
     44          6           0       -2.435332   -5.551460    2.613295
     45          6           0        2.702110   -1.147753   -1.300502
     46          6           0        3.977013   -0.856167   -0.613024
     47          6           0        4.884597   -0.069612   -0.982744
     48          6           0        4.921678    0.881533   -2.245489
     49          6           0        6.275263   -0.000453   -0.225894
     50          6           0        7.504148   -0.524549   -0.946891
     51          6           0        8.764125   -0.236425   -0.261381
     52          6           0       10.079207   -0.645814   -0.893668
     53          6           0       10.122975   -2.212270   -1.278389
     54          6           0       11.340449   -0.263643    0.133213
     55          6           0       12.716054   -0.461414   -0.640232
     56          6           0       13.902759   -0.017881    0.266779
     57          6           0       15.305415   -0.123311   -0.437934
     58          6           0       15.797233   -1.546212   -0.651070
     59          6           0       16.316668    0.661213    0.467657
     60          6           0       17.805956    0.619120   -0.114469
     61          6           0       18.611506    1.705509    0.743941
     62          6           0       20.068507    1.688914    0.299838
     63          6           0       20.144655    2.215739   -1.222471
     64          6           0       20.899821    2.478884    1.265507
     65          1           0       -4.093994    3.446118    1.989707
     66          1           0       -9.904573    4.256468   -0.305166
     67          1           0      -10.669940   -2.127438   -1.281072
     68          1           0       -2.836734   -1.595499    1.943375
     69          1           0       -2.307173    1.535939    1.532659
     70          1           0       -2.098175    0.507640    3.617904
     71          1           0       -3.263966    1.726843    3.806103
     72          1           0       -3.669471    0.178906    3.681454
     73          1           0       -2.322360   -1.758631   -0.467454
     74          1           0       -2.261904    0.093216   -0.575576
     75          1           0       -0.377078    0.083679    1.057198
     76          1           0       -0.472061   -1.926794    0.960749
     77          1           0       -4.346170    6.179605    0.400739
     78          1           0       -5.768395    6.790079    1.879285
     79          1           0       -4.523722    5.502819    2.372545
     80          1           0       -7.488873    7.059141    0.675802
     81          1           0       -9.957369    5.792114   -0.931507
     82          1           0       -9.745926    7.598534   -0.706644
     83          1           0      -12.473892    3.816217   -0.347480
     84          1           0      -11.852942    3.657462   -1.946553
     85          1           0      -13.382852    2.475426   -1.165537
     86          1           0      -12.660193   -1.059445   -1.064128
     87          1           0      -13.693300    0.370629   -0.975926
     88          1           0      -12.932995    0.756807   -3.466531
     89          1           0      -12.042438   -0.728154   -3.467262
     90          1           0      -13.853106   -0.786337   -3.138224
     91          1           0      -10.183169   -4.653572   -0.542341
     92          1           0       -9.446758   -4.559315   -2.249537
     93          1           0       -8.333620   -5.381338   -0.904543
     94          1           0       -3.647069   -3.150853   -0.370748
     95          1           0       -2.283329   -6.691311    2.182841
     96          1           0       -1.582120   -5.082168    3.077113
     97          1           0       -3.208837   -5.775803    3.404622
     98          1           0        2.656981   -2.290710   -1.605530
     99          1           0        2.653780   -0.420765   -2.236785
    100          1           0        4.383431   -1.496788    0.371039
    101          1           0        5.481390    1.868723   -2.198335
    102          1           0        5.207664    0.323380   -3.117919
    103          1           0        3.775498    1.260971   -2.650093
    104          1           0        6.355477    1.093964   -0.162030
    105          1           0        6.083468   -0.468958    0.705746
    106          1           0        7.533815   -1.715367   -1.130028
    107          1           0        7.492479    0.109852   -1.880539
    108          1           0        8.833643    0.816567   -0.008840
    109          1           0        8.832470   -0.719478    0.737562
    110          1           0       10.326586   -0.213450   -1.949548
    111          1           0        9.398265   -2.678998   -1.999452
    112          1           0       11.053708   -2.355739   -1.805345
    113          1           0       10.073572   -2.869828   -0.323994
    114          1           0       11.121854    0.772316    0.409071
    115          1           0       11.141386   -0.702044    0.936112
    116          1           0       13.006616   -1.454532   -0.779966
    117          1           0       12.821124    0.131856   -1.536709
    118          1           0       13.713113    0.980653    0.585458
    119          1           0       13.757732   -0.717129    1.144015
    120          1           0       15.214065    0.510509   -1.359373
    121          1           0       14.926001   -2.213743   -1.144272
    122          1           0       16.816573   -1.295015   -1.152563
    123          1           0       15.813429   -2.247611    0.148328
    124          1           0       16.055781    1.662992    0.765217
    125          1           0       16.305070    0.291361    1.563866
    126          1           0       18.220245   -0.319575    0.083043
    127          1           0       17.623820    0.868191   -1.191045
    128          1           0       18.161156    2.638990    0.526909
    129          1           0       18.628617    1.496778    1.835752
    130          1           0       20.370322    0.806627    0.343360
    131          1           0       19.720559    3.327011   -1.316374
    132          1           0       21.287561    2.220871   -1.751330
    133          1           0       19.638943    1.727394   -1.962437
    134          1           0       20.723373    2.296615    2.512674
    135          1           0       21.949033    2.433222    1.158511
    136          1           0       20.488543    3.479159    1.095096
    137          1           0       -7.158179    1.796339    0.546773
    138          1           0       -7.505438   -0.165959   -0.013556
 ---------------------------------------------------------------------
 Rotational constants (GHZ):           0.0638458           0.0061316           0.0057614
 Standard basis: SVP (5D, 7F)
 There are  1330 symmetry adapted cartesian basis functions of A   symmetry.
 There are  1266 symmetry adapted basis functions of A   symmetry.
  1266 basis functions,  2118 primitive gaussians,  1330 cartesian basis functions
   236 alpha electrons      236 beta electrons
       nuclear repulsion energy      8271.6062572966 Hartrees.
 NAtoms=  138 NActive=  138 NUniq=  138 SFac= 1.00D+00 NAtFMM=   60 NAOKFM=T Big=T
 Integral buffers will be    131072 words long.
 Regular integral format.
 Two-electron integral symmetry is turned on.
 One-electron integrals computed using PRISM.
 NBasis=  1266 RedAO= T EigKep=  2.88D-04  NBF=  1266
 NBsUse=  1266 1.00D-06 EigRej= -1.00D+00 NBFU=  1266
 ExpMin= 1.22D-01 ExpMax= 2.27D+03 ExpMxC= 3.41D+02 IAcc=3 IRadAn=         5 AccDes= 0.00D+00
 Harris functional with IExCor=  402 and IRadAn=       5 diagonalized for initial guess.
 HarFok:  IExCor=  402 AccDes= 0.00D+00 IRadAn=         5 IDoV= 1 UseB2=F ITyADJ=14
 ICtDFT=  3500011 ScaDFX=  1.000000  1.000000  1.000000  1.000000
 FoFCou: FMM=F IPFlag=           0 FMFlag=      100000 FMFlg1=        2001
         NFxFlg=           0 DoJE=T BraDBF=F KetDBF=T FulRan=T
         wScrn=  0.000000 ICntrl=       500 IOpCl=  0 I1Cent=   200000004 NGrid=           0
         NMat0=    1 NMatS0=      1 NMatT0=    0 NMatD0=    1 NMtDS0=    0 NMtDT0=    0
 Petite list used in FoFCou.
 Requested convergence on RMS density matrix=1.00D-08 within 128 cycles.
 Requested convergence on MAX density matrix=1.00D-06.
 Requested convergence on             energy=1.00D-06.
 No special actions if energy rises.
 Integral accuracy reduced to 1.0D-05 until final iterations.
 Initial convergence to 1.0D-05 achieved.  Increase integral accuracy.
 SCF Done:  E(RB3LYP) =  -2732.94693439     A.U. after   18 cycles
            NFock= 18  Conv=0.39D-08     -V/T= 2.0118
 DoSCS=F DFT=T ScalE2(SS,OS)=  1.000000  1.000000
 ExpMin= 1.22D-01 ExpMax= 2.27D+03 ExpMxC= 3.41D+02 IAcc=3 IRadAn=         5 AccDes= 0.00D+00
 HarFok:  IExCor=  205 AccDes= 0.00D+00 IRadAn=         5 IDoV=-2 UseB2=F ITyADJ=14
 ICtDFT= 12500011 ScaDFX=  1.000000  1.000000  1.000000  1.000000
 GSVD:  LWork=       -4608 too small for GESVD, short by       21440 words or       21440 for optimal perf.
 Range of M.O.s used for correlation:    65  1266
 NBasis=  1266 NAE=   236 NBE=   236 NFC=    64 NFV=     0
 NROrb=   1202 NOA=   172 NOB=   172 NVA=  1030 NVB=  1030

 **** Warning!!: The smallest alpha delta epsilon is  0.75669383D-01

 Orbital symmetries:
       Occupied  (A) (A) (A) (A) (A) (A) (A) (A) (A) (A) (A) (A)
                 (A) (A) (A) (A) (A) (A) (A) (A) (A) (A) (A) (A)
                 (A) (A) (A) (A) (A) (A) (A) (A) (A) (A) (A) (A)
                 (A) (A) (A) (A) (A) (A) (A) (A) (A) (A) (A) (A)
                 (A) (A) (A) (A) (A) (A) (A) (A) (A) (A) (A) (A)
                 (A) (A) (A) (A) (A) (A) (A) (A) (A) (A) (A) (A)
                 (A) (A) (A) (A) (A) (A) (A) (A) (A) (A) (A) (A)
                 (A) (A) (A) (A) (A) (A) (A) (A) (A) (A) (A) (A)
                 (A) (A) (A) (A) (A) (A) (A) (A) (A) (A) (A) (A)
                 (A) (A) (A) (A) (A) (A) (A) (A) (A) (A) (A) (A)
                 (A) (A) (A) (A) (A) (A) (A) (A) (A) (A) (A) (A)
                 (A) (A) (A) (A) (A) (A) (A) (A) (A) (A) (A) (A)
                 (A) (A) (A) (A) (A) (A) (A) (A) (A) (A) (A) (A)
                 (A) (A) (A) (A) (A) (A) (A) (A) (A) (A) (A) (A)
                 (A) (A) (A) (A) (A) (A) (A) (A) (A) (A) (A) (A)
                 (A) (A) (A) (A) (A) (A) (A) (A) (A) (A) (A) (A)
                 (A) (A) (A) (A) (A) (A) (A) (A) (A) (A) (A) (A)
                 (A) (A) (A) (A) (A) (A) (A) (A) (A) (A) (A) (A)
                 (A) (A) (A) (A) (A) (A) (A) (A) (A) (A) (A) (A)
                 (A) (A) (A) (A) (A) (A) (A) (A)
       Virtual   (A) (A) (A) (A) (A) (A) (A) (A) (A) (A) (A) (A)
                 (A) (A) (A) (A) (A) (A) (A) (A) (A) (A) (A) (A)
                 (A) (A) (A) (A) (A) (A) (A) (A) (A) (A) (A) (A)
                 (A) (A) (A) (A) (A) (A) (A) (A) (A) (A) (A) (A)
                 (A) (A) (A) (A) (A) (A) (A) (A) (A) (A) (A) (A)
                 (A) (A) (A) (A) (A) (A) (A) (A) (A) (A) (A) (A)
                 (A) (A) (A) (A) (A) (A) (A) (A) (A) (A) (A) (A)
                 (A) (A) (A) (A) (A) (A) (A) (A) (A) (A) (A) (A)
                 (A) (A) (A) (A) (A) (A) (A) (A) (A) (A) (A) (A)
                 (A) (A) (A) (A) (A) (A) (A) (A) (A) (A) (A) (A)
                 (A) (A) (A) (A) (A) (A) (A) (A) (A) (A) (A) (A)
                 (A) (A) (A) (A) (A) (A) (A) (A) (A) (A) (A) (A)
                 (A) (A) (A) (A) (A) (A) (A) (A) (A) (A) (A) (A)
                 (A) (A) (A) (A) (A) (A) (A) (A) (A) (A) (A) (A)
                 (A) (A) (A) (A) (A) (A) (A) (A) (A) (A) (A) (A)
                 (A) (A) (A) (A) (A) (A) (A) (A) (A) (A) (A) (A)
                 (A) (A) (A) (A) (A) (A) (A) (A) (A) (A) (A) (A)
                 (A) (A) (A) (A) (A) (A) (A) (A) (A) (A) (A) (A)
                 (A) (A) (A) (A) (A) (A) (A) (A) (A) (A) (A) (A)
                 (A) (A) (A) (A) (A) (A) (A) (A) (A) (A) (A) (A)
                 (A) (A) (A) (A) (A) (A) (A) (A) (A) (A) (A) (A)
                 (A) (A) (A) (A) (A) (A) (A) (A) (A) (A) (A) (A)
                 (A) (A) (A) (A) (A) (A) (A) (A) (A) (A) (A) (A)
                 (A) (A) (A) (A) (A) (A) (A) (A) (A) (A) (A) (A)
                 (A) (A) (A) (A) (A) (A) (A) (A) (A) (A) (A) (A)
                 (A) (A) (A) (A) (A) (A) (A) (A) (A) (A) (A) (A)
                 (A) (A) (A) (A) (A) (A) (A) (A) (A) (A) (A) (A)
                 (A) (A) (A) (A) (A) (A) (A) (A) (A) (A) (A) (A)
                 (A) (A) (A) (A) (A) (A) (A) (A) (A) (A) (A) (A)
                 (A) (A) (A) (A) (A) (A) (A) (A) (A) (A) (A) (A)
                 (A) (A) (A) (A) (A) (A) (A) (A) (A) (A) (A) (A)
                 (A) (A) (A) (A) (A) (A) (A) (A) (A) (A) (A) (A)
                 (A) (A) (A) (A) (A) (A) (A) (A) (A) (A) (A) (A)
                 (A) (A) (A) (A) (A) (A) (A) (A) (A) (A) (A) (A)
                 (A) (A) (A) (A) (A) (A) (A) (A) (A) (A) (A) (A)
                 (A) (A) (A) (A) (A) (A) (A) (A) (A) (A) (A) (A)
                 (A) (A) (A) (A) (A) (A) (A) (A) (A) (A) (A) (A)
                 (A) (A) (A) (A) (A) (A) (A) (A) (A) (A) (A) (A)
                 (A) (A) (A) (A) (A) (A) (A) (A) (A) (A) (A) (A)
                 (A) (A) (A) (A) (A) (A) (A) (A) (A) (A) (A) (A)
                 (A) (A) (A) (A) (A) (A) (A) (A) (A) (A) (A) (A)
                 (A) (A) (A) (A) (A) (A) (A) (A) (A) (A) (A) (A)
                 (A) (A) (A) (A) (A) (A) (A) (A) (A) (A) (A) (A)
                 (A) (A) (A) (A) (A) (A) (A) (A) (A) (A) (A) (A)
                 (A) (A) (A) (A) (A) (A) (A) (A) (A) (A) (A) (A)
                 (A) (A) (A) (A) (A) (A) (A) (A) (A) (A) (A) (A)
                 (A) (A) (A) (A) (A) (A) (A) (A) (A) (A) (A) (A)
                 (A) (A) (A) (A) (A) (A) (A) (A) (A) (A) (A) (A)
                 (A) (A) (A) (A) (A) (A) (A) (A) (A) (A) (A) (A)
                 (A) (A) (A) (A) (A) (A) (A) (A) (A) (A) (A) (A)
                 (A) (A) (A) (A) (A) (A) (A) (A) (A) (A) (A) (A)
                 (A) (A) (A) (A) (A) (A) (A) (A) (A) (A) (A) (A)
                 (A) (A) (A) (A) (A) (A) (A) (A) (A) (A) (A) (A)
                 (A) (A) (A) (A) (A) (A) (A) (A) (A) (A) (A) (A)
                 (A) (A) (A) (A) (A) (A) (A) (A) (A) (A) (A) (A)
                 (A) (A) (A) (A) (A) (A) (A) (A) (A) (A) (A) (A)
                 (A) (A) (A) (A) (A) (A) (A) (A) (A) (A) (A) (A)
                 (A) (A) (A) (A) (A) (A) (A) (A) (A) (A) (A) (A)
                 (A) (A) (A) (A) (A) (A) (A) (A) (A) (A) (A) (A)
                 (A) (A) (A) (A) (A) (A) (A) (A) (A) (A) (A) (A)
                 (A) (A) (A) (A) (A) (A) (A) (A) (A) (A) (A) (A)
                 (A) (A) (A) (A) (A) (A) (A) (A) (A) (A) (A) (A)
                 (A) (A) (A) (A) (A) (A) (A) (A) (A) (A) (A) (A)
                 (A) (A) (A) (A) (A) (A) (A) (A) (A) (A) (A) (A)
                 (A) (A) (A) (A) (A) (A) (A) (A) (A) (A) (A) (A)
                 (A) (A) (A) (A) (A) (A) (A) (A) (A) (A) (A) (A)
                 (A) (A) (A) (A) (A) (A) (A) (A) (A) (A) (A) (A)
                 (A) (A) (A) (A) (A) (A) (A) (A) (A) (A) (A) (A)
                 (A) (A) (A) (A) (A) (A) (A) (A) (A) (A) (A) (A)
                 (A) (A) (A) (A) (A) (A) (A) (A) (A) (A) (A) (A)
                 (A) (A) (A) (A) (A) (A) (A) (A) (A) (A) (A) (A)
                 (A) (A) (A) (A) (A) (A) (A) (A) (A) (A) (A) (A)
                 (A) (A) (A) (A) (A) (A) (A) (A) (A) (A) (A) (A)
                 (A) (A) (A) (A) (A) (A) (A) (A) (A) (A) (A) (A)
                 (A) (A) (A) (A) (A) (A) (A) (A) (A) (A) (A) (A)
                 (A) (A) (A) (A) (A) (A) (A) (A) (A) (A) (A) (A)
                 (A) (A) (A) (A) (A) (A) (A) (A) (A) (A) (A) (A)
                 (A) (A) (A) (A) (A) (A) (A) (A) (A) (A) (A) (A)
                 (A) (A) (A) (A) (A) (A) (A) (A) (A) (A) (A) (A)
                 (A) (A) (A) (A) (A) (A) (A) (A) (A) (A) (A) (A)
                 (A) (A) (A) (A) (A) (A) (A) (A) (A) (A) (A) (A)
                 (A) (A) (A) (A) (A) (A) (A) (A) (A) (A) (A) (A)
                 (A) (A) (A) (A) (A) (A) (A) (A) (A) (A) (A) (A)
                 (A) (A) (A) (A) (A) (A) (A) (A) (A) (A) (A) (A)
                 (A) (A) (A) (A) (A) (A) (A) (A) (A) (A) (A) (A)
                 (A) (A) (A) (A) (A) (A) (A) (A) (A) (A)
     4 initial guesses have been made.
 Convergence on wavefunction:    0.001000000000000
 Iteration     1 Dimension     4 NMult     0 NNew      4
 CISAX will form     4 AO SS matrices at one time.
 New state      1 was old state      2
 Iteration     2 Dimension     6 NMult     4 NNew      2
 Iteration     3 Dimension     8 NMult     6 NNew      2
 Iteration     4 Dimension    10 NMult     8 NNew      2
 Iteration     5 Dimension    12 NMult    10 NNew      2
 Iteration     6 Dimension    14 NMult    12 NNew      2
 Iteration     7 Dimension    16 NMult    14 NNew      2
 Iteration     8 Dimension    18 NMult    16 NNew      2
 Iteration     9 Dimension    20 NMult    18 NNew      2
 ***********************************************************************
 Excited states from <AA,BB:AA,BB> singles matrix:
 ***********************************************************************
 
 Ground to excited state transition densities written to RWF  633
 Ground to excited state transition electric dipole moments (Au):
       state          X           Y           Z        Dip. S.      Osc.
         1        -0.6253     -1.8679     -0.3893      4.0318      0.1871
 Ground to excited state transition velocity dipole moments (Au):
       state          X           Y           Z        Dip. S.      Osc.
         1         0.0407      0.1281      0.0259      0.0187      0.1796
 Ground to excited state transition magnetic dipole moments (Au):
       state          X           Y           Z
         1         0.0476      0.4278     -2.1879
 Ground to excited state transition velocity quadrupole moments (Au):
       state          XX          YY          ZZ          XY          XZ          YZ
         1        -1.1818      0.4974      0.0289     -1.7258     -0.3245      0.0341
 <0|del|b> * <b|rxdel|0> + <0|del|b> * <b|delr+rdel|0>
 Rotatory Strengths (R) in cgs (10**-40 erg-esu-cm/Gauss)
       state          XX          YY          ZZ    R(velocity)    E-M Angle
         1       -25.8000    -43.9748     70.0282      0.0845       90.00
 1/2[<0|r|b>*<b|rxdel|0> + (<0|rxdel|b>*<b|r|0>)*]
 Rotatory Strengths (R) in cgs (10**-40 erg-esu-cm/Gauss)
       state          XX          YY          ZZ     R(length)
         1        21.0522    565.1346   -602.3415     -5.3849
  1/2[<0|del|b>*<b|r|0> + (<0|r|b>*<b|del|0>)*] (Au)
       state          X           Y           Z        Dip. S.   Osc.(frdel)
         1        -0.0255     -0.2394     -0.0101      0.2749      0.1833

 Excitation energies and oscillator strengths:
 
 Excited State   1:      Singlet-A      1.8942 eV  654.54 nm  f=0.1871  <S**2>=0.000
     235 -> 237       -0.29109
     235 -> 238       -0.19642
     236 -> 237        0.58866
     236 -> 238       -0.16300
 This state for optimization and/or second-order correction.
 Total Energy, E(TD-HF/TD-DFT) =  -2732.87732294    
 Copying the excited state density for this state as the 1-particle RhoCI density.
 SavETr:  write IOETrn=   770 NScale= 10 NData=  16 NLR=1 NState=    1 LETran=      28.
 Hyperfine terms turned off by default for NAtoms > 100.

 **********************************************************************

            Population analysis using the SCF density.

 **********************************************************************

 Orbital symmetries:
       Occupied  (A) (A) (A) (A) (A) (A) (A) (A) (A) (A) (A) (A)
                 (A) (A) (A) (A) (A) (A) (A) (A) (A) (A) (A) (A)
                 (A) (A) (A) (A) (A) (A) (A) (A) (A) (A) (A) (A)
                 (A) (A) (A) (A) (A) (A) (A) (A) (A) (A) (A) (A)
                 (A) (A) (A) (A) (A) (A) (A) (A) (A) (A) (A) (A)
                 (A) (A) (A) (A) (A) (A) (A) (A) (A) (A) (A) (A)
                 (A) (A) (A) (A) (A) (A) (A) (A) (A) (A) (A) (A)
                 (A) (A) (A) (A) (A) (A) (A) (A) (A) (A) (A) (A)
                 (A) (A) (A) (A) (A) (A) (A) (A) (A) (A) (A) (A)
                 (A) (A) (A) (A) (A) (A) (A) (A) (A) (A) (A) (A)
                 (A) (A) (A) (A) (A) (A) (A) (A) (A) (A) (A) (A)
                 (A) (A) (A) (A) (A) (A) (A) (A) (A) (A) (A) (A)
                 (A) (A) (A) (A) (A) (A) (A) (A) (A) (A) (A) (A)
                 (A) (A) (A) (A) (A) (A) (A) (A) (A) (A) (A) (A)
                 (A) (A) (A) (A) (A) (A) (A) (A) (A) (A) (A) (A)
                 (A) (A) (A) (A) (A) (A) (A) (A) (A) (A) (A) (A)
                 (A) (A) (A) (A) (A) (A) (A) (A) (A) (A) (A) (A)
                 (A) (A) (A) (A) (A) (A) (A) (A) (A) (A) (A) (A)
                 (A) (A) (A) (A) (A) (A) (A) (A) (A) (A) (A) (A)
                 (A) (A) (A) (A) (A) (A) (A) (A)
       Virtual   (A) (A) (A) (A) (A) (A) (A) (A) (A) (A) (A) (A)
                 (A) (A) (A) (A) (A) (A) (A) (A) (A) (A) (A) (A)
                 (A) (A) (A) (A) (A) (A) (A) (A) (A) (A) (A) (A)
                 (A) (A) (A) (A) (A) (A) (A) (A) (A) (A) (A) (A)
                 (A) (A) (A) (A) (A) (A) (A) (A) (A) (A) (A) (A)
                 (A) (A) (A) (A) (A) (A) (A) (A) (A) (A) (A) (A)
                 (A) (A) (A) (A) (A) (A) (A) (A) (A) (A) (A) (A)
                 (A) (A) (A) (A) (A) (A) (A) (A) (A) (A) (A) (A)
                 (A) (A) (A) (A) (A) (A) (A) (A) (A) (A) (A) (A)
                 (A) (A) (A) (A) (A) (A) (A) (A) (A) (A) (A) (A)
                 (A) (A) (A) (A) (A) (A) (A) (A) (A) (A) (A) (A)
                 (A) (A) (A) (A) (A) (A) (A) (A) (A) (A) (A) (A)
                 (A) (A) (A) (A) (A) (A) (A) (A) (A) (A) (A) (A)
                 (A) (A) (A) (A) (A) (A) (A) (A) (A) (A) (A) (A)
                 (A) (A) (A) (A) (A) (A) (A) (A) (A) (A) (A) (A)
                 (A) (A) (A) (A) (A) (A) (A) (A) (A) (A) (A) (A)
                 (A) (A) (A) (A) (A) (A) (A) (A) (A) (A) (A) (A)
                 (A) (A) (A) (A) (A) (A) (A) (A) (A) (A) (A) (A)
                 (A) (A) (A) (A) (A) (A) (A) (A) (A) (A) (A) (A)
                 (A) (A) (A) (A) (A) (A) (A) (A) (A) (A) (A) (A)
                 (A) (A) (A) (A) (A) (A) (A) (A) (A) (A) (A) (A)
                 (A) (A) (A) (A) (A) (A) (A) (A) (A) (A) (A) (A)
                 (A) (A) (A) (A) (A) (A) (A) (A) (A) (A) (A) (A)
                 (A) (A) (A) (A) (A) (A) (A) (A) (A) (A) (A) (A)
                 (A) (A) (A) (A) (A) (A) (A) (A) (A) (A) (A) (A)
                 (A) (A) (A) (A) (A) (A) (A) (A) (A) (A) (A) (A)
                 (A) (A) (A) (A) (A) (A) (A) (A) (A) (A) (A) (A)
                 (A) (A) (A) (A) (A) (A) (A) (A) (A) (A) (A) (A)
                 (A) (A) (A) (A) (A) (A) (A) (A) (A) (A) (A) (A)
                 (A) (A) (A) (A) (A) (A) (A) (A) (A) (A) (A) (A)
                 (A) (A) (A) (A) (A) (A) (A) (A) (A) (A) (A) (A)
                 (A) (A) (A) (A) (A) (A) (A) (A) (A) (A) (A) (A)
                 (A) (A) (A) (A) (A) (A) (A) (A) (A) (A) (A) (A)
                 (A) (A) (A) (A) (A) (A) (A) (A) (A) (A) (A) (A)
                 (A) (A) (A) (A) (A) (A) (A) (A) (A) (A) (A) (A)
                 (A) (A) (A) (A) (A) (A) (A) (A) (A) (A) (A) (A)
                 (A) (A) (A) (A) (A) (A) (A) (A) (A) (A) (A) (A)
                 (A) (A) (A) (A) (A) (A) (A) (A) (A) (A) (A) (A)
                 (A) (A) (A) (A) (A) (A) (A) (A) (A) (A) (A) (A)
                 (A) (A) (A) (A) (A) (A) (A) (A) (A) (A) (A) (A)
                 (A) (A) (A) (A) (A) (A) (A) (A) (A) (A) (A) (A)
                 (A) (A) (A) (A) (A) (A) (A) (A) (A) (A) (A) (A)
                 (A) (A) (A) (A) (A) (A) (A) (A) (A) (A) (A) (A)
                 (A) (A) (A) (A) (A) (A) (A) (A) (A) (A) (A) (A)
                 (A) (A) (A) (A) (A) (A) (A) (A) (A) (A) (A) (A)
                 (A) (A) (A) (A) (A) (A) (A) (A) (A) (A) (A) (A)
                 (A) (A) (A) (A) (A) (A) (A) (A) (A) (A) (A) (A)
                 (A) (A) (A) (A) (A) (A) (A) (A) (A) (A) (A) (A)
                 (A) (A) (A) (A) (A) (A) (A) (A) (A) (A) (A) (A)
                 (A) (A) (A) (A) (A) (A) (A) (A) (A) (A) (A) (A)
                 (A) (A) (A) (A) (A) (A) (A) (A) (A) (A) (A) (A)
                 (A) (A) (A) (A) (A) (A) (A) (A) (A) (A) (A) (A)
                 (A) (A) (A) (A) (A) (A) (A) (A) (A) (A) (A) (A)
                 (A) (A) (A) (A) (A) (A) (A) (A) (A) (A) (A) (A)
                 (A) (A) (A) (A) (A) (A) (A) (A) (A) (A) (A) (A)
                 (A) (A) (A) (A) (A) (A) (A) (A) (A) (A) (A) (A)
                 (A) (A) (A) (A) (A) (A) (A) (A) (A) (A) (A) (A)
                 (A) (A) (A) (A) (A) (A) (A) (A) (A) (A) (A) (A)
                 (A) (A) (A) (A) (A) (A) (A) (A) (A) (A) (A) (A)
                 (A) (A) (A) (A) (A) (A) (A) (A) (A) (A) (A) (A)
                 (A) (A) (A) (A) (A) (A) (A) (A) (A) (A) (A) (A)
                 (A) (A) (A) (A) (A) (A) (A) (A) (A) (A) (A) (A)
                 (A) (A) (A) (A) (A) (A) (A) (A) (A) (A) (A) (A)
                 (A) (A) (A) (A) (A) (A) (A) (A) (A) (A) (A) (A)
                 (A) (A) (A) (A) (A) (A) (A) (A) (A) (A) (A) (A)
                 (A) (A) (A) (A) (A) (A) (A) (A) (A) (A) (A) (A)
                 (A) (A) (A) (A) (A) (A) (A) (A) (A) (A) (A) (A)
                 (A) (A) (A) (A) (A) (A) (A) (A) (A) (A) (A) (A)
                 (A) (A) (A) (A) (A) (A) (A) (A) (A) (A) (A) (A)
                 (A) (A) (A) (A) (A) (A) (A) (A) (A) (A) (A) (A)
                 (A) (A) (A) (A) (A) (A) (A) (A) (A) (A) (A) (A)
                 (A) (A) (A) (A) (A) (A) (A) (A) (A) (A) (A) (A)
                 (A) (A) (A) (A) (A) (A) (A) (A) (A) (A) (A) (A)
                 (A) (A) (A) (A) (A) (A) (A) (A) (A) (A) (A) (A)
                 (A) (A) (A) (A) (A) (A) (A) (A) (A) (A) (A) (A)
                 (A) (A) (A) (A) (A) (A) (A) (A) (A) (A) (A) (A)
                 (A) (A) (A) (A) (A) (A) (A) (A) (A) (A) (A) (A)
                 (A) (A) (A) (A) (A) (A) (A) (A) (A) (A) (A) (A)
                 (A) (A) (A) (A) (A) (A) (A) (A) (A) (A) (A) (A)
                 (A) (A) (A) (A) (A) (A) (A) (A) (A) (A) (A) (A)
                 (A) (A) (A) (A) (A) (A) (A) (A) (A) (A) (A) (A)
                 (A) (A) (A) (A) (A) (A) (A) (A) (A) (A) (A) (A)
                 (A) (A) (A) (A) (A) (A) (A) (A) (A) (A) (A) (A)
                 (A) (A) (A) (A) (A) (A) (A) (A) (A) (A) (A) (A)
                 (A) (A) (A) (A) (A) (A) (A) (A) (A) (A) (A) (A)
                 (A) (A) (A) (A) (A) (A) (A) (A) (A) (A)
 The electronic state is 1-A.
 Alpha  occ. eigenvalues --  -19.17961 -19.17601 -19.14214 -19.14124 -19.12537
 Alpha  occ. eigenvalues --  -14.37441 -14.36592 -14.32438 -14.29876 -10.32317
 Alpha  occ. eigenvalues --  -10.31737 -10.29149 -10.26408 -10.25838 -10.24298
 Alpha  occ. eigenvalues --  -10.23810 -10.23419 -10.23410 -10.23406 -10.23300
 Alpha  occ. eigenvalues --  -10.22382 -10.22294 -10.22090 -10.22082 -10.22031
 Alpha  occ. eigenvalues --  -10.21598 -10.21332 -10.21247 -10.21232 -10.21027
 Alpha  occ. eigenvalues --  -10.20947 -10.20860 -10.20834 -10.20779 -10.20721
 Alpha  occ. eigenvalues --  -10.20313 -10.20296 -10.20174 -10.19962 -10.19959
 Alpha  occ. eigenvalues --  -10.19798 -10.19711 -10.19602 -10.19476 -10.19457
 Alpha  occ. eigenvalues --  -10.19449 -10.19395 -10.19133 -10.18911 -10.18895
 Alpha  occ. eigenvalues --  -10.18824 -10.18408 -10.18336 -10.18314 -10.18006
 Alpha  occ. eigenvalues --  -10.17971 -10.17969 -10.17843 -10.17824 -10.17796
 Alpha  occ. eigenvalues --  -10.17783 -10.17632 -10.17526 -10.15941  -1.11346
 Alpha  occ. eigenvalues --   -1.08083  -1.07088  -1.02798  -0.99106  -0.98980
 Alpha  occ. eigenvalues --   -0.97968  -0.93939  -0.93560  -0.83424  -0.82826
 Alpha  occ. eigenvalues --   -0.81499  -0.81346  -0.81156  -0.80674  -0.80170
 Alpha  occ. eigenvalues --   -0.79798  -0.79436  -0.78978  -0.78597  -0.77365
 Alpha  occ. eigenvalues --   -0.76633  -0.75092  -0.74833  -0.74108  -0.73021
 Alpha  occ. eigenvalues --   -0.72582  -0.72306  -0.71762  -0.70995  -0.69939
 Alpha  occ. eigenvalues --   -0.69591  -0.68601  -0.67843  -0.67709  -0.67492
 Alpha  occ. eigenvalues --   -0.67159  -0.66884  -0.66342  -0.65795  -0.65366
 Alpha  occ. eigenvalues --   -0.64005  -0.62718  -0.62053  -0.61910  -0.61746
 Alpha  occ. eigenvalues --   -0.61079  -0.59098  -0.58427  -0.57650  -0.57601
 Alpha  occ. eigenvalues --   -0.57328  -0.57193  -0.56022  -0.55686  -0.55283
 Alpha  occ. eigenvalues --   -0.54857  -0.54730  -0.54471  -0.53765  -0.52998
 Alpha  occ. eigenvalues --   -0.52562  -0.51331  -0.51130  -0.50685  -0.50465
 Alpha  occ. eigenvalues --   -0.49815  -0.49411  -0.48959  -0.48865  -0.48097
 Alpha  occ. eigenvalues --   -0.47953  -0.47845  -0.47654  -0.47511  -0.47157
 Alpha  occ. eigenvalues --   -0.46629  -0.46437  -0.46228  -0.46014  -0.45472
 Alpha  occ. eigenvalues --   -0.45398  -0.45250  -0.44881  -0.44859  -0.44514
 Alpha  occ. eigenvalues --   -0.44238  -0.44109  -0.43964  -0.43683  -0.43430
 Alpha  occ. eigenvalues --   -0.43346  -0.43104  -0.43007  -0.42836  -0.42425
 Alpha  occ. eigenvalues --   -0.42337  -0.42298  -0.42120  -0.41728  -0.41257
 Alpha  occ. eigenvalues --   -0.41237  -0.41101  -0.40910  -0.40632  -0.40377
 Alpha  occ. eigenvalues --   -0.39958  -0.39840  -0.39752  -0.39640  -0.39538
 Alpha  occ. eigenvalues --   -0.39305  -0.39137  -0.38994  -0.38909  -0.38670
 Alpha  occ. eigenvalues --   -0.38254  -0.37896  -0.37798  -0.37707  -0.37485
 Alpha  occ. eigenvalues --   -0.37124  -0.36937  -0.36935  -0.36733  -0.36322
 Alpha  occ. eigenvalues --   -0.36086  -0.36013  -0.35883  -0.35712  -0.35650
 Alpha  occ. eigenvalues --   -0.35404  -0.35174  -0.34966  -0.34810  -0.34566
 Alpha  occ. eigenvalues --   -0.34340  -0.34274  -0.34154  -0.33805  -0.33661
 Alpha  occ. eigenvalues --   -0.33620  -0.33370  -0.33039  -0.32794  -0.32791
 Alpha  occ. eigenvalues --   -0.32366  -0.32070  -0.31972  -0.31831  -0.31532
 Alpha  occ. eigenvalues --   -0.31368  -0.31023  -0.30333  -0.30218  -0.29899
 Alpha  occ. eigenvalues --   -0.29881  -0.29506  -0.29429  -0.27812  -0.27760
 Alpha  occ. eigenvalues --   -0.27302  -0.27177  -0.26818  -0.26270  -0.26262
 Alpha  occ. eigenvalues --   -0.25213  -0.25174  -0.23278  -0.22612  -0.19455
 Alpha  occ. eigenvalues --   -0.18659
 Alpha virt. eigenvalues --   -0.11092  -0.07325  -0.04305  -0.03039  -0.01262
 Alpha virt. eigenvalues --    0.00445   0.01156   0.01314   0.02086   0.03160
 Alpha virt. eigenvalues --    0.03377   0.03886   0.04119   0.04314   0.04755
 Alpha virt. eigenvalues --    0.04814   0.05059   0.05160   0.05620   0.05853
 Alpha virt. eigenvalues --    0.05951   0.06555   0.06630   0.06899   0.06959
 Alpha virt. eigenvalues --    0.07237   0.07401   0.07607   0.08055   0.08153
 Alpha virt. eigenvalues --    0.08255   0.08277   0.08534   0.08641   0.08771
 Alpha virt. eigenvalues --    0.09186   0.09248   0.09423   0.09542   0.09647
 Alpha virt. eigenvalues --    0.09702   0.09857   0.09996   0.10152   0.10535
 Alpha virt. eigenvalues --    0.10580   0.10816   0.11049   0.11280   0.11433
 Alpha virt. eigenvalues --    0.11634   0.11734   0.12027   0.12140   0.12350
 Alpha virt. eigenvalues --    0.12406   0.12612   0.12725   0.12847   0.13039
 Alpha virt. eigenvalues --    0.13125   0.13308   0.13525   0.13669   0.13748
 Alpha virt. eigenvalues --    0.13826   0.13903   0.14057   0.14754   0.14930
 Alpha virt. eigenvalues --    0.15246   0.15316   0.15430   0.15596   0.15674
 Alpha virt. eigenvalues --    0.15760   0.16016   0.16127   0.16354   0.16573
 Alpha virt. eigenvalues --    0.16676   0.16995   0.17427   0.17601   0.17633
 Alpha virt. eigenvalues --    0.18087   0.18129   0.18520   0.18632   0.18778
 Alpha virt. eigenvalues --    0.19027   0.19139   0.19570   0.19661   0.20095
 Alpha virt. eigenvalues --    0.20236   0.20279   0.20409   0.20828   0.21039
 Alpha virt. eigenvalues --    0.21133   0.21237   0.21427   0.21544   0.21619
 Alpha virt. eigenvalues --    0.21793   0.22105   0.22519   0.22648   0.22701
 Alpha virt. eigenvalues --    0.22795   0.23230   0.23472   0.23941   0.24257
 Alpha virt. eigenvalues --    0.24574   0.24708   0.25072   0.25270   0.25370
 Alpha virt. eigenvalues --    0.25653   0.25932   0.26165   0.26460   0.26700
 Alpha virt. eigenvalues --    0.27075   0.27474   0.27642   0.27826   0.28161
 Alpha virt. eigenvalues --    0.28651   0.29491   0.29741   0.29943   0.30315
 Alpha virt. eigenvalues --    0.31403   0.31508   0.31647   0.31903   0.32456
 Alpha virt. eigenvalues --    0.32888   0.33205   0.33609   0.33857   0.34305
 Alpha virt. eigenvalues --    0.34989   0.35323   0.35628   0.36769   0.36886
 Alpha virt. eigenvalues --    0.37437   0.37992   0.38191   0.38647   0.38807
 Alpha virt. eigenvalues --    0.38859   0.38977   0.39281   0.39713   0.39919
 Alpha virt. eigenvalues --    0.40048   0.40210   0.40306   0.40444   0.40807
 Alpha virt. eigenvalues --    0.40920   0.41373   0.41567   0.41790   0.41910
 Alpha virt. eigenvalues --    0.42326   0.42388   0.42664   0.43111   0.43281
 Alpha virt. eigenvalues --    0.43343   0.43460   0.43600   0.43888   0.44140
 Alpha virt. eigenvalues --    0.44353   0.44572   0.44637   0.44808   0.44946
 Alpha virt. eigenvalues --    0.45185   0.45385   0.45411   0.45797   0.46394
 Alpha virt. eigenvalues --    0.46514   0.46676   0.46878   0.46925   0.47210
 Alpha virt. eigenvalues --    0.47692   0.48029   0.48384   0.48889   0.49056
 Alpha virt. eigenvalues --    0.49153   0.49429   0.49626   0.49745   0.49991
 Alpha virt. eigenvalues --    0.50113   0.50525   0.50744   0.50912   0.51293
 Alpha virt. eigenvalues --    0.51440   0.51530   0.51944   0.51998   0.52546
 Alpha virt. eigenvalues --    0.52754   0.52836   0.53118   0.53342   0.53775
 Alpha virt. eigenvalues --    0.53928   0.54109   0.54171   0.54456   0.54698
 Alpha virt. eigenvalues --    0.55083   0.55422   0.55745   0.55892   0.55950
 Alpha virt. eigenvalues --    0.56258   0.56454   0.56564   0.56873   0.57053
 Alpha virt. eigenvalues --    0.57117   0.57192   0.57451   0.57752   0.57830
 Alpha virt. eigenvalues --    0.58074   0.58132   0.58328   0.58595   0.58852
 Alpha virt. eigenvalues --    0.59085   0.59461   0.59515   0.59536   0.59664
 Alpha virt. eigenvalues --    0.60081   0.60240   0.60374   0.60546   0.60753
 Alpha virt. eigenvalues --    0.60879   0.61108   0.61190   0.61360   0.61553
 Alpha virt. eigenvalues --    0.61750   0.62072   0.62133   0.62195   0.62302
 Alpha virt. eigenvalues --    0.62412   0.62617   0.62685   0.62909   0.63123
 Alpha virt. eigenvalues --    0.63398   0.63551   0.63640   0.63690   0.63783
 Alpha virt. eigenvalues --    0.63839   0.64084   0.64237   0.64374   0.64448
 Alpha virt. eigenvalues --    0.64732   0.65228   0.65273   0.65469   0.65656
 Alpha virt. eigenvalues --    0.65820   0.65869   0.65984   0.66135   0.66221
 Alpha virt. eigenvalues --    0.66417   0.66464   0.66608   0.66633   0.66734
 Alpha virt. eigenvalues --    0.67064   0.67322   0.67357   0.67521   0.67643
 Alpha virt. eigenvalues --    0.67678   0.67797   0.67928   0.68094   0.68359
 Alpha virt. eigenvalues --    0.68392   0.68550   0.68594   0.68768   0.68912
 Alpha virt. eigenvalues --    0.69094   0.69263   0.69419   0.69504   0.69681
 Alpha virt. eigenvalues --    0.69902   0.69954   0.70098   0.70237   0.70503
 Alpha virt. eigenvalues --    0.70509   0.70607   0.70726   0.70882   0.71121
 Alpha virt. eigenvalues --    0.71196   0.71248   0.71352   0.71627   0.71756
 Alpha virt. eigenvalues --    0.72024   0.72227   0.72271   0.72597   0.72799
 Alpha virt. eigenvalues --    0.72878   0.73006   0.73194   0.73221   0.73360
 Alpha virt. eigenvalues --    0.73573   0.73611   0.73982   0.74138   0.74199
 Alpha virt. eigenvalues --    0.74570   0.74691   0.74875   0.75044   0.75151
 Alpha virt. eigenvalues --    0.75388   0.75612   0.75769   0.75951   0.76119
 Alpha virt. eigenvalues --    0.76443   0.76892   0.77076   0.77200   0.78034
 Alpha virt. eigenvalues --    0.78142   0.78191   0.78356   0.78845   0.79097
 Alpha virt. eigenvalues --    0.79223   0.79383   0.79624   0.79903   0.80301
 Alpha virt. eigenvalues --    0.80431   0.80992   0.81027   0.81168   0.81886
 Alpha virt. eigenvalues --    0.82141   0.82466   0.82751   0.83436   0.83750
 Alpha virt. eigenvalues --    0.84707   0.84783   0.85814   0.86029   0.86264
 Alpha virt. eigenvalues --    0.86645   0.87419   0.87873   0.88180   0.88406
 Alpha virt. eigenvalues --    0.88707   0.89934   0.90380   0.90768   0.91241
 Alpha virt. eigenvalues --    0.91447   0.92211   0.92494   0.92835   0.93014
 Alpha virt. eigenvalues --    0.93640   0.93880   0.94324   0.94815   0.95050
 Alpha virt. eigenvalues --    0.95633   0.96280   0.96504   0.97314   0.97336
 Alpha virt. eigenvalues --    0.97660   0.97791   0.98528   0.98791   0.99351
 Alpha virt. eigenvalues --    0.99864   1.00073   1.00509   1.00785   1.01523
 Alpha virt. eigenvalues --    1.01717   1.01820   1.02174   1.02713   1.03057
 Alpha virt. eigenvalues --    1.03270   1.03812   1.04485   1.04844   1.04905
 Alpha virt. eigenvalues --    1.05451   1.06100   1.06380   1.07053   1.07817
 Alpha virt. eigenvalues --    1.08113   1.08863   1.09367   1.09733   1.10005
 Alpha virt. eigenvalues --    1.10188   1.10816   1.11308   1.11819   1.12170
 Alpha virt. eigenvalues --    1.12375   1.13079   1.13225   1.13436   1.13975
 Alpha virt. eigenvalues --    1.14739   1.14992   1.15475   1.16361   1.16973
 Alpha virt. eigenvalues --    1.17204   1.17431   1.17502   1.17790   1.18069
 Alpha virt. eigenvalues --    1.18397   1.18877   1.18923   1.19551   1.20730
 Alpha virt. eigenvalues --    1.21136   1.21409   1.21791   1.21879   1.22107
 Alpha virt. eigenvalues --    1.23201   1.23628   1.23792   1.24248   1.24330
 Alpha virt. eigenvalues --    1.24485   1.24619   1.25571   1.26157   1.26705
 Alpha virt. eigenvalues --    1.27038   1.27537   1.28154   1.28296   1.28804
 Alpha virt. eigenvalues --    1.28834   1.28844   1.29458   1.29585   1.30000
 Alpha virt. eigenvalues --    1.30950   1.31182   1.31460   1.31738   1.32302
 Alpha virt. eigenvalues --    1.32554   1.32866   1.33522   1.34038   1.34342
 Alpha virt. eigenvalues --    1.34628   1.35525   1.35622   1.36073   1.36436
 Alpha virt. eigenvalues --    1.36721   1.36937   1.37025   1.37976   1.38165
 Alpha virt. eigenvalues --    1.38278   1.38646   1.39020   1.39775   1.40035
 Alpha virt. eigenvalues --    1.40649   1.41180   1.41292   1.41759   1.42564
 Alpha virt. eigenvalues --    1.43330   1.43735   1.44369   1.44923   1.45675
 Alpha virt. eigenvalues --    1.45897   1.46053   1.46515   1.46865   1.47056
 Alpha virt. eigenvalues --    1.47528   1.47800   1.48339   1.48806   1.49074
 Alpha virt. eigenvalues --    1.49468   1.49777   1.49836   1.50375   1.50582
 Alpha virt. eigenvalues --    1.50806   1.50952   1.51240   1.51897   1.52158
 Alpha virt. eigenvalues --    1.52626   1.52709   1.52923   1.53430   1.53820
 Alpha virt. eigenvalues --    1.53935   1.54167   1.54357   1.54854   1.55036
 Alpha virt. eigenvalues --    1.55503   1.56177   1.56764   1.56823   1.57536
 Alpha virt. eigenvalues --    1.58252   1.58267   1.58624   1.59100   1.59317
 Alpha virt. eigenvalues --    1.59696   1.60055   1.60322   1.60830   1.60891
 Alpha virt. eigenvalues --    1.61204   1.61485   1.61564   1.62259   1.62946
 Alpha virt. eigenvalues --    1.63279   1.63750   1.63870   1.64006   1.64516
 Alpha virt. eigenvalues --    1.65172   1.65542   1.65670   1.65734   1.65894
 Alpha virt. eigenvalues --    1.66120   1.66567   1.67199   1.67238   1.67641
 Alpha virt. eigenvalues --    1.67761   1.68005   1.68322   1.68664   1.68863
 Alpha virt. eigenvalues --    1.69199   1.69259   1.69720   1.69788   1.69919
 Alpha virt. eigenvalues --    1.70173   1.70322   1.70570   1.70817   1.71065
 Alpha virt. eigenvalues --    1.71459   1.71522   1.71810   1.72357   1.72593
 Alpha virt. eigenvalues --    1.72768   1.73082   1.73380   1.73804   1.74089
 Alpha virt. eigenvalues --    1.74289   1.74544   1.74664   1.74667   1.74952
 Alpha virt. eigenvalues --    1.75087   1.75270   1.75379   1.75644   1.75845
 Alpha virt. eigenvalues --    1.76205   1.76562   1.76821   1.76862   1.77071
 Alpha virt. eigenvalues --    1.77575   1.77728   1.78197   1.78306   1.78432
 Alpha virt. eigenvalues --    1.78666   1.78826   1.78971   1.79043   1.79467
 Alpha virt. eigenvalues --    1.79767   1.79839   1.80030   1.80294   1.80735
 Alpha virt. eigenvalues --    1.80971   1.81314   1.81435   1.81544   1.81772
 Alpha virt. eigenvalues --    1.81964   1.82233   1.82459   1.82577   1.83081
 Alpha virt. eigenvalues --    1.83114   1.83598   1.83943   1.84040   1.84172
 Alpha virt. eigenvalues --    1.84343   1.84568   1.84820   1.84987   1.85139
 Alpha virt. eigenvalues --    1.85323   1.85463   1.85672   1.85817   1.85996
 Alpha virt. eigenvalues --    1.86215   1.86571   1.86624   1.87030   1.87169
 Alpha virt. eigenvalues --    1.87488   1.87693   1.88037   1.88332   1.88696
 Alpha virt. eigenvalues --    1.88945   1.89030   1.89212   1.89575   1.89733
 Alpha virt. eigenvalues --    1.89818   1.90321   1.90485   1.90666   1.90843
 Alpha virt. eigenvalues --    1.91158   1.91264   1.91624   1.91739   1.91870
 Alpha virt. eigenvalues --    1.92139   1.92361   1.92552   1.92683   1.92849
 Alpha virt. eigenvalues --    1.93258   1.93359   1.93622   1.94107   1.94263
 Alpha virt. eigenvalues --    1.94800   1.95312   1.95492   1.95626   1.95755
 Alpha virt. eigenvalues --    1.96373   1.96698   1.96832   1.97422   1.97525
 Alpha virt. eigenvalues --    1.98044   1.98307   1.98406   1.98584   1.98653
 Alpha virt. eigenvalues --    1.99157   1.99432   1.99586   1.99738   1.99786
 Alpha virt. eigenvalues --    2.00275   2.01012   2.01352   2.01595   2.02065
 Alpha virt. eigenvalues --    2.02231   2.02411   2.02866   2.03082   2.03616
 Alpha virt. eigenvalues --    2.04262   2.04577   2.04588   2.04922   2.05419
 Alpha virt. eigenvalues --    2.05554   2.05769   2.06076   2.06213   2.06378
 Alpha virt. eigenvalues --    2.06744   2.06820   2.07395   2.07554   2.07852
 Alpha virt. eigenvalues --    2.08269   2.08531   2.08547   2.09040   2.09158
 Alpha virt. eigenvalues --    2.09712   2.09987   2.10463   2.10720   2.11253
 Alpha virt. eigenvalues --    2.11522   2.12435   2.12621   2.13240   2.13288
 Alpha virt. eigenvalues --    2.13927   2.14325   2.14575   2.14940   2.15403
 Alpha virt. eigenvalues --    2.15738   2.16146   2.16581   2.16825   2.17120
 Alpha virt. eigenvalues --    2.17272   2.17577   2.17766   2.18027   2.18475
 Alpha virt. eigenvalues --    2.18974   2.19292   2.19614   2.19806   2.20033
 Alpha virt. eigenvalues --    2.20673   2.20853   2.21093   2.21495   2.21988
 Alpha virt. eigenvalues --    2.22932   2.23474   2.23676   2.24423   2.25131
 Alpha virt. eigenvalues --    2.25883   2.26174   2.26272   2.26416   2.26786
 Alpha virt. eigenvalues --    2.27608   2.27799   2.28199   2.28556   2.28769
 Alpha virt. eigenvalues --    2.29199   2.29963   2.30287   2.30548   2.30937
 Alpha virt. eigenvalues --    2.31937   2.32137   2.32225   2.32416   2.32854
 Alpha virt. eigenvalues --    2.33727   2.34015   2.34091   2.34288   2.34500
 Alpha virt. eigenvalues --    2.34826   2.35314   2.35554   2.36077   2.36126
 Alpha virt. eigenvalues --    2.36306   2.36780   2.36925   2.37257   2.37697
 Alpha virt. eigenvalues --    2.38390   2.38498   2.39530   2.40164   2.40558
 Alpha virt. eigenvalues --    2.40708   2.41288   2.41779   2.42712   2.43114
 Alpha virt. eigenvalues --    2.43382   2.43675   2.43840   2.44007   2.44650
 Alpha virt. eigenvalues --    2.45070   2.45420   2.45550   2.45842   2.46015
 Alpha virt. eigenvalues --    2.46424   2.46609   2.47140   2.47291   2.47375
 Alpha virt. eigenvalues --    2.47952   2.48391   2.48637   2.48904   2.49597
 Alpha virt. eigenvalues --    2.50179   2.51200   2.51527   2.52328   2.52495
 Alpha virt. eigenvalues --    2.53086   2.53518   2.53624   2.54201   2.55243
 Alpha virt. eigenvalues --    2.55529   2.56037   2.56305   2.56680   2.56765
 Alpha virt. eigenvalues --    2.57367   2.57478   2.57804   2.58477   2.59186
 Alpha virt. eigenvalues --    2.59463   2.59841   2.59977   2.60561   2.61148
 Alpha virt. eigenvalues --    2.61641   2.62028   2.62423   2.62908   2.63181
 Alpha virt. eigenvalues --    2.63452   2.63938   2.64679   2.64960   2.65183
 Alpha virt. eigenvalues --    2.65445   2.65484   2.66155   2.66227   2.67168
 Alpha virt. eigenvalues --    2.67434   2.67685   2.68527   2.69008   2.69091
 Alpha virt. eigenvalues --    2.69858   2.70095   2.70307   2.70780   2.71045
 Alpha virt. eigenvalues --    2.71457   2.71728   2.72136   2.72334   2.72831
 Alpha virt. eigenvalues --    2.73311   2.73336   2.73858   2.74511   2.74926
 Alpha virt. eigenvalues --    2.75320   2.75773   2.75939   2.76695   2.76757
 Alpha virt. eigenvalues --    2.76989   2.77388   2.77688   2.77739   2.78360
 Alpha virt. eigenvalues --    2.79679   2.79844   2.80637   2.81131   2.81306
 Alpha virt. eigenvalues --    2.81590   2.81829   2.82846   2.83390   2.83497
 Alpha virt. eigenvalues --    2.83976   2.84308   2.84432   2.85081   2.85994
 Alpha virt. eigenvalues --    2.87201   2.87415   2.87686   2.88058   2.88556
 Alpha virt. eigenvalues --    2.88888   2.89247   2.89739   2.90213   2.91059
 Alpha virt. eigenvalues --    2.91088   2.91333   2.91963   2.92175   2.93128
 Alpha virt. eigenvalues --    2.93382   2.93806   2.93916   2.94796   2.95197
 Alpha virt. eigenvalues --    2.95597   2.96527   2.96559   2.96677   2.96945
 Alpha virt. eigenvalues --    2.97142   2.97184   2.97898   2.98792   2.99328
 Alpha virt. eigenvalues --    2.99825   3.00351   3.01110   3.01472   3.01757
 Alpha virt. eigenvalues --    3.02323   3.02901   3.03748   3.04473   3.05053
 Alpha virt. eigenvalues --    3.05327   3.06617   3.07066   3.07447   3.07986
 Alpha virt. eigenvalues --    3.08300   3.08528   3.08603   3.10316   3.11695
 Alpha virt. eigenvalues --    3.11867   3.12859   3.13153   3.14306   3.14524
 Alpha virt. eigenvalues --    3.15462   3.16129   3.16337   3.17174   3.18938
 Alpha virt. eigenvalues --    3.19148   3.20513   3.23031   3.24782   3.25827
 Alpha virt. eigenvalues --    3.29117   3.29791   3.31457   3.35384   3.36114
 Alpha virt. eigenvalues --    3.38523   3.38549   3.42564   3.43025   3.44361
 Alpha virt. eigenvalues --    3.45869   3.52662   3.53574   3.55300   3.57086
 Alpha virt. eigenvalues --    3.57267   3.63484   3.66546   3.70932   3.74800
          Condensed to atoms (all electrons):
 Mulliken charges:
               1
     1  C   -0.074534
     2  C   -0.057165
     3  C    0.014081
     4  C   -0.148685
     5  N   -0.211432
     6  C   -0.023358
     7  C   -0.009288
     8  C   -0.021935
     9  C    0.025044
    10  C    0.243051
    11  C   -0.027514
    12  C    0.040133
    13  C    0.204441
    14  O   -0.283191
    15  O   -0.331596
    16  N    0.017977
    17  C    0.075282
    18  C   -0.077676
    19  C   -0.028381
    20  C    0.010104
    21  C   -0.090289
    22  C    0.048883
    23  C   -0.100131
    24  N   -0.263558
    25  C    0.102882
    26  C   -0.067410
    27  C   -0.128947
    28  C    0.100863
    29  C    0.050596
    30  C    0.113697
    31  C   -0.024619
    32  N   -0.009127
    33  C    0.091818
    34  C   -0.090885
    35  C   -0.148667
    36  C    0.079691
    37  C   -0.039884
    38  C    0.121675
    39  O   -0.072188
    40  C   -0.130104
    41  C    0.187597
    42  O   -0.128762
    43  O   -0.327281
    44  C    0.125659
    45  C    0.238499
    46  C   -0.094071
    47  C   -0.135227
    48  C   -0.029474
    49  C    0.082740
    50  C    0.045513
    51  C    0.057855
    52  C   -0.119729
    53  C   -0.024858
    54  C    0.131775
    55  C    0.086787
    56  C   -0.016335
    57  C   -0.033172
    58  C    0.017618
    59  C   -0.019461
    60  C    0.021053
    61  C    0.009456
    62  C    0.071438
    63  C   -0.039699
    64  C    0.007719
    65  H   -0.044551
    66  H   -0.100288
    67  H    0.017961
    68  H    0.028654
    69  H   -0.011976
    70  H   -0.024238
    71  H   -0.016132
    72  H   -0.053354
    73  H    0.020560
    74  H    0.025713
    75  H    0.050878
    76  H    0.049969
    77  H    0.078067
    78  H    0.046880
    79  H    0.061115
    80  H   -0.037389
    81  H    0.047613
    82  H    0.038593
    83  H    0.006701
    84  H    0.036969
    85  H    0.026506
    86  H   -0.021786
    87  H    0.013767
    88  H    0.012867
    89  H    0.014254
    90  H    0.017252
    91  H    0.055242
    92  H    0.053771
    93  H    0.073053
    94  H    0.079651
    95  H    0.059934
    96  H    0.044113
    97  H    0.040666
    98  H    0.043176
    99  H    0.049664
   100  H    0.014897
   101  H    0.039355
   102  H    0.036332
   103  H    0.028267
   104  H   -0.002915
   105  H   -0.021908
   106  H    0.023548
   107  H   -0.005440
   108  H   -0.026052
   109  H   -0.019308
   110  H   -0.000592
   111  H    0.020009
   112  H    0.003360
   113  H    0.009025
   114  H   -0.015788
   115  H   -0.080841
   116  H   -0.014770
   117  H   -0.009636
   118  H   -0.022489
   119  H   -0.008048
   120  H   -0.001058
   121  H    0.008945
   122  H    0.042092
   123  H   -0.002248
   124  H   -0.024888
   125  H   -0.019237
   126  H    0.004616
   127  H    0.022688
   128  H   -0.015392
   129  H    0.003098
   130  H   -0.080388
   131  H    0.016763
   132  H    0.015882
   133  H   -0.006193
   134  H    0.015041
   135  H    0.003592
   136  H   -0.000450
   137  H    0.096979
   138  H    0.193984
 Sum of Mulliken charges =  -0.00000
 Mulliken charges with hydrogens summed into heavy atoms:
               1
     1  C   -0.074534
     2  C   -0.101716
     3  C   -0.086207
     4  C   -0.130724
     5  N   -0.211432
     6  C   -0.023358
     7  C    0.019366
     8  C   -0.033911
     9  C    0.025044
    10  C    0.149327
    11  C    0.018759
    12  C    0.140979
    13  C    0.204441
    14  O   -0.283191
    15  O   -0.331596
    16  N    0.114956
    17  C    0.075282
    18  C   -0.077676
    19  C   -0.028381
    20  C    0.010104
    21  C    0.095774
    22  C    0.011494
    23  C   -0.013926
    24  N   -0.263558
    25  C    0.102882
    26  C   -0.067410
    27  C   -0.128947
    28  C    0.100863
    29  C    0.120772
    30  C    0.105678
    31  C    0.019754
    32  N    0.184858
    33  C    0.091818
    34  C   -0.090885
    35  C   -0.148667
    36  C    0.079691
    37  C    0.142182
    38  C    0.121675
    39  O   -0.072188
    40  C   -0.050453
    41  C    0.187597
    42  O   -0.128762
    43  O   -0.327281
    44  C    0.270373
    45  C    0.331339
    46  C   -0.079174
    47  C   -0.135227
    48  C    0.074480
    49  C    0.057917
    50  C    0.063622
    51  C    0.012495
    52  C   -0.120321
    53  C    0.007536
    54  C    0.035146
    55  C    0.062381
    56  C   -0.046871
    57  C   -0.034229
    58  C    0.066405
    59  C   -0.063586
    60  C    0.048357
    61  C   -0.002838
    62  C   -0.008950
    63  C   -0.013247
    64  C    0.025902
 Electronic spatial extent (au):  <R**2>=         179127.8822
 Charge=              0.0000 electrons
 Dipole moment (field-independent basis, Debye):
    X=              2.9583    Y=              2.5311    Z=              1.7710  Tot=              4.2772
 Quadrupole moment (field-independent basis, Debye-Ang):
   XX=           -357.1693   YY=           -383.8404   ZZ=           -397.6538
   XY=            -15.1006   XZ=              3.8466   YZ=             -3.6211
 Traceless Quadrupole moment (field-independent basis, Debye-Ang):
   XX=             22.3852   YY=             -4.2859   ZZ=            -18.0993
   XY=            -15.1006   XZ=              3.8466   YZ=             -3.6211
 Octapole moment (field-independent basis, Debye-Ang**2):
  XXX=           -481.4582  YYY=             33.9198  ZZZ=             22.8210  XYY=            -69.4863
  XXY=            -75.0409  XXZ=           -137.8250  XZZ=             41.1498  YZZ=            -31.3834
  YYZ=             69.1370  XYZ=            -53.2129
 Hexadecapole moment (field-independent basis, Debye-Ang**3):
 XXXX=        -224986.4621 YYYY=         -17925.9288 ZZZZ=          -4169.9353 XXXY=          -2347.4702
 XXXZ=           1274.0706 YYYX=           -856.1485 YYYZ=           -309.0095 ZZZX=           -107.3946
 ZZZY=            -81.7982 XXYY=         -41400.8442 XXZZ=         -39583.6189 YYZZ=          -3595.4143
 XXYZ=           -198.9189 YYXZ=            -62.8918 ZZXY=            182.2142
 N-N= 8.271606257297D+03 E-N=-2.287736714682D+04  KE= 2.700985741987D+03
 1\1\GINC-RYZEN-SSD1\SP\RB3LYP TD-FC\SVP\C55H74N4O5\PADAWAN\20-Aug-2019
 \0\\# td=(NStates=1) B3LYP/SVP\\TD\\0,1\C,0,-5.0774605966,-2.0009399,0
 .4181404391\C,0,-4.7132874869,2.7583760666,1.427849461\C,0,-9.45705494
 91,3.3577019665,-0.13823844\C,0,-9.8606479159,-1.3800395986,-0.8911352
 589\N,0,-5.1693336814,0.4724537065,0.823979856\C,0,-4.4418622838,-0.76
 26252461,0.8403901246\C,0,-3.0558873424,-0.6094014236,1.3200752569\C,0
 ,-3.0669808505,0.8378789055,1.813405846\C,0,-4.3822031784,1.4242594713
 ,1.3466665781\C,0,-3.0369501929,0.815729874,3.3712569837\C,0,-2.117047
 0475,-0.840799094,0.1004766554\C,0,-0.6233607242,-0.8852173765,0.52844
 06092\C,0,0.3388783937,-1.0113180491,-0.7027761348\O,0,-0.0158118453,-
 1.2736270526,-1.8966521198\O,0,1.6607511503,-1.0086972882,-0.289813973
 4\N,0,-7.0324964306,2.7575104929,0.4344940434\C,0,-5.8869628773,3.4034
 770802,0.9038845139\C,0,-6.0922404965,4.7719252763,0.8457761293\C,0,-7
 .4292859931,4.8940107241,0.3209773278\C,0,-8.0178672371,3.6023188308,0
 .1461759539\C,0,-5.1187610325,5.8059743798,1.3008360875\C,0,-7.9427908
 673,6.335743292,0.1054155959\C,0,-9.2894464674,6.5820374943,-0.5310117
 175\N,0,-9.2275961589,0.9034988245,-0.4457715526\C,0,-9.9355453319,2.1
 215154532,-0.4942382345\C,0,-11.3047567137,1.8600896485,-0.8635204233\
 C,0,-11.4249579363,0.5644004814,-1.0106111227\C,0,-10.1397706855,-0.01
 87889283,-0.7754110215\C,0,-12.2677109683,3.063478917,-1.0208465138\C,
 0,-12.7894290403,-0.0464537438,-1.3892911641\C,0,-12.8252969993,-0.264
 1910655,-2.9716243468\N,0,-7.4917523009,-1.2487491894,-0.1525516003\C,
 0,-8.5846544509,-1.916578272,-0.6644033687\C,0,-8.3053541426,-3.333367
 9383,-0.6915628948\C,0,-6.8119132195,-3.3775036347,-0.3044125466\C,0,-
 6.4914176814,-2.0473065298,0.071199274\C,0,-9.1568096661,-4.5086442644
 ,-1.0809906059\C,0,-5.7658127028,-4.4215873856,-0.0136786983\O,0,-5.72
 40942655,-5.5597624849,-0.0731303926\C,0,-4.4789034949,-3.3752446372,0
 .4349287425\C,0,-3.9076131761,-3.8122749227,1.8642983151\O,0,-4.153877
 9995,-3.4279537513,2.9035508191\O,0,-3.0435468704,-4.8060708884,1.5120
 069437\C,0,-2.4405475851,-5.5266935747,2.6562520955\C,0,2.7033903824,-
 1.157954486,-1.2880830136\C,0,3.977731883,-0.8614307665,-0.6016767809\
 C,0,4.8861309133,-0.0784187943,-0.9768730919\C,0,4.9250530155,0.862330
 0747,-2.2473272717\C,0,6.2760413162,-0.0038077525,-0.2191533784\C,0,7.
 5053947667,-0.5344527784,-0.9345408075\C,0,8.764809958,-0.2413993468,-
 0.2500898889\C,0,10.0803298877,-0.6566601486,-0.8776187418\C,0,10.1236
 46158,-2.2262377896,-1.2494490596\C,0,11.3407047451,-0.2667663472,0.14
 74222742\C,0,12.7170102856,-0.471605639,-0.6229301702\C,0,13.903006707
 9,-0.0212948326,0.2816645291\C,0,15.3063424553,-0.1332463604,-0.420685
 9044\C,0,15.7976070883,-1.5581099729,-0.6216418997\C,0,16.3170743046,0
 .6581267239,0.4795112155\C,0,17.8069475335,0.6104667806,-0.1006845763\
 C,0,18.6121910701,1.7034189609,0.7496436573\C,0,20.0696468606,1.682403
 8657,0.3072234827\C,0,20.1476756971,2.1966991011,-1.2192683358\C,0,20.
 9003805037,2.4798117173,1.267263127\H,0,-4.0936475324,3.4663630206,1.9
 572379621\H,0,-9.9013777228,4.2610055371,-0.3503037043\H,0,-10.6692052
 604,-2.1302690369,-1.2746873626\H,0,-2.8390899605,-1.5761379779,1.9535
 271474\H,0,-2.3073913067,1.5515451056,1.5177312715\H,0,-2.1011376297,0
 .5402514468,3.6115478801\H,0,-3.2664599463,1.7615808017,3.788527954\H,
 0,-3.6726778472,0.2128919915,3.6761364593\H,0,-2.3222816821,-1.7592898
 067,-0.4553423905\H,0,-2.2607020088,0.091576632,-0.5785665174\H,0,-0.3
 775920826,0.0944035663,1.0562116517\H,0,-0.4735703699,-1.9167408541,0.
 9761347325\H,0,-4.3426689243,6.1868768253,0.3456677048\H,0,-5.76610782
 96,6.8102061393,1.8176673637\H,0,-4.5226540424,5.5263624856,2.32276333
 69\H,0,-7.4851786168,7.0703240661,0.6102123275\H,0,-9.9526806609,5.791
 4971352,-0.9892583218\H,0,-9.740488328,7.5995852438,-0.7789776019\H,0,
 -12.4708916366,3.8218026788,-0.3917115698\H,0,-11.8483537577,3.6496199
 267,-1.9887760951\H,0,-13.3797253725,2.4748431025,-1.1997130182\H,0,-1
 2.659100736,-1.0594660729,-1.0685914329\H,0,-13.6915198943,0.371836845
 1,-0.9931929966\H,0,-12.9283973547,0.7371907342,-3.4860774511\H,0,-12.
 0386500727,-0.7482042168,-3.4737081675\H,0,-13.8496930425,-0.802717629
 9,-3.1461084695\H,0,-10.1845860054,-4.6505271446,-0.5147772816\H,0,-9.
 4463365439,-4.5706540789,-2.2219127119\H,0,-8.335055211,-5.3822290028,
 -0.8690615597\H,0,-3.6478505124,-3.1499623475,-0.3486279226\H,0,-2.288
 7157396,-6.6701136151,2.2353092349\H,0,-1.5875653282,-5.0540751465,3.1
 171061609\H,0,-3.2150025557,-5.7441314131,3.4485763778\H,0,2.657957587
 6,-2.3033470758,-1.5837855119\H,0,2.6564374866,-0.4386353015,-2.230340
 6534\H,0,4.3827697129,-1.4941874892,0.3880278472\H,0,5.4852537899,1.84
 95726551,-2.2076733547\H,0,5.2116481286,0.2968956448,-3.1148545526\H,0
 ,3.7795044356,1.2390567116,-2.65623098\H,0,6.3567857757,1.0910522491,-
 0.1641716176\H,0,6.0830161274,-0.4645620415,0.7160913032\H,0,7.5346041
 135,-1.7267467201,-1.1078856347\H,0,7.495049256,0.0922847331,-1.873366
 1943\H,0,8.8346379054,0.8135892104,-0.0061093524\H,0,8.8318459145,-0.7
 162887159,0.7528481377\H,0,10.3290497703,-0.233093111,-1.9367443973\H,
 0,9.3994371313,-2.6984685097,-1.9674259681\H,0,11.0548523462,-2.374519
 1283,-1.7742331689\H,0,10.0728857304,-2.8759294704,-0.2897524967\H,0,1
 1.1223864287,0.7715347773,0.4145549181\H,0,11.1405616256,-0.6984683323
 ,0.9536758893\H,0,13.0071772257,-1.465990478,-0.7542188647\H,0,12.8233
 426509,0.1142441515,-1.5241257311\H,0,13.7135723927,0.9799183876,0.591
 9543695\H,0,13.7566805036,-0.7132542794,1.1644460208\H,0,15.2163031277
 ,0.4930525051,-1.3473813879\H,0,14.9265280478,-2.2291912029,-1.1102750
 48\H,0,16.8176084971,-1.3115769972,-1.124103803\H,0,15.812583976,-2.25
 29449131,0.1834910504\H,0,16.0564228339,1.6624493336,0.7685807017\H,0,
 16.3041267354,0.2972735365,1.5786998668\H,0,18.2205181291,-0.326801158
 7,0.1049458099\H,0,17.6260753329,0.8508080439,-1.1794552501\H,0,18.162
 5779637,2.6353322609,0.5244989449\H,0,18.6280458188,1.5036291997,1.843
 1455702\H,0,20.3709353233,0.8003407678,0.358288766\H,0,19.7242851257,3
 .3073928714,-1.3227172459\H,0,21.291137631,2.1968852923,-1.7469500184\
 H,0,19.642472483,1.7025802946,-1.9557407553\H,0,20.7225272658,2.307860
 3363,2.5156954973\H,0,21.9496788096,2.4327113877,1.1617480746\H,0,20.4
 898266454,3.4788775583,1.0882314275\H,0,-7.1572195045,1.8064649185,0.5
 246457214\H,0,-7.5049618628,-0.1601708927,-0.0199553157\\Version=ES64L
 -G16RevA.03\State=1-A\HF=-2732.9469344\RMSD=3.908e-09\PG=C01 [X(C55H74
 N4O5)]\\@


 NOT WHAT WE DID SHALL BE THE TEST
 WHEN ACT AND WILL ARE DONE,
 BUT WHAT OUR LORD INFERS WE WOULD-
 HAD WE DIVINER BEEN.
           EMILY DICKINSON  POEMS NO. CLXXV
 Job cpu time:       1 days 14 hours 50 minutes 32.9 seconds.
 Elapsed time:       0 days  9 hours 46 minutes 54.9 seconds.
 File lengths (MBytes):  RWF=   6378 Int=      0 D2E=      0 Chk=    163 Scr=      1
 Normal termination of Gaussian 16 at Tue Aug 20 21:05:54 2019.
