 Entering Gaussian System, Link 0=g16
 Input=Geometria-119-.com
 Output=Geometria-119-.log
 Initial command:
 /usr/local/g16/l1.exe "/home/padawan/israel-mol/pheophytin/spectra/emi/Gau-37092.inp" -scrdir="/home/padawan/israel-mol/pheophytin/spectra/emi/"
 Entering Link 1 = /usr/local/g16/l1.exe PID=     37094.
  
 Copyright (c) 1988,1990,1992,1993,1995,1998,2003,2009,2016,
            Gaussian, Inc.  All Rights Reserved.
  
 This is part of the Gaussian(R) 16 program.  It is based on
 the Gaussian(R) 09 system (copyright 2009, Gaussian, Inc.),
 the Gaussian(R) 03 system (copyright 2003, Gaussian, Inc.),
 the Gaussian(R) 98 system (copyright 1998, Gaussian, Inc.),
 the Gaussian(R) 94 system (copyright 1995, Gaussian, Inc.),
 the Gaussian 92(TM) system (copyright 1992, Gaussian, Inc.),
 the Gaussian 90(TM) system (copyright 1990, Gaussian, Inc.),
 the Gaussian 88(TM) system (copyright 1988, Gaussian, Inc.),
 the Gaussian 86(TM) system (copyright 1986, Carnegie Mellon
 University), and the Gaussian 82(TM) system (copyright 1983,
 Carnegie Mellon University). Gaussian is a federally registered
 trademark of Gaussian, Inc.
  
 This software contains proprietary and confidential information,
 including trade secrets, belonging to Gaussian, Inc.
  
 This software is provided under written license and may be
 used, copied, transmitted, or stored only in accord with that
 written license.
  
 The following legend is applicable only to US Government
 contracts under FAR:
  
                    RESTRICTED RIGHTS LEGEND
  
 Use, reproduction and disclosure by the US Government is
 subject to restrictions as set forth in subparagraphs (a)
 and (c) of the Commercial Computer Software - Restricted
 Rights clause in FAR 52.227-19.
  
 Gaussian, Inc.
 340 Quinnipiac St., Bldg. 40, Wallingford CT 06492
  
  
 ---------------------------------------------------------------
 Warning -- This program may not be used in any manner that
 competes with the business of Gaussian, Inc. or will provide
 assistance to any competitor of Gaussian, Inc.  The licensee
 of this program is prohibited from giving any competitor of
 Gaussian, Inc. access to this program.  By using this program,
 the user acknowledges that Gaussian, Inc. is engaged in the
 business of creating and licensing software in the field of
 computational chemistry and represents and warrants to the
 licensee that it is not a competitor of Gaussian, Inc. and that
 it will not use this program in any manner prohibited above.
 ---------------------------------------------------------------
  

 Cite this work as:
 Gaussian 16, Revision A.03,
 M. J. Frisch, G. W. Trucks, H. B. Schlegel, G. E. Scuseria, 
 M. A. Robb, J. R. Cheeseman, G. Scalmani, V. Barone, 
 G. A. Petersson, H. Nakatsuji, X. Li, M. Caricato, A. V. Marenich, 
 J. Bloino, B. G. Janesko, R. Gomperts, B. Mennucci, H. P. Hratchian, 
 J. V. Ortiz, A. F. Izmaylov, J. L. Sonnenberg, D. Williams-Young, 
 F. Ding, F. Lipparini, F. Egidi, J. Goings, B. Peng, A. Petrone, 
 T. Henderson, D. Ranasinghe, V. G. Zakrzewski, J. Gao, N. Rega, 
 G. Zheng, W. Liang, M. Hada, M. Ehara, K. Toyota, R. Fukuda, 
 J. Hasegawa, M. Ishida, T. Nakajima, Y. Honda, O. Kitao, H. Nakai, 
 T. Vreven, K. Throssell, J. A. Montgomery, Jr., J. E. Peralta, 
 F. Ogliaro, M. J. Bearpark, J. J. Heyd, E. N. Brothers, K. N. Kudin, 
 V. N. Staroverov, T. A. Keith, R. Kobayashi, J. Normand, 
 K. Raghavachari, A. P. Rendell, J. C. Burant, S. S. Iyengar, 
 J. Tomasi, M. Cossi, J. M. Millam, M. Klene, C. Adamo, R. Cammi, 
 J. W. Ochterski, R. L. Martin, K. Morokuma, O. Farkas, 
 J. B. Foresman, and D. J. Fox, Gaussian, Inc., Wallingford CT, 2016.
 
 ******************************************
 Gaussian 16:  ES64L-G16RevA.03 25-Dec-2016
                14-Aug-2019 
 ******************************************
 %nproc=4
 Will use up to    4 processors via shared memory.
 %Mem=2GB
 --------------------------
 # td=(NStates=1) B3LYP/SVP
 --------------------------
 1/38=1,172=1/1;
 2/12=2,17=6,18=5,40=1/2;
 3/5=18,7=101,11=9,25=1,30=1,74=-5/1,2,3,8;
 4//1;
 5/5=2,38=5/2;
 8/6=1,10=1,108=1/1;
 9/41=1,42=1,70=2/14;
 6/7=2,8=2,9=2,10=2/1;
 99/5=1,9=1/99;
 --
 TD
 --
 Symbolic Z-matrix:
 Charge =  0 Multiplicity = 1
 6                    -5.12107  -1.83211   0.50441 
 6                    -4.88213   2.87419   1.35078 
 6                    -9.48127   3.23023  -0.3004 
 6                    -9.74016  -1.67412  -1.04054 
 7                    -5.25143   0.5583    0.86508 
 6                    -4.55311  -0.69483   0.96451 
 6                    -3.06751  -0.42054   1.44948 
 6                    -3.09321   1.00677   1.93719 
 6                    -4.44579   1.57301   1.34146 
 6                    -3.20005   1.11733   3.46978 
 6                    -2.12599  -0.58957   0.25018 
 6                    -0.59208  -0.50673   0.74317 
 6                     0.35396  -0.64259  -0.37322 
 8                     0.04562  -1.12731  -1.3885 
 8                     1.69577  -0.4809   -0.01872 
 7                    -7.2186    2.8207    0.53262 
 6                    -6.04742   3.49603   0.84058 
 6                    -6.4315    4.81582   1.03601 
 6                    -7.65533   5.01257   0.48452 
 6                    -8.22266   3.61687   0.17761 
 6                    -5.49104   5.96738   1.4991 
 6                    -8.46169   6.2593    0.28912 
 6                    -9.25318   6.42298  -0.79787 
 7                    -9.2671    0.76896  -0.41255 
 6                    -9.89801   1.92296  -0.55199 
 6                    -11.41182   1.71894  -0.9304 
 6                    -11.40536   0.33849  -1.13945 
 6                    -10.05485  -0.23758  -0.88783 
 6                    -12.35902   2.72767  -1.17945 
 6                    -12.64222  -0.43992  -1.69222 
 6                    -12.48435  -0.83767  -3.20357 
 7                    -7.49706  -1.30421  -0.13642 
 6                    -8.56862  -2.10461  -0.70053 
 6                    -8.07159  -3.4912   -0.66555 
 6                    -6.73116  -3.43377  -0.19852 
 6                    -6.41937  -2.06523   0.09418 
 6                    -8.78359  -4.69357  -1.05483 
 6                    -5.65025  -4.23223  -0.0794 
 8                    -5.34295  -5.4551   -0.17218 
 6                    -4.48902  -3.22296   0.41027 
 6                    -3.68085  -3.73539   1.65487 
 8                    -4.24548  -3.5631    2.81572 
 8                    -2.83511  -4.70513   1.34934 
 6                    -2.2537   -5.39568   2.47916 
 6                     2.64457  -0.7645   -1.04192 
 6                     4.07569  -0.43511  -0.42372 
 6                     5.01279   0.3234   -0.89884 
 6                     4.88465   1.04809  -2.24755 
 6                     6.28759   0.36927  -0.17833 
 6                     7.57692  -0.1383   -0.93009 
 6                     8.88261  -0.08047  -0.05539 
 6                     10.0678  -0.52637  -0.87565 
 6                     9.98804  -1.89585  -1.49358 
 6                     11.32236  -0.42953   0.05802 
 6                     12.68982  -0.50009  -0.74365 
 6                     13.87656  -0.17456   0.17126 
 6                     15.2308  -0.34937  -0.58144 
 6                     15.37111  -1.87891  -0.95471 
 6                     16.38406   0.28243   0.3044 
 6                     17.80704   0.31166  -0.10286 
 6                     18.66603   1.18332   0.70331 
 6                     20.17367   1.16874   0.19949 
 6                     20.26529   2.00129  -1.12135 
 6                     21.03221   1.93729   1.18964 
 1                    -4.14373   3.43223   2.09806 
 1                    -10.06035   3.97335  -0.81233 
 1                    -10.4127  -2.34326  -1.42611 
 1                    -2.83981  -1.23378   2.28285 
 1                    -2.21098   1.67351   1.63271 
 1                    -2.36345   0.41332   3.78497 
 1                    -3.18833   2.13876   3.91783 
 1                    -4.05583   0.69509   4.03991 
 1                    -2.34889  -1.68505  -0.08109 
 1                    -2.28857   0.10905  -0.45607 
 1                    -0.50222   0.49104   1.13546 
 1                    -0.67396  -1.20559   1.68105 
 1                    -4.55099   5.70862   0.9479 
 1                    -5.91063   6.99407   1.29269 
 1                    -5.3869    5.82217   2.62387 
 1                    -8.22814   7.15349   0.90727 
 1                    -9.29914   5.56418  -1.55025 
 1                    -9.99772   7.42437  -0.72686 
 1                    -12.53846   3.39313  -0.22765 
 1                    -12.27017   3.10239  -2.25036 
 1                    -13.31088   2.12292  -1.35952 
 1                    -12.8008  -1.33106  -0.80987 
 1                    -13.62016   0.02977  -1.58552 
 1                    -12.40103   0.14954  -3.84465 
 1                    -11.56947  -1.44769  -3.18068 
 1                    -13.41551  -1.37021  -3.38266 
 1                    -9.9266   -4.53952  -0.46283 
 1                    -8.90424  -4.69589  -2.22509 
 1                    -8.45708  -5.78975  -0.77603 
 1                    -3.64832  -3.26688  -0.48305 
 1                    -1.7469   -6.11366   1.98593 
 1                    -1.85819  -4.71297   3.29933 
 1                    -2.88821  -5.89042   3.16428 
 1                     2.51312  -1.87162  -1.08356 
 1                     2.40894  -0.19146  -1.98841 
 1                     3.88848  -1.10562   0.57216 
 1                     5.25134   2.19323  -2.14593 
 1                     5.68881   0.74532  -2.96384 
 1                     3.92743   1.18287  -2.61573 
 1                     6.36158   1.43723  -0.05982 
 1                     6.06183  -0.05928   0.83259 
 1                     7.29376  -1.07224  -1.15284 
 1                     7.60573   0.39747  -1.94783 
 1                     8.847     0.88159   0.36929 
 1                     8.58656  -0.7479    0.84818 
 1                     10.10929   0.28099  -1.76137 
 1                     9.14355  -1.94276  -2.27359 
 1                     10.98002  -2.11073  -1.92704 
 1                     9.69881  -2.77944  -0.73387 
 1                     11.26233   0.51136   0.78738 
 1                     11.48648  -1.35097   0.70733 
 1                     12.76624  -1.27366  -1.27026 
 1                     12.59838   0.49281  -1.47161 
 1                     13.7021   0.9059    0.57236 
 1                     13.99723  -0.97204   1.07564 
 1                     15.15642   0.3016   -1.62784 
 1                     14.59647  -2.21435  -1.67323 
 1                     16.42032  -2.2496   -1.43003 
 1                     15.34868  -2.3963   -0.0859 
 1                     16.10893   1.26952   0.60063 
 1                     16.20555  -0.28714   1.25185 
 1                     18.12115  -0.76431  -0.17462 
 1                     17.803    0.55247  -1.0728 
 1                     18.41823   2.17146   0.86988 
 1                     18.62895   0.86782   1.68944 
 1                     20.47757   0.09149   0.33416 
 1                     20.08106   3.03968  -1.05122 
 1                     21.23116   2.08003  -1.76477 
 1                     19.62502   1.6177   -1.80783 
 1                     20.80808   1.64521   2.20671 
 1                     21.99187   1.72596   0.91143 
 1                     20.75956   3.08997   1.26413 
 1                    -7.18607   1.68113   0.45883 
 1                    -7.28074  -0.2106   -0.20488 
 
 Stoichiometry    C55H74N4O5
 Framework group  C1[X(C55H74N4O5)]
 Deg. of freedom   408
 Full point group                 C1      NOp   1
 Largest Abelian subgroup         C1      NOp   1
 Largest concise Abelian subgroup C1      NOp   1
                         Standard orientation:                         
 ---------------------------------------------------------------------
 Center     Atomic      Atomic             Coordinates (Angstroms)
 Number     Number       Type             X           Y           Z
 ---------------------------------------------------------------------
      1          6           0       -5.105659   -1.854822    0.526005
      2          6           0       -4.898875    2.863101    1.314134
      3          6           0       -9.499716    3.167537   -0.342607
      4          6           0       -9.725146   -1.747235   -1.022061
      5          7           0       -5.252318    0.538936    0.857033
      6          6           0       -4.545572   -0.708112    0.972156
      7          6           0       -3.062032   -0.417794    1.454101
      8          6           0       -3.097571    1.015233    1.924103
      9          6           0       -4.453732    1.564896    1.321033
     10          6           0       -3.205703    1.144027    3.455176
     11          6           0       -2.118957   -0.595274    0.257250
     12          6           0       -0.585820   -0.495952    0.749602
     13          6           0        0.361518   -0.639209   -0.364764
     14          8           0        0.056835   -1.138533   -1.374051
     15          8           0        1.702080   -0.464067   -0.011914
     16          7           0       -7.234625    2.783673    0.496053
     17          6           0       -6.068157    3.470675    0.795951
     18          6           0       -6.461234    4.790155    0.974923
     19          6           0       -7.686163    4.971778    0.420709
     20          6           0       -8.243924    3.568576    0.130934
     21          6           0       -5.528749    5.953699    1.423987
     22          6           0       -8.500874    6.210500    0.209672
     23          6           0       -9.293061    6.355360   -0.879483
     24          7           0       -9.268859    0.706570   -0.424221
     25          6           0       -9.907514    1.854459   -0.578113
     26          6           0      -11.419768    1.635527   -0.954382
     27          6           0      -11.403890    0.252674   -1.146336
     28          6           0      -10.049610   -0.311080   -0.887230
     29          6           0      -12.373685    2.634662   -1.216165
     30          6           0      -12.635264   -0.540874   -1.689771
     31          6           0      -12.474159   -0.956212   -3.196035
     32          7           0       -7.484933   -1.350993   -0.121966
     33          6           0       -8.550849   -2.165541   -0.676421
     34          6           0       -8.044459   -3.548201   -0.624149
     35          6           0       -6.704611   -3.475918   -0.157496
     36          6           0       -6.402199   -2.101781    0.118335
     37          6           0       -8.748167   -4.760088   -0.998714
     38          6           0       -5.618372   -4.265506   -0.028197
     39          8           0       -5.302766   -5.487325   -0.105755
     40          6           0       -4.464178   -3.242416    0.449258
     41          6           0       -3.653004   -3.733920    1.700329
     42          8           0       -4.219203   -3.551106    2.858806
     43          8           0       -2.800607   -4.701622    1.407062
     44          6           0       -2.214948   -5.374186    2.545507
     45          6           0        2.653146   -0.753867   -1.031265
     46          6           0        4.081778   -0.407173   -0.416793
     47          6           0        5.013898    0.351726   -0.901000
     48          6           0        4.881339    1.058785   -2.258613
     49          6           0        6.288097    0.415136   -0.180764
     50          6           0        7.581102   -0.092958   -0.925829
     51          6           0        8.886055   -0.015471   -0.051550
     52          6           0       10.074528   -0.463446   -0.865898
     53          6           0       10.004264   -1.840983   -1.466859
     54          6           0       11.328072   -0.346573    0.066852
     55          6           0       12.696261   -0.417784   -0.733511
     56          6           0       13.880448   -0.072932    0.177635
     57          6           0       15.236112   -0.247867   -0.572474
     58          6           0       15.386903   -1.780928   -0.926740
     59          6           0       16.384747    0.402637    0.305804
     60          6           0       17.807640    0.436456   -0.101401
     61          6           0       18.660420    1.323821    0.694162
     62          6           0       20.168307    1.313222    0.190982
     63          6           0       20.254768    2.129962   -1.140036
     64          6           0       21.021276    2.099755    1.171775
     65          1           0       -4.164536    3.435334    2.054655
     66          1           0      -10.083633    3.900325   -0.863850
     67          1           0      -10.393007   -2.425634   -1.399509
     68          1           0       -2.829137   -1.219101    2.297537
     69          1           0       -2.219761    1.684114    1.611643
     70          1           0       -2.364479    0.449650    3.779285
     71          1           0       -3.201062    2.170977    3.890557
     72          1           0       -4.058811    0.723090    4.030257
     73          1           0       -2.334326   -1.696252   -0.060506
     74          1           0       -2.286013    0.093439   -0.457643
     75          1           0       -0.502862    0.507184    1.129536
     76          1           0       -0.663311   -1.183692    1.696030
     77          1           0       -4.586772    5.694507    0.876294
     78          1           0       -5.955206    6.974896    1.204779
     79          1           0       -5.424037    5.823128    2.550504
     80          1           0       -8.273603    7.113838    0.816770
     81          1           0       -9.332930    5.487027   -1.621195
     82          1           0      -10.044387    7.352484   -0.821081
     83          1           0      -12.557965    3.310623   -0.272716
     84          1           0      -12.286982    2.996695   -2.291605
     85          1           0      -13.321364    2.021302   -1.388997
     86          1           0      -12.788129   -1.422081   -0.796497
     87          1           0      -13.616396   -0.076526   -1.589163
     88          1           0      -12.397291    0.023532   -3.849266
     89          1           0      -11.555181   -1.559700   -3.165345
     90          1           0      -13.401626   -1.497226   -3.368783
     91          1           0       -9.892405   -4.606461   -0.408986
     92          1           0       -8.868377   -4.777700   -2.168894
     93          1           0       -8.414343   -5.850496   -0.706282
     94          1           0       -3.622874   -3.291698   -0.443215
     95          1           0       -1.703126   -6.094764    2.061340
     96          1           0       -1.824366   -4.678718    3.357274
     97          1           0       -2.846344   -5.864691    3.236515
     98          1           0        2.529204   -1.862291   -1.059233
     99          1           0        2.413983   -0.194196   -1.984838
    100          1           0        3.898749   -1.066562    0.587253
    101          1           0        5.240236    2.207550   -2.171072
    102          1           0        5.687784    0.752628   -2.970881
    103          1           0        3.923362    1.182517   -2.628698
    104          1           0        6.354810    1.484955   -0.075462
    105          1           0        6.064879   -0.002392    0.835322
    106          1           0        7.304347   -1.031477   -1.137081
    107          1           0        7.606652    0.430358   -1.950117
    108          1           0        8.843780    0.951507    0.361180
    109          1           0        8.594202   -0.673657    0.860127
    110          1           0       10.110873    0.333151   -1.761529
    111          1           0        9.160391   -1.903256   -2.246456
    112          1           0       10.997834   -2.054487   -1.897346
    113          1           0        9.720741   -2.717038   -0.696345
    114          1           0       11.261411    0.602843    0.784493
    115          1           0       11.498182   -1.258777    0.727559
    116          1           0       12.778110   -1.197278   -1.250483
    117          1           0       12.598370    0.565391   -1.473727
    118          1           0       13.698533    1.011204    0.565283
    119          1           0       14.006186   -0.858325    1.091843
    120          1           0       15.157699    0.389588   -1.626868
    121          1           0       14.614800   -2.130468   -1.641274
    122          1           0       16.438763   -2.150358   -1.397154
    123          1           0       15.367654   -2.287665   -0.051600
    124          1           0       16.102834    1.391432    0.589719
    125          1           0       16.209749   -0.156366    1.260175
    126          1           0       18.129050   -0.638170   -0.159749
    127          1           0       17.802326    0.665215   -1.074247
    128          1           0       18.405886    2.312245    0.848426
    129          1           0       18.625119    1.020302    1.684112
    130          1           0       20.479439    0.239800    0.339052
    131          1           0       20.063494    3.167866   -1.082815
    132          1           0       21.220319    2.207276   -1.784117
    133          1           0       19.617359    1.733583   -1.821891
    134          1           0       20.798752    1.818778    2.192329
    135          1           0       21.982443    1.891504    0.896476
    136          1           0       20.740805    3.251397    1.231922
    137          1           0       -7.194366    1.643529    0.436377
    138          1           0       -7.275990   -0.256865   -0.203900
 ---------------------------------------------------------------------
 Rotational constants (GHZ):           0.0652198           0.0061305           0.0057752
 Standard basis: SVP (5D, 7F)
 There are  1330 symmetry adapted cartesian basis functions of A   symmetry.
 There are  1266 symmetry adapted basis functions of A   symmetry.
  1266 basis functions,  2118 primitive gaussians,  1330 cartesian basis functions
   236 alpha electrons      236 beta electrons
       nuclear repulsion energy      8292.4013699770 Hartrees.
 NAtoms=  138 NActive=  138 NUniq=  138 SFac= 1.00D+00 NAtFMM=   60 NAOKFM=T Big=T
 Integral buffers will be    131072 words long.
 Regular integral format.
 Two-electron integral symmetry is turned on.
 One-electron integrals computed using PRISM.
 NBasis=  1266 RedAO= T EigKep=  2.49D-04  NBF=  1266
 NBsUse=  1266 1.00D-06 EigRej= -1.00D+00 NBFU=  1266
 ExpMin= 1.22D-01 ExpMax= 2.27D+03 ExpMxC= 3.41D+02 IAcc=3 IRadAn=         5 AccDes= 0.00D+00
 Harris functional with IExCor=  402 and IRadAn=       5 diagonalized for initial guess.
 HarFok:  IExCor=  402 AccDes= 0.00D+00 IRadAn=         5 IDoV= 1 UseB2=F ITyADJ=14
 ICtDFT=  3500011 ScaDFX=  1.000000  1.000000  1.000000  1.000000
 FoFCou: FMM=F IPFlag=           0 FMFlag=      100000 FMFlg1=        2001
         NFxFlg=           0 DoJE=T BraDBF=F KetDBF=T FulRan=T
         wScrn=  0.000000 ICntrl=       500 IOpCl=  0 I1Cent=   200000004 NGrid=           0
         NMat0=    1 NMatS0=      1 NMatT0=    0 NMatD0=    1 NMtDS0=    0 NMtDT0=    0
 Petite list used in FoFCou.
 Requested convergence on RMS density matrix=1.00D-08 within 128 cycles.
 Requested convergence on MAX density matrix=1.00D-06.
 Requested convergence on             energy=1.00D-06.
 No special actions if energy rises.
 Integral accuracy reduced to 1.0D-05 until final iterations.
 Initial convergence to 1.0D-05 achieved.  Increase integral accuracy.
 SCF Done:  E(RB3LYP) =  -2733.00199574     A.U. after   17 cycles
            NFock= 17  Conv=0.48D-08     -V/T= 2.0118
 DoSCS=F DFT=T ScalE2(SS,OS)=  1.000000  1.000000
 ExpMin= 1.22D-01 ExpMax= 2.27D+03 ExpMxC= 3.41D+02 IAcc=3 IRadAn=         5 AccDes= 0.00D+00
 HarFok:  IExCor=  205 AccDes= 0.00D+00 IRadAn=         5 IDoV=-2 UseB2=F ITyADJ=14
 ICtDFT= 12500011 ScaDFX=  1.000000  1.000000  1.000000  1.000000
 GSVD:  LWork=       -4608 too small for GESVD, short by       21440 words or       21440 for optimal perf.
 Range of M.O.s used for correlation:    65  1266
 NBasis=  1266 NAE=   236 NBE=   236 NFC=    64 NFV=     0
 NROrb=   1202 NOA=   172 NOB=   172 NVA=  1030 NVB=  1030

 **** Warning!!: The smallest alpha delta epsilon is  0.79804969D-01

 Orbital symmetries:
       Occupied  (A) (A) (A) (A) (A) (A) (A) (A) (A) (A) (A) (A)
                 (A) (A) (A) (A) (A) (A) (A) (A) (A) (A) (A) (A)
                 (A) (A) (A) (A) (A) (A) (A) (A) (A) (A) (A) (A)
                 (A) (A) (A) (A) (A) (A) (A) (A) (A) (A) (A) (A)
                 (A) (A) (A) (A) (A) (A) (A) (A) (A) (A) (A) (A)
                 (A) (A) (A) (A) (A) (A) (A) (A) (A) (A) (A) (A)
                 (A) (A) (A) (A) (A) (A) (A) (A) (A) (A) (A) (A)
                 (A) (A) (A) (A) (A) (A) (A) (A) (A) (A) (A) (A)
                 (A) (A) (A) (A) (A) (A) (A) (A) (A) (A) (A) (A)
                 (A) (A) (A) (A) (A) (A) (A) (A) (A) (A) (A) (A)
                 (A) (A) (A) (A) (A) (A) (A) (A) (A) (A) (A) (A)
                 (A) (A) (A) (A) (A) (A) (A) (A) (A) (A) (A) (A)
                 (A) (A) (A) (A) (A) (A) (A) (A) (A) (A) (A) (A)
                 (A) (A) (A) (A) (A) (A) (A) (A) (A) (A) (A) (A)
                 (A) (A) (A) (A) (A) (A) (A) (A) (A) (A) (A) (A)
                 (A) (A) (A) (A) (A) (A) (A) (A) (A) (A) (A) (A)
                 (A) (A) (A) (A) (A) (A) (A) (A) (A) (A) (A) (A)
                 (A) (A) (A) (A) (A) (A) (A) (A) (A) (A) (A) (A)
                 (A) (A) (A) (A) (A) (A) (A) (A) (A) (A) (A) (A)
                 (A) (A) (A) (A) (A) (A) (A) (A)
       Virtual   (A) (A) (A) (A) (A) (A) (A) (A) (A) (A) (A) (A)
                 (A) (A) (A) (A) (A) (A) (A) (A) (A) (A) (A) (A)
                 (A) (A) (A) (A) (A) (A) (A) (A) (A) (A) (A) (A)
                 (A) (A) (A) (A) (A) (A) (A) (A) (A) (A) (A) (A)
                 (A) (A) (A) (A) (A) (A) (A) (A) (A) (A) (A) (A)
                 (A) (A) (A) (A) (A) (A) (A) (A) (A) (A) (A) (A)
                 (A) (A) (A) (A) (A) (A) (A) (A) (A) (A) (A) (A)
                 (A) (A) (A) (A) (A) (A) (A) (A) (A) (A) (A) (A)
                 (A) (A) (A) (A) (A) (A) (A) (A) (A) (A) (A) (A)
                 (A) (A) (A) (A) (A) (A) (A) (A) (A) (A) (A) (A)
                 (A) (A) (A) (A) (A) (A) (A) (A) (A) (A) (A) (A)
                 (A) (A) (A) (A) (A) (A) (A) (A) (A) (A) (A) (A)
                 (A) (A) (A) (A) (A) (A) (A) (A) (A) (A) (A) (A)
                 (A) (A) (A) (A) (A) (A) (A) (A) (A) (A) (A) (A)
                 (A) (A) (A) (A) (A) (A) (A) (A) (A) (A) (A) (A)
                 (A) (A) (A) (A) (A) (A) (A) (A) (A) (A) (A) (A)
                 (A) (A) (A) (A) (A) (A) (A) (A) (A) (A) (A) (A)
                 (A) (A) (A) (A) (A) (A) (A) (A) (A) (A) (A) (A)
                 (A) (A) (A) (A) (A) (A) (A) (A) (A) (A) (A) (A)
                 (A) (A) (A) (A) (A) (A) (A) (A) (A) (A) (A) (A)
                 (A) (A) (A) (A) (A) (A) (A) (A) (A) (A) (A) (A)
                 (A) (A) (A) (A) (A) (A) (A) (A) (A) (A) (A) (A)
                 (A) (A) (A) (A) (A) (A) (A) (A) (A) (A) (A) (A)
                 (A) (A) (A) (A) (A) (A) (A) (A) (A) (A) (A) (A)
                 (A) (A) (A) (A) (A) (A) (A) (A) (A) (A) (A) (A)
                 (A) (A) (A) (A) (A) (A) (A) (A) (A) (A) (A) (A)
                 (A) (A) (A) (A) (A) (A) (A) (A) (A) (A) (A) (A)
                 (A) (A) (A) (A) (A) (A) (A) (A) (A) (A) (A) (A)
                 (A) (A) (A) (A) (A) (A) (A) (A) (A) (A) (A) (A)
                 (A) (A) (A) (A) (A) (A) (A) (A) (A) (A) (A) (A)
                 (A) (A) (A) (A) (A) (A) (A) (A) (A) (A) (A) (A)
                 (A) (A) (A) (A) (A) (A) (A) (A) (A) (A) (A) (A)
                 (A) (A) (A) (A) (A) (A) (A) (A) (A) (A) (A) (A)
                 (A) (A) (A) (A) (A) (A) (A) (A) (A) (A) (A) (A)
                 (A) (A) (A) (A) (A) (A) (A) (A) (A) (A) (A) (A)
                 (A) (A) (A) (A) (A) (A) (A) (A) (A) (A) (A) (A)
                 (A) (A) (A) (A) (A) (A) (A) (A) (A) (A) (A) (A)
                 (A) (A) (A) (A) (A) (A) (A) (A) (A) (A) (A) (A)
                 (A) (A) (A) (A) (A) (A) (A) (A) (A) (A) (A) (A)
                 (A) (A) (A) (A) (A) (A) (A) (A) (A) (A) (A) (A)
                 (A) (A) (A) (A) (A) (A) (A) (A) (A) (A) (A) (A)
                 (A) (A) (A) (A) (A) (A) (A) (A) (A) (A) (A) (A)
                 (A) (A) (A) (A) (A) (A) (A) (A) (A) (A) (A) (A)
                 (A) (A) (A) (A) (A) (A) (A) (A) (A) (A) (A) (A)
                 (A) (A) (A) (A) (A) (A) (A) (A) (A) (A) (A) (A)
                 (A) (A) (A) (A) (A) (A) (A) (A) (A) (A) (A) (A)
                 (A) (A) (A) (A) (A) (A) (A) (A) (A) (A) (A) (A)
                 (A) (A) (A) (A) (A) (A) (A) (A) (A) (A) (A) (A)
                 (A) (A) (A) (A) (A) (A) (A) (A) (A) (A) (A) (A)
                 (A) (A) (A) (A) (A) (A) (A) (A) (A) (A) (A) (A)
                 (A) (A) (A) (A) (A) (A) (A) (A) (A) (A) (A) (A)
                 (A) (A) (A) (A) (A) (A) (A) (A) (A) (A) (A) (A)
                 (A) (A) (A) (A) (A) (A) (A) (A) (A) (A) (A) (A)
                 (A) (A) (A) (A) (A) (A) (A) (A) (A) (A) (A) (A)
                 (A) (A) (A) (A) (A) (A) (A) (A) (A) (A) (A) (A)
                 (A) (A) (A) (A) (A) (A) (A) (A) (A) (A) (A) (A)
                 (A) (A) (A) (A) (A) (A) (A) (A) (A) (A) (A) (A)
                 (A) (A) (A) (A) (A) (A) (A) (A) (A) (A) (A) (A)
                 (A) (A) (A) (A) (A) (A) (A) (A) (A) (A) (A) (A)
                 (A) (A) (A) (A) (A) (A) (A) (A) (A) (A) (A) (A)
                 (A) (A) (A) (A) (A) (A) (A) (A) (A) (A) (A) (A)
                 (A) (A) (A) (A) (A) (A) (A) (A) (A) (A) (A) (A)
                 (A) (A) (A) (A) (A) (A) (A) (A) (A) (A) (A) (A)
                 (A) (A) (A) (A) (A) (A) (A) (A) (A) (A) (A) (A)
                 (A) (A) (A) (A) (A) (A) (A) (A) (A) (A) (A) (A)
                 (A) (A) (A) (A) (A) (A) (A) (A) (A) (A) (A) (A)
                 (A) (A) (A) (A) (A) (A) (A) (A) (A) (A) (A) (A)
                 (A) (A) (A) (A) (A) (A) (A) (A) (A) (A) (A) (A)
                 (A) (A) (A) (A) (A) (A) (A) (A) (A) (A) (A) (A)
                 (A) (A) (A) (A) (A) (A) (A) (A) (A) (A) (A) (A)
                 (A) (A) (A) (A) (A) (A) (A) (A) (A) (A) (A) (A)
                 (A) (A) (A) (A) (A) (A) (A) (A) (A) (A) (A) (A)
                 (A) (A) (A) (A) (A) (A) (A) (A) (A) (A) (A) (A)
                 (A) (A) (A) (A) (A) (A) (A) (A) (A) (A) (A) (A)
                 (A) (A) (A) (A) (A) (A) (A) (A) (A) (A) (A) (A)
                 (A) (A) (A) (A) (A) (A) (A) (A) (A) (A) (A) (A)
                 (A) (A) (A) (A) (A) (A) (A) (A) (A) (A) (A) (A)
                 (A) (A) (A) (A) (A) (A) (A) (A) (A) (A) (A) (A)
                 (A) (A) (A) (A) (A) (A) (A) (A) (A) (A) (A) (A)
                 (A) (A) (A) (A) (A) (A) (A) (A) (A) (A) (A) (A)
                 (A) (A) (A) (A) (A) (A) (A) (A) (A) (A) (A) (A)
                 (A) (A) (A) (A) (A) (A) (A) (A) (A) (A) (A) (A)
                 (A) (A) (A) (A) (A) (A) (A) (A) (A) (A) (A) (A)
                 (A) (A) (A) (A) (A) (A) (A) (A) (A) (A) (A) (A)
                 (A) (A) (A) (A) (A) (A) (A) (A) (A) (A) (A) (A)
                 (A) (A) (A) (A) (A) (A) (A) (A) (A) (A)
     4 initial guesses have been made.
 Convergence on wavefunction:    0.001000000000000
 Iteration     1 Dimension     4 NMult     0 NNew      4
 CISAX will form     4 AO SS matrices at one time.
 New state      1 was old state      2
 Iteration     2 Dimension     6 NMult     4 NNew      2
 Iteration     3 Dimension     8 NMult     6 NNew      2
 Iteration     4 Dimension    10 NMult     8 NNew      2
 Iteration     5 Dimension    12 NMult    10 NNew      2
 Iteration     6 Dimension    14 NMult    12 NNew      2
 Iteration     7 Dimension    16 NMult    14 NNew      2
 Iteration     8 Dimension    18 NMult    16 NNew      2
 ***********************************************************************
 Excited states from <AA,BB:AA,BB> singles matrix:
 ***********************************************************************
 
 Ground to excited state transition densities written to RWF  633
 Ground to excited state transition electric dipole moments (Au):
       state          X           Y           Z        Dip. S.      Osc.
         1        -0.3830     -1.9513     -0.3195      4.0563      0.1933
 Ground to excited state transition velocity dipole moments (Au):
       state          X           Y           Z        Dip. S.      Osc.
         1         0.0266      0.1355      0.0222      0.0196      0.1825
 Ground to excited state transition magnetic dipole moments (Au):
       state          X           Y           Z
         1         0.2216      0.4152     -2.7680
 Ground to excited state transition velocity quadrupole moments (Au):
       state          XX          YY          ZZ          XY          XZ          YZ
         1        -0.7148      0.1681      0.0312     -1.8398     -0.2713      0.0073
 <0|del|b> * <b|rxdel|0> + <0|del|b> * <b|delr+rdel|0>
 Rotatory Strengths (R) in cgs (10**-40 erg-esu-cm/Gauss)
       state          XX          YY          ZZ    R(velocity)    E-M Angle
         1       -46.4986    -71.9618    124.6087      2.0494       89.91
 1/2[<0|r|b>*<b|rxdel|0> + (<0|rxdel|b>*<b|r|0>)*]
 Rotatory Strengths (R) in cgs (10**-40 erg-esu-cm/Gauss)
       state          XX          YY          ZZ     R(length)
         1        60.0270    572.9408   -625.3442      2.5412
  1/2[<0|del|b>*<b|r|0> + (<0|r|b>*<b|del|0>)*] (Au)
       state          X           Y           Z        Dip. S.   Osc.(frdel)
         1        -0.0102     -0.2644     -0.0071      0.2817      0.1878

 Excitation energies and oscillator strengths:
 
 Excited State   1:      Singlet-A      1.9454 eV  637.31 nm  f=0.1933  <S**2>=0.000
     235 -> 238       -0.25851
     236 -> 237        0.64064
     236 -> 238       -0.10758
 This state for optimization and/or second-order correction.
 Total Energy, E(TD-HF/TD-DFT) =  -2732.93050215    
 Copying the excited state density for this state as the 1-particle RhoCI density.
 SavETr:  write IOETrn=   770 NScale= 10 NData=  16 NLR=1 NState=    1 LETran=      28.
 Hyperfine terms turned off by default for NAtoms > 100.

 **********************************************************************

            Population analysis using the SCF density.

 **********************************************************************

 Orbital symmetries:
       Occupied  (A) (A) (A) (A) (A) (A) (A) (A) (A) (A) (A) (A)
                 (A) (A) (A) (A) (A) (A) (A) (A) (A) (A) (A) (A)
                 (A) (A) (A) (A) (A) (A) (A) (A) (A) (A) (A) (A)
                 (A) (A) (A) (A) (A) (A) (A) (A) (A) (A) (A) (A)
                 (A) (A) (A) (A) (A) (A) (A) (A) (A) (A) (A) (A)
                 (A) (A) (A) (A) (A) (A) (A) (A) (A) (A) (A) (A)
                 (A) (A) (A) (A) (A) (A) (A) (A) (A) (A) (A) (A)
                 (A) (A) (A) (A) (A) (A) (A) (A) (A) (A) (A) (A)
                 (A) (A) (A) (A) (A) (A) (A) (A) (A) (A) (A) (A)
                 (A) (A) (A) (A) (A) (A) (A) (A) (A) (A) (A) (A)
                 (A) (A) (A) (A) (A) (A) (A) (A) (A) (A) (A) (A)
                 (A) (A) (A) (A) (A) (A) (A) (A) (A) (A) (A) (A)
                 (A) (A) (A) (A) (A) (A) (A) (A) (A) (A) (A) (A)
                 (A) (A) (A) (A) (A) (A) (A) (A) (A) (A) (A) (A)
                 (A) (A) (A) (A) (A) (A) (A) (A) (A) (A) (A) (A)
                 (A) (A) (A) (A) (A) (A) (A) (A) (A) (A) (A) (A)
                 (A) (A) (A) (A) (A) (A) (A) (A) (A) (A) (A) (A)
                 (A) (A) (A) (A) (A) (A) (A) (A) (A) (A) (A) (A)
                 (A) (A) (A) (A) (A) (A) (A) (A) (A) (A) (A) (A)
                 (A) (A) (A) (A) (A) (A) (A) (A)
       Virtual   (A) (A) (A) (A) (A) (A) (A) (A) (A) (A) (A) (A)
                 (A) (A) (A) (A) (A) (A) (A) (A) (A) (A) (A) (A)
                 (A) (A) (A) (A) (A) (A) (A) (A) (A) (A) (A) (A)
                 (A) (A) (A) (A) (A) (A) (A) (A) (A) (A) (A) (A)
                 (A) (A) (A) (A) (A) (A) (A) (A) (A) (A) (A) (A)
                 (A) (A) (A) (A) (A) (A) (A) (A) (A) (A) (A) (A)
                 (A) (A) (A) (A) (A) (A) (A) (A) (A) (A) (A) (A)
                 (A) (A) (A) (A) (A) (A) (A) (A) (A) (A) (A) (A)
                 (A) (A) (A) (A) (A) (A) (A) (A) (A) (A) (A) (A)
                 (A) (A) (A) (A) (A) (A) (A) (A) (A) (A) (A) (A)
                 (A) (A) (A) (A) (A) (A) (A) (A) (A) (A) (A) (A)
                 (A) (A) (A) (A) (A) (A) (A) (A) (A) (A) (A) (A)
                 (A) (A) (A) (A) (A) (A) (A) (A) (A) (A) (A) (A)
                 (A) (A) (A) (A) (A) (A) (A) (A) (A) (A) (A) (A)
                 (A) (A) (A) (A) (A) (A) (A) (A) (A) (A) (A) (A)
                 (A) (A) (A) (A) (A) (A) (A) (A) (A) (A) (A) (A)
                 (A) (A) (A) (A) (A) (A) (A) (A) (A) (A) (A) (A)
                 (A) (A) (A) (A) (A) (A) (A) (A) (A) (A) (A) (A)
                 (A) (A) (A) (A) (A) (A) (A) (A) (A) (A) (A) (A)
                 (A) (A) (A) (A) (A) (A) (A) (A) (A) (A) (A) (A)
                 (A) (A) (A) (A) (A) (A) (A) (A) (A) (A) (A) (A)
                 (A) (A) (A) (A) (A) (A) (A) (A) (A) (A) (A) (A)
                 (A) (A) (A) (A) (A) (A) (A) (A) (A) (A) (A) (A)
                 (A) (A) (A) (A) (A) (A) (A) (A) (A) (A) (A) (A)
                 (A) (A) (A) (A) (A) (A) (A) (A) (A) (A) (A) (A)
                 (A) (A) (A) (A) (A) (A) (A) (A) (A) (A) (A) (A)
                 (A) (A) (A) (A) (A) (A) (A) (A) (A) (A) (A) (A)
                 (A) (A) (A) (A) (A) (A) (A) (A) (A) (A) (A) (A)
                 (A) (A) (A) (A) (A) (A) (A) (A) (A) (A) (A) (A)
                 (A) (A) (A) (A) (A) (A) (A) (A) (A) (A) (A) (A)
                 (A) (A) (A) (A) (A) (A) (A) (A) (A) (A) (A) (A)
                 (A) (A) (A) (A) (A) (A) (A) (A) (A) (A) (A) (A)
                 (A) (A) (A) (A) (A) (A) (A) (A) (A) (A) (A) (A)
                 (A) (A) (A) (A) (A) (A) (A) (A) (A) (A) (A) (A)
                 (A) (A) (A) (A) (A) (A) (A) (A) (A) (A) (A) (A)
                 (A) (A) (A) (A) (A) (A) (A) (A) (A) (A) (A) (A)
                 (A) (A) (A) (A) (A) (A) (A) (A) (A) (A) (A) (A)
                 (A) (A) (A) (A) (A) (A) (A) (A) (A) (A) (A) (A)
                 (A) (A) (A) (A) (A) (A) (A) (A) (A) (A) (A) (A)
                 (A) (A) (A) (A) (A) (A) (A) (A) (A) (A) (A) (A)
                 (A) (A) (A) (A) (A) (A) (A) (A) (A) (A) (A) (A)
                 (A) (A) (A) (A) (A) (A) (A) (A) (A) (A) (A) (A)
                 (A) (A) (A) (A) (A) (A) (A) (A) (A) (A) (A) (A)
                 (A) (A) (A) (A) (A) (A) (A) (A) (A) (A) (A) (A)
                 (A) (A) (A) (A) (A) (A) (A) (A) (A) (A) (A) (A)
                 (A) (A) (A) (A) (A) (A) (A) (A) (A) (A) (A) (A)
                 (A) (A) (A) (A) (A) (A) (A) (A) (A) (A) (A) (A)
                 (A) (A) (A) (A) (A) (A) (A) (A) (A) (A) (A) (A)
                 (A) (A) (A) (A) (A) (A) (A) (A) (A) (A) (A) (A)
                 (A) (A) (A) (A) (A) (A) (A) (A) (A) (A) (A) (A)
                 (A) (A) (A) (A) (A) (A) (A) (A) (A) (A) (A) (A)
                 (A) (A) (A) (A) (A) (A) (A) (A) (A) (A) (A) (A)
                 (A) (A) (A) (A) (A) (A) (A) (A) (A) (A) (A) (A)
                 (A) (A) (A) (A) (A) (A) (A) (A) (A) (A) (A) (A)
                 (A) (A) (A) (A) (A) (A) (A) (A) (A) (A) (A) (A)
                 (A) (A) (A) (A) (A) (A) (A) (A) (A) (A) (A) (A)
                 (A) (A) (A) (A) (A) (A) (A) (A) (A) (A) (A) (A)
                 (A) (A) (A) (A) (A) (A) (A) (A) (A) (A) (A) (A)
                 (A) (A) (A) (A) (A) (A) (A) (A) (A) (A) (A) (A)
                 (A) (A) (A) (A) (A) (A) (A) (A) (A) (A) (A) (A)
                 (A) (A) (A) (A) (A) (A) (A) (A) (A) (A) (A) (A)
                 (A) (A) (A) (A) (A) (A) (A) (A) (A) (A) (A) (A)
                 (A) (A) (A) (A) (A) (A) (A) (A) (A) (A) (A) (A)
                 (A) (A) (A) (A) (A) (A) (A) (A) (A) (A) (A) (A)
                 (A) (A) (A) (A) (A) (A) (A) (A) (A) (A) (A) (A)
                 (A) (A) (A) (A) (A) (A) (A) (A) (A) (A) (A) (A)
                 (A) (A) (A) (A) (A) (A) (A) (A) (A) (A) (A) (A)
                 (A) (A) (A) (A) (A) (A) (A) (A) (A) (A) (A) (A)
                 (A) (A) (A) (A) (A) (A) (A) (A) (A) (A) (A) (A)
                 (A) (A) (A) (A) (A) (A) (A) (A) (A) (A) (A) (A)
                 (A) (A) (A) (A) (A) (A) (A) (A) (A) (A) (A) (A)
                 (A) (A) (A) (A) (A) (A) (A) (A) (A) (A) (A) (A)
                 (A) (A) (A) (A) (A) (A) (A) (A) (A) (A) (A) (A)
                 (A) (A) (A) (A) (A) (A) (A) (A) (A) (A) (A) (A)
                 (A) (A) (A) (A) (A) (A) (A) (A) (A) (A) (A) (A)
                 (A) (A) (A) (A) (A) (A) (A) (A) (A) (A) (A) (A)
                 (A) (A) (A) (A) (A) (A) (A) (A) (A) (A) (A) (A)
                 (A) (A) (A) (A) (A) (A) (A) (A) (A) (A) (A) (A)
                 (A) (A) (A) (A) (A) (A) (A) (A) (A) (A) (A) (A)
                 (A) (A) (A) (A) (A) (A) (A) (A) (A) (A) (A) (A)
                 (A) (A) (A) (A) (A) (A) (A) (A) (A) (A) (A) (A)
                 (A) (A) (A) (A) (A) (A) (A) (A) (A) (A) (A) (A)
                 (A) (A) (A) (A) (A) (A) (A) (A) (A) (A) (A) (A)
                 (A) (A) (A) (A) (A) (A) (A) (A) (A) (A) (A) (A)
                 (A) (A) (A) (A) (A) (A) (A) (A) (A) (A) (A) (A)
                 (A) (A) (A) (A) (A) (A) (A) (A) (A) (A)
 The electronic state is 1-A.
 Alpha  occ. eigenvalues --  -19.19544 -19.16211 -19.12737 -19.11491 -19.11102
 Alpha  occ. eigenvalues --  -14.37687 -14.37627 -14.32962 -14.30361 -10.31719
 Alpha  occ. eigenvalues --  -10.31158 -10.26901 -10.24393 -10.23977 -10.23967
 Alpha  occ. eigenvalues --  -10.23957 -10.23901 -10.23692 -10.23673 -10.23174
 Alpha  occ. eigenvalues --  -10.22959 -10.22888 -10.22694 -10.21733 -10.21732
 Alpha  occ. eigenvalues --  -10.21620 -10.21400 -10.21276 -10.20956 -10.20950
 Alpha  occ. eigenvalues --  -10.20882 -10.20645 -10.20494 -10.20483 -10.20319
 Alpha  occ. eigenvalues --  -10.20205 -10.20104 -10.19976 -10.19962 -10.19958
 Alpha  occ. eigenvalues --  -10.19866 -10.19851 -10.19697 -10.19661 -10.19618
 Alpha  occ. eigenvalues --  -10.19602 -10.19545 -10.19517 -10.19482 -10.19348
 Alpha  occ. eigenvalues --  -10.19130 -10.19053 -10.18633 -10.18627 -10.18528
 Alpha  occ. eigenvalues --  -10.18278 -10.18272 -10.18248 -10.18074 -10.17311
 Alpha  occ. eigenvalues --  -10.17169 -10.16905 -10.16325 -10.16309  -1.09653
 Alpha  occ. eigenvalues --   -1.09473  -1.01408  -0.99239  -0.98672  -0.97516
 Alpha  occ. eigenvalues --   -0.96342  -0.93410  -0.92129  -0.85150  -0.82717
 Alpha  occ. eigenvalues --   -0.82133  -0.81877  -0.81447  -0.81263  -0.81063
 Alpha  occ. eigenvalues --   -0.80139  -0.79580  -0.79312  -0.79035  -0.77163
 Alpha  occ. eigenvalues --   -0.76496  -0.76110  -0.75860  -0.74731  -0.74611
 Alpha  occ. eigenvalues --   -0.74369  -0.73329  -0.72640  -0.71627  -0.70088
 Alpha  occ. eigenvalues --   -0.69354  -0.68781  -0.68495  -0.68291  -0.67999
 Alpha  occ. eigenvalues --   -0.67428  -0.67063  -0.66435  -0.66077  -0.65067
 Alpha  occ. eigenvalues --   -0.64303  -0.62834  -0.62441  -0.61604  -0.60611
 Alpha  occ. eigenvalues --   -0.60195  -0.59578  -0.58930  -0.58439  -0.57667
 Alpha  occ. eigenvalues --   -0.57362  -0.56346  -0.56284  -0.55179  -0.55087
 Alpha  occ. eigenvalues --   -0.54647  -0.54382  -0.53738  -0.53298  -0.53055
 Alpha  occ. eigenvalues --   -0.52306  -0.51917  -0.51427  -0.50750  -0.49795
 Alpha  occ. eigenvalues --   -0.49622  -0.49101  -0.48197  -0.48164  -0.48048
 Alpha  occ. eigenvalues --   -0.47721  -0.47575  -0.47251  -0.47031  -0.47023
 Alpha  occ. eigenvalues --   -0.46494  -0.46340  -0.46067  -0.45975  -0.45778
 Alpha  occ. eigenvalues --   -0.45294  -0.45221  -0.45081  -0.44905  -0.44794
 Alpha  occ. eigenvalues --   -0.44601  -0.44467  -0.44293  -0.43854  -0.43538
 Alpha  occ. eigenvalues --   -0.43349  -0.43115  -0.42874  -0.42727  -0.42476
 Alpha  occ. eigenvalues --   -0.42299  -0.42113  -0.41774  -0.41477  -0.41406
 Alpha  occ. eigenvalues --   -0.41115  -0.40923  -0.40675  -0.40613  -0.40543
 Alpha  occ. eigenvalues --   -0.40387  -0.40319  -0.40054  -0.39771  -0.39643
 Alpha  occ. eigenvalues --   -0.39191  -0.38975  -0.38784  -0.38705  -0.38358
 Alpha  occ. eigenvalues --   -0.38007  -0.37711  -0.37576  -0.37415  -0.37156
 Alpha  occ. eigenvalues --   -0.37034  -0.36866  -0.36818  -0.36545  -0.36506
 Alpha  occ. eigenvalues --   -0.36474  -0.36394  -0.36169  -0.35777  -0.35609
 Alpha  occ. eigenvalues --   -0.35345  -0.35225  -0.35060  -0.34843  -0.34826
 Alpha  occ. eigenvalues --   -0.34570  -0.34102  -0.34013  -0.33948  -0.33271
 Alpha  occ. eigenvalues --   -0.33146  -0.32944  -0.32874  -0.32738  -0.32729
 Alpha  occ. eigenvalues --   -0.32215  -0.32036  -0.31683  -0.31432  -0.31307
 Alpha  occ. eigenvalues --   -0.30779  -0.30357  -0.30301  -0.30256  -0.29808
 Alpha  occ. eigenvalues --   -0.29601  -0.29550  -0.28567  -0.28325  -0.27994
 Alpha  occ. eigenvalues --   -0.27289  -0.26892  -0.26293  -0.25839  -0.25281
 Alpha  occ. eigenvalues --   -0.24993  -0.24070  -0.23989  -0.22349  -0.20432
 Alpha  occ. eigenvalues --   -0.18791
 Alpha virt. eigenvalues --   -0.10810  -0.08315  -0.05180  -0.03062  -0.01864
 Alpha virt. eigenvalues --   -0.00983   0.00855   0.01502   0.01927   0.03571
 Alpha virt. eigenvalues --    0.03746   0.04040   0.04139   0.04667   0.04686
 Alpha virt. eigenvalues --    0.04984   0.05223   0.05501   0.05573   0.05829
 Alpha virt. eigenvalues --    0.06023   0.06198   0.06308   0.06680   0.06759
 Alpha virt. eigenvalues --    0.06929   0.07048   0.07485   0.07828   0.07856
 Alpha virt. eigenvalues --    0.08217   0.08290   0.08390   0.08712   0.08768
 Alpha virt. eigenvalues --    0.08817   0.08985   0.09102   0.09208   0.09511
 Alpha virt. eigenvalues --    0.09614   0.09982   0.10119   0.10408   0.10586
 Alpha virt. eigenvalues --    0.10873   0.10891   0.11028   0.11436   0.11529
 Alpha virt. eigenvalues --    0.11740   0.11833   0.11938   0.12267   0.12362
 Alpha virt. eigenvalues --    0.12489   0.12562   0.12824   0.12983   0.13075
 Alpha virt. eigenvalues --    0.13340   0.13389   0.13482   0.13530   0.13725
 Alpha virt. eigenvalues --    0.14259   0.14315   0.14401   0.14626   0.14722
 Alpha virt. eigenvalues --    0.15130   0.15184   0.15464   0.15641   0.15844
 Alpha virt. eigenvalues --    0.15909   0.16407   0.16540   0.16786   0.16984
 Alpha virt. eigenvalues --    0.17201   0.17322   0.17350   0.17698   0.17798
 Alpha virt. eigenvalues --    0.17845   0.17925   0.18199   0.18585   0.18852
 Alpha virt. eigenvalues --    0.19102   0.19267   0.19333   0.19663   0.19741
 Alpha virt. eigenvalues --    0.19942   0.20056   0.20180   0.20725   0.20836
 Alpha virt. eigenvalues --    0.21085   0.21309   0.21685   0.21818   0.22060
 Alpha virt. eigenvalues --    0.22264   0.22398   0.22595   0.22670   0.23022
 Alpha virt. eigenvalues --    0.23181   0.23561   0.23932   0.24048   0.24139
 Alpha virt. eigenvalues --    0.24519   0.24903   0.25534   0.25623   0.25686
 Alpha virt. eigenvalues --    0.25999   0.26184   0.26548   0.27063   0.27506
 Alpha virt. eigenvalues --    0.27774   0.28070   0.28270   0.28642   0.28738
 Alpha virt. eigenvalues --    0.28921   0.29275   0.29490   0.30023   0.30395
 Alpha virt. eigenvalues --    0.30857   0.31207   0.31969   0.32120   0.32817
 Alpha virt. eigenvalues --    0.33273   0.33750   0.33991   0.34377   0.34478
 Alpha virt. eigenvalues --    0.35123   0.35376   0.36088   0.36290   0.36668
 Alpha virt. eigenvalues --    0.36863   0.37761   0.37788   0.38056   0.38252
 Alpha virt. eigenvalues --    0.39158   0.39437   0.39531   0.39659   0.39909
 Alpha virt. eigenvalues --    0.40081   0.40545   0.40553   0.40901   0.41070
 Alpha virt. eigenvalues --    0.41156   0.41461   0.41681   0.41763   0.42121
 Alpha virt. eigenvalues --    0.42136   0.42434   0.42785   0.42825   0.43223
 Alpha virt. eigenvalues --    0.43446   0.43516   0.43753   0.43864   0.43998
 Alpha virt. eigenvalues --    0.44366   0.44540   0.44797   0.44896   0.45124
 Alpha virt. eigenvalues --    0.45238   0.45540   0.45844   0.46095   0.46168
 Alpha virt. eigenvalues --    0.46709   0.46771   0.47179   0.47492   0.47516
 Alpha virt. eigenvalues --    0.47856   0.48288   0.48570   0.48854   0.48980
 Alpha virt. eigenvalues --    0.49101   0.49168   0.49747   0.49782   0.49944
 Alpha virt. eigenvalues --    0.49994   0.50410   0.50507   0.50601   0.51033
 Alpha virt. eigenvalues --    0.51639   0.52057   0.52119   0.52183   0.52758
 Alpha virt. eigenvalues --    0.52948   0.53515   0.53811   0.53995   0.54087
 Alpha virt. eigenvalues --    0.54264   0.54516   0.55085   0.55235   0.55353
 Alpha virt. eigenvalues --    0.55580   0.55786   0.56068   0.56327   0.56654
 Alpha virt. eigenvalues --    0.56798   0.57151   0.57220   0.57255   0.57569
 Alpha virt. eigenvalues --    0.57916   0.58099   0.58243   0.58431   0.58731
 Alpha virt. eigenvalues --    0.58783   0.58888   0.59048   0.59100   0.59226
 Alpha virt. eigenvalues --    0.59249   0.59352   0.59680   0.59993   0.59998
 Alpha virt. eigenvalues --    0.60126   0.60327   0.60400   0.60649   0.60845
 Alpha virt. eigenvalues --    0.60952   0.60996   0.61197   0.61386   0.61454
 Alpha virt. eigenvalues --    0.61738   0.61932   0.62109   0.62278   0.62433
 Alpha virt. eigenvalues --    0.62560   0.62694   0.62801   0.62923   0.63138
 Alpha virt. eigenvalues --    0.63324   0.63378   0.63491   0.63658   0.63842
 Alpha virt. eigenvalues --    0.64013   0.64090   0.64360   0.64509   0.64609
 Alpha virt. eigenvalues --    0.64671   0.64937   0.65093   0.65263   0.65339
 Alpha virt. eigenvalues --    0.65534   0.65599   0.65651   0.65737   0.65902
 Alpha virt. eigenvalues --    0.66037   0.66130   0.66175   0.66375   0.66392
 Alpha virt. eigenvalues --    0.66466   0.66692   0.66878   0.67023   0.67352
 Alpha virt. eigenvalues --    0.67423   0.67493   0.67840   0.67959   0.68001
 Alpha virt. eigenvalues --    0.68109   0.68176   0.68256   0.68390   0.68501
 Alpha virt. eigenvalues --    0.68763   0.68807   0.68954   0.69057   0.69311
 Alpha virt. eigenvalues --    0.69323   0.69548   0.69774   0.69967   0.70035
 Alpha virt. eigenvalues --    0.70295   0.70396   0.70629   0.70743   0.70796
 Alpha virt. eigenvalues --    0.70945   0.71083   0.71185   0.71369   0.71508
 Alpha virt. eigenvalues --    0.71605   0.71639   0.71857   0.71927   0.72036
 Alpha virt. eigenvalues --    0.72623   0.72726   0.73031   0.73074   0.73273
 Alpha virt. eigenvalues --    0.73384   0.73766   0.73876   0.73945   0.74031
 Alpha virt. eigenvalues --    0.74420   0.74506   0.74582   0.74846   0.74959
 Alpha virt. eigenvalues --    0.75066   0.75265   0.75421   0.75864   0.75969
 Alpha virt. eigenvalues --    0.76301   0.76505   0.76802   0.77050   0.77155
 Alpha virt. eigenvalues --    0.77519   0.78023   0.78500   0.78748   0.78783
 Alpha virt. eigenvalues --    0.79018   0.79532   0.79774   0.80159   0.80800
 Alpha virt. eigenvalues --    0.80881   0.81343   0.81488   0.81700   0.81949
 Alpha virt. eigenvalues --    0.82147   0.82362   0.83239   0.83347   0.83551
 Alpha virt. eigenvalues --    0.84061   0.84140   0.84905   0.85512   0.86082
 Alpha virt. eigenvalues --    0.86851   0.87233   0.87812   0.88266   0.88759
 Alpha virt. eigenvalues --    0.88819   0.89673   0.89767   0.90428   0.90991
 Alpha virt. eigenvalues --    0.91495   0.91907   0.92183   0.92777   0.92894
 Alpha virt. eigenvalues --    0.93180   0.93890   0.94111   0.94164   0.95269
 Alpha virt. eigenvalues --    0.95565   0.96307   0.97120   0.97377   0.97692
 Alpha virt. eigenvalues --    0.97893   0.98938   0.98977   0.99107   0.99274
 Alpha virt. eigenvalues --    0.99421   0.99967   1.00521   1.00660   1.01723
 Alpha virt. eigenvalues --    1.01837   1.02297   1.02383   1.02631   1.03245
 Alpha virt. eigenvalues --    1.03458   1.03861   1.04316   1.04630   1.04892
 Alpha virt. eigenvalues --    1.05239   1.05618   1.06327   1.06696   1.07245
 Alpha virt. eigenvalues --    1.08007   1.08244   1.08457   1.08702   1.09055
 Alpha virt. eigenvalues --    1.09226   1.09440   1.09688   1.10533   1.11393
 Alpha virt. eigenvalues --    1.11845   1.12094   1.12926   1.12963   1.13295
 Alpha virt. eigenvalues --    1.13717   1.14189   1.14307   1.15674   1.15804
 Alpha virt. eigenvalues --    1.16055   1.16440   1.17135   1.17264   1.17546
 Alpha virt. eigenvalues --    1.17726   1.18183   1.19471   1.20011   1.20218
 Alpha virt. eigenvalues --    1.21060   1.21191   1.21375   1.21545   1.22749
 Alpha virt. eigenvalues --    1.23045   1.23197   1.23871   1.24254   1.24866
 Alpha virt. eigenvalues --    1.25133   1.25416   1.26298   1.26477   1.26746
 Alpha virt. eigenvalues --    1.27289   1.28049   1.28658   1.28682   1.28786
 Alpha virt. eigenvalues --    1.29246   1.29423   1.29810   1.29888   1.30410
 Alpha virt. eigenvalues --    1.30469   1.31019   1.31284   1.31423   1.31829
 Alpha virt. eigenvalues --    1.32851   1.32988   1.33589   1.33913   1.34207
 Alpha virt. eigenvalues --    1.34466   1.34906   1.35527   1.35652   1.36292
 Alpha virt. eigenvalues --    1.36932   1.37232   1.37703   1.38116   1.38474
 Alpha virt. eigenvalues --    1.39056   1.39222   1.39625   1.40206   1.40838
 Alpha virt. eigenvalues --    1.41283   1.41512   1.42121   1.42382   1.42593
 Alpha virt. eigenvalues --    1.42625   1.43832   1.44727   1.44899   1.45135
 Alpha virt. eigenvalues --    1.45475   1.46018   1.46306   1.46885   1.47245
 Alpha virt. eigenvalues --    1.47563   1.48284   1.48390   1.48631   1.49642
 Alpha virt. eigenvalues --    1.50118   1.50274   1.50388   1.50715   1.50927
 Alpha virt. eigenvalues --    1.51167   1.51205   1.51263   1.52081   1.52477
 Alpha virt. eigenvalues --    1.53062   1.53238   1.53391   1.54202   1.54234
 Alpha virt. eigenvalues --    1.54653   1.54963   1.55096   1.55785   1.56247
 Alpha virt. eigenvalues --    1.56579   1.56827   1.57320   1.57716   1.57862
 Alpha virt. eigenvalues --    1.58411   1.58597   1.59489   1.59881   1.59911
 Alpha virt. eigenvalues --    1.60238   1.60627   1.61317   1.61628   1.62183
 Alpha virt. eigenvalues --    1.62356   1.63070   1.63316   1.63475   1.63696
 Alpha virt. eigenvalues --    1.64863   1.64922   1.65323   1.65607   1.65981
 Alpha virt. eigenvalues --    1.66234   1.66427   1.66595   1.66813   1.67255
 Alpha virt. eigenvalues --    1.67286   1.67594   1.67778   1.68427   1.68688
 Alpha virt. eigenvalues --    1.69079   1.69374   1.69552   1.69595   1.69851
 Alpha virt. eigenvalues --    1.70036   1.70427   1.70515   1.70750   1.71040
 Alpha virt. eigenvalues --    1.71296   1.71492   1.71628   1.71773   1.71863
 Alpha virt. eigenvalues --    1.71925   1.71987   1.72345   1.72592   1.72680
 Alpha virt. eigenvalues --    1.73055   1.73298   1.73473   1.73596   1.73818
 Alpha virt. eigenvalues --    1.73961   1.74105   1.74392   1.75053   1.75158
 Alpha virt. eigenvalues --    1.75490   1.75517   1.75667   1.75916   1.76049
 Alpha virt. eigenvalues --    1.76408   1.76555   1.76753   1.76876   1.77256
 Alpha virt. eigenvalues --    1.77477   1.77651   1.77894   1.78148   1.78613
 Alpha virt. eigenvalues --    1.78846   1.79102   1.79281   1.79414   1.79515
 Alpha virt. eigenvalues --    1.79718   1.80020   1.80429   1.80635   1.80719
 Alpha virt. eigenvalues --    1.80823   1.81017   1.81420   1.81674   1.81863
 Alpha virt. eigenvalues --    1.82124   1.82198   1.82380   1.82668   1.82839
 Alpha virt. eigenvalues --    1.83056   1.83282   1.83462   1.83517   1.84127
 Alpha virt. eigenvalues --    1.84214   1.84402   1.84494   1.84824   1.85163
 Alpha virt. eigenvalues --    1.85295   1.85480   1.85695   1.85722   1.86010
 Alpha virt. eigenvalues --    1.86332   1.86729   1.86930   1.87293   1.87460
 Alpha virt. eigenvalues --    1.87598   1.87887   1.87903   1.88168   1.88353
 Alpha virt. eigenvalues --    1.88381   1.88595   1.88779   1.88929   1.89350
 Alpha virt. eigenvalues --    1.89647   1.89899   1.90210   1.90314   1.90810
 Alpha virt. eigenvalues --    1.90921   1.91073   1.91096   1.91434   1.91663
 Alpha virt. eigenvalues --    1.91725   1.91908   1.92587   1.92840   1.92941
 Alpha virt. eigenvalues --    1.93468   1.93905   1.94102   1.94236   1.94589
 Alpha virt. eigenvalues --    1.94690   1.94859   1.95144   1.95565   1.96003
 Alpha virt. eigenvalues --    1.96084   1.96126   1.96375   1.96430   1.96700
 Alpha virt. eigenvalues --    1.97234   1.97674   1.97941   1.98287   1.98414
 Alpha virt. eigenvalues --    1.98646   1.98670   1.99257   1.99472   1.99575
 Alpha virt. eigenvalues --    2.00452   2.00854   2.01011   2.01284   2.01560
 Alpha virt. eigenvalues --    2.01933   2.02672   2.02861   2.02981   2.03494
 Alpha virt. eigenvalues --    2.03561   2.03815   2.04063   2.04155   2.04258
 Alpha virt. eigenvalues --    2.04672   2.05035   2.05258   2.05527   2.05732
 Alpha virt. eigenvalues --    2.06232   2.06293   2.06371   2.06772   2.06997
 Alpha virt. eigenvalues --    2.07153   2.08210   2.08357   2.08885   2.09340
 Alpha virt. eigenvalues --    2.09535   2.10036   2.10139   2.10448   2.10871
 Alpha virt. eigenvalues --    2.11011   2.11198   2.12257   2.12423   2.12790
 Alpha virt. eigenvalues --    2.13072   2.13451   2.13677   2.14232   2.14623
 Alpha virt. eigenvalues --    2.15521   2.16227   2.16416   2.17078   2.17651
 Alpha virt. eigenvalues --    2.17760   2.18226   2.18422   2.18543   2.19374
 Alpha virt. eigenvalues --    2.19789   2.20552   2.20607   2.21254   2.21320
 Alpha virt. eigenvalues --    2.21593   2.21828   2.21859   2.22104   2.22729
 Alpha virt. eigenvalues --    2.22808   2.23155   2.23438   2.24205   2.24895
 Alpha virt. eigenvalues --    2.25309   2.25849   2.26081   2.26466   2.26773
 Alpha virt. eigenvalues --    2.26904   2.27261   2.27423   2.28101   2.28627
 Alpha virt. eigenvalues --    2.29040   2.29426   2.30298   2.30341   2.30762
 Alpha virt. eigenvalues --    2.31201   2.31472   2.31770   2.32128   2.32398
 Alpha virt. eigenvalues --    2.32502   2.33262   2.34226   2.34337   2.34696
 Alpha virt. eigenvalues --    2.34898   2.35098   2.35290   2.36117   2.36256
 Alpha virt. eigenvalues --    2.36710   2.37557   2.37677   2.38118   2.38392
 Alpha virt. eigenvalues --    2.38750   2.38947   2.39360   2.39541   2.39762
 Alpha virt. eigenvalues --    2.40170   2.40235   2.40604   2.41941   2.42220
 Alpha virt. eigenvalues --    2.42376   2.42963   2.43220   2.43366   2.43619
 Alpha virt. eigenvalues --    2.44006   2.44251   2.45210   2.45261   2.46028
 Alpha virt. eigenvalues --    2.46528   2.47026   2.47344   2.48527   2.48811
 Alpha virt. eigenvalues --    2.49247   2.49961   2.50568   2.50586   2.51093
 Alpha virt. eigenvalues --    2.51598   2.52344   2.52640   2.53044   2.53302
 Alpha virt. eigenvalues --    2.54257   2.54584   2.54741   2.54891   2.55273
 Alpha virt. eigenvalues --    2.55569   2.55602   2.56333   2.56776   2.57279
 Alpha virt. eigenvalues --    2.58024   2.58167   2.58252   2.59046   2.59315
 Alpha virt. eigenvalues --    2.59438   2.59793   2.60195   2.60335   2.60726
 Alpha virt. eigenvalues --    2.61354   2.61684   2.62299   2.62788   2.63047
 Alpha virt. eigenvalues --    2.63254   2.63613   2.64111   2.64156   2.64438
 Alpha virt. eigenvalues --    2.64894   2.65134   2.65667   2.65863   2.66506
 Alpha virt. eigenvalues --    2.66659   2.67802   2.68772   2.69847   2.70046
 Alpha virt. eigenvalues --    2.70608   2.70880   2.71229   2.71567   2.72060
 Alpha virt. eigenvalues --    2.72111   2.72332   2.72581   2.72775   2.73262
 Alpha virt. eigenvalues --    2.73680   2.74186   2.74626   2.75235   2.75561
 Alpha virt. eigenvalues --    2.75674   2.76136   2.76562   2.76925   2.77142
 Alpha virt. eigenvalues --    2.77511   2.77732   2.78083   2.78969   2.78986
 Alpha virt. eigenvalues --    2.79081   2.79809   2.79924   2.80987   2.81238
 Alpha virt. eigenvalues --    2.81364   2.81654   2.82590   2.83691   2.84276
 Alpha virt. eigenvalues --    2.84902   2.84945   2.85263   2.85948   2.86025
 Alpha virt. eigenvalues --    2.86449   2.86679   2.87487   2.88622   2.88925
 Alpha virt. eigenvalues --    2.89286   2.89465   2.89568   2.89603   2.90410
 Alpha virt. eigenvalues --    2.91083   2.91297   2.92080   2.92109   2.92772
 Alpha virt. eigenvalues --    2.92981   2.93348   2.94125   2.94767   2.95336
 Alpha virt. eigenvalues --    2.95644   2.95905   2.96514   2.97004   2.97164
 Alpha virt. eigenvalues --    2.98342   2.98781   2.98875   2.99569   3.00240
 Alpha virt. eigenvalues --    3.00396   3.01002   3.01123   3.01436   3.01625
 Alpha virt. eigenvalues --    3.01869   3.02525   3.03759   3.04281   3.05006
 Alpha virt. eigenvalues --    3.05867   3.06313   3.06606   3.06888   3.08099
 Alpha virt. eigenvalues --    3.09300   3.09727   3.10146   3.10781   3.10847
 Alpha virt. eigenvalues --    3.12621   3.12659   3.14036   3.14339   3.14690
 Alpha virt. eigenvalues --    3.15014   3.15726   3.16657   3.17204   3.17429
 Alpha virt. eigenvalues --    3.19639   3.20750   3.21073   3.21502   3.23321
 Alpha virt. eigenvalues --    3.25786   3.26087   3.26458   3.28279   3.33619
 Alpha virt. eigenvalues --    3.35107   3.35782   3.37719   3.39916   3.43190
 Alpha virt. eigenvalues --    3.45143   3.45320   3.48505   3.54381   3.55792
 Alpha virt. eigenvalues --    3.58357   3.62350   3.64466   3.67810   3.69083
          Condensed to atoms (all electrons):
 Mulliken charges:
               1
     1  C    0.121092
     2  C   -0.084754
     3  C   -0.073454
     4  C   -0.097141
     5  N   -0.275226
     6  C   -0.073523
     7  C   -0.072633
     8  C   -0.017459
     9  C   -0.020776
    10  C    0.024205
    11  C    0.068654
    12  C    0.017203
    13  C    0.198996
    14  O   -0.182624
    15  O   -0.355364
    16  N   -0.113688
    17  C    0.134791
    18  C   -0.160985
    19  C    0.015484
    20  C    0.072130
    21  C    0.072481
    22  C   -0.034180
    23  C   -0.088799
    24  N   -0.192793
    25  C    0.027490
    26  C   -0.173198
    27  C   -0.081535
    28  C    0.061239
    29  C    0.088218
    30  C   -0.052298
    31  C    0.023177
    32  N   -0.110986
    33  C    0.204038
    34  C   -0.062434
    35  C    0.069162
    36  C    0.040555
    37  C   -0.056515
    38  C    0.045799
    39  O   -0.223020
    40  C   -0.151415
    41  C    0.230302
    42  O   -0.326920
    43  O   -0.251078
    44  C    0.237535
    45  C    0.227994
    46  C   -0.142381
    47  C   -0.114050
    48  C    0.074530
    49  C    0.103564
    50  C    0.003830
    51  C    0.075856
    52  C   -0.061893
    53  C   -0.003518
    54  C   -0.011541
    55  C    0.089077
    56  C   -0.033694
    57  C   -0.110701
    58  C    0.027205
    59  C    0.019440
    60  C    0.197338
    61  C    0.070172
    62  C   -0.114427
    63  C    0.081705
    64  C    0.076284
    65  H    0.008783
    66  H   -0.019206
    67  H   -0.051296
    68  H    0.041784
    69  H    0.022329
    70  H    0.014166
    71  H    0.020890
    72  H    0.026025
    73  H    0.039041
    74  H   -0.020926
    75  H    0.004658
    76  H    0.055275
    77  H    0.043420
    78  H    0.032440
    79  H    0.037058
    80  H    0.010684
    81  H    0.058660
    82  H    0.056968
    83  H    0.056519
    84  H    0.037724
    85  H   -0.004246
    86  H    0.017912
    87  H   -0.002362
    88  H    0.038364
    89  H    0.018873
    90  H    0.022882
    91  H    0.052779
    92  H    0.063264
    93  H    0.078660
    94  H    0.072574
    95  H    0.014349
    96  H    0.031919
    97  H    0.013513
    98  H    0.011154
    99  H    0.023774
   100  H    0.024198
   101  H    0.005019
   102  H    0.032198
   103  H   -0.000789
   104  H   -0.018577
   105  H    0.001213
   106  H   -0.025124
   107  H    0.000331
   108  H   -0.019203
   109  H   -0.001767
   110  H    0.010840
   111  H    0.025495
   112  H    0.016643
   113  H    0.023821
   114  H    0.014240
   115  H    0.001859
   116  H   -0.081035
   117  H    0.002821
   118  H    0.018150
   119  H    0.011668
   120  H   -0.000304
   121  H    0.026854
   122  H    0.019090
   123  H   -0.020276
   124  H   -0.029075
   125  H   -0.025875
   126  H   -0.022024
   127  H   -0.060810
   128  H   -0.045131
   129  H   -0.046536
   130  H    0.005276
   131  H   -0.008184
   132  H    0.001468
   133  H   -0.030571
   134  H   -0.016205
   135  H   -0.008185
   136  H    0.005592
   137  H    0.205503
   138  H    0.204451
 Sum of Mulliken charges =  -0.00000
 Mulliken charges with hydrogens summed into heavy atoms:
               1
     1  C    0.121092
     2  C   -0.075972
     3  C   -0.092660
     4  C   -0.148437
     5  N   -0.275226
     6  C   -0.073523
     7  C   -0.030849
     8  C    0.004870
     9  C   -0.020776
    10  C    0.085285
    11  C    0.086769
    12  C    0.077136
    13  C    0.198996
    14  O   -0.182624
    15  O   -0.355364
    16  N    0.091815
    17  C    0.134791
    18  C   -0.160985
    19  C    0.015484
    20  C    0.072130
    21  C    0.185398
    22  C   -0.023496
    23  C    0.026828
    24  N   -0.192793
    25  C    0.027490
    26  C   -0.173198
    27  C   -0.081535
    28  C    0.061239
    29  C    0.178215
    30  C   -0.036748
    31  C    0.103297
    32  N    0.093465
    33  C    0.204038
    34  C   -0.062434
    35  C    0.069162
    36  C    0.040555
    37  C    0.138188
    38  C    0.045799
    39  O   -0.223020
    40  C   -0.078842
    41  C    0.230302
    42  O   -0.326920
    43  O   -0.251078
    44  C    0.297315
    45  C    0.262921
    46  C   -0.118183
    47  C   -0.114050
    48  C    0.110959
    49  C    0.086200
    50  C   -0.020963
    51  C    0.054885
    52  C   -0.051053
    53  C    0.062441
    54  C    0.004559
    55  C    0.010862
    56  C   -0.003875
    57  C   -0.111005
    58  C    0.052874
    59  C   -0.035511
    60  C    0.114504
    61  C   -0.021495
    62  C   -0.109151
    63  C    0.044418
    64  C    0.057487
 Electronic spatial extent (au):  <R**2>=         178689.5478
 Charge=             -0.0000 electrons
 Dipole moment (field-independent basis, Debye):
    X=              1.2074    Y=              4.1652    Z=             -0.3632  Tot=              4.3519
 Quadrupole moment (field-independent basis, Debye-Ang):
   XX=           -355.7596   YY=           -383.6783   ZZ=           -393.9029
   XY=            -23.9972   XZ=             16.4884   YZ=              0.6614
 Traceless Quadrupole moment (field-independent basis, Debye-Ang):
   XX=             22.0206   YY=             -5.8980   ZZ=            -16.1226
   XY=            -23.9972   XZ=             16.4884   YZ=              0.6614
 Octapole moment (field-independent basis, Debye-Ang**2):
  XXX=           -674.3237  YYY=             87.1728  ZZZ=             12.4983  XYY=            -53.2799
  XXY=             18.2534  XXZ=           -270.6745  XZZ=              7.4622  YZZ=            -13.9749
  YYZ=             59.8862  XYZ=            -65.5473
 Hexadecapole moment (field-independent basis, Debye-Ang**3):
 XXXX=        -226759.7034 YYYY=         -17122.4391 ZZZZ=          -4280.0949 XXXY=          -1222.6983
 XXXZ=           2221.1051 YYYX=           -919.5804 YYYZ=           -113.4437 ZZZX=            -39.6110
 ZZZY=            -82.9126 XXYY=         -39939.6841 XXZZ=         -39302.5612 YYZZ=          -3525.1940
 XXYZ=             86.1143 YYXZ=            -87.4253 ZZXY=              5.4310
 N-N= 8.292401369977D+03 E-N=-2.291952676457D+04  KE= 2.701113526234D+03
 1\1\GINC-RYZEN-SSD1\SP\RB3LYP TD-FC\SVP\C55H74N4O5\PADAWAN\14-Aug-2019
 \0\\# td=(NStates=1) B3LYP/SVP\\TD\\0,1\C,0,-5.121074958,-1.8321130173
 ,0.504409066\C,0,-4.8821343716,2.8741876478,1.3507817543\C,0,-9.481267
 3703,3.2302292192,-0.3004046567\C,0,-9.7401558667,-1.6741190065,-1.040
 5401994\N,0,-5.2514318912,0.5583022913,0.8650839664\C,0,-4.5531134089,
 -0.6948284664,0.9645125369\C,0,-3.0675085046,-0.4205425378,1.449478197
 2\C,0,-3.0932134737,1.0067657942,1.9371882242\C,0,-4.4457895371,1.5730
 143468,1.341456057\C,0,-3.2000465026,1.117330034,3.4697768357\C,0,-2.1
 259879416,-0.5895739715,0.2501816259\C,0,-0.5920775959,-0.5067295278,0
 .7431720823\C,0,0.3539599019,-0.6425911764,-0.3732231795\O,0,0.0456242
 983,-1.1273124211,-1.3885013047\O,0,1.6957746527,-0.480904509,-0.01871
 68637\N,0,-7.2185950405,2.8206968116,0.5326238564\C,0,-6.0474189229,3.
 4960263351,0.8405781832\C,0,-6.4315044229,4.8158196658,1.0360051522\C,
 0,-7.6553285974,5.0125725803,0.4845236825\C,0,-8.2226577162,3.61687028
 59,0.1776090972\C,0,-5.4910382602,5.9673805205,1.4990959135\C,0,-8.461
 6927575,6.2592956473,0.2891239667\C,0,-9.2531828411,6.4229815888,-0.79
 78684031\N,0,-9.2671001093,0.7689553701,-0.4125482302\C,0,-9.898011578
 6,1.9229555973,-0.5519940101\C,0,-11.4118174197,1.7189355331,-0.930397
 111\C,0,-11.4053559761,0.3384878902,-1.139454007\C,0,-10.0548521936,-0
 .2375808075,-0.8878322636\C,0,-12.3590200992,2.7276653356,-1.179452374
 3\C,0,-12.6422243198,-0.4399230907,-1.6922214571\C,0,-12.4843529049,-0
 .8376684132,-3.2035675412\N,0,-7.497062832,-1.304214736,-0.1364199871\
 C,0,-8.5686228478,-2.1046070749,-0.7005269811\C,0,-8.0715907663,-3.491
 2037219,-0.6655502935\C,0,-6.7311551437,-3.4337692612,-0.1985219575\C,
 0,-6.4193704766,-2.0652283219,0.0941815723\C,0,-8.7835923443,-4.693572
 7573,-1.0548279896\C,0,-5.6502511466,-4.2322284497,-0.0793952699\O,0,-
 5.3429461507,-5.4551020189,-0.1721802976\C,0,-4.4890245071,-3.22295940
 86,0.4102662762\C,0,-3.6808504998,-3.7353872339,1.654867372\O,0,-4.245
 4771594,-3.5630972656,2.8157220362\O,0,-2.8351060263,-4.7051307944,1.3
 493406771\C,0,-2.2536989002,-5.3956804733,2.4791643867\C,0,2.644574500
 9,-0.7644951401,-1.0419183971\C,0,4.075691679,-0.4351081342,-0.4237189
 851\C,0,5.0127935796,0.3234013877,-0.8988352881\C,0,4.8846489751,1.048
 0886506,-2.2475472937\C,0,6.2875924713,0.3692695553,-0.178329296\C,0,7
 .5769219194,-0.1383031634,-0.9300903624\C,0,8.8826117382,-0.0804732542
 ,-0.0553904189\C,0,10.0677986346,-0.5263671193,-0.8756485448\C,0,9.988
 0425977,-1.8958547513,-1.493583473\C,0,11.3223629109,-0.4295326239,0.0
 580233343\C,0,12.6898175664,-0.5000884872,-0.7436522424\C,0,13.8765640
 636,-0.1745601591,0.1712634889\C,0,15.2308049016,-0.3493679726,-0.5814
 4198\C,0,15.371114439,-1.8789120531,-0.954705206\C,0,16.3840610033,0.2
 824291541,0.3044037048\C,0,17.8070375425,0.3116568996,-0.1028647943\C,
 0,18.6660264536,1.1833169507,0.7033090238\C,0,20.1736672626,1.16874249
 95,0.1994927097\C,0,20.2652874582,2.0012895602,-1.1213485439\C,0,21.03
 2213687,1.9372874648,1.1896353642\H,0,-4.1437325409,3.4322296073,2.098
 0620445\H,0,-10.0603536204,3.9733467712,-0.8123299069\H,0,-10.41269960
 99,-2.343260336,-1.4261125052\H,0,-2.8398100325,-1.2337837425,2.282850
 0797\H,0,-2.2109816658,1.6735073018,1.6327127697\H,0,-2.3634538613,0.4
 133187536,3.7849652218\H,0,-3.1883321335,2.1387585195,3.9178308843\H,0
 ,-4.055826162,0.6950902113,4.039912837\H,0,-2.3488943433,-1.6850523829
 ,-0.0810949658\H,0,-2.2885747961,0.1090483791,-0.4560742681\H,0,-0.502
 2245459,0.4910432302,1.1354595765\H,0,-0.6739604089,-1.205589739,1.681
 0452235\H,0,-4.5509897564,5.7086189995,0.9478979278\H,0,-5.910632282,6
 .9940745262,1.2926948665\H,0,-5.386900467,5.8221720666,2.6238734479\H,
 0,-8.2281429132,7.1534923829,0.9072720335\H,0,-9.2991353063,5.56418440
 39,-1.5502544214\H,0,-9.9977240516,7.4243677221,-0.7268623903\H,0,-12.
 5384583932,3.3931298115,-0.2276451631\H,0,-12.2701659389,3.1023852032,
 -2.2503622537\H,0,-13.3108784878,2.12291791,-1.3595189988\H,0,-12.8008
 049064,-1.3310632326,-0.8098655604\H,0,-13.6201627586,0.0297726387,-1.
 5855222295\H,0,-12.4010346185,0.1495419693,-3.8446533087\H,0,-11.56947
 3155,-1.4476941658,-3.1806788646\H,0,-13.4155096242,-1.3702143795,-3.3
 826621249\H,0,-9.9266002068,-4.5395160435,-0.4628320871\H,0,-8.9042423
 344,-4.6958866022,-2.2250930299\H,0,-8.4570774132,-5.7897497549,-0.776
 0322567\H,0,-3.6483205594,-3.2668840397,-0.4830513649\H,0,-1.746901558
 2,-6.1136579695,1.9859342974\H,0,-1.8581923909,-4.7129710361,3.2993343
 837\H,0,-2.8882098764,-5.8904160416,3.164277948\H,0,2.5131231041,-1.87
 16239035,-1.0835554888\H,0,2.4089427372,-0.1914605841,-1.9884064599\H,
 0,3.8884802839,-1.1056186324,0.57215626\H,0,5.2513403985,2.1932270205,
 -2.1459271801\H,0,5.6888058444,0.7453204872,-2.963839451\H,0,3.9274292
 281,1.182871093,-2.6157269296\H,0,6.3615762547,1.4372268666,-0.0598211
 825\H,0,6.0618340092,-0.0592815135,0.8325929534\H,0,7.2937600291,-1.07
 22412695,-1.1528401301\H,0,7.6057303241,0.3974652511,-1.9478336411\H,0
 ,8.8469991415,0.8815860101,0.3692881873\H,0,8.586561386,-0.7479018772,
 0.8481776707\H,0,10.1092877941,0.2809882971,-1.7613668596\H,0,9.143551
 5428,-1.9427629391,-2.2735865842\H,0,10.9800248635,-2.1107327497,-1.92
 70384494\H,0,9.6988083226,-2.7794398215,-0.7338669082\H,0,11.262330423
 1,0.5113587597,0.7873822008\H,0,11.486476217,-1.3509735829,0.707331254
 8\H,0,12.7662431323,-1.2736612451,-1.2702604688\H,0,12.5983801546,0.49
 28120083,-1.4716104795\H,0,13.7021012456,0.9059009859,0.5723624103\H,0
 ,13.997234559,-0.972040158,1.0756371399\H,0,15.1564171391,0.3016033601
 ,-1.6278394337\H,0,14.5964650415,-2.2143497188,-1.6732313436\H,0,16.42
 03187682,-2.2496007996,-1.430034396\H,0,15.3486775854,-2.3962992485,-0
 .0858958883\H,0,16.1089280844,1.2695200407,0.600633907\H,0,16.20554687
 74,-0.2871449054,1.2518471815\H,0,18.1211481921,-0.7643149101,-0.17462
 21469\H,0,17.8030030257,0.5524682099,-1.0728045851\H,0,18.4182335293,2
 .1714558733,0.8698834833\H,0,18.6289459088,0.8678156184,1.6894401996\H
 ,0,20.4775659864,0.0914898827,0.3341563527\H,0,20.0810608033,3.0396760
 997,-1.0512200962\H,0,21.2311616334,2.0800336072,-1.7647718006\H,0,19.
 6250207379,1.6177018068,-1.8078259638\H,0,20.8080758207,1.6452140717,2
 .2067145993\H,0,21.991873029,1.7259607127,0.9114330431\H,0,20.75956361
 91,3.0899686674,1.2641290173\H,0,-7.1860723897,1.6811323852,0.45882913
 97\H,0,-7.2807394405,-0.2105959352,-0.2048838086\\Version=ES64L-G16Rev
 A.03\State=1-A\HF=-2733.0019957\RMSD=4.798e-09\PG=C01 [X(C55H74N4O5)]\
 \@


 Until you make peace with who you are,
 you'll never be content with what you have.
                           -- Doris Mortman
 Job cpu time:       1 days  9 hours 44 minutes 15.4 seconds.
 Elapsed time:       0 days  8 hours 29 minutes 31.6 seconds.
 File lengths (MBytes):  RWF=   6378 Int=      0 D2E=      0 Chk=    163 Scr=      1
 Normal termination of Gaussian 16 at Wed Aug 14 09:57:50 2019.
